Generic title
51006
    1C5    HO5'    1   3.314   5.230   3.404  1.5484 -0.8304 -0.8215
    1C5     O5'    2   3.361   5.228   3.488  0.5171 -0.0795 -0.1970
    1C5     C5'    3   3.418   5.356   3.505 -0.3344  0.4629  0.2269
    1C5     H5'    4   3.364   5.440   3.462 -0.6629 -0.2949 -0.8700
    1C5    H5''    5   3.513   5.357   3.450 -1.3525 -3.3585 -1.9639
    1C5     C4'    6   3.444   5.384   3.653 -0.2034 -1.0696  0.0751
    1C5     H4'    7   3.481   5.485   3.667 -2.5806 -0.0856 -0.1840
    1C5     O4'    8   3.326   5.356   3.730 -0.3335 -0.1162 -0.6147
    1C5     C1'    9   3.359   5.314   3.863 -0.2826  0.6049  0.0462
    1C5     H1'   10   3.338   5.392   3.937 -0.0644  2.0767 -1.3890
    1C5      N1   11   3.295   5.181   3.902  0.5184  0.3350 -0.4262
    1C5      C6   12   3.244   5.094   3.813  0.1513 -0.1971 -0.2502
    1C5      H6   13   3.237   5.118   3.708 -1.0676 -0.8239 -0.3335
    1C5      C5   14   3.185   4.975   3.845 -0.2614  0.2215 -0.0910
    1C5      H5   15   3.143   4.904   3.776 -0.2834  0.3263 -0.1857
    1C5      C4   16   3.181   4.954   3.982 -0.3754  0.3561  0.4082
    1C5      N4   17   3.134   4.847   4.023 -0.7640  0.3042  0.7460
    1C5     H41   18   3.139   4.833   4.123  2.4650 -1.1349  0.5131
    1C5     H42   19   3.100   4.772   3.965 -1.2293  0.9965  0.1061
    1C5      N3   20   3.223   5.035   4.076  0.0078 -0.4730 -0.7206
    1C5      C2   21   3.287   5.145   4.035  0.7807  0.2483 -0.2103
    1C5      O2   22   3.350   5.214   4.117  0.0142 -0.1369 -0.2046
    1C5     C3'   23   3.546   5.282   3.705  0.6977  0.6638  1.1188
    1C5     H3'   24   3.528   5.180   3.672  1.0062  0.5210  1.3804
    1C5     C2'   25   3.510   5.289   3.853  0.2541  1.0532  0.5180
    1C5     H2'   26   3.550   5.196   3.892  1.4422  0.1863 -2.4805
    1C5     O2'   27   3.565   5.403   3.914  0.4340 -0.2861 -0.1491
    1C5    HO2'   28   3.637   5.380   3.973 -0.1677  0.2181  0.8035
    1C5     O3'   29   3.679   5.315   3.679 -0.2065  0.3396  0.5273
    2U        P   30   3.791   5.205   3.684  0.5241 -0.0784  0.1828
    2U      OP1   31   3.919   5.273   3.646  0.3563  0.1405 -0.4053
    2U      OP2   32   3.746   5.092   3.602  0.0142  0.0839 -0.5285
    2U      O5'   33   3.797   5.167   3.837  0.0487  0.4939  0.4604
    2U      C5'   34   3.866   5.253   3.927 -0.3346 -0.4274  0.7140
    2U      H5'   35   3.842   5.358   3.907  4.5804  0.3770 -2.7718
    2U     H5''   36   3.972   5.239   3.909 -0.4070  0.3994 -0.4465
    2U      C4'   37   3.851   5.221   4.073 -0.0666 -0.6069  0.0524
    2U      H4'   38   3.889   5.305   4.131 -2.0617  1.6163 -1.6486
    2U      O4'   39   3.717   5.202   4.118 -0.4965 -0.0754 -0.1029
    2U      C1'   40   3.703   5.096   4.213  0.7763 -0.0555 -0.4309
    2U      H1'   41   3.650   5.135   4.299 -1.0230 -3.0155 -0.0374
    2U       N1   42   3.628   4.974   4.162 -0.1666  0.2453 -1.3132
    2U       C6   43   3.600   4.959   4.031  0.5671 -0.9690 -1.0174
    2U       H6   44   3.647   5.025   3.960  0.3093 -0.6791 -0.9290
    2U       C5   45   3.521   4.859   3.986  0.2941 -0.0241  0.4675
    2U       H5   46   3.498   4.847   3.881  0.6230 -5.9333  0.7630
    2U       C4   47   3.454   4.766   4.074  0.8191 -0.2057  0.1704
    2U       O4   48   3.400   4.661   4.039  0.4253 -0.4501  0.6836
    2U       N3   49   3.484   4.784   4.203 -0.0721 -1.3834  0.3998
    2U       H3   50   3.462   4.712   4.270  0.1862 -1.6997  0.1514
    2U       C2   51   3.571   4.885   4.250 -0.0886 -0.1481 -0.7985
    2U       O2   52   3.590   4.880   4.373  0.1604  0.0913  0.3229
    2U      C3'   53   3.921   5.096   4.116  0.3821 -0.2501 -0.2021
    2U      H3'   54   3.892   5.025   4.039 -1.8104  1.2772 -0.8775
    2U      C2'   55   3.850   5.067   4.248 -0.4084 -0.5384 -0.0311
    2U      H2'   56   3.868   4.969   4.292  1.6489 -0.5358 -0.7697
    2U      O2'   57   3.885   5.163   4.343  0.3429 -0.6368 -0.1735
    2U     HO2'   58   3.872   5.121   4.428 -0.3950 -1.5658 -0.7326
    2U      O3'   59   4.058   5.104   4.129 -0.3290  0.0413  0.3938
    3G        P   60   4.154   4.977   4.125  0.4906  0.2773  0.3705
    3G      OP1   61   4.289   5.042   4.129  0.6189  0.1272  0.5560
    3G      OP2   62   4.120   4.889   4.014  0.0107  0.1780  0.3088
    3G      O5'   63   4.117   4.905   4.263  0.0988 -0.2664  0.3169
    3G      C5'   64   4.165   4.953   4.387  0.0100 -0.5324  0.8980
    3G      H5'   65   4.124   5.054   4.390  0.3759 -0.0402 -3.6375
    3G     H5''   66   4.273   4.949   4.396  0.1909 -0.0200 -0.6773
    3G      C4'   67   4.110   4.859   4.493  0.6048  0.1076  0.3680
    3G      H4'   68   4.134   4.894   4.594  2.0790 -0.2449  0.1569
    3G      O4'   69   3.970   4.840   4.478 -0.2284 -0.2998 -0.2013
    3G      C1'   70   3.932   4.716   4.527 -0.1182  0.3094 -0.2613
    3G      H1'   71   3.865   4.715   4.613 -1.0640 -2.5995 -0.9075
    3G       N9   72   3.853   4.646   4.421 -0.8367 -0.0288 -0.1094
    3G       C8   73   3.837   4.678   4.288 -0.5718 -0.6068  0.8677
    3G       H8   74   3.892   4.757   4.241 -0.5453 -1.9910 -1.6154
    3G       N7   75   3.746   4.610   4.228 -0.4791 -0.0971 -0.2305
    3G       C5   76   3.704   4.522   4.328 -0.6037 -0.3614  0.4357
    3G       C6   77   3.620   4.417   4.315 -0.0688 -0.6330  0.5982
    3G       O6   78   3.556   4.387   4.213  0.5923 -0.7197  0.1029
    3G       N1   79   3.612   4.332   4.428  0.5369  0.3146 -0.4408
    3G       H1   80   3.563   4.244   4.416  2.7676 -0.7992 -2.4349
    3G       C2   81   3.677   4.361   4.538  0.9950  0.2481  0.0089
    3G       N2   82   3.636   4.285   4.636 -0.3337 -0.1903 -0.1648
    3G      H21   83   3.567   4.214   4.617  0.2422 -0.5813 -0.7956
    3G      H22   84   3.669   4.300   4.731  0.5453 -2.7464  0.0105
    3G       N3   85   3.762   4.459   4.560  0.0207 -0.6088  0.5544
    3G       C4   86   3.776   4.536   4.450  0.5720 -0.5464  0.2318
    3G      C3'   87   4.164   4.721   4.471  0.2107  0.5058  0.3807
    3G      H3'   88   4.155   4.700   4.365 -1.0621 -0.2301  0.6226
    3G      C2'   89   4.062   4.643   4.549 -0.0096 -0.2641 -0.0145
    3G      H2'   90   4.054   4.541   4.511  1.2668 -0.2511 -0.3726
    3G      O2'   91   4.089   4.641   4.685  0.7145 -0.6399  0.3598
    3G     HO2'   92   4.042   4.567   4.724  0.6361 -0.9453 -0.3083
    3G      O3'   93   4.297   4.707   4.518  0.4652 -0.5021  0.0923
    4G        P   94   4.387   4.599   4.460 -0.3662 -0.0010  0.2670
    4G      OP1   95   4.533   4.622   4.496  0.1269 -0.4665 -0.2724
    4G      OP2   96   4.351   4.581   4.314 -0.2044 -0.5472 -0.0301
    4G      O5'   97   4.333   4.477   4.543 -0.5043  0.4804 -0.5231
    4G      C5'   98   4.328   4.343   4.487  0.1735  0.4940  0.4497
    4G      H5'   99   4.420   4.285   4.496 -0.1809 -0.0500  0.5986
    4G     H5''  100   4.292   4.340   4.384  1.2915 -0.7913  0.0581
    4G      C4'  101   4.229   4.258   4.561 -0.1049  0.1004 -0.6272
    4G      H4'  102   4.266   4.263   4.664 -2.7494 -1.8219  0.5229
    4G      O4'  103   4.100   4.314   4.580  0.3916  0.5478  0.7177
    4G      C1'  104   4.002   4.210   4.565  0.6011 -0.0496 -0.4857
    4G      H1'  105   3.912   4.212   4.627  0.2923 -1.6349 -0.8261
    4G       N9  106   3.954   4.209   4.422 -0.2705 -0.4574 -0.3625
    4G       C8  107   3.991   4.294   4.319 -0.0325 -0.5714  0.6268
    4G       H8  108   4.065   4.372   4.330 -0.8227  0.7928 -2.6499
    4G       N7  109   3.923   4.278   4.211  1.0855  0.0890  0.3690
    4G       C5  110   3.827   4.180   4.246 -0.6450 -0.5937 -0.5147
    4G       C6  111   3.724   4.122   4.167  0.6883 -0.2138 -0.0689
    4G       O6  112   3.697   4.140   4.047  0.5805 -0.0838 -0.3824
    4G       N1  113   3.656   4.023   4.241 -0.2378  0.1912  0.3433
    4G       H1  114   3.594   3.957   4.197 -0.9422  1.0137  0.0762
    4G       C2  115   3.692   3.981   4.362  0.0189  0.4244  0.1285
    4G       N2  116   3.629   3.875   4.411 -0.4338 -0.5838  0.5132
    4G      H21  117   3.544   3.838   4.373 -0.4640  0.4953 -0.5346
    4G      H22  118   3.634   3.853   4.510 -0.1365 -0.4002  0.5402
    4G       N3  119   3.782   4.033   4.439 -0.5642  0.3173 -0.5681
    4G       C4  120   3.846   4.136   4.378 -0.2708 -0.3819  0.0183
    4G      C3'  121   4.218   4.109   4.542 -0.3523 -0.2737  0.0030
    4G      H3'  122   4.222   4.091   4.435 -1.3531  3.1939 -0.7321
    4G      C2'  123   4.080   4.083   4.593  0.0686  0.2434  0.1645
    4G      H2'  124   4.031   3.995   4.550 -0.0860 -0.3306  1.4764
    4G      O2'  125   4.086   4.074   4.734 -0.1355  0.2354 -0.2773
    4G     HO2'  126   4.001   4.046   4.769  1.1222 -1.4472  1.6399
    4G      O3'  127   4.326   4.049   4.620 -0.1397  0.0321  0.6999
    5G        P  128   4.415   3.930   4.547  0.2092  0.0834  0.2589
    5G      OP1  129   4.518   3.887   4.639 -0.9022 -0.0404 -0.5781
    5G      OP2  130   4.452   3.968   4.408 -0.3166  0.2365 -0.3633
    5G      O5'  131   4.304   3.814   4.530 -1.0188  0.3998 -0.0527
    5G      C5'  132   4.229   3.759   4.639 -0.0883  0.8032 -0.5627
    5G      H5'  133   4.200   3.841   4.704 -0.7824  0.1974 -0.0945
    5G     H5''  134   4.295   3.688   4.690 -0.8665 -0.4770 -1.3027
    5G      C4'  135   4.104   3.679   4.599 -0.3130  0.3215  0.3174
    5G      H4'  136   4.054   3.635   4.685  0.6777  0.1625  0.8262
    5G      O4'  137   4.005   3.762   4.542 -0.1973  0.0021  0.6045
    5G      C1'  138   3.929   3.696   4.438 -0.1930 -0.1188 -0.4163
    5G      H1'  139   3.821   3.693   4.454 -0.2827 -3.9297 -0.7116
    5G       N9  140   3.946   3.761   4.308  0.4488 -0.3903  0.3575
    5G       C8  141   4.032   3.861   4.263 -0.6858 -0.3758 -1.1273
    5G       H8  142   4.113   3.898   4.324  1.0104 -1.9124 -2.3322
    5G       N7  143   4.006   3.906   4.141  0.0053 -0.2145 -0.0635
    5G       C5  144   3.896   3.828   4.102  0.3280 -0.0791 -0.9414
    5G       C6  145   3.820   3.822   3.981  0.2259  0.3903 -0.1208
    5G       O6  146   3.832   3.895   3.883  0.2079  0.1669  0.0326
    5G       N1  147   3.721   3.728   3.974 -0.4790  0.0632  0.6921
    5G       H1  148   3.657   3.721   3.896 -1.3319  0.3249  1.3463
    5G       C2  149   3.692   3.642   4.076  0.6706  0.5543  0.3036
    5G       N2  150   3.593   3.558   4.059  0.4838 -0.1932 -0.4352
    5G      H21  151   3.535   3.554   3.976  1.3732 -0.5688 -1.0612
    5G      H22  152   3.574   3.498   4.137  2.4013  0.9143  0.9524
    5G       N3  153   3.752   3.648   4.191  0.2907  0.0561 -0.3461
    5G       C4  154   3.856   3.739   4.203 -0.4364  0.2837  0.5237
    5G      C3'  155   4.129   3.572   4.494  0.1750  0.2255 -0.0920
    5G      H3'  156   4.202   3.600   4.418 -1.2975  0.5307 -1.4415
    5G      C2'  157   3.984   3.553   4.438  0.3919 -0.0811 -0.9611
    5G      H2'  158   3.985   3.508   4.338 -0.7398 -1.9356 -0.1925
    5G      O2'  159   3.920   3.456   4.523 -0.1018 -0.4449 -0.4683
    5G     HO2'  160   3.980   3.385   4.548 -0.5064 -1.1656 -1.4805
    5G      O3'  161   4.172   3.445   4.549  0.4188  0.2025  0.9881
    6U        P  162   4.277   3.349   4.470  0.0066  0.1919 -0.2165
    6U      OP1  163   4.410   3.340   4.537  0.0592 -0.1024 -0.2761
    6U      OP2  164   4.273   3.389   4.331 -0.4488  0.1264  0.4823
    6U      O5'  165   4.216   3.199   4.479 -0.2475 -0.0855 -0.7389
    6U      C5'  166   4.210   3.130   4.605  0.3621  0.1240  0.0995
    6U      H5'  167   4.197   3.198   4.689 -0.4324  2.2667 -1.6666
    6U     H5''  168   4.305   3.077   4.616  0.7797  0.2772 -2.1393
    6U      C4'  169   4.097   3.028   4.599  0.0372  0.6848 -0.3349
    6U      H4'  170   4.104   2.975   4.693 -1.5213 -0.4085 -0.7983
    6U      O4'  171   3.979   3.093   4.593  0.2330 -0.1921  0.3090
    6U      C1'  172   3.890   3.010   4.514  0.1979 -0.5394  0.0435
    6U      H1'  173   3.798   2.994   4.570  0.2142  0.2457  0.3037
    6U       N1  174   3.855   3.077   4.386  0.5821 -0.5521 -0.4628
    6U       C6  175   3.924   3.181   4.332  0.3988 -0.6117  0.0512
    6U       H6  176   4.004   3.229   4.387 -0.5337  0.8314  0.1928
    6U       C5  177   3.885   3.233   4.208  0.0370 -0.7916 -0.1181
    6U       H5  178   3.938   3.322   4.178 -2.0446  0.4769 -0.2164
    6U       C4  179   3.775   3.187   4.131  0.3436  0.1124 -0.3651
    6U       O4  180   3.740   3.220   4.016 -0.1242  0.0478  0.5354
    6U       N3  181   3.700   3.090   4.196  0.5686  0.1839 -0.0599
    6U       H3  182   3.622   3.054   4.144 -1.9295  0.0148  3.4802
    6U       C2  183   3.742   3.029   4.315  0.2572 -0.5947  1.0746
    6U       O2  184   3.677   2.933   4.356  0.5082  0.0089  0.7762
    6U      C3'  185   4.109   2.923   4.484  0.4313 -0.0917  0.7548
    6U      H3'  186   4.137   2.983   4.398  1.4793 -1.8044 -0.1581
    6U      C2'  187   3.961   2.877   4.486 -0.5548 -0.5941 -0.0605
    6U      H2'  188   3.941   2.827   4.392  1.0624 -3.3805  0.9652
    6U      O2'  189   3.942   2.787   4.593  0.1955 -0.2048 -0.1731
    6U     HO2'  190   3.856   2.745   4.598  0.5121 -0.6979  3.1279
    6U      O3'  191   4.201   2.824   4.514 -0.3627  0.1123 -0.3936
    7C        P  192   4.292   2.771   4.394  0.4100 -0.0547  0.0811
    7C      OP1  193   4.353   2.644   4.437  0.3169  0.4757 -0.3816
    7C      OP2  194   4.375   2.883   4.337  0.3441 -0.5213 -0.3149
    7C      O5'  195   4.195   2.729   4.275 -0.4016  0.4760 -0.0880
    7C      C5'  196   4.106   2.618   4.287 -0.3405 -0.1332 -0.1000
    7C      H5'  197   4.057   2.620   4.385  1.5669  1.5225  0.8906
    7C     H5''  198   4.163   2.525   4.280 -0.4578 -0.4164  2.0258
    7C      C4'  199   3.999   2.627   4.179 -0.3175 -0.3440 -0.0173
    7C      H4'  200   3.925   2.548   4.195 -2.2794  1.5762  0.8716
    7C      O4'  201   3.935   2.753   4.176 -0.0583 -1.0093  0.2822
    7C      C1'  202   3.910   2.801   4.041  0.0489 -0.1161 -0.2130
    7C      H1'  203   3.802   2.808   4.032 -0.1608 -2.9494 -0.7207
    7C       N1  204   3.980   2.925   3.999 -0.1342  0.4027 -0.4987
    7C       C6  205   4.095   2.966   4.074  0.0189  0.1510  0.8652
    7C       H6  206   4.115   2.918   4.169  1.7937  2.0147  1.5152
    7C       C5  207   4.160   3.075   4.028  0.0769  0.3209  0.4151
    7C       H5  208   4.250   3.097   4.083  0.6912 -1.8137  0.3580
    7C       C4  209   4.105   3.143   3.914 -0.0200  0.7263 -0.9955
    7C       N4  210   4.165   3.244   3.868 -0.3632  0.1073  0.1365
    7C      H41  211   4.124   3.291   3.789  2.1059 -0.5317 -1.6539
    7C      H42  212   4.264   3.255   3.888  0.0214 -0.3402 -1.3377
    7C       N3  213   3.990   3.111   3.855 -0.0408 -0.3553  0.3323
    7C       C2  214   3.925   3.002   3.899  0.2186 -0.4267 -0.0212
    7C       O2  215   3.826   2.968   3.847  0.0724  0.3005 -0.5325
    7C      C3'  216   4.057   2.623   4.035 -0.5252 -0.0083 -0.1003
    7C      H3'  217   4.155   2.670   4.031 -0.1409 -0.6174  1.6014
    7C      C2'  218   3.955   2.696   3.943 -0.2040  0.4433  0.0527
    7C      H2'  219   4.005   2.743   3.858  1.4886  0.4687  1.0091
    7C      O2'  220   3.841   2.615   3.901 -0.2615 -0.5238  0.0320
    7C     HO2'  221   3.759   2.664   3.908  0.0197 -0.0886  0.2911
    7C      O3'  222   4.070   2.488   3.998  0.5149 -0.2477 -0.3113
    8G        P  223   4.215   2.430   3.963 -0.0763  0.1124  0.2658
    8G      OP1  224   4.185   2.331   3.857 -0.2427  0.4708  0.4248
    8G      OP2  225   4.293   2.393   4.088  0.0580  0.0810  0.6674
    8G      O5'  226   4.299   2.551   3.897 -0.3324 -0.4968 -0.0393
    8G      C5'  227   4.353   2.550   3.769  0.4733 -0.5589 -0.5805
    8G      H5'  228   4.420   2.464   3.766 -0.2872 -1.3067  1.6660
    8G     H5''  229   4.409   2.643   3.765 -2.2198  1.1235 -2.4857
    8G      C4'  230   4.250   2.553   3.650 -0.3232 -0.5920  0.0121
    8G      H4'  231   4.193   2.460   3.649 -0.5139 -0.5142  1.3721
    8G      O4'  232   4.152   2.659   3.654 -0.5097 -0.1346 -0.5946
    8G      C1'  233   4.199   2.767   3.573  0.2748  0.7820 -0.0566
    8G      H1'  234   4.124   2.819   3.513  1.3399  0.6894 -1.5400
    8G       N9  235   4.259   2.869   3.667 -0.4051 -0.1529  0.4951
    8G       C8  236   4.287   2.861   3.798 -0.0909 -0.3037 -0.5732
    8G       H8  237   4.260   2.778   3.861  2.2857  0.0381  1.0238
    8G       N7  238   4.356   2.962   3.845 -0.0028 -0.5665  0.3250
    8G       C5  239   4.373   3.040   3.728 -0.0377 -0.5429 -0.0690
    8G       C6  240   4.447   3.164   3.714 -0.4126  0.8564  0.3814
    8G       O6  241   4.513   3.228   3.793  0.5021  0.0891  0.1752
    8G       N1  242   4.432   3.215   3.591  0.2838  0.4328  0.3744
    8G       H1  243   4.481   3.302   3.576  0.9911  0.3381  1.9522
    8G       C2  244   4.353   3.161   3.493 -0.0261  0.4628  0.2361
    8G       N2  245   4.341   3.233   3.382  0.6599 -0.0901  0.6288
    8G      H21  246   4.366   3.330   3.385 -1.7388  0.5684  1.9738
    8G      H22  247   4.262   3.206   3.325  0.5060 -0.5842  1.0639
    8G       N3  248   4.280   3.045   3.499 -0.2476  0.4938 -0.4376
    8G       C4  249   4.300   2.988   3.619 -0.5466 -0.1173  0.2247
    8G      C3'  250   4.333   2.569   3.521  0.7327 -0.3295 -0.4028
    8G      H3'  251   4.435   2.585   3.555  0.0676 -0.0851  1.6103
    8G      C2'  252   4.292   2.713   3.469  0.4363  0.3341  0.1989
    8G      H2'  253   4.377   2.778   3.450  0.1885  0.2933 -1.1830
    8G      O2'  254   4.214   2.699   3.350  0.4076 -0.7768  0.4317
    8G     HO2'  255   4.252   2.767   3.294  1.3683 -1.5134  0.1691
    8G      O3'  256   4.324   2.461   3.433 -0.2077 -0.1198  0.0105
    9C        P  257   4.450   2.362   3.437 -0.0926  0.3884 -0.2284
    9C      OP1  258   4.428   2.250   3.343 -0.0805 -0.5262  0.3150
    9C      OP2  259   4.482   2.322   3.576 -0.1085  0.0436  0.1862
    9C      O5'  260   4.562   2.459   3.377  0.1175  0.1997 -0.0623
    9C      C5'  261   4.682   2.476   3.437 -0.3720 -0.2219  0.5916
    9C      H5'  262   4.730   2.379   3.448  2.3717  1.0395  0.5110
    9C     H5''  263   4.670   2.521   3.535 -0.2330  0.4389  0.3057
    9C      C4'  264   4.781   2.562   3.358  0.3986 -0.7017 -0.3719
    9C      H4'  265   4.881   2.559   3.400  0.4058  2.1381  0.0146
    9C      O4'  266   4.808   2.525   3.224 -0.7643 -0.5247  0.4902
    9C      C1'  267   4.797   2.640   3.134  0.3580 -0.0120  0.0666
    9C      H1'  268   4.869   2.641   3.053  2.5344  0.3781  1.9165
    9C       N1  269   4.667   2.647   3.067 -0.0069  0.0659 -0.5170
    9C       C6  270   4.565   2.556   3.091 -0.5689 -0.7164  0.4846
    9C       H6  271   4.592   2.473   3.154 -0.0993 -0.1683  1.0269
    9C       C5  272   4.451   2.568   3.024 -0.1256  0.0551 -0.6098
    9C       H5  273   4.372   2.496   3.039  0.8365 -1.0333 -0.6063
    9C       C4  274   4.446   2.678   2.932  0.0812  0.4199  0.5904
    9C       N4  275   4.336   2.686   2.859 -0.6924 -0.5720 -0.1181
    9C      H41  276   4.340   2.759   2.789  0.8127  1.5070  1.9762
    9C      H42  277   4.263   2.621   2.884 -1.7207  0.3566 -0.5826
    9C       N3  278   4.538   2.767   2.907 -0.7648 -0.2772 -0.6040
    9C       C2  279   4.654   2.745   2.971 -0.6765  0.1085 -0.1430
    9C       O2  280   4.749   2.816   2.943 -0.2905 -0.4283 -0.0272
    9C      C3'  281   4.739   2.711   3.354 -0.2778 -0.1073 -0.8516
    9C      H3'  282   4.631   2.721   3.340 -0.1531 -0.5679 -2.3141
    9C      C2'  283   4.813   2.758   3.229 -0.1310 -0.1928  0.5755
    9C      H2'  284   4.760   2.849   3.200  1.2502  1.1558  2.1323
    9C      O2'  285   4.952   2.781   3.244  0.9755 -0.1242  0.0411
    9C     HO2'  286   4.979   2.864   3.203 -2.2647  2.0764  1.9083
    9C      O3'  287   4.802   2.775   3.464  0.4680  0.8729  0.0253
   10A        P  288   4.725   2.881   3.546  0.0644 -0.0315 -0.0154
   10A      OP1  289   4.829   2.937   3.636  0.1263 -0.3338 -0.7902
   10A      OP2  290   4.609   2.809   3.603 -0.5559  0.0627 -0.1891
   10A      O5'  291   4.688   2.996   3.448  0.1032  0.5316  0.4527
   10A      C5'  292   4.787   3.077   3.379  0.8168  0.0543 -0.0501
   10A      H5'  293   4.874   3.012   3.367 -0.0441 -1.5400  1.7533
   10A     H5''  294   4.825   3.147   3.453  1.2241  1.0197 -1.1543
   10A      C4'  295   4.741   3.154   3.253  0.0232  0.4208  0.4017
   10A      H4'  296   4.829   3.207   3.217  0.3540 -0.4554 -0.1331
   10A      O4'  297   4.688   3.068   3.151 -0.5840 -0.0316 -0.0314
   10A      C1'  298   4.583   3.133   3.085 -0.3247  0.4454 -0.2790
   10A      H1'  299   4.597   3.135   2.976 -2.7446 -3.0303 -0.8086
   10A       N9  300   4.473   3.038   3.105 -0.0788 -0.4711  0.3630
   10A       C8  301   4.454   2.942   3.201 -0.2998 -1.2089  0.7406
   10A       H8  302   4.525   2.925   3.280  1.2491  0.9736 -0.0829
   10A       N7  303   4.337   2.885   3.192  0.3481 -0.0398 -0.1083
   10A       C5  304   4.282   2.937   3.076  0.2998  0.0260  0.1023
   10A       C6  305   4.166   2.915   2.995 -0.5625 -0.1060  0.2523
   10A       N6  306   4.071   2.827   3.020 -0.0573 -0.2110 -0.4328
   10A      H61  307   3.975   2.847   2.994  0.6433  1.5518 -1.8947
   10A      H62  308   4.083   2.774   3.105  0.3845  0.6835  0.0692
   10A       N1  309   4.139   2.984   2.887 -0.3659  0.6397  0.6872
   10A       C2  310   4.228   3.070   2.839 -0.7060 -0.0354 -0.4689
   10A       H2  311   4.206   3.129   2.752  0.9072  1.7189  0.2330
   10A       N3  312   4.340   3.104   2.905 -0.5278 -0.4374  0.4083
   10A       C4  313   4.366   3.030   3.017  0.0018 -0.2228 -0.5890
   10A      C3'  314   4.631   3.265   3.281 -0.4739  0.1808  0.7825
   10A      H3'  315   4.563   3.229   3.358 -2.6282 -0.3452 -1.2731
   10A      C2'  316   4.567   3.274   3.141 -0.6835 -0.5833  0.3994
   10A      H2'  317   4.463   3.303   3.154 -1.2469 -2.7704  1.0962
   10A      O2'  318   4.636   3.371   3.055 -0.5302  0.2887  0.4415
   10A     HO2'  319   4.674   3.428   3.122  2.1714 -0.9686  0.1249
   10A      O3'  320   4.706   3.383   3.318 -0.3908 -0.2872 -0.1746
   11G        P  321   4.672   3.470   3.447  0.5646  0.4080 -0.1256
   11G      OP1  322   4.770   3.582   3.461  0.0798  0.1266 -0.1910
   11G      OP2  323   4.658   3.380   3.564  0.1454 -0.1034 -0.7122
   11G      O5'  324   4.525   3.526   3.408 -0.9244  0.2749 -0.4657
   11G      C5'  325   4.515   3.616   3.295 -0.6752 -0.4180 -1.0466
   11G      H5'  326   4.532   3.565   3.200  0.7681 -0.1797 -0.9378
   11G     H5''  327   4.601   3.683   3.298  0.3462 -1.7054  0.3690
   11G      C4'  328   4.390   3.708   3.292 -1.3019  0.1553  0.2748
   11G      H4'  329   4.405   3.769   3.203  3.6127 -0.4672  0.3778
   11G      O4'  330   4.274   3.622   3.266 -0.5665 -0.3713 -0.0735
   11G      C1'  331   4.182   3.668   3.362  0.1248  0.3204  0.1500
   11G      H1'  332   4.088   3.689   3.311  0.5488 -0.1615 -0.8628
   11G       N9  333   4.148   3.553   3.446 -0.3415  0.0510 -0.4378
   11G       C8  334   4.207   3.508   3.567  0.1349  0.0269  0.6567
   11G       H8  335   4.300   3.544   3.608 -0.0835 -2.3858  3.5729
   11G       N7  336   4.156   3.396   3.612 -0.3826  0.3315  0.1520
   11G       C5  337   4.052   3.375   3.522  1.0203 -0.2626 -0.1676
   11G       C6  338   3.950   3.269   3.516  1.0225 -0.5036  0.2845
   11G       O6  339   3.946   3.166   3.581  0.1569  0.6275 -0.5402
   11G       N1  340   3.854   3.287   3.418 -0.6890 -0.5177  0.3399
   11G       H1  341   3.774   3.226   3.418 -0.8880 -0.2692 -0.1674
   11G       C2  342   3.860   3.386   3.325 -0.5145 -0.0386 -0.3564
   11G       N2  343   3.758   3.398   3.242  0.0117 -0.4716  0.1195
   11G      H21  344   3.681   3.334   3.252  1.1529 -1.8569  0.3946
   11G      H22  345   3.762   3.471   3.173 -0.0294 -0.1617  0.4454
   11G       N3  346   3.948   3.481   3.323 -1.0499 -0.3560  0.3380
   11G       C4  347   4.043   3.471   3.423  0.3817 -0.6856 -0.5306
   11G      C3'  348   4.378   3.781   3.420 -0.5897 -0.4246  0.2319
   11G      H3'  349   4.418   3.723   3.503 -0.8286 -1.8018 -0.6011
   11G      C2'  350   4.230   3.789   3.431  0.2775 -0.0002  0.7029
   11G      H2'  351   4.198   3.795   3.535 -0.6366 -0.5404  0.4599
   11G      O2'  352   4.163   3.894   3.360  0.2815  0.3280  0.1013
   11G     HO2'  353   4.146   3.971   3.416 -1.7538  0.0967 -0.1109
   11G      O3'  354   4.418   3.920   3.425 -0.1692 -0.3446  0.5372
   12U        P  355   4.551   3.977   3.366 -0.0553 -0.2611  0.1141
   12U      OP1  356   4.564   3.952   3.215 -0.3298  0.1180  0.0597
   12U      OP2  357   4.665   3.923   3.444  0.3622  0.2728 -0.7353
   12U      O5'  358   4.542   4.128   3.396  0.1826 -0.1733  0.2576
   12U      C5'  359   4.425   4.211   3.384 -0.1022 -0.4639  0.2064
   12U      H5'  360   4.408   4.272   3.473 -0.6283  0.8216 -0.7390
   12U     H5''  361   4.335   4.150   3.379  0.1293 -0.7784 -0.1567
   12U      C4'  362   4.423   4.318   3.273 -0.4264 -0.6210  0.1270
   12U      H4'  363   4.355   4.397   3.306  1.4303  0.8436  0.5861
   12U      O4'  364   4.549   4.387   3.267 -0.3196 -1.0471  0.7804
   12U      C1'  365   4.573   4.423   3.133  0.4269 -0.7021 -0.2367
   12U      H1'  366   4.547   4.528   3.120  0.8647 -0.5242  0.2841
   12U       N1  367   4.711   4.386   3.098  0.3830  0.0083  0.8560
   12U       C6  368   4.769   4.270   3.144 -0.1222 -0.0477 -0.5887
   12U       H6  369   4.721   4.199   3.209 -0.9973  0.8604 -0.2120
   12U       C5  370   4.898   4.241   3.105 -0.0346  0.2327  0.0170
   12U       H5  371   4.949   4.153   3.142 -0.1972 -0.9442 -2.3906
   12U       C4  372   4.976   4.317   3.021 -0.4401  0.4842 -0.2741
   12U       O4  373   5.087   4.282   2.989  0.0363 -0.5968  0.1773
   12U       N3  374   4.914   4.424   2.966  0.2540  0.5179  0.1220
   12U       H3  375   4.971   4.486   2.910  3.1611 -1.9066  0.1614
   12U       C2  376   4.783   4.463   3.003  0.3439  0.1766 -0.0190
   12U       O2  377   4.728   4.557   2.947 -0.4096  0.2842  0.4245
   12U      C3'  378   4.389   4.263   3.131 -0.0949 -0.7209  0.5097
   12U      H3'  379   4.427   4.161   3.125  1.2280 -0.2568  0.6239
   12U      C2'  380   4.474   4.353   3.041 -0.1219  0.1307  0.1184
   12U      H2'  381   4.506   4.281   2.966 -2.5316  1.7038 -2.6452
   12U      O2'  382   4.401   4.446   2.970  0.3035  0.2673  0.1382
   12U     HO2'  383   4.325   4.463   3.026 -0.8684 -3.2382 -0.1685
   12U      O3'  384   4.249   4.259   3.096  1.1721 -0.3786 -0.6425
   13A        P  385   4.148   4.383   3.143 -0.1153 -0.2709  0.1221
   13A      OP1  386   4.219   4.510   3.158  0.0979 -0.0893 -0.2056
   13A      OP2  387   4.065   4.342   3.253  0.3709 -0.2081 -0.1191
   13A      O5'  388   4.051   4.403   3.023 -0.2575  0.0098  0.2060
   13A      C5'  389   4.081   4.470   2.903  0.1599 -0.3353  0.2093
   13A      H5'  390   4.185   4.501   2.895  0.0223  0.0684 -0.0296
   13A     H5''  391   4.024   4.563   2.904  0.8798  0.1635  2.5910
   13A      C4'  392   4.055   4.381   2.783  1.0637 -0.3764 -0.9318
   13A      H4'  393   4.054   4.450   2.698 -0.5319  1.3515  0.3927
   13A      O4'  394   4.141   4.273   2.772 -0.0922 -0.3721 -0.2080
   13A      C1'  395   4.072   4.173   2.700  0.7210  0.6201  0.2430
   13A      H1'  396   4.116   4.172   2.600 -0.8142  1.2867 -0.4753
   13A       N9  397   4.096   4.034   2.759 -0.5596 -0.2752  0.6027
   13A       C8  398   4.190   3.997   2.850  0.1241  0.5658  0.0586
   13A       H8  399   4.253   4.074   2.893 -1.9017  0.7694  2.9674
   13A       N7  400   4.202   3.868   2.875  0.0377 -0.9211 -0.0320
   13A       C5  401   4.095   3.822   2.796 -0.4124  0.3631 -0.6722
   13A       C6  402   4.040   3.692   2.773  0.1976  0.7981  0.4714
   13A       N6  403   4.081   3.590   2.843  0.2950 -0.0388 -0.0592
   13A      H61  404   4.035   3.506   2.810 -1.1818  0.4285  0.7151
   13A      H62  405   4.160   3.597   2.906 -0.5554 -1.2527  1.2136
   13A       N1  406   3.948   3.651   2.682  0.1513  0.1291  0.0068
   13A       C2  407   3.894   3.760   2.616  0.3584 -0.0034  0.1204
   13A       H2  408   3.815   3.738   2.546 -0.2760 -2.6056  1.5188
   13A       N3  409   3.937   3.890   2.624 -0.2063  0.1147  0.1436
   13A       C4  410   4.040   3.916   2.717  0.0191 -0.0660  0.7193
   13A      C3'  411   3.919   4.323   2.788  0.0548  0.0149  0.1413
   13A      H3'  412   3.905   4.279   2.887  1.6879 -0.3221  0.2505
   13A      C2'  413   3.931   4.218   2.681 -0.2085 -0.0719  0.0612
   13A      H2'  414   3.863   4.133   2.694 -0.6882  0.4704  1.2947
   13A      O2'  415   3.906   4.292   2.565 -0.5758 -0.0321  0.1361
   13A     HO2'  416   3.841   4.236   2.521 -1.1199 -2.3156  3.4430
   13A      O3'  417   3.822   4.426   2.766  0.0590 -0.2766  0.4093
   14A        P  418   3.712   4.455   2.869 -0.1048  0.1254  0.3180
   14A      OP1  419   3.656   4.586   2.833  0.1298  0.1416  0.7136
   14A      OP2  420   3.752   4.433   3.003  0.2361 -0.6097 -0.8046
   14A      O5'  421   3.601   4.344   2.837 -0.6360  0.2565  0.0951
   14A      C5'  422   3.538   4.340   2.717  0.7364 -0.2180  0.0209
   14A      H5'  423   3.604   4.372   2.636 -1.8739 -0.1810 -2.2407
   14A     H5''  424   3.441   4.389   2.716  2.1686  3.0431  2.3525
   14A      C4'  425   3.513   4.190   2.689 -0.1828  0.4424 -0.2642
   14A      H4'  426   3.459   4.194   2.595  0.3805  0.5924 -0.5836
   14A      O4'  427   3.625   4.104   2.668  0.0031 -0.1285  0.3557
   14A      C1'  428   3.588   3.974   2.712  0.7436 -0.3396  0.3390
   14A      H1'  429   3.598   3.897   2.636 -1.5698  0.7206 -1.1444
   14A       N9  430   3.683   3.943   2.823  0.0345 -0.3158  0.5731
   14A       C8  431   3.767   4.028   2.889  0.0418  0.2591 -0.0175
   14A       H8  432   3.763   4.133   2.865 -0.4593  0.2224 -0.0961
   14A       N7  433   3.846   3.967   2.976  0.0328  0.3193 -0.8395
   14A       C5  434   3.809   3.834   2.967  0.3976  0.0817  0.3213
   14A       C6  435   3.850   3.719   3.036  0.3471  0.4828 -0.1167
   14A       N6  436   3.931   3.713   3.140 -0.0612 -0.3505  0.1232
   14A      H61  437   3.921   3.633   3.201 -1.0006  0.1676  0.6746
   14A      H62  438   3.981   3.799   3.155 -0.6614  0.1121 -0.4751
   14A       N1  439   3.780   3.603   3.017 -0.9621 -0.8468  0.1973
   14A       C2  440   3.682   3.599   2.929 -0.2138  0.0171 -0.3777
   14A       H2  441   3.624   3.508   2.925 -1.8585  1.0054 -0.2972
   14A       N3  442   3.637   3.695   2.844 -0.3520 -0.1756  0.2454
   14A       C4  443   3.704   3.814   2.876  0.0667 -1.0694 -0.0446
   14A      C3'  444   3.428   4.126   2.790 -1.2141  0.2800  0.5865
   14A      H3'  445   3.470   4.143   2.889 -0.1127  1.4582 -0.0515
   14A      C2'  446   3.448   3.981   2.756 -0.6416  0.1817  0.1166
   14A      H2'  447   3.441   3.918   2.845 -0.8661 -1.5535 -1.0612
   14A      O2'  448   3.361   3.926   2.654 -0.3688 -0.4492 -0.3577
   14A     HO2'  449   3.371   3.831   2.654  1.6132 -0.2761  0.0235
   14A      O3'  450   3.300   4.175   2.788  0.1788 -0.4009  0.7717
   15C        P  451   3.222   4.192   2.934 -0.1128 -0.3017 -0.0410
   15C      OP1  452   3.090   4.250   2.912 -0.1771 -0.0047  0.6419
   15C      OP2  453   3.315   4.264   3.025  0.0668  0.8348  0.6324
   15C      O5'  454   3.213   4.047   2.986  0.1662 -0.4780  0.0426
   15C      C5'  455   3.138   3.950   2.918 -0.4614  0.1259  0.2910
   15C      H5'  456   3.178   3.922   2.820 -1.4336 -0.8711  0.1591
   15C     H5''  457   3.032   3.975   2.909 -0.3499  1.5761  2.2625
   15C      C4'  458   3.154   3.816   2.991  0.2460 -0.3367 -0.5380
   15C      H4'  459   3.077   3.749   2.953  1.0150 -2.0393  0.7608
   15C      O4'  460   3.285   3.763   2.971  0.0764 -0.4291  0.2064
   15C      C1'  461   3.332   3.703   3.094 -0.1005 -0.8930  0.8675
   15C      H1'  462   3.379   3.607   3.077  3.0842  0.3080  2.0742
   15C       N1  463   3.443   3.780   3.160 -0.6817  0.0737  0.6986
   15C       C6  464   3.480   3.911   3.128 -0.0117 -0.2329  0.0773
   15C       H6  465   3.416   3.960   3.055  2.0899  0.2963 -1.5051
   15C       C5  466   3.583   3.968   3.191 -0.0215 -0.0128  0.6410
   15C       H5  467   3.605   4.069   3.158 -0.1564  0.4114  1.7959
   15C       C4  468   3.652   3.891   3.289 -0.4580 -0.1862 -0.3040
   15C       N4  469   3.762   3.940   3.337 -0.3378 -0.9031  0.1044
   15C      H41  470   3.814   3.877   3.397  1.5792  2.2897  2.1298
   15C      H42  471   3.801   4.025   3.300 -0.4923 -0.8173  0.1401
   15C       N3  472   3.616   3.774   3.328 -0.1122  0.0052  0.4068
   15C       C2  473   3.521   3.710   3.254  0.0995  0.3126  0.2048
   15C       O2  474   3.497   3.592   3.274  0.0881 -0.1006  0.2421
   15C      C3'  475   3.135   3.823   3.143  0.1034 -1.0999  0.1368
   15C      H3'  476   3.193   3.909   3.177  0.1642 -0.8279 -0.6434
   15C      C2'  477   3.208   3.694   3.187 -0.3768 -0.8136 -0.1353
   15C      H2'  478   3.238   3.699   3.292 -1.2411  0.4069  0.0731
   15C      O2'  479   3.139   3.571   3.157 -0.5016 -0.0877  0.0303
   15C     HO2'  480   3.192   3.501   3.196 -1.6104 -0.7172  0.4543
   15C      O3'  481   2.997   3.836   3.181 -0.3754  0.5130  0.0049
   16C        P  482   2.954   3.894   3.322 -0.0947  0.1056  0.4131
   16C      OP1  483   2.807   3.892   3.334  0.3217  0.8514  0.6482
   16C      OP2  484   3.021   4.020   3.345 -0.7437 -0.0194 -0.0560
   16C      O5'  485   3.019   3.780   3.421  0.0366 -0.4120 -0.4311
   16C      C5'  486   2.953   3.651   3.426  0.0543 -0.0488  0.2739
   16C      H5'  487   2.965   3.605   3.328  2.0932 -0.3050  0.6009
   16C     H5''  488   2.850   3.653   3.462 -0.3420 -1.2241 -0.7273
   16C      C4'  489   3.029   3.560   3.523  0.3829 -0.2750 -0.4668
   16C      H4'  490   2.992   3.457   3.525  2.4166 -1.0357  0.2328
   16C      O4'  491   3.167   3.555   3.496 -0.1323  0.6203  0.3642
   16C      C1'  492   3.238   3.531   3.621 -0.0184 -0.0547  0.4809
   16C      H1'  493   3.292   3.436   3.624 -2.5626 -1.6894 -1.6111
   16C       N1  494   3.341   3.646   3.633 -0.5317 -0.7626 -0.8357
   16C       C6  495   3.345   3.757   3.545  0.4999 -0.1745 -0.2717
   16C       H6  496   3.272   3.776   3.468  1.5511  2.2108 -0.7870
   16C       C5  497   3.428   3.858   3.571  0.2005  0.1889  0.2360
   16C       H5  498   3.418   3.945   3.507  0.9150 -0.6612 -1.0902
   16C       C4  499   3.523   3.846   3.674 -0.4250  0.6173 -0.2269
   16C       N4  500   3.615   3.932   3.690 -0.2144  0.0812  0.1276
   16C      H41  501   3.680   3.918   3.767  0.0455  1.6630  0.2311
   16C      H42  502   3.607   4.016   3.635 -0.4730 -0.7014 -1.0667
   16C       N3  503   3.524   3.740   3.756 -0.4239 -0.9334 -0.4536
   16C       C2  504   3.428   3.646   3.745  0.0371  0.1600  0.9449
   16C       O2  505   3.420   3.557   3.828 -0.1721  0.1089  0.1936
   16C      C3'  506   3.015   3.611   3.667 -0.1033 -0.2142  0.2532
   16C      H3'  507   3.043   3.716   3.673 -3.0314  0.6481  0.2893
   16C      C2'  508   3.125   3.534   3.729  0.1348  0.1501 -0.0019
   16C      H2'  509   3.151   3.578   3.826 -0.1677  0.5094 -0.0811
   16C      O2'  510   3.090   3.394   3.743 -0.3039  0.3131 -0.0930
   16C     HO2'  511   3.163   3.347   3.783 -0.7301 -0.3104 -0.0259
   16C      O3'  512   2.885   3.587   3.717  0.0158 -0.5273  0.4700
   17C        P  513   2.823   3.688   3.821 -0.2358 -0.0992 -0.1897
   17C      OP1  514   2.677   3.655   3.832 -0.1795 -0.1935  0.0982
   17C      OP2  515   2.863   3.826   3.789 -0.4161 -0.0609  0.6170
   17C      O5'  516   2.898   3.642   3.950  0.3051  0.1692 -0.5567
   17C      C5'  517   2.881   3.517   4.020 -0.0368 -0.2369  0.3756
   17C      H5'  518   2.900   3.435   3.951 -1.3966 -0.9223  0.7816
   17C     H5''  519   2.779   3.511   4.057  0.2783 -0.0468  1.3103
   17C      C4'  520   2.984   3.509   4.132 -0.3753 -0.5648 -0.5105
   17C      H4'  521   2.970   3.420   4.193 -0.1991  0.5074  1.1575
   17C      O4'  522   3.120   3.529   4.083  0.0776  0.4872 -0.3233
   17C      C1'  523   3.193   3.602   4.176 -0.0944  0.2224 -0.8343
   17C      H1'  524   3.273   3.537   4.212 -0.8278  0.1899  0.7796
   17C       N1  525   3.239   3.733   4.129  0.2815 -0.3378  0.7065
   17C       C6  526   3.187   3.791   4.014 -0.2924  0.0146  0.0708
   17C       H6  527   3.100   3.756   3.959 -0.3773 -0.4440  0.4970
   17C       C5  528   3.269   3.879   3.954  0.7281 -0.3072  0.3838
   17C       H5  529   3.255   3.912   3.852 -1.1446  0.9680  1.0095
   17C       C4  530   3.390   3.923   4.013  1.0330  0.4153 -0.5020
   17C       N4  531   3.452   4.029   3.961  0.4812 -0.1216 -0.1038
   17C      H41  532   3.534   4.066   4.005  1.1631 -1.4901 -0.1732
   17C      H42  533   3.417   4.078   3.879  4.8283  0.6230 -1.7619
   17C       N3  534   3.432   3.877   4.128 -0.2006 -0.2907 -0.7115
   17C       C2  535   3.361   3.775   4.186 -0.6422  0.5109 -0.1648
   17C       O2  536   3.376   3.757   4.306  0.4200 -0.4689  0.1710
   17C      C3'  537   2.962   3.625   4.228 -0.3906 -0.0328  0.2578
   17C      H3'  538   2.942   3.715   4.169  1.2384  0.2394  0.0644
   17C      C2'  539   3.099   3.629   4.294  0.1780 -0.6231 -0.4227
   17C      H2'  540   3.115   3.726   4.342 -2.9226 -0.0851 -0.2613
   17C      O2'  541   3.103   3.525   4.390 -0.3945  0.3894 -0.1349
   17C     HO2'  542   3.171   3.542   4.456  0.8944 -0.0561 -1.3101
   17C      O3'  543   2.856   3.614   4.315  0.4573 -0.1444 -0.1651
   18C        P  544   2.805   3.739   4.388 -0.3328  0.0294  0.1564
   18C      OP1  545   2.681   3.686   4.457 -0.6034 -0.4761  0.4403
   18C      OP2  546   2.800   3.855   4.295  0.3526 -0.2297 -0.4335
   18C      O5'  547   2.917   3.777   4.493 -0.0768 -0.1636  0.3213
   18C      C5'  548   2.932   3.699   4.607 -0.0795 -0.3577 -0.2614
   18C      H5'  549   2.944   3.592   4.587  2.0199 -0.0269 -1.0405
   18C     H5''  550   2.845   3.717   4.670 -0.4256 -0.9710 -0.5549
   18C      C4'  551   3.049   3.758   4.681 -0.9318 -0.3519 -0.0766
   18C      H4'  552   3.076   3.697   4.767  0.9759  1.5357  0.7693
   18C      O4'  553   3.170   3.761   4.599 -0.1966 -0.5008  0.3968
   18C      C1'  554   3.250   3.875   4.637  0.5655  0.2404  0.0472
   18C      H1'  555   3.352   3.847   4.662  0.4513 -0.7634 -0.5374
   18C       N1  556   3.270   3.968   4.522 -0.0222  0.7130  0.4571
   18C       C6  557   3.182   3.967   4.422  0.0701 -0.4978  0.0558
   18C       H6  558   3.095   3.904   4.426  0.5014 -1.2971 -1.9658
   18C       C5  559   3.200   4.050   4.309 -0.1060  0.2583  0.3512
   18C       H5  560   3.124   4.033   4.235  0.0258 -2.4890  0.7471
   18C       C4  561   3.318   4.126   4.310 -0.5716 -0.2439  0.1854
   18C       N4  562   3.346   4.198   4.201  0.6042 -0.1314 -0.6871
   18C      H41  563   3.414   4.272   4.187  0.4284  0.5689  1.7209
   18C      H42  564   3.274   4.184   4.131  2.3906 -2.7201 -2.2043
   18C       N3  565   3.403   4.129   4.409 -0.5777 -0.2061 -0.0408
   18C       C2  566   3.384   4.056   4.517 -0.2040  0.7265 -0.1369
   18C       O2  567   3.470   4.057   4.607 -0.1599 -0.1144 -0.0929
   18C      C3'  568   3.038   3.904   4.726 -0.2114  0.5060  0.3985
   18C      H3'  569   3.003   3.961   4.639  0.9181 -0.9664 -1.0905
   18C      C2'  570   3.187   3.944   4.757  0.4101 -0.8616 -0.0450
   18C      H2'  571   3.194   4.052   4.752 -1.1549 -0.7081  0.4772
   18C      O2'  572   3.235   3.888   4.877  0.0952  0.3784  0.0499
   18C     HO2'  573   3.270   3.948   4.943  1.9313 -0.6699  0.1042
   18C      O3'  574   2.955   3.923   4.837 -0.1110  0.1003 -0.0787
   19A        P  575   2.879   4.061   4.855  0.0041 -0.0656 -0.1079
   19A      OP1  576   2.786   4.040   4.973 -0.6924 -0.3543 -0.1447
   19A      OP2  577   2.813   4.086   4.726 -0.0216  0.3916  0.3991
   19A      O5'  578   2.978   4.185   4.884  0.2713  0.4621 -0.1500
   19A      C5'  579   3.035   4.188   5.014  0.3007 -0.5236 -0.6200
   19A      H5'  580   3.061   4.088   5.047  0.2740 -0.3463 -0.0526
   19A     H5''  581   2.970   4.227   5.093 -2.8381 -2.7099 -1.9029
   19A      C4'  582   3.157   4.276   5.011  0.2472  0.5913  0.0504
   19A      H4'  583   3.209   4.260   5.105 -3.6668  0.5453  2.4124
   19A      O4'  584   3.249   4.242   4.909 -0.0500  0.1054  0.4280
   19A      C1'  585   3.307   4.361   4.847 -0.1781  1.1023 -0.2892
   19A      H1'  586   3.415   4.348   4.855  0.0311  3.3353  2.0856
   19A       N9  587   3.262   4.381   4.704  0.0515  0.1342  0.4296
   19A       C8  588   3.179   4.304   4.631  0.5493  0.2267  0.7530
   19A       H8  589   3.108   4.236   4.677 -1.3767  2.5424  1.3727
   19A       N7  590   3.173   4.331   4.502  0.3910  0.6116  0.1914
   19A       C5  591   3.262   4.436   4.488  0.0273  0.7806 -0.0182
   19A       C6  592   3.312   4.509   4.379 -0.7762 -0.2772  0.1765
   19A       N6  593   3.267   4.503   4.258  0.0309 -0.3133  0.2969
   19A      H61  594   3.306   4.564   4.187 -0.2084 -1.3909 -0.7861
   19A      H62  595   3.182   4.455   4.234  0.5635 -0.9814 -0.3417
   19A       N1  596   3.404   4.603   4.400 -0.3357  0.0353  0.0779
   19A       C2  597   3.450   4.620   4.525 -0.6479  0.1041 -0.4146
   19A       H2  598   3.523   4.699   4.531 -0.9856  0.4071 -0.1874
   19A       N3  599   3.413   4.557   4.634 -0.1879  0.9552 -0.1463
   19A       C4  600   3.311   4.468   4.606 -0.4298  0.6267 -0.2780
   19A      C3'  601   3.121   4.421   4.988  0.2040 -0.2227 -0.1429
   19A      H3'  602   3.046   4.422   4.909  0.2510 -1.8420 -0.2448
   19A      C2'  603   3.262   4.470   4.946 -0.0531  0.2630  0.2502
   19A      H2'  604   3.259   4.568   4.897  0.7420 -0.5335 -1.5151
   19A      O2'  605   3.363   4.475   5.047  0.2179 -0.3131  0.6275
   19A     HO2'  606   3.434   4.522   5.003 -0.9280 -1.1328 -2.3128
   19A      O3'  607   3.090   4.486   5.111 -0.2725  0.2095  0.1943
   20G        P  608   3.011   4.626   5.103  0.2495  0.1903 -0.1504
   20G      OP1  609   2.978   4.643   5.243  0.5262 -0.0431 -0.0666
   20G      OP2  610   2.904   4.612   5.002 -0.8129  0.1777  0.3286
   20G      O5'  611   3.108   4.740   5.053 -0.8114  0.1567  0.2238
   20G      C5'  612   3.227   4.774   5.128  0.3989 -0.2327  0.5846
   20G      H5'  613   3.289   4.685   5.145 -0.2726 -0.5069  1.7737
   20G     H5''  614   3.192   4.810   5.225  2.7853  1.7318  0.7934
   20G      C4'  615   3.310   4.895   5.077  0.2882  0.4968  0.2905
   20G      H4'  616   3.401   4.905   5.137 -0.0473  1.9885  0.5858
   20G      O4'  617   3.351   4.856   4.952 -0.8097  0.1300  0.1968
   20G      C1'  618   3.307   4.948   4.855 -0.0746  0.2042 -0.2044
   20G      H1'  619   3.391   5.016   4.840  1.9555 -2.1810 -0.2740
   20G       N9  620   3.251   4.879   4.735 -0.0855 -0.2015  0.6961
   20G       C8  621   3.153   4.780   4.731  0.0138 -1.0195 -0.2329
   20G       H8  622   3.129   4.727   4.822 -1.7180  1.7172  1.0446
   20G       N7  623   3.119   4.742   4.611  0.1273 -0.0850 -0.4217
   20G       C5  624   3.185   4.835   4.525 -0.0263  0.9297 -0.6045
   20G       C6  625   3.181   4.851   4.387 -0.0922 -0.2699 -1.1388
   20G       O6  626   3.125   4.787   4.299  0.6042 -0.6782 -0.3850
   20G       N1  627   3.249   4.964   4.348 -0.4363 -0.5654 -0.1639
   20G       H1  628   3.248   4.992   4.250 -0.4632 -1.5663 -0.4575
   20G       C2  629   3.303   5.056   4.432 -0.6240 -0.0192 -0.7870
   20G       N2  630   3.372   5.157   4.383  0.5254 -0.2440 -0.3380
   20G      H21  631   3.376   5.182   4.285  2.4141  1.4683  0.1005
   20G      H22  632   3.410   5.222   4.450 -0.2010 -0.7563  0.5965
   20G       N3  633   3.323   5.034   4.561 -0.1966  0.0817 -0.0571
   20G       C4  634   3.259   4.923   4.603 -0.1308 -0.6308  0.2486
   20G      C3'  635   3.251   5.040   5.067 -0.4330  0.3347  0.1196
   20G      H3'  636   3.163   5.046   5.131 -0.8129 -1.0366 -0.2240
   20G      C2'  637   3.195   5.028   4.920 -0.4761 -0.1605 -0.3648
   20G      H2'  638   3.096   4.983   4.918  0.1988 -1.6766 -0.5110
   20G      O2'  639   3.191   5.161   4.856 -0.5522  0.5409  0.0915
   20G     HO2'  640   3.147   5.155   4.771 -2.1661 -1.0082  0.9884
   20G      O3'  641   3.348   5.133   5.079  0.6927 -0.0587 -0.0513
   21U        P  642   3.390   5.183   5.219 -0.4124  0.1828 -0.1828
   21U      OP1  643   3.394   5.080   5.320 -0.2020  0.2492  0.4075
   21U      OP2  644   3.314   5.309   5.245 -0.1029 -0.1705  0.0733
   21U      O5'  645   3.543   5.224   5.196 -0.0528  0.2973  0.5080
   21U      C5'  646   3.644   5.134   5.212 -0.5806  0.1399  0.5352
   21U      H5'  647   3.627   5.040   5.159  2.3195 -0.4522  0.4637
   21U     H5''  648   3.656   5.112   5.319  1.5691  0.2310  0.3570
   21U      C4'  649   3.772   5.206   5.172  0.2971  0.0717  0.5086
   21U      H4'  650   3.847   5.158   5.235  0.6870  1.3691  1.0641
   21U      O4'  651   3.792   5.174   5.034  0.1247 -0.1048  0.3081
   21U      C1'  652   3.820   5.298   4.961 -0.4704  1.1252 -0.0483
   21U      H1'  653   3.922   5.286   4.924  0.0032  1.4869  1.0846
   21U       N1  654   3.725   5.317   4.850  0.5743 -0.6590  0.1914
   21U       C6  655   3.599   5.256   4.847  0.2144 -0.4455  0.0203
   21U       H6  656   3.555   5.205   4.932 -1.9326 -0.6101 -1.1156
   21U       C5  657   3.524   5.266   4.737 -0.2345 -0.4702  0.2714
   21U       H5  658   3.427   5.219   4.725 -0.6973  0.9929 -2.9170
   21U       C4  659   3.567   5.337   4.622  0.2800  0.1415 -0.2828
   21U       O4  660   3.507   5.361   4.517  1.1182  0.1172  0.0408
   21U       N3  661   3.688   5.395   4.633 -0.3492 -0.3787  0.1938
   21U       H3  662   3.721   5.452   4.556 -2.0204  3.1028  1.8168
   21U       C2  663   3.773   5.385   4.740  0.1982 -0.1916 -0.0313
   21U       O2  664   3.884   5.433   4.731  0.3414  0.5705 -0.3909
   21U      C3'  665   3.786   5.362   5.192  0.1037  0.2998  0.0605
   21U      H3'  666   3.687   5.396   5.220 -0.4292 -1.8037  0.9567
   21U      C2'  667   3.817   5.416   5.053  0.2049 -0.2064 -0.2520
   21U      H2'  668   3.736   5.484   5.026 -0.0703  0.1959  1.4344
   21U      O2'  669   3.941   5.482   5.056  0.2162  0.8680 -0.0885
   21U     HO2'  670   4.003   5.422   5.098 -1.7602 -1.2572  0.0298
   21U      O3'  671   3.864   5.402   5.309 -0.3657  0.0624  0.4146
   22U        P  672   4.011   5.352   5.344  0.1140  0.0596  0.3104
   22U      OP1  673   4.056   5.461   5.435 -0.1979 -0.1827  0.3075
   22U      OP2  674   4.079   5.328   5.213  0.0120  0.1734  0.1081
   22U      O5'  675   3.992   5.216   5.420 -0.2129  0.3011 -0.0266
   22U      C5'  676   4.090   5.113   5.423 -0.0008  0.1699 -0.2746
   22U      H5'  677   4.178   5.149   5.475 -0.1740  0.3920 -0.1315
   22U     H5''  678   4.096   5.082   5.319  1.7724  0.5630 -0.3186
   22U      C4'  679   4.029   5.001   5.502 -0.4766 -0.1483  0.1509
   22U      H4'  680   4.095   4.915   5.492 -0.0087  0.4078 -2.1388
   22U      O4'  681   4.026   5.032   5.635 -0.6600  0.5206 -0.0677
   22U      C1'  682   3.902   4.993   5.693  0.8539  0.4495 -0.0696
   22U      H1'  683   3.926   4.912   5.762  1.9943  0.2521 -0.6776
   22U       N1  684   3.846   5.107   5.771 -0.3848  0.4386  0.0922
   22U       C6  685   3.835   5.231   5.721 -0.2432 -0.2654  0.2636
   22U       H6  686   3.863   5.248   5.618 -0.5086 -0.6000  0.1346
   22U       C5  687   3.805   5.334   5.800 -0.6352  0.2325  0.0576
   22U       H5  688   3.789   5.430   5.755 -1.2597  0.4497  0.7143
   22U       C4  689   3.762   5.315   5.937 -0.4693  0.3155 -0.1312
   22U       O4  690   3.726   5.408   6.012 -0.5881 -0.2424  0.1525
   22U       N3  691   3.761   5.186   5.981  0.3803  0.2815  0.0597
   22U       H3  692   3.743   5.159   6.077 -0.8279 -1.0084 -0.5014
   22U       C2  693   3.817   5.081   5.903 -0.8330  0.2881 -0.0422
   22U       O2  694   3.827   4.968   5.950 -0.2896  0.5867  0.8321
   22U      C3'  695   3.883   4.965   5.458  0.5293  1.3081 -0.0365
   22U      H3'  696   3.831   5.052   5.417  1.1021  0.9694 -1.5571
   22U      C2'  697   3.803   4.938   5.590 -1.3417 -0.1969 -0.0867
   22U      H2'  698   3.711   4.996   5.599 -0.6507  0.7520  1.2877
   22U      O2'  699   3.757   4.807   5.615  0.1313 -0.4046 -0.2019
   22U     HO2'  700   3.826   4.749   5.583  1.4179 -0.2398  2.0421
   22U      O3'  701   3.886   4.868   5.357  0.2648  1.1682  0.1899
   23A        P  702   3.961   4.725   5.367 -0.3350  0.2497  0.2097
   23A      OP1  703   3.955   4.677   5.509 -0.2386  0.2209  0.1136
   23A      OP2  704   4.099   4.735   5.309  0.9544 -0.5704  0.0088
   23A      O5'  705   3.872   4.623   5.274 -0.3019 -0.2742 -0.1477
   23A      C5'  706   3.726   4.618   5.284  0.0275 -0.0871 -0.0135
   23A      H5'  707   3.688   4.690   5.356 -0.2746  0.8715 -1.1000
   23A     H5''  708   3.706   4.517   5.322  1.6318 -0.9071 -1.2053
   23A      C4'  709   3.662   4.638   5.145  0.0379  0.0425  1.2903
   23A      H4'  710   3.559   4.604   5.157  0.8554 -2.6304  1.3543
   23A      O4'  711   3.679   4.772   5.105 -0.0550 -0.3510 -0.2338
   23A      C1'  712   3.668   4.776   4.965  0.3518  0.5006 -0.3698
   23A      H1'  713   3.576   4.832   4.948 -1.5768 -1.6534  2.1716
   23A       N9  714   3.783   4.857   4.919 -0.2312  0.6186  0.3894
   23A       C8  715   3.915   4.845   4.951  0.3770 -0.0784 -0.3697
   23A       H8  716   3.947   4.795   5.041 -1.1189  1.1585  0.8964
   23A       N7  717   3.990   4.926   4.883  0.0081  0.1829  0.7399
   23A       C5  718   3.898   4.969   4.785  0.3344  0.0843  0.0133
   23A       C6  719   3.910   5.053   4.666  1.2723 -0.9451  0.0214
   23A       N6  720   4.022   5.117   4.635 -0.6657 -1.1739 -0.3066
   23A      H61  721   4.032   5.189   4.564 -3.1006 -0.5892 -0.1579
   23A      H62  722   4.098   5.096   4.698 -0.2718  0.3726 -0.2133
   23A       N1  723   3.801   5.084   4.593  0.0474  0.4547  0.1748
   23A       C2  724   3.685   5.026   4.630 -0.1440  0.4953  0.5570
   23A       H2  725   3.595   5.045   4.574  0.1005  0.4718  0.1489
   23A       N3  726   3.662   4.942   4.731 -0.5467 -0.1532  0.3907
   23A       C4  727   3.773   4.921   4.804 -0.4827  0.4920  0.1272
   23A      C3'  728   3.721   4.547   5.030  0.0351  0.8488 -0.7036
   23A      H3'  729   3.827   4.557   5.053 -0.5118  1.1463  2.0678
   23A      C2'  730   3.664   4.633   4.912  0.3698  0.4913 -0.2776
   23A      H2'  731   3.718   4.621   4.818 -1.7201 -3.0825 -1.2333
   23A      O2'  732   3.527   4.609   4.888 -0.2781  0.0432  0.3190
   23A     HO2'  733   3.505   4.628   4.797  1.5623  2.7421  0.3222
   23A      O3'  734   3.658   4.423   5.056  0.3755  0.1302 -0.5588
   24A        P  735   3.725   4.280   5.025 -0.2117 -0.3919 -0.1078
   24A      OP1  736   3.872   4.306   5.009  0.4320  0.1437  0.0241
   24A      OP2  737   3.662   4.222   4.905 -0.1540  0.2369  0.0499
   24A      O5'  738   3.698   4.191   5.156  0.9846 -0.1303  0.2476
   24A      C5'  739   3.754   4.218   5.277 -0.0219 -0.4343  0.3493
   24A      H5'  740   3.736   4.324   5.296  1.5942 -0.2674  1.0811
   24A     H5''  741   3.861   4.201   5.278  0.2634  0.9594 -1.1564
   24A      C4'  742   3.690   4.135   5.383 -0.7351 -0.4437  0.6839
   24A      H4'  743   3.746   4.162   5.473  1.2956  1.5173 -1.0695
   24A      O4'  744   3.550   4.150   5.393  0.1511 -0.2791 -0.0618
   24A      C1'  745   3.487   4.029   5.434  0.7432 -0.9199 -0.0485
   24A      H1'  746   3.437   4.032   5.531  2.5734 -0.2737  0.9292
   24A       N9  747   3.387   4.000   5.324 -0.4282 -0.4031  0.2314
   24A       C8  748   3.379   4.052   5.196  0.0254  0.2291 -0.5630
   24A       H8  749   3.446   4.127   5.155 -0.7168  0.2472 -1.7872
   24A       N7  750   3.284   3.998   5.127 -0.5919  0.5986 -0.1984
   24A       C5  751   3.223   3.910   5.212  0.5535 -0.3832 -0.3486
   24A       C6  752   3.110   3.823   5.212 -0.2195  0.5600  0.0364
   24A       N6  753   3.031   3.806   5.109 -0.4364  0.1667 -0.0942
   24A      H61  754   2.955   3.745   5.133 -1.2285  1.5841  1.1491
   24A      H62  755   3.056   3.843   5.018  0.8148 -2.5548 -0.9597
   24A       N1  756   3.082   3.744   5.313  0.3851  1.3520 -0.0845
   24A       C2  757   3.153   3.755   5.424 -0.6014 -0.1894 -0.5520
   24A       H2  758   3.122   3.685   5.500  0.9718 -1.2784 -0.8721
   24A       N3  759   3.250   3.838   5.450 -0.3999 -0.3926 -0.0097
   24A       C4  760   3.287   3.910   5.335 -0.3398 -0.6092  0.8657
   24A      C3'  761   3.708   3.985   5.349  0.7039  0.7149  0.5797
   24A      H3'  762   3.679   3.958   5.247 -0.2415  0.4463  0.9094
   24A      C2'  763   3.597   3.921   5.437  0.3296 -0.1291 -0.1327
   24A      H2'  764   3.555   3.827   5.400 -0.2659 -0.6025  1.6152
   24A      O2'  765   3.625   3.906   5.569  0.1329 -0.1841 -0.1601
   24A     HO2'  766   3.561   3.852   5.615 -1.3166 -0.2120 -2.0868
   24A      O3'  767   3.831   3.932   5.391  0.1133 -0.3055  0.0939
   25C        P  768   3.902   3.814   5.314  0.2593 -0.1504  0.2927
   25C      OP1  769   4.031   3.812   5.385  0.8701  0.0499 -0.3089
   25C      OP2  770   3.894   3.834   5.168  0.1966  0.1684 -0.0354
   25C      O5'  771   3.813   3.699   5.358  0.4201 -0.2531 -0.1670
   25C      C5'  772   3.824   3.644   5.490  0.4432  0.4513 -0.1819
   25C      H5'  773   3.812   3.721   5.566 -0.5426  0.2080 -0.0754
   25C     H5''  774   3.922   3.600   5.504  0.2076  0.1864  0.6754
   25C      C4'  775   3.709   3.545   5.517  0.3226 -1.0348  0.1810
   25C      H4'  776   3.705   3.512   5.621  0.3812 -1.5872  0.0124
   25C      O4'  777   3.578   3.601   5.492  0.1823  0.0122 -0.1478
   25C      C1'  778   3.485   3.503   5.441  0.1084  0.3733  0.7511
   25C      H1'  779   3.400   3.501   5.510 -1.8389 -1.2402 -1.5653
   25C       N1  780   3.429   3.528   5.303 -0.2265  0.0896 -0.1923
   25C       C6  781   3.474   3.632   5.224 -0.0901  0.8717  0.0652
   25C       H6  782   3.571   3.675   5.245  1.0563 -1.0938 -0.8615
   25C       C5  783   3.414   3.667   5.106  0.9444 -0.2811 -0.4177
   25C       H5  784   3.457   3.736   5.035  0.8558  0.1134 -0.0929
   25C       C4  785   3.290   3.597   5.076 -0.6637 -0.2517  0.2924
   25C       N4  786   3.234   3.608   4.959  0.0941  0.1120 -0.4861
   25C      H41  787   3.138   3.579   4.953  0.9363 -3.4047  0.6838
   25C      H42  788   3.267   3.682   4.899 -0.4258  1.2210  0.5443
   25C       N3  789   3.247   3.497   5.150 -0.0083 -0.2694  0.0978
   25C       C2  790   3.316   3.464   5.264  0.3390 -0.3764  0.0755
   25C       O2  791   3.268   3.376   5.337 -0.0223 -0.4732  0.5758
   25C      C3'  792   3.708   3.418   5.433  0.3310  0.5453 -0.6028
   25C      H3'  793   3.713   3.444   5.328  0.2344 -1.0553 -1.0320
   25C      C2'  794   3.565   3.369   5.446  0.3822  0.7687 -0.1493
   25C      H2'  795   3.534   3.317   5.355  1.2325 -1.9709  1.0369
   25C      O2'  796   3.535   3.303   5.570 -0.5016  0.2075 -0.3899
   25C     HO2'  797   3.441   3.285   5.575 -0.0255 -2.5794  0.2133
   25C      O3'  798   3.804   3.328   5.478 -0.7545  0.1772 -0.4329
   26A        P  799   3.869   3.240   5.365 -0.5902 -0.1672 -0.1821
   26A      OP1  800   3.960   3.144   5.432 -0.1950 -0.3141  0.3189
   26A      OP2  801   3.933   3.331   5.269  0.3425 -0.0524 -0.4395
   26A      O5'  802   3.741   3.164   5.303 -0.0467  0.0294  0.1467
   26A      C5'  803   3.721   3.133   5.171  0.2947 -0.1554  0.0143
   26A      H5'  804   3.768   3.042   5.136  0.6797  0.5121 -1.2795
   26A     H5''  805   3.773   3.200   5.102  0.6305 -0.3809  0.0455
   26A      C4'  806   3.570   3.124   5.137  0.4539  0.8539  0.3026
   26A      H4'  807   3.519   3.070   5.217  2.8472  1.2859  2.2602
   26A      O4'  808   3.524   3.251   5.120  0.1492 -0.6604 -0.5413
   26A      C1'  809   3.422   3.256   5.024 -0.3675  0.3426  0.2404
   26A      H1'  810   3.331   3.288   5.074 -0.2121  1.0087  0.1004
   26A       N9  811   3.467   3.353   4.918  0.2866  0.1521 -0.0583
   26A       C8  812   3.574   3.442   4.919  0.0278 -0.2851 -0.9111
   26A       H8  813   3.631   3.458   5.009 -0.1817  2.6790 -1.1816
   26A       N7  814   3.586   3.514   4.809  0.3017 -0.4224  0.5891
   26A       C5  815   3.467   3.481   4.735 -1.1140 -0.2893 -0.5503
   26A       C6  816   3.411   3.535   4.615  0.4703  0.5326 -0.0796
   26A       N6  817   3.472   3.625   4.539  0.0189  0.0849  0.2882
   26A      H61  818   3.418   3.647   4.456  1.6278  2.0441 -0.2990
   26A      H62  819   3.569   3.642   4.559  0.1447 -0.3691  0.0926
   26A       N1  820   3.293   3.486   4.571 -0.5548  0.6630 -0.3754
   26A       C2  821   3.240   3.386   4.639  0.1680  0.2117 -0.5160
   26A       H2  822   3.152   3.341   4.596  1.5683 -1.4221 -1.8147
   26A       N3  823   3.279   3.330   4.755  0.0751 -0.0702  0.2688
   26A       C4  824   3.400   3.380   4.797  0.6149 -0.6155 -0.4451
   26A      C3'  825   3.531   3.040   5.011  0.4389  0.2325 -0.0427
   26A      H3'  826   3.603   3.059   4.931  1.8783 -0.0753  1.1205
   26A      C2'  827   3.396   3.110   4.985 -0.3447 -0.0718 -0.2280
   26A      H2'  828   3.379   3.099   4.878  1.0955  0.3702 -0.5183
   26A      O2'  829   3.293   3.063   5.067 -0.3289 -0.3832 -0.5819
   26A     HO2'  830   3.212   3.058   5.014  0.0700  0.1305 -1.2668
   26A      O3'  831   3.529   2.903   5.048  0.0025  0.5696  0.5922
   27A        P  832   3.598   2.798   4.949  0.0704  0.0397  0.0768
   27A      OP1  833   3.586   2.665   5.010  0.0253  0.0544 -0.3024
   27A      OP2  834   3.730   2.846   4.914  0.1663  0.3787 -0.1289
   27A      O5'  835   3.505   2.808   4.817 -0.3432  0.3193 -0.1319
   27A      C5'  836   3.368   2.775   4.827  0.1595 -0.0555 -0.4631
   27A      H5'  837   3.325   2.812   4.920  0.1267  0.7341 -0.7843
   27A     H5''  838   3.363   2.666   4.826  4.5298 -0.4155 -1.1712
   27A      C4'  839   3.282   2.826   4.711 -0.3609 -0.5727  0.4103
   27A      H4'  840   3.179   2.793   4.725 -1.1153  1.5255  0.1411
   27A      O4'  841   3.280   2.971   4.701  0.3323  0.1730  0.0600
   27A      C1'  842   3.273   3.004   4.556 -0.2091  0.0572 -0.9757
   27A      H1'  843   3.182   3.063   4.546 -1.3175 -1.3966 -0.0035
   27A       N9  844   3.398   3.081   4.522 -0.3573  0.0672 -0.1567
   27A       C8  845   3.516   3.084   4.595 -0.1102 -0.3360 -0.2032
   27A       H8  846   3.548   3.014   4.671  1.1872  0.8597  0.4060
   27A       N7  847   3.597   3.183   4.576 -0.0262 -0.2852  0.4852
   27A       C5  848   3.532   3.244   4.461  0.1924 -0.4753  0.3980
   27A       C6  849   3.564   3.348   4.367  0.2494  0.0392 -0.8676
   27A       N6  850   3.676   3.418   4.369  0.7354  0.5614  0.3532
   27A      H61  851   3.680   3.495   4.304  1.8532  0.0291 -0.2348
   27A      H62  852   3.747   3.399   4.438  1.0358 -0.7228 -0.2761
   27A       N1  853   3.483   3.369   4.266  0.3704 -0.5986  0.0185
   27A       C2  854   3.372   3.300   4.253  0.2762 -0.0360 -0.2202
   27A       H2  855   3.303   3.334   4.177 -0.4989 -0.1324  0.4212
   27A       N3  856   3.326   3.199   4.325  0.1848  0.0937 -0.2922
   27A       C4  857   3.410   3.183   4.432  0.3343  1.6615 -0.8764
   27A      C3'  858   3.335   2.780   4.577 -0.4725  0.9151  0.6614
   27A      H3'  859   3.442   2.801   4.580 -0.0751 -0.8959  0.7049
   27A      C2'  860   3.260   2.868   4.477  0.0527 -0.0937 -0.2491
   27A      H2'  861   3.321   2.872   4.387 -0.4798  0.3971 -0.5886
   27A      O2'  862   3.122   2.832   4.454 -0.7900 -0.0401 -0.2124
   27A     HO2'  863   3.121   2.772   4.379 -1.7133  1.0452 -1.0949
   27A      O3'  864   3.306   2.640   4.556  0.6228  0.3445  0.0028
   28A        P  865   3.400   2.546   4.468  0.5095  0.1931  0.3240
   28A      OP1  866   3.390   2.406   4.517 -0.0041  0.2492  0.2115
   28A      OP2  867   3.532   2.607   4.464  0.1695 -0.3086 -0.1724
   28A      O5'  868   3.343   2.551   4.317 -0.5864  0.0609 -0.3995
   28A      C5'  869   3.212   2.497   4.303 -0.4165  0.1919  0.2748
   28A      H5'  870   3.154   2.536   4.387 -0.7737  0.7199 -0.2069
   28A     H5''  871   3.207   2.388   4.297 -1.5245  0.1446  1.6784
   28A      C4'  872   3.152   2.550   4.175  0.4315 -0.0363  0.3848
   28A      H4'  873   3.052   2.507   4.169 -0.4612  1.8176  1.2342
   28A      O4'  874   3.143   2.691   4.183  0.3369 -0.1846 -0.5506
   28A      C1'  875   3.152   2.759   4.063 -0.3483  0.0484  0.1863
   28A      H1'  876   3.056   2.805   4.038  0.6832  2.2802  0.0962
   28A       N9  877   3.266   2.857   4.057  0.5665  1.0141  0.6025
   28A       C8  878   3.383   2.861   4.122  0.4196 -0.4380 -0.4464
   28A       H8  879   3.414   2.783   4.191 -0.0848 -0.6581 -0.4556
   28A       N7  880   3.452   2.968   4.099  0.4619 -0.1362 -0.1279
   28A       C5  881   3.374   3.045   4.010  0.4468 -0.0260 -0.8424
   28A       C6  882   3.376   3.174   3.948 -0.1652  0.1424 -0.1021
   28A       N6  883   3.473   3.264   3.948  0.3775  0.6159  0.1835
   28A      H61  884   3.464   3.336   3.878 -0.1226 -0.0319 -0.4247
   28A      H62  885   3.562   3.239   3.989 -0.0767 -0.9622  0.2864
   28A       N1  886   3.279   3.212   3.861 -0.0310  0.6028 -0.8093
   28A       C2  887   3.184   3.124   3.844  0.2988  0.7382  0.7821
   28A       H2  888   3.103   3.155   3.780  1.2624  0.9557 -0.3693
   28A       N3  889   3.161   3.007   3.899  0.3525  0.3544 -0.5576
   28A       C4  890   3.260   2.972   3.988 -0.0959 -0.4505  0.2822
   28A      C3'  891   3.224   2.524   4.044  0.0972 -0.2109 -1.4508
   28A      H3'  892   3.332   2.535   4.056  0.5545 -4.0939 -0.4282
   28A      C2'  893   3.173   2.648   3.961 -0.0940  0.0287  0.2914
   28A      H2'  894   3.235   2.676   3.876  1.6901  0.6005  1.7175
   28A      O2'  895   3.046   2.622   3.899  0.3414 -0.7396 -0.1044
   28A     HO2'  896   3.047   2.610   3.804 -2.2710 -0.1439 -0.2988
   28A      O3'  897   3.200   2.396   3.979 -0.2036  0.1466  0.2559
   29A        P  898   3.301   2.363   3.856 -0.1333  0.0504  0.0178
   29A      OP1  899   3.261   2.227   3.813  0.2905 -0.0032 -0.5692
   29A      OP2  900   3.444   2.390   3.886  0.9586 -0.2006  0.1012
   29A      O5'  901   3.263   2.456   3.731 -0.3161  0.0850  0.5896
   29A      C5'  902   3.151   2.440   3.649 -0.1320  0.0390  0.0462
   29A      H5'  903   3.070   2.422   3.720  0.3258 -0.7205  0.3886
   29A     H5''  904   3.163   2.352   3.586 -1.2158 -0.5332  0.6112
   29A      C4'  905   3.123   2.560   3.553  0.4047  0.1845  0.3894
   29A      H4'  906   3.026   2.545   3.508 -0.2076  1.4719  1.1991
   29A      O4'  907   3.114   2.681   3.632 -0.9574  0.0815 -0.2604
   29A      C1'  908   3.147   2.794   3.550  0.0155 -0.3500 -0.4298
   29A      H1'  909   3.067   2.867   3.546  0.2130 -0.0169  0.9897
   29A       N9  910   3.271   2.847   3.601  0.0025  0.2412 -0.2749
   29A       C8  911   3.366   2.795   3.683  0.0781  0.7810 -0.4564
   29A       H8  912   3.364   2.691   3.715  0.3619  1.0639  0.5033
   29A       N7  913   3.464   2.872   3.719 -0.6240  0.2042  0.1627
   29A       C5  914   3.438   2.990   3.648 -0.6696  0.4760 -0.1858
   29A       C6  915   3.497   3.120   3.655  0.3600 -0.0746  0.6162
   29A       N6  916   3.613   3.154   3.713  0.2646 -0.0147  0.3991
   29A      H61  917   3.645   3.248   3.730  0.5157  0.0923 -0.5824
   29A      H62  918   3.673   3.080   3.746 -0.3288 -0.5744  0.2633
   29A       N1  919   3.441   3.216   3.584  0.1766  0.6019  0.1751
   29A       C2  920   3.327   3.191   3.521  0.4076  0.2484  0.1081
   29A       H2  921   3.280   3.276   3.475  0.2833  0.2278  0.1980
   29A       N3  922   3.251   3.077   3.526  0.1740 -0.5185  1.0537
   29A       C4  923   3.314   2.977   3.587  0.6767 -0.3793 -0.4301
   29A      C3'  924   3.222   2.593   3.440  0.3596 -0.1152 -0.1381
   29A      H3'  925   3.326   2.603   3.472  0.2462 -0.8374  0.4778
   29A      C2'  926   3.170   2.734   3.413 -0.2352  0.0477 -0.4416
   29A      H2'  927   3.246   2.796   3.366  0.1315 -1.5268 -2.0135
   29A      O2'  928   3.057   2.727   3.334 -0.0706 -0.7584  0.4616
   29A     HO2'  929   3.025   2.813   3.308 -1.2010 -0.9067  1.2434
   29A      O3'  930   3.218   2.501   3.331  0.3831 -0.1204  0.0695
   30C        P  931   3.333   2.490   3.217  0.3735  0.3608  0.3054
   30C      OP1  932   3.292   2.380   3.127 -0.0626 -0.0960  0.2103
   30C      OP2  933   3.461   2.468   3.288 -0.0631  0.3086 -0.2419
   30C      O5'  934   3.366   2.635   3.151  0.6278 -0.0140 -0.2745
   30C      C5'  935   3.260   2.690   3.076  0.0443  0.1928  0.2880
   30C      H5'  936   3.162   2.668   3.120 -1.2364  3.1999 -0.8135
   30C     H5''  937   3.274   2.641   2.980  1.8471 -2.0891  1.6157
   30C      C4'  938   3.272   2.839   3.052 -0.5723  0.5867  0.9286
   30C      H4'  939   3.186   2.873   2.994 -0.2733  0.9745  0.7118
   30C      O4'  940   3.272   2.905   3.170 -0.0630  0.0573 -0.2231
   30C      C1'  941   3.372   3.010   3.168 -0.6141  0.0136  0.6840
   30C      H1'  942   3.325   3.104   3.198 -0.7664  0.2934 -0.3750
   30C       N1  943   3.484   2.988   3.260 -0.2853 -0.0769  0.1593
   30C       C6  944   3.505   2.868   3.324  0.3621 -0.8980 -0.2884
   30C       H6  945   3.427   2.793   3.322 -0.6040  0.0614  0.1346
   30C       C5  946   3.616   2.844   3.395  0.3770 -0.5258 -0.6166
   30C       H5  947   3.632   2.751   3.447  0.4166 -0.4443 -0.4830
   30C       C4  948   3.709   2.952   3.412 -0.4412 -0.0714  0.1301
   30C       N4  949   3.805   2.938   3.494  0.0085  0.1971 -0.5193
   30C      H41  950   3.853   3.024   3.520 -0.2848 -0.1992  1.5143
   30C      H42  951   3.810   2.867   3.565  1.0962 -1.5291 -2.2349
   30C       N3  952   3.696   3.067   3.354 -0.1809 -0.7450 -0.1585
   30C       C2  953   3.583   3.087   3.275 -0.2234  0.6619  0.5855
   30C       O2  954   3.567   3.198   3.227 -0.2144 -0.2165 -0.3350
   30C      C3'  955   3.389   2.881   2.973 -0.5460 -1.1361 -0.8094
   30C      H3'  956   3.477   2.824   3.001 -0.0147  1.1270  2.9377
   30C      C2'  957   3.408   3.032   3.018 -0.4137  0.6485  0.4248
   30C      H2'  958   3.506   3.076   3.000  0.3777 -1.7427 -1.6536
   30C      O2'  959   3.300   3.114   2.969 -0.0391 -0.1599 -0.2303
   30C     HO2'  960   3.331   3.204   2.977  1.8563 -0.8421  0.6549
   30C      O3'  961   3.365   2.887   2.836  0.2452  0.0907 -0.2804
   31A        P  962   3.479   2.879   2.730 -0.0549 -0.1845  0.1113
   31A      OP1  963   3.421   2.868   2.597  0.4595 -0.2707  0.8177
   31A      OP2  964   3.572   2.766   2.765  0.5979 -0.8032 -0.0228
   31A      O5'  965   3.555   3.015   2.735  0.5257 -0.5551  0.6452
   31A      C5'  966   3.498   3.132   2.668 -0.0258  0.2672  0.3000
   31A      H5'  967   3.407   3.160   2.721  0.5845 -0.6262  1.9082
   31A     H5''  968   3.473   3.101   2.567 -2.1352 -1.3406  1.2493
   31A      C4'  969   3.592   3.252   2.680  0.2583  0.7466 -0.1388
   31A      H4'  970   3.554   3.344   2.637 -1.1592  0.8963  1.3638
   31A      O4'  971   3.637   3.277   2.812 -0.2043  0.1839 -0.3052
   31A      C1'  972   3.776   3.310   2.811  0.1555 -0.4064 -0.4199
   31A      H1'  973   3.791   3.411   2.849  0.0900 -0.8281  0.7663
   31A       N9  974   3.838   3.214   2.902 -0.3991  0.0708  0.3053
   31A       C8  975   3.785   3.092   2.944 -0.4454 -0.7614  0.2368
   31A       H8  976   3.697   3.048   2.900  0.4957  0.2938 -2.9225
   31A       N7  977   3.833   3.045   3.056 -0.1933  0.5429 -0.1911
   31A       C5  978   3.945   3.125   3.076  0.0287 -1.0534  0.7530
   31A       C6  979   4.057   3.133   3.165  0.1183  0.1183 -0.7731
   31A       N6  980   4.060   3.054   3.269 -0.4838 -0.8265 -0.5999
   31A      H61  981   4.144   3.042   3.323 -0.1521 -1.7883 -1.2920
   31A      H62  982   3.972   3.007   3.282 -1.6084  1.2753 -0.2002
   31A       N1  983   4.147   3.232   3.163  1.0500 -0.0009 -0.7818
   31A       C2  984   4.139   3.324   3.064  0.3937 -0.2270 -0.0195
   31A       H2  985   4.211   3.404   3.064  1.0977 -0.7257 -3.2374
   31A       N3  986   4.045   3.329   2.965  0.3055  0.5812  0.3464
   31A       C4  987   3.950   3.227   2.979 -0.3925  0.3927 -0.2342
   31A      C3'  988   3.720   3.210   2.595 -0.2813  0.3403  0.1384
   31A      H3'  989   3.757   3.110   2.615  1.1416  1.1462  1.8584
   31A      C2'  990   3.818   3.303   2.662 -0.3058 -0.0274  0.4206
   31A      H2'  991   3.923   3.281   2.640 -0.0949  0.9549  0.4203
   31A      O2'  992   3.793   3.429   2.614  0.4385 -0.5796  0.0014
   31A     HO2'  993   3.856   3.495   2.646 -0.1742 -0.5837  1.2758
   31A      O3'  994   3.703   3.230   2.453  0.0335 -0.5956 -0.3000
   32A        P  995   3.781   3.156   2.333 -0.4768 -0.5893 -0.0879
   32A      OP1  996   3.688   3.098   2.234  0.2085  0.1909  0.0564
   32A      OP2  997   3.878   3.067   2.394 -0.1735 -0.0347 -0.0784
   32A      O5'  998   3.871   3.277   2.274  0.5632 -0.4216  0.3197
   32A      C5'  999   3.805   3.397   2.231 -0.2620 -0.8895 -0.4367
   32A      H5' 1000   3.715   3.413   2.290  0.3619 -0.3300  0.3867
   32A     H5'' 1001   3.768   3.394   2.128  0.6451  1.4083 -0.8927
   32A      C4' 1002   3.884   3.525   2.232 -0.0958  0.1885 -0.1306
   32A      H4' 1003   3.828   3.598   2.173  0.0520  0.2242 -0.2277
   32A      O4' 1004   3.915   3.568   2.365 -0.3789  0.2345 -0.1361
   32A      C1' 1005   4.055   3.613   2.372  0.3336 -0.1939 -0.0379
   32A      H1' 1006   4.053   3.716   2.408 -1.3933 -0.7598  1.6420
   32A       N9 1007   4.130   3.516   2.460 -0.1113 -0.0577  0.1494
   32A       C8 1008   4.109   3.384   2.483 -1.3946  0.5032  0.3307
   32A       H8 1009   4.042   3.320   2.428  0.2780 -1.1419  0.1308
   32A       N7 1010   4.187   3.335   2.579 -0.3634  0.7581  0.7006
   32A       C5 1011   4.260   3.444   2.625 -1.1766 -0.1234 -0.7321
   32A       C6 1012   4.356   3.473   2.724 -0.8463  1.0248  0.3819
   32A       N6 1013   4.409   3.383   2.802 -0.1275  0.0255 -0.1588
   32A      H61 1014   4.480   3.413   2.867  0.1014 -1.3552  0.2586
   32A      H62 1015   4.372   3.290   2.809  0.5384 -0.1904  0.7116
   32A       N1 1016   4.410   3.591   2.746  0.3122 -0.9039 -0.5769
   32A       C2 1017   4.369   3.688   2.660  0.2927  0.2177 -1.0087
   32A       H2 1018   4.411   3.787   2.666  0.7071 -0.0275  0.5192
   32A       N3 1019   4.277   3.679   2.559  0.3510  0.5444 -0.4578
   32A       C4 1020   4.228   3.552   2.548  0.1679  0.2657  0.2233
   32A      C3' 1021   4.017   3.517   2.158 -0.3635  1.2740 -0.3806
   32A      H3' 1022   4.055   3.417   2.182 -0.5574  1.7609  2.1933
   32A      C2' 1023   4.110   3.618   2.232  0.1121  0.2019  0.3399
   32A      H2' 1024   4.215   3.588   2.231 -0.4371 -1.9562 -1.5443
   32A      O2' 1025   4.090   3.750   2.187  0.5619 -0.5673 -0.6342
   32A     HO2' 1026   4.168   3.773   2.137  0.6131  1.0943  0.1495
   32A      O3' 1027   4.016   3.538   2.021 -0.2324 -0.3044  0.1308
   33G3       P 1028   4.088   3.439   1.922  0.1058  0.6397  0.1102
   33G3     OP1 1029   4.079   3.495   1.785 -0.2903  0.1975 -0.3389
   33G3     OP2 1030   4.025   3.305   1.944  0.1748 -0.5289 -0.0784
   33G3     O5' 1031   4.247   3.435   1.950 -0.7717  0.4131 -0.4091
   33G3     C5' 1032   4.297   3.339   2.043  0.8239  0.3745 -0.0415
   33G3     H5' 1033   4.321   3.258   1.974  2.4302  0.8711 -0.1078
   33G3    H5'' 1034   4.218   3.298   2.106  0.0552  3.3285  1.0636
   33G3     C4' 1035   4.417   3.376   2.126 -0.5117 -0.2618  0.5608
   33G3     H4' 1036   4.454   3.473   2.093 -0.0978 -0.8754 -0.8754
   33G3     O4' 1037   4.381   3.387   2.262 -0.5025 -0.8366  0.1943
   33G3     C1' 1038   4.474   3.304   2.342  0.1127 -0.3646  0.4220
   33G3     H1' 1039   4.507   3.357   2.431 -2.8741 -0.5348  1.7385
   33G3      N9 1040   4.416   3.181   2.395 -1.1683  0.2520 -0.2476
   33G3      C8 1041   4.311   3.117   2.345  1.0559 -0.0396  0.3174
   33G3      H8 1042   4.249   3.158   2.267 -1.4125 -1.6820  1.3160
   33G3      N7 1043   4.291   3.000   2.398  0.2998 -0.1414 -0.7029
   33G3      C5 1044   4.385   2.990   2.502  0.0398  1.1356  0.5532
   33G3      C6 1045   4.422   2.878   2.589 -0.2957  0.0037  0.7430
   33G3      O6 1046   4.373   2.765   2.596  0.5102  0.0716  0.0776
   33G3      N1 1047   4.529   2.908   2.672 -0.4078  0.6765  0.9764
   33G3      H1 1048   4.551   2.838   2.742  1.5277  0.3385  0.0914
   33G3      C2 1049   4.598   3.020   2.665  0.3251  0.2361 -0.0055
   33G3      N2 1050   4.686   3.035   2.761 -0.4769 -0.7843 -0.2055
   33G3     H21 1051   4.678   2.982   2.846 -0.2588  1.7056  1.4543
   33G3     H22 1052   4.731   3.125   2.756  0.2815 -0.9390  2.4540
   33G3      N3 1053   4.575   3.116   2.577 -0.1229 -0.1014 -0.0412
   33G3      C4 1054   4.466   3.101   2.499 -0.4277  0.1083  0.5692
   33G3     C3' 1055   4.526   3.273   2.120  0.3015  0.5351 -0.1754
   33G3     H3' 1056   4.484   3.173   2.119  0.0625  0.6226 -1.9048
   33G3     C2' 1057   4.599   3.289   2.255 -0.6618 -0.1190  0.4945
   33G3     H2' 1058   4.661   3.200   2.264  0.1541 -0.0688 -3.0654
   33G3     O2' 1059   4.663   3.415   2.262  0.2228 -0.2370 -0.4246
   33G3    HO2' 1060   4.756   3.404   2.241  0.0875  1.1500 -1.9213
   33G3     O3' 1061   4.615   3.290   2.016 -0.0399 -0.8000 -0.4119
   33G3    HO3' 1062   4.643   3.381   2.021 -2.6545  0.0513  0.8506
   34pq0     N1 1063   3.728   3.614   3.551 -0.0936  0.0641  0.3397
   34pq0     C2 1064   3.674   3.508   3.598  0.2828  0.3572 -0.0097
   34pq0     N3 1065   3.704   3.424   3.694 -0.3052  0.3647  0.9625
   34pq0     C4 1066   3.810   3.471   3.759  0.2965  0.2345 -1.0493
   34pq0     C5 1067   3.879   3.584   3.722  0.4929  0.0940  0.7779
   34pq0     C6 1068   3.833   3.667   3.609  0.4888  0.2437  0.5716
   34pq0     O6 1069   3.881   3.764   3.556 -0.5128 -0.2606  0.0359
   34pq0     C7 1070   3.979   3.602   3.819 -0.4617 -0.2577 -0.1857
   34pq0    C10 1071   4.084   3.702   3.822 -0.7105  0.0088  0.2106
   34pq0    N11 1072   4.182   3.767   3.825  0.9084  0.2499 -0.5933
   34pq0     C8 1073   3.974   3.495   3.908  0.0092  0.1274 -0.2840
   34pq0     N9 1074   3.864   3.422   3.873 -0.4273  0.6719  1.1123
   34pq0     N2 1075   3.566   3.475   3.528  0.0228 -0.6133 -0.1081
   34pq0     H1 1076   3.682   3.660   3.474  0.1174  1.5644  1.0751
   34pq0     H2 1077   4.041   3.466   3.988 -1.0256 -0.4069  0.4158
   34pq0     H3 1078   3.831   3.333   3.905  0.1796  0.1081  0.2324
   34pq0     H4 1079   3.577   3.506   3.432  1.5168  1.7514  0.7530
   34pq0     H5 1080   3.537   3.379   3.542 -1.0996 -0.0951  1.3594
   35K+      K+ 1081   4.805   3.810   4.038  0.3020  0.1261 -0.0049
   36K+      K+ 1082   4.333   4.587   4.778 -0.1246 -0.2197  0.3834
   37K+      K+ 1083   3.172   4.368   3.823 -0.3869 -0.1198  0.1499
   38K+      K+ 1084   4.240   1.911   4.109 -0.1007  0.0008 -0.1616
   39K+      K+ 1085   4.611   4.488   3.749 -0.1698  0.2607 -0.1408
   40K+      K+ 1086   4.631   3.127   4.079 -0.2144 -0.1111  0.0718
   41K+      K+ 1087   3.900   2.338   3.468 -0.2480 -0.0079 -0.3697
   42K+      K+ 1088   2.726   3.200   5.593  0.0225  0.3741  0.2885
   43K+      K+ 1089   4.927   4.711   3.620 -0.2907  0.2969  0.0351
   44K+      K+ 1090   2.403   2.790   1.527  0.0443  0.2485  0.1947
   45K+      K+ 1091   4.947   4.991   4.692 -0.0926 -0.3007 -0.0550
   46K+      K+ 1092   2.565   4.907   5.951 -0.2857  0.2839 -0.0584
   47K+      K+ 1093   3.993   2.780   2.738  0.3713  0.2143 -0.3459
   48K+      K+ 1094   3.508   1.961   4.303 -0.2864  0.0590  0.1669
   49K+      K+ 1095   2.863   6.380   3.759 -0.3258  0.0759 -0.0002
   50K+      K+ 1096   4.299   4.175   4.908 -0.1351 -0.1151 -0.3215
   51K+      K+ 1097   2.209   3.565   3.638  0.1611  0.1627 -0.3609
   52K+      K+ 1098   3.991   4.927   6.129  0.0049 -0.0789  0.2929
   53K+      K+ 1099   2.424   4.272   5.195  0.0355 -0.1932 -0.4282
   54K+      K+ 1100   5.926   3.630   2.125 -0.1079 -0.1915  0.1216
   55K+      K+ 1101   5.267   2.057   4.370  0.0274  0.2146 -0.3739
   56K+      K+ 1102   3.777   4.399   3.312 -0.1363 -0.0105  0.2081
   57K+      K+ 1103   3.239   6.107   5.610 -0.5184 -0.0354  0.0440
   58K+      K+ 1104   3.401   2.664   5.203  0.4799  0.1501 -0.1468
   59K+      K+ 1105   4.840   5.953   4.133 -0.3854 -0.0558 -0.3953
   60K+      K+ 1106   4.487   4.758   2.415 -0.0083 -0.2108  0.1707
   61K+      K+ 1107   3.925   1.832   2.397 -0.1372  0.0682  0.2444
   62K+      K+ 1108   2.326   0.552   4.363  0.0220 -0.3044 -0.0019
   63K+      K+ 1109   2.739   4.564   2.516  0.1859  0.0702 -0.2792
   64K+      K+ 1110   1.784   3.050   5.682  0.2484 -0.1892  0.1113
   65K+      K+ 1111   4.918   2.299   4.293 -0.1780  0.2603 -0.4014
   66K+      K+ 1112   5.332   5.080   5.130  0.0623  0.2787 -0.4591
   67K+      K+ 1113   3.679   6.262   4.484  0.2959  0.3776 -0.1762
   68K+      K+ 1114   4.161   3.814   1.485  0.1198  0.0414  0.0092
   69K+      K+ 1115   4.630   1.360   3.073  0.0883  0.2178  0.2396
   70K+      K+ 1116   3.515   3.081   5.766 -0.2242  0.1699 -0.2324
   71K+      K+ 1117   2.598   4.325   2.850  0.1270 -0.3921  0.1811
   72K+      K+ 1118   4.175   5.964   3.057 -0.3905 -0.0882  0.0040
   73K+      K+ 1119   3.090   4.735   5.494 -0.1843  0.2882 -0.2186
   74K+      K+ 1120   3.976   2.763   4.900  0.0567 -0.0747 -0.0677
   75K+      K+ 1121   3.353   2.800   2.104  0.1696  0.3947 -0.4055
   76K+      K+ 1122   4.876   4.830   5.138 -0.2855  0.1346 -0.1335
   77K+      K+ 1123   3.021   6.239   7.230  0.3105  0.0444  0.1252
   78K+      K+ 1124   2.686   4.424   4.423  0.2483  0.1773  0.1308
   79K+      K+ 1125   5.613   2.011   0.468  0.1119  0.0831  0.2718
   80K+      K+ 1126   6.609   6.033   2.282  0.1824  0.1245  0.2789
   81K+      K+ 1127   1.501   7.106   3.224 -0.3133 -0.2057 -0.1702
   82K+      K+ 1128   3.817   0.758   2.554  0.0453  0.0139  0.3477
   83K+      K+ 1129   5.234   2.735   6.251  0.1081  0.2427 -0.0610
   84K+      K+ 1130   3.504   5.192   6.491 -0.2427 -0.0542 -0.2353
   85K+      K+ 1131   5.791   2.281   2.704  0.3410  0.1335  0.1582
   86K+      K+ 1132   4.070   0.171   6.188  0.1700  0.2332 -0.0516
   87K+      K+ 1133   3.645   4.594   1.503 -0.2723  0.3715  0.1329
   88Cl-    Cl- 1134   2.716   5.649   5.636  0.2019  0.0907  0.3149
   89Cl-    Cl- 1135   4.590   3.776   1.870 -0.2360  0.0613  0.1047
   90Cl-    Cl- 1136   2.902   1.847   5.664 -0.0600 -0.1114  0.4246
   91Cl-    Cl- 1137   3.209   6.135   3.401  0.4733  0.5153  0.6815
   92Cl-    Cl- 1138   5.358   2.107   3.387  0.0300  0.0943  0.2768
   93Cl-    Cl- 1139   3.430   1.795   3.510  0.0699  0.1792  0.2553
   94Cl-    Cl- 1140   3.940   6.140   5.658 -0.0828  0.1705  0.1477
   95Cl-    Cl- 1141   2.566   3.529   2.680 -0.0219 -0.0996  0.1978
   96Cl-    Cl- 1142   3.045   3.672   1.751 -0.0927  0.0093  0.5888
   97Cl-    Cl- 1143   3.965   2.423   5.631 -0.2986 -0.0496  0.1009
   98Cl-    Cl- 1144   1.632   3.500   3.968  0.2679 -0.4727  0.2600
   99Cl-    Cl- 1145   6.533   0.725   2.074 -0.1072  0.1527  0.4744
  100Cl-    Cl- 1146   2.988   6.471   2.637 -0.1433  0.0671  0.0361
  101Cl-    Cl- 1147   4.185   1.630   0.447  0.1598 -0.1532 -0.0790
  102Cl-    Cl- 1148   4.027   0.451   4.780 -0.4267  0.1101  0.1454
  103Cl-    Cl- 1149   4.025   2.016   6.665  0.5771  0.0187 -0.1823
  104Cl-    Cl- 1150   3.833   5.097   6.340  0.3806  0.2455 -0.0750
  105Cl-    Cl- 1151   5.431   6.356   2.012 -0.5924  0.4707 -0.1342
  106Cl-    Cl- 1152   5.570   4.854   5.243 -0.1133 -0.0326 -0.3927
  107Cl-    Cl- 1153   4.063   1.113   2.722  0.3798 -0.1810  0.2489
  108Cl-    Cl- 1154   6.244   2.817   2.548  0.1037  0.0626  0.1691
  109WAT      O 1155   5.754   0.049   4.766  0.5342  0.1305 -0.7385
  109WAT     H1 1156   5.720   0.116   4.721 -0.6605 -1.1124 -1.7939
  109WAT     H2 1157   5.821   0.023   4.716 -0.4735 -0.9211 -1.6070
  109WAT    EPW 1158   5.759   0.055   4.752  0.2089 -0.2085 -1.0227
  110WAT      O 1159   6.554   7.442   5.856  0.4263 -0.3490 -0.2009
  110WAT     H1 1160   6.482   7.472   5.896 -0.6312 -2.1306 -0.6474
  110WAT     H2 1161   6.619   7.478   5.901 -0.7322 -0.1889  1.4455
  110WAT    EPW 1162   6.553   7.452   5.869  0.0989 -0.5885 -0.0236
  111WAT      O 1163   5.798   6.334   6.437  0.4520 -0.1598 -0.1204
  111WAT     H1 1164   5.729   6.289   6.465  0.1844 -0.0911 -0.6523
  111WAT     H2 1165   5.835   6.363   6.510 -0.5711  0.5202  0.1578
  111WAT    EPW 1166   5.793   6.332   6.452  0.2614 -0.0492 -0.1579
  112WAT      O 1167   7.138   7.305   6.931 -0.1844 -0.8805  0.4421
  112WAT     H1 1168   7.148   7.222   6.955 -0.1470 -0.9876  0.0577
  112WAT     H2 1169   7.114   7.345   7.005 -0.3542 -1.2594  0.5919
  112WAT    EPW 1170   7.136   7.299   6.946 -0.2040 -0.9523  0.4075
  113WAT      O 1171   6.317   4.866   5.575  0.1497 -0.5084  0.7737
  113WAT     H1 1172   6.344   4.784   5.560  1.3115  0.0672 -0.4524
  113WAT     H2 1173   6.232   4.863   5.555  0.1046 -1.4600  1.0162
  113WAT    EPW 1174   6.308   4.853   5.570  0.3146 -0.5639  0.6284
  114WAT      O 1175   6.138   0.923   5.788  0.0388  0.1302 -0.0689
  114WAT     H1 1176   6.072   0.871   5.767 -0.0708 -0.7682  2.2145
  114WAT     H2 1177   6.100   0.993   5.822  0.2435  0.2353 -0.0525
  114WAT    EPW 1178   6.123   0.925   5.790  0.0529  0.0130  0.2708
  115WAT      O 1179   6.607   6.517   7.738  0.1099 -0.0560  0.0804
  115WAT     H1 1180   6.528   6.550   7.717  0.1785  0.8535  1.1442
  115WAT     H2 1181   6.650   6.519   7.662 -0.6390  0.1879 -0.3528
  115WAT    EPW 1182   6.602   6.522   7.724  0.0094  0.1144  0.1736
  116WAT      O 1183   6.427   6.149   5.199 -0.1484  0.1195  0.1666
  116WAT     H1 1184   6.459   6.208   5.143  0.9104 -0.0393  0.5789
  116WAT     H2 1185   6.457   6.073   5.168 -0.5790 -0.0885  0.2635
  116WAT    EPW 1186   6.436   6.147   5.186 -0.0556  0.0653  0.2418
  117WAT      O 1187   5.081   7.324   7.105  0.0423  0.3691 -0.3079
  117WAT     H1 1188   5.046   7.264   7.157 -1.3526  1.0066 -0.4562
  117WAT     H2 1189   5.091   7.282   7.029 -2.7307  0.7510 -0.9872
  117WAT    EPW 1190   5.078   7.309   7.101 -0.5734  0.5197 -0.4301
  118WAT      O 1191   5.831   7.037   5.947 -0.0116  0.4370  0.8204
  118WAT     H1 1192   5.865   7.029   6.027  0.2957  0.3422  0.6833
  118WAT     H2 1193   5.765   7.092   5.958 -0.4890 -0.2261  1.2888
  118WAT    EPW 1194   5.827   7.044   5.960 -0.0367  0.3250  0.8693
  119WAT      O 1195   6.680   6.301   0.079 -0.6764  0.6945 -0.4196
  119WAT     H1 1196   6.748   6.346   0.110 -0.3675  0.4278 -0.7110
  119WAT     H2 1197   6.649   6.351   0.015  0.7221 -0.2725 -1.9215
  119WAT    EPW 1198   6.685   6.315   0.074 -0.4242  0.5123 -0.6845
  120WAT      O 1199   4.748   6.074   0.786  0.1251 -0.0845  0.1919
  120WAT     H1 1200   4.700   6.006   0.811  0.5682 -0.3663  0.2937
  120WAT     H2 1201   4.726   6.085   0.702  0.5824 -0.8231 -0.0347
  120WAT    EPW 1202   4.738   6.066   0.777  0.2581 -0.2352  0.1734
  121WAT      O 1203   6.954   6.388   6.624 -0.2597  0.6774 -0.8280
  121WAT     H1 1204   6.929   6.355   6.700  3.0610 -0.6601 -0.1555
  121WAT     H2 1205   6.942   6.322   6.568  0.8268  0.3223 -0.6648
  121WAT    EPW 1206   6.949   6.373   6.627  0.3914  0.4273 -0.7045
  122WAT      O 1207   6.266   6.417   6.195 -0.2068 -0.3519  0.2862
  122WAT     H1 1208   6.273   6.491   6.241  0.7538  0.7573 -1.5035
  122WAT     H2 1209   6.206   6.371   6.239  0.2472  0.8471  2.2789
  122WAT    EPW 1210   6.258   6.421   6.208  0.0022 -0.0109  0.3162
  123WAT      O 1211   4.985   7.277   6.354  0.1450  0.9385  1.0156
  123WAT     H1 1212   5.016   7.357   6.372 -0.0073  0.6479  2.7680
  123WAT     H2 1213   4.941   7.256   6.426 -0.4133 -0.4511  0.2987
  123WAT    EPW 1214   4.983   7.286   6.368  0.0400  0.6903  1.1686
  124WAT      O 1215   6.794   0.089   7.374  0.3425 -0.4595  0.1095
  124WAT     H1 1216   6.710   0.103   7.356  0.5413  1.2593  0.4182
  124WAT     H2 1217   6.822   0.165   7.405  2.1401 -0.8593 -0.4087
  124WAT    EPW 1218   6.786   0.102   7.376  0.6374 -0.2646  0.0785
  125WAT      O 1219   5.576   6.445   7.305 -0.0317  0.2803  0.5189
  125WAT     H1 1220   5.588   6.367   7.268  1.0573  0.6810 -0.0111
  125WAT     H2 1221   5.643   6.492   7.276 -1.1638  1.6920  0.1067
  125WAT    EPW 1222   5.588   6.440   7.296 -0.0381  0.5480  0.3797
  126WAT      O 1223   6.441   6.924   7.855  0.5016  0.0228  0.3584
  126WAT     H1 1224   6.369   6.890   7.819 -1.1823  1.8100  1.7983
  126WAT     H2 1225   6.469   6.861   7.908 -0.5205 -0.3916  0.4230
  126WAT    EPW 1226   6.434   6.910   7.857  0.1019  0.2256  0.5806
  127WAT      O 1227   5.141   6.318   5.545  0.1478 -0.6521  0.4265
  127WAT     H1 1228   5.134   6.405   5.552 -0.3651 -0.2866 -2.8910
  127WAT     H2 1229   5.067   6.288   5.580 -1.1276  0.5457 -1.1022
  127WAT    EPW 1230   5.129   6.326   5.551 -0.1164 -0.4212 -0.2894
  128WAT      O 1231   6.640   7.041   4.832 -0.1609 -0.2399  0.2177
  128WAT     H1 1232   6.575   7.003   4.875 -0.4994 -0.1493 -0.2074
  128WAT     H2 1233   6.683   6.975   4.796 -0.2758 -0.2715  0.1393
  128WAT    EPW 1234   6.637   7.026   4.833 -0.2279 -0.2312  0.1433
  129WAT      O 1235   5.282   6.533   1.204  0.1127  0.2770 -0.1176
  129WAT     H1 1236   5.248   6.454   1.190 -0.0161  0.2177  0.5304
  129WAT     H2 1237   5.232   6.585   1.154  0.7810 -0.1563 -1.2800
  129WAT    EPW 1238   5.269   6.529   1.194  0.1924  0.2042 -0.1936
  130WAT      O 1239   5.719   6.409   5.919  0.5844 -0.2248  0.9860
  130WAT     H1 1240   5.674   6.401   5.845  0.1060 -1.1565  1.3644
  130WAT     H2 1241   5.779   6.469   5.900 -0.6105  0.8239  0.3740
  130WAT    EPW 1242   5.721   6.417   5.905  0.3372 -0.2075  0.9515
  131WAT      O 1243   5.229   6.142   4.492 -0.0167 -0.3945 -0.1919
  131WAT     H1 1244   5.152   6.177   4.472 -0.1039  0.2165  1.1411
  131WAT     H2 1245   5.250   6.179   4.568  1.2226 -1.1430 -0.1369
  131WAT    EPW 1246   5.221   6.152   4.500  0.1535 -0.4148  0.0131
  132WAT      O 1247   6.548   0.012   5.594  0.5869  0.3890  0.3342
  132WAT     H1 1248   6.490   0.013   5.528  0.8896  1.5418  0.0689
  132WAT     H2 1249   6.574  -0.072   5.597 -1.7478 -0.3787  1.0712
  132WAT    EPW 1250   6.543  -0.000   5.585  0.2867  0.4458  0.4039
  133WAT      O 1251   5.489   6.405   6.876  0.1017  0.4776  0.1388
  133WAT     H1 1252   5.472   6.369   6.799  1.4288  0.8548 -0.3697
  133WAT     H2 1253   5.557   6.358   6.906 -1.2590 -0.5647  1.7445
  133WAT    EPW 1254   5.497   6.393   6.869  0.0968  0.3794  0.3009
  134WAT      O 1255   5.093   7.062   5.780  0.3543  0.3811  0.2474
  134WAT     H1 1256   5.041   7.126   5.809  0.7701  1.6933 -1.7146
  134WAT     H2 1257   5.163   7.068   5.831 -0.7395 -0.4239  1.9351
  134WAT    EPW 1258   5.096   7.073   5.792  0.2542  0.4560  0.2069
  135WAT      O 1259   5.651   6.923   7.170  0.0836  0.2882  0.0406
  135WAT     H1 1260   5.671   6.894   7.091  2.3520  1.7770 -0.0411
  135WAT     H2 1261   5.569   6.951   7.162 -0.0282 -0.4068 -1.5329
  135WAT    EPW 1262   5.642   6.923   7.157  0.4022  0.4055 -0.2039
  136WAT      O 1263   5.322   6.527   7.655  0.1398  0.1827  0.1657
  136WAT     H1 1264   5.269   6.502   7.590  2.3433  0.1543 -1.7658
  136WAT     H2 1265   5.399   6.495   7.632  1.8492  3.4122  0.7675
  136WAT    EPW 1266   5.325   6.519   7.642  0.7178  0.6556 -0.0307
  137WAT      O 1267   6.409   6.182   6.607 -0.0909 -0.0290  0.6149
  137WAT     H1 1268   6.384   6.175   6.523  0.1787 -1.2646  0.6123
  137WAT     H2 1269   6.416   6.268   6.619  1.0776  0.1490 -0.9855
  137WAT    EPW 1270   6.406   6.194   6.596  0.1215 -0.1852  0.3781
  138WAT      O 1271   6.412   5.590   0.074  0.1554  0.1139  0.4201
  138WAT     H1 1272   6.364   5.658   0.046  1.5417  0.4923 -1.2613
  138WAT     H2 1273   6.493   5.622   0.075  0.6670 -1.1433  0.9578
  138WAT    EPW 1274   6.417   5.605   0.070  0.4358 -0.0159  0.2511
  139WAT      O 1275   5.097   6.410   5.821 -0.3361  0.6038 -0.4223
  139WAT     H1 1276   5.100   6.476   5.764  1.0972 -0.5513 -1.7735
  139WAT     H2 1277   5.012   6.403   5.841 -0.4976  2.9757 -0.0137
  139WAT    EPW 1278   5.085   6.419   5.816 -0.1482  0.7835 -0.5615
  140WAT      O 1279   6.558   0.099   7.733 -0.2869 -0.2000 -0.3314
  140WAT     H1 1280   6.531   0.018   7.714 -2.0670  0.2139  0.2440
  140WAT     H2 1281   6.593   0.092   7.812  0.6725 -0.5973 -0.7687
  140WAT    EPW 1282   6.559   0.086   7.742 -0.4082 -0.1976 -0.3110
  141WAT      O 1283   5.333   6.411   5.945  0.4591  0.0624 -0.1654
  141WAT     H1 1284   5.322   6.452   6.021  1.3114 -0.1382  0.0827
  141WAT     H2 1285   5.252   6.402   5.914  0.2236  1.8627 -0.1906
  141WAT    EPW 1286   5.320   6.416   5.952  0.5502  0.2987 -0.1325
  142WAT      O 1287   6.728   6.780   6.793  0.1664  0.1817 -0.4459
  142WAT     H1 1288   6.741   6.730   6.723  1.1633  0.2028 -0.2892
  142WAT     H2 1289   6.646   6.807   6.784  0.8667  1.8734 -2.7232
  142WAT    EPW 1290   6.718   6.777   6.781  0.4171  0.4347 -0.7591
  143WAT      O 1291   5.489   7.650   6.441 -0.5312  0.2278 -0.4002
  143WAT     H1 1292   5.454   7.721   6.403  0.3255  0.0569 -1.5746
  143WAT     H2 1293   5.501   7.675   6.523 -0.4161  1.4018 -0.7539
  143WAT    EPW 1294   5.485   7.665   6.447 -0.3876  0.3760 -0.6260
  144WAT      O 1295   6.426   4.963   6.382  0.0125 -0.0585 -0.0484
  144WAT     H1 1296   6.347   4.933   6.360  0.4607 -0.9209 -0.5218
  144WAT     H2 1297   6.408   5.036   6.427 -1.0195  0.1936 -0.8360
  144WAT    EPW 1298   6.411   4.970   6.386 -0.0738 -0.1486 -0.2347
  145WAT      O 1299   4.355   6.511   1.029 -0.0423  0.1883 -0.2288
  145WAT     H1 1300   4.360   6.577   1.086 -3.1978 -0.3228  0.8304
  145WAT     H2 1301   4.327   6.549   0.956  0.8234  0.3739 -0.4754
  145WAT    EPW 1302   4.351   6.526   1.027 -0.3806  0.1402 -0.1088
  146WAT      O 1303   4.782   6.895   5.518 -0.3764 -0.1794  0.5509
  146WAT     H1 1304   4.773   6.977   5.548 -1.1612  0.4921 -1.3878
  146WAT     H2 1305   4.833   6.857   5.578  1.3746  2.1940  0.7021
  146WAT    EPW 1306   4.788   6.901   5.531 -0.2336  0.2704  0.2868
  147WAT      O 1307   5.661   0.776   5.940  0.2850  0.1660  0.1281
  147WAT     H1 1308   5.688   0.830   6.003  1.0463 -0.4311  0.3214
  147WAT     H2 1309   5.627   0.830   5.880  1.0779  0.8628  0.2928
  147WAT    EPW 1310   5.660   0.792   5.941  0.5146  0.1807  0.1810
  148WAT      O 1311   4.809   0.046   0.080  0.0844 -0.4382 -0.5295
  148WAT     H1 1312   4.731   0.015   0.058  0.4111 -1.1727 -0.7125
  148WAT     H2 1313   4.861  -0.024   0.074  0.8895  0.1834 -1.1063
  148WAT    EPW 1314   4.805   0.031   0.075  0.2516 -0.4549 -0.6417
  149WAT      O 1315   7.033   0.532   6.700 -0.1381  0.3005  0.1352
  149WAT     H1 1316   7.021   0.448   6.681  1.6604  0.1211 -0.4565
  149WAT     H2 1317   7.056   0.567   6.624  2.0050  0.6917  0.8939
  149WAT    EPW 1318   7.035   0.525   6.686  0.4442  0.3318  0.1599
  150WAT      O 1319   6.204   6.750   6.828 -0.5322  0.0012  0.5512
  150WAT     H1 1320   6.221   6.734   6.912 -0.4366  1.8036  0.9350
  150WAT     H2 1321   6.216   6.673   6.789 -0.2864 -0.8114  2.1407
  150WAT    EPW 1322   6.209   6.737   6.835 -0.4817  0.1474  0.8427
  151WAT      O 1323   5.666   7.016   5.554  0.2416 -0.6504  0.1343
  151WAT     H1 1324   5.614   7.038   5.619 -1.4666 -1.0255 -1.0411
  151WAT     H2 1325   5.696   7.093   5.524 -2.0800 -0.1233 -1.0668
  151WAT    EPW 1326   5.663   7.031   5.559 -0.3537 -0.6280 -0.2168
  152WAT      O 1327   5.656   7.232   5.062  0.0299  0.3323  0.6580
  152WAT     H1 1328   5.655   7.203   4.980  1.8300  0.1334  0.6468
  152WAT     H2 1329   5.617   7.168   5.107  0.0842 -0.1039  0.0974
  152WAT    EPW 1330   5.650   7.218   5.057  0.3038  0.2385  0.5735
  153WAT      O 1331   5.645   6.511   5.199  0.0305 -0.4141 -0.0844
  153WAT     H1 1332   5.603   6.522   5.275  0.6319 -0.2497  0.2291
  153WAT     H2 1333   5.705   6.575   5.199  0.2743 -0.6381 -0.5362
  153WAT    EPW 1334   5.648   6.522   5.210  0.1553 -0.4229 -0.1048
  154WAT      O 1335   6.073   5.813   5.576  0.2609 -0.5120  0.2460
  154WAT     H1 1336   6.112   5.860   5.514  0.6831  1.3114  1.7831
  154WAT     H2 1337   5.992   5.801   5.545  0.9159 -1.0848 -1.3307
  154WAT    EPW 1338   6.066   5.818   5.562  0.4200 -0.3272  0.2402
  155WAT      O 1339   6.653   6.964   1.620  0.6105 -0.1485 -0.0728
  155WAT     H1 1340   6.689   7.040   1.597 -1.2940  0.3657 -1.6539
  155WAT     H2 1341   6.570   6.984   1.636  0.7081 -1.4322  2.5492
  155WAT    EPW 1342   6.646   6.978   1.619  0.3436 -0.2622  0.0810
  156WAT      O 1343   5.943   5.053   6.134 -0.2171 -0.1915  0.0385
  156WAT     H1 1344   5.922   4.970   6.121  0.2620  0.0031 -2.5154
  156WAT     H2 1345   5.868   5.091   6.157 -1.0304 -0.8686 -1.3996
  156WAT    EPW 1346   5.929   5.046   6.136 -0.2665 -0.2628 -0.5512
  157WAT      O 1347   7.176   7.540   6.773  0.0737 -0.0398 -0.5410
  157WAT     H1 1348   7.181   7.459   6.804  1.1013  0.0750 -0.3633
  157WAT     H2 1349   7.191   7.530   6.687  0.1553 -0.0474 -0.5261
  157WAT    EPW 1350   7.179   7.527   6.765  0.2376 -0.0240 -0.5126
  158WAT      O 1351   7.002   5.965   5.950 -0.0700 -0.1167 -0.2917
  158WAT     H1 1352   7.012   6.036   5.900  0.8393  0.3839  0.5619
  158WAT     H2 1353   6.932   5.984   5.999 -0.4411 -0.2472 -0.7633
  158WAT    EPW 1354   6.993   5.978   5.950  0.0095 -0.0620 -0.2353
  159WAT      O 1355   5.233   5.750   6.002 -0.5586  0.1720  0.0763
  159WAT     H1 1356   5.154   5.726   5.973 -0.1954 -0.2912 -0.5463
  159WAT     H2 1357   5.286   5.690   5.968  0.1416  0.8404 -0.0232
  159WAT    EPW 1358   5.229   5.738   5.992 -0.4015  0.2023 -0.0304
  160WAT      O 1359   4.378   6.654   5.408  0.1682  0.5231 -0.2497
  160WAT     H1 1360   4.316   6.593   5.401  0.8860 -0.3076  0.4200
  160WAT     H2 1361   4.397   6.654   5.493  0.9694  0.8853 -0.4257
  160WAT    EPW 1362   4.372   6.645   5.419  0.3926  0.4539 -0.1768
  161WAT      O 1363   6.146   0.090   5.655  0.3802  0.0152  0.3378
  161WAT     H1 1364   6.106   0.164   5.630 -1.2425 -0.6939  0.7121
  161WAT     H2 1365   6.221   0.092   5.612  0.4870  1.9957  0.4946
  161WAT    EPW 1366   6.151   0.101   5.645  0.1563  0.2030  0.4163
  162WAT      O 1367   6.417   7.188   5.322 -0.1532 -0.9619 -0.0485
  162WAT     H1 1368   6.500   7.215   5.320 -1.0715  2.5204  0.7870
  162WAT     H2 1369   6.394   7.186   5.238  0.4559 -0.6279 -0.2307
  162WAT    EPW 1370   6.426   7.192   5.309 -0.1989 -0.3982  0.0480
  163WAT      O 1371   6.794   6.895   0.108 -0.0710  0.2090  0.2971
  163WAT     H1 1372   6.862   6.874   0.057  0.5110 -1.5976  1.7131
  163WAT     H2 1373   6.739   6.828   0.096 -0.2120  0.0888  1.5141
  163WAT    EPW 1374   6.796   6.882   0.098 -0.0058 -0.0756  0.6860
  164WAT      O 1375   4.098   6.465   7.830 -0.6061  0.2210 -0.4903
  164WAT     H1 1376   4.063   6.455   7.751  1.6368 -1.3051 -1.3856
  164WAT     H2 1377   4.176   6.500   7.814  0.6153 -1.6995  0.8173
  164WAT    EPW 1378   4.105   6.469   7.816 -0.0944 -0.2881 -0.4294
  165WAT      O 1379   5.616   6.993   6.197 -0.5409 -0.0631 -0.1232
  165WAT     H1 1380   5.530   6.994   6.210 -0.7729 -1.2988 -1.2686
  165WAT     H2 1381   5.641   7.075   6.214 -1.8732  0.2136  0.6200
  165WAT    EPW 1382   5.607   7.005   6.201 -0.7720 -0.2048 -0.1826
  166WAT      O 1383   6.514   0.497   0.296 -0.1741 -0.2972 -0.3888
  166WAT     H1 1384   6.475   0.470   0.223  2.8535 -0.0894 -2.2492
  166WAT     H2 1385   6.536   0.580   0.278  2.5506 -0.8814 -0.2542
  166WAT    EPW 1386   6.512   0.505   0.283  0.6756 -0.3528 -0.6437
  167WAT      O 1387   7.006   7.454   7.177 -0.3308 -0.0014 -0.0994
  167WAT     H1 1388   7.073   7.494   7.215 -1.7185  1.9098  0.4668
  167WAT     H2 1389   6.968   7.517   7.130 -0.5132 -1.5431 -2.2029
  167WAT    EPW 1390   7.010   7.469   7.175 -0.5627  0.0532 -0.3265
  168WAT      O 1391   6.809   6.067   6.125  0.2432  0.3921  0.0178
  168WAT     H1 1392   6.737   6.074   6.076  0.5901 -2.2991 -1.0217
  168WAT     H2 1393   6.779   6.078   6.206 -0.9666  1.3480 -0.5264
  168WAT    EPW 1394   6.794   6.069   6.130  0.1158  0.1357 -0.2162
  169WAT      O 1395   6.228   6.568   1.140 -0.0250  0.3004  0.2354
  169WAT     H1 1396   6.222   6.648   1.106  0.7209 -0.4780 -1.8937
  169WAT     H2 1397   6.180   6.519   1.087  0.0508 -0.7866  1.1270
  169WAT    EPW 1398   6.220   6.573   1.127  0.0963  0.0248  0.0526
  170WAT      O 1399   6.574   7.430   5.589 -0.1961  0.2814 -0.2187
  170WAT     H1 1400   6.617   7.357   5.565  0.9138  1.1649 -1.0062
  170WAT     H2 1401   6.580   7.428   5.676  0.7887 -0.0310 -0.2740
  170WAT    EPW 1402   6.581   7.419   5.598  0.1134  0.3658 -0.3432
  171WAT      O 1403   6.800   6.225   0.413  0.4547  0.2675 -0.4875
  171WAT     H1 1404   6.771   6.307   0.421 -0.2524 -0.0971  0.9283
  171WAT     H2 1405   6.785   6.190   0.491 -1.2749 -1.8584 -1.6913
  171WAT    EPW 1406   6.794   6.232   0.426  0.0947 -0.1004 -0.4562
  172WAT      O 1407   6.675   4.788   6.096 -0.3874  0.6197  0.1059
  172WAT     H1 1408   6.760   4.785   6.075 -0.2226  2.7727  0.2857
  172WAT     H2 1409   6.675   4.768   6.181  0.0402  1.3945  0.2942
  172WAT    EPW 1410   6.688   4.784   6.105 -0.2999  1.0522  0.1603
  173WAT      O 1411   5.374   6.522   7.093  0.0579  0.6540  0.1534
  173WAT     H1 1412   5.413   6.470   7.150 -1.5643 -1.0066 -0.1596
  173WAT     H2 1413   5.397   6.490   7.015  0.9876  1.9341 -0.1348
  173WAT    EPW 1414   5.383   6.510   7.090 -0.0444  0.5978  0.0646
  174WAT      O 1415   5.182   7.463   5.862  0.0469  0.1755  0.5376
  174WAT     H1 1416   5.146   7.384   5.867  0.0912  0.0228 -1.0992
  174WAT     H2 1417   5.147   7.506   5.930 -2.5704 -0.2340 -0.4466
  174WAT    EPW 1418   5.171   7.458   5.873 -0.3332  0.0925  0.1504
  175WAT      O 1419   6.842   7.169   7.523 -0.1818 -0.5611 -0.2643
  175WAT     H1 1420   6.860   7.198   7.443  0.9328 -0.7777 -0.1079
  175WAT     H2 1421   6.756   7.152   7.520 -0.4008  0.6008 -1.0246
  175WAT    EPW 1422   6.832   7.171   7.511 -0.0495 -0.4215 -0.3535
  176WAT      O 1423   6.490   6.718   5.394  0.8089 -0.1706 -0.3965
  176WAT     H1 1424   6.482   6.643   5.439 -1.8087 -0.7767 -1.7391
  176WAT     H2 1425   6.433   6.771   5.433 -0.0775 -0.0991 -1.7493
  176WAT    EPW 1426   6.481   6.715   5.406  0.2913 -0.2496 -0.7947
  177WAT      O 1427   4.914   7.392   5.387 -0.4055 -0.2280  0.4363
  177WAT     H1 1428   4.849   7.358   5.434 -1.5867  2.0397  0.5454
  177WAT     H2 1429   4.922   7.336   5.320 -1.7327 -1.1053  0.9677
  177WAT    EPW 1430   4.906   7.379   5.384 -0.7760 -0.0226  0.5309
  178WAT      O 1431   7.085   6.472   7.051  0.0330  0.1127 -0.4436
  178WAT     H1 1432   7.074   6.388   7.069 -1.8890  0.3119 -0.5198
  178WAT     H2 1433   7.005   6.506   7.058  0.3577  1.5125 -2.5610
  178WAT    EPW 1434   7.071   6.465   7.055 -0.2030  0.3489 -0.7677
  179WAT      O 1435   6.172   0.595   7.195  0.3692 -0.2170 -0.0850
  179WAT     H1 1436   6.127   0.538   7.243  0.1420 -0.3342 -0.4347
  179WAT     H2 1437   6.144   0.672   7.223  0.8652 -0.2683  0.5689
  179WAT    EPW 1438   6.161   0.598   7.206  0.4089 -0.2419 -0.0401
  180WAT      O 1439   6.891   5.204   5.848 -0.6662  0.3454  0.0485
  180WAT     H1 1440   6.909   5.289   5.842 -0.4892  0.3007 -0.0640
  180WAT     H2 1441   6.836   5.200   5.915  0.7648  0.3310  1.2722
  180WAT    EPW 1442   6.886   5.216   5.857 -0.4287  0.3367  0.2126
  181WAT      O 1443   6.111   7.480   0.306  0.1553 -0.3106  0.4365
  181WAT     H1 1444   6.053   7.463   0.244  0.1810 -0.9148  0.5698
  181WAT     H2 1445   6.126   7.565   0.298 -0.7065 -0.1600  0.3695
  181WAT    EPW 1446   6.105   7.490   0.296  0.0318 -0.3776  0.4463
  182WAT      O 1447   6.498   0.199   1.611 -0.0322 -0.2562 -0.3394
  182WAT     H1 1448   6.559   0.251   1.647 -0.3488 -0.4694  0.5498
  182WAT     H2 1449   6.472   0.150   1.678 -1.3791  0.0296 -0.6224
  182WAT    EPW 1450   6.503   0.200   1.626 -0.2779 -0.2455 -0.2498
  183WAT      O 1451   6.187   6.560   0.075  0.5222 -0.3522  0.2679
  183WAT     H1 1452   6.179   6.543   0.161  2.3485 -0.1508  0.5254
  183WAT     H2 1453   6.145   6.636   0.065  2.0258  0.7273  1.4682
  183WAT    EPW 1454   6.180   6.569   0.086  1.0141 -0.1630  0.4833
  184WAT      O 1455   6.462   6.175   0.202  0.2869  0.2892 -0.0162
  184WAT     H1 1456   6.512   6.230   0.157 -0.8946  1.0926 -0.3797
  184WAT     H2 1457   6.426   6.225   0.264 -0.1512 -0.2429  0.1686
  184WAT    EPW 1458   6.464   6.190   0.205  0.0476  0.3293 -0.0426
  185WAT      O 1459   6.213   5.163   0.950 -0.4936 -0.5295  0.0999
  185WAT     H1 1460   6.227   5.249   0.937 -1.4032 -0.4244 -0.2429
  185WAT     H2 1461   6.152   5.161   1.012 -0.3479 -0.9362  0.2314
  185WAT    EPW 1462   6.206   5.176   0.957 -0.6065 -0.5741  0.0687
  186WAT      O 1463   6.493   6.121   0.520  0.3903  0.3363 -0.1444
  186WAT     H1 1464   6.524   6.077   0.589  0.4546  1.1320  0.3472
  186WAT     H2 1465   6.553   6.109   0.459  0.0034 -0.9481 -0.2908
  186WAT    EPW 1466   6.506   6.113   0.522  0.3426  0.2641 -0.0934
  187WAT      O 1467   5.236   6.562   5.203  0.6953 -0.5776  0.0058
  187WAT     H1 1468   5.237   6.631   5.257  0.1057  0.2366 -0.9880
  187WAT     H2 1469   5.271   6.498   5.251  3.1357  0.8841  0.3272
  187WAT    EPW 1470   5.241   6.563   5.218  0.9687 -0.2414 -0.0935
  188WAT      O 1471   7.085   5.954   0.252  0.2476  0.2613 -0.0216
  188WAT     H1 1472   7.018   6.004   0.228  0.1693  1.2643  2.0705
  188WAT     H2 1473   7.143   6.011   0.283  1.5927 -0.6932 -0.6925
  188WAT    EPW 1474   7.084   5.970   0.253  0.4348  0.2685  0.1883
  189WAT      O 1475   5.997   0.191   6.835  0.3125 -0.1041 -0.2790
  189WAT     H1 1476   6.029   0.126   6.883  0.4792 -0.1467 -0.4457
  189WAT     H2 1477   5.912   0.191   6.855  0.5402  0.4864  0.7202
  189WAT    EPW 1478   5.989   0.181   6.845  0.3708 -0.0232 -0.1560
  190WAT      O 1479   6.920   6.181   6.443 -0.4082  0.3502 -0.5105
  190WAT     H1 1480   6.851   6.130   6.459 -0.3662 -0.3449 -2.2960
  190WAT     H2 1481   6.985   6.142   6.486 -0.5613 -0.5939 -1.1237
  190WAT    EPW 1482   6.920   6.168   6.452 -0.4246  0.1081 -0.8649
  191WAT      O 1483   6.478   5.893   6.274 -0.4215  0.8045 -0.4714
  191WAT     H1 1484   6.495   5.956   6.331  1.2371  0.0151 -0.0371
  191WAT     H2 1485   6.538   5.905   6.211 -1.5863  1.0646 -1.5683
  191WAT    EPW 1486   6.489   5.904   6.273 -0.3485  0.7263 -0.5693
  192WAT      O 1487   5.402   7.379   6.534  0.1843 -0.4549  0.1520
  192WAT     H1 1488   5.424   7.456   6.498 -2.0970 -0.0772 -0.5380
  192WAT     H2 1489   5.434   7.386   6.615 -0.4808  1.4907  0.3088
  192WAT    EPW 1490   5.410   7.391   6.541 -0.2510 -0.1117  0.0732
  193WAT      O 1491   6.258   6.330   7.644 -0.1352 -0.6958 -0.0730
  193WAT     H1 1492   6.288   6.294   7.718  1.6653  0.3117 -0.2439
  193WAT     H2 1493   6.306   6.291   7.582 -2.6510 -2.6570 -0.9747
  193WAT    EPW 1494   6.270   6.319   7.646 -0.2408 -0.8367 -0.2315
  194WAT      O 1495   5.302   7.679   0.801  0.1343 -0.3566 -0.0354
  194WAT     H1 1496   5.273   7.597   0.805 -0.0934 -0.2855 -0.2323
  194WAT     H2 1497   5.232   7.726   0.823  0.3912 -0.2383  0.5344
  194WAT    EPW 1498   5.287   7.674   0.805  0.1386 -0.3286  0.0197
  195WAT      O 1499   4.628   6.082   4.634 -0.3323 -0.1170 -0.0968
  195WAT     H1 1500   4.585   6.105   4.707 -0.0874  0.8622 -0.2593
  195WAT     H2 1501   4.566   6.045   4.585 -0.2501 -2.0498  1.1150
  195WAT    EPW 1502   4.612   6.080   4.638 -0.2840 -0.2579  0.0582
  196WAT      O 1503   5.514   0.007   0.961  0.0269 -0.0368 -0.3687
  196WAT     H1 1504   5.470  -0.009   0.887 -0.2430 -0.3824 -0.1322
  196WAT     H2 1505   5.562  -0.065   0.973  0.3662  0.1783 -0.4137
  196WAT    EPW 1506   5.515  -0.006   0.952  0.0372 -0.0561 -0.3404
  197WAT      O 1507   6.747   7.216   6.129  0.0455 -0.0716 -0.4029
  197WAT     H1 1508   6.771   7.134   6.146  0.2135 -0.7223 -3.2632
  197WAT     H2 1509   6.660   7.211   6.122 -0.2294  0.5743  1.8109
  197WAT    EPW 1510   6.738   7.203   6.131  0.0297 -0.0723 -0.4984
  198WAT      O 1511   5.878   6.828   7.317  0.6231  0.6823 -0.1365
  198WAT     H1 1512   5.869   6.872   7.392 -1.2547 -0.1353  0.1829
  198WAT     H2 1513   5.808   6.852   7.271  0.8987 -0.0616 -0.9731
  198WAT    EPW 1514   5.866   6.838   7.321  0.3864  0.4516 -0.2129
  199WAT      O 1515   5.719   6.733   6.114  0.3857 -0.6411  0.1573
  199WAT     H1 1516   5.789   6.734   6.166  0.9653 -0.4401 -0.6170
  199WAT     H2 1517   5.695   6.817   6.110  1.3548 -0.4020 -1.2251
  199WAT    EPW 1518   5.726   6.745   6.121  0.6145 -0.5761 -0.1613
  200WAT      O 1519   6.262   6.106   7.853  0.9279  0.6561  0.7823
  200WAT     H1 1520   6.319   6.128   7.915  0.9008 -0.3778  1.1798
  200WAT     H2 1521   6.269   6.020   7.847 -1.7424  0.2644  2.0010
  200WAT    EPW 1522   6.271   6.097   7.861  0.5294  0.4455  1.0211
  201WAT      O 1523   6.910   0.419   7.780 -0.1011  0.4027 -0.4614
  201WAT     H1 1524   6.855   0.396   7.843  2.4787 -0.7783  1.5659
  201WAT     H2 1525   6.884   0.373   7.711 -1.5508 -0.1851  0.4420
  201WAT    EPW 1526   6.898   0.409   7.779  0.0658  0.1414 -0.0285
  202WAT      O 1527   5.826   5.168   0.001 -0.3037  0.2893  0.0462
  202WAT     H1 1528   5.883   5.216   0.046 -1.2071 -0.1757  1.7756
  202WAT     H2 1529   5.761   5.223  -0.015  0.7280  0.9434 -2.3086
  202WAT    EPW 1530   5.825   5.183   0.005 -0.2848  0.3173 -0.0462
  203WAT      O 1531   4.908   6.151   7.853 -0.2342  0.0627  0.0044
  203WAT     H1 1532   4.994   6.161   7.861 -0.4324  0.9558  1.3313
  203WAT     H2 1533   4.884   6.218   7.804 -0.4852  1.5100  1.9702
  203WAT    EPW 1534   4.917   6.162   7.847 -0.3006  0.4084  0.4908
  204WAT      O 1535   6.040   6.252   3.710  0.5078  0.1213 -0.1598
  204WAT     H1 1536   6.080   6.214   3.778 -0.1115  0.4753  0.4246
  204WAT     H2 1537   6.019   6.331   3.742  0.3265  0.3406 -0.8168
  204WAT    EPW 1538   6.043   6.258   3.725  0.3895  0.2060 -0.1706
  205WAT      O 1539   6.775   0.390   5.004 -0.3448 -0.1601  0.3101
  205WAT     H1 1540   6.814   0.312   5.012 -0.0814 -0.1634 -0.8250
  205WAT     H2 1541   6.767   0.400   4.918 -2.5914 -0.0218  0.4731
  205WAT    EPW 1542   6.779   0.380   4.992 -0.6377 -0.1402  0.1665
  206WAT      O 1543   6.689   6.204   3.759 -0.0759 -0.4814  0.1211
  206WAT     H1 1544   6.608   6.221   3.731 -0.0004  1.7604  1.0224
  206WAT     H2 1545   6.679   6.195   3.845  0.4642 -1.5899  0.0770
  206WAT    EPW 1546   6.675   6.205   3.768  0.0150 -0.3140  0.2478
  207WAT      O 1547   6.491   7.175   4.639  0.0156 -0.0069  0.4882
  207WAT     H1 1548   6.543   7.137   4.698 -0.6167  0.5777  1.4445
  207WAT     H2 1549   6.417   7.189   4.682 -1.1068 -1.1297 -0.9389
  207WAT    EPW 1550   6.488   7.171   4.654 -0.2436 -0.0864  0.4186
  208WAT      O 1551   6.304   7.348   4.261  0.1728  0.8215 -0.0224
  208WAT     H1 1552   6.252   7.397   4.212 -0.6687  0.4330  0.4703
  208WAT     H2 1553   6.384   7.376   4.240 -0.1504  0.5415 -1.7409
  208WAT    EPW 1554   6.308   7.360   4.251  0.0008  0.7227 -0.2035
  209WAT      O 1555   5.511   7.554   4.641 -0.1430  0.6408  0.4494
  209WAT     H1 1556   5.580   7.575   4.689  0.1829  2.1140 -0.5838
  209WAT     H2 1557   5.512   7.467   4.640  2.6003  0.5682 -0.7183
  209WAT    EPW 1558   5.521   7.544   4.648  0.3104  0.8477  0.1243
  210WAT      O 1559   6.643   5.772   5.411 -0.5130 -0.0975 -0.3599
  210WAT     H1 1560   6.686   5.749   5.338 -0.7565 -0.1108 -0.5002
  210WAT     H2 1561   6.673   5.716   5.471  0.5406  0.6399 -0.1658
  210WAT    EPW 1562   6.654   5.760   5.409 -0.3933  0.0094 -0.3519
  211WAT      O 1563   4.850   0.152   4.600 -0.0231 -0.0594 -0.1939
  211WAT     H1 1564   4.917   0.122   4.647 -0.6024 -0.0236  0.6695
  211WAT     H2 1565   4.873   0.133   4.518  0.8369 -0.4517  0.1256
  211WAT    EPW 1566   4.863   0.145   4.595  0.0184 -0.1121 -0.0191
  212WAT      O 1567   6.286   7.614   4.633  0.4128 -0.1619 -0.6584
  212WAT     H1 1568   6.348   7.560   4.605  2.5925  2.7372 -1.9991
  212WAT     H2 1569   6.317   7.643   4.710 -1.0370 -1.2029  0.3718
  212WAT    EPW 1570   6.299   7.611   4.641  0.5207  0.1126 -0.7043
  213WAT      O 1571   6.373   6.949   4.496  0.4596 -0.2584  0.5895
  213WAT     H1 1572   6.423   7.014   4.525  0.9318  0.1614 -1.0382
  213WAT     H2 1573   6.317   6.989   4.443  0.3290 -1.0859  0.0864
  213WAT    EPW 1574   6.372   6.964   4.492  0.5101 -0.3186  0.2748
  214WAT      O 1575   6.929   4.970   6.416 -0.3679 -0.1876  0.3070
  214WAT     H1 1576   6.986   4.992   6.354 -1.7165  0.7054 -0.6577
  214WAT     H2 1577   6.883   5.043   6.430 -0.7421 -0.6353  1.6764
  214WAT    EPW 1578   6.930   4.984   6.409 -0.6224 -0.1218  0.3668
  215WAT      O 1579   5.193   6.807   3.832  0.2688  0.0578 -0.5242
  215WAT     H1 1580   5.213   6.880   3.876 -1.8437 -0.0827  0.7992
  215WAT     H2 1581   5.147   6.836   3.764  0.9130  0.0607 -0.9648
  215WAT    EPW 1582   5.189   6.822   3.828  0.0519  0.0375 -0.3938
  216WAT      O 1583   6.855   7.263   4.141  0.0130 -0.1114 -0.1038
  216WAT     H1 1584   6.848   7.181   4.171  1.3110 -0.3547 -0.4042
  216WAT     H2 1585   6.783   7.274   4.094 -0.2882 -1.0109  0.1312
  216WAT    EPW 1586   6.843   7.252   4.139  0.1603 -0.2802 -0.1135
  217WAT      O 1587   5.536   6.109   5.707  0.2810 -0.0695 -0.6945
  217WAT     H1 1588   5.550   6.125   5.792 -2.8348  1.3590 -0.3133
  217WAT     H2 1589   5.561   6.026   5.698  2.4034  0.2626  1.1195
  217WAT    EPW 1590   5.542   6.099   5.718  0.1343  0.1906 -0.3702
  218WAT      O 1591   6.664   5.639   5.812 -0.1776  0.0053  0.4162
  218WAT     H1 1592   6.676   5.650   5.897  1.3056  0.4145  0.1826
  218WAT     H2 1593   6.728   5.685   5.776 -0.2200 -0.9010 -0.8998
  218WAT    EPW 1594   6.675   5.647   5.819  0.0352 -0.0681  0.1873
  219WAT      O 1595   7.130   6.568   6.784  0.0847  0.6711 -0.2339
  219WAT     H1 1596   7.132   6.539   6.866  1.3297  3.0943  0.6953
  219WAT     H2 1597   7.048   6.552   6.759 -1.6923  3.4298  2.9795
  219WAT    EPW 1598   7.118   6.561   6.792  0.0062  1.4366  0.3781
  220WAT      O 1599   6.552   6.631   4.430 -0.1079  0.0308  0.0208
  220WAT     H1 1600   6.610   6.693   4.407  0.3299 -0.5656 -0.5223
  220WAT     H2 1601   6.554   6.632   4.517 -0.6226  1.2527  0.0400
  220WAT    EPW 1602   6.561   6.641   4.439 -0.1193  0.1232 -0.0566
  221WAT      O 1603   4.950   6.247   5.211  0.0729  0.2258 -0.1177
  221WAT     H1 1604   4.866   6.224   5.215 -0.3544  1.3952 -1.3764
  221WAT     H2 1605   4.946   6.333   5.193  1.5445  0.4489  0.5129
  221WAT    EPW 1606   4.937   6.256   5.209  0.2272  0.4315 -0.2105
  222WAT      O 1607   5.625   7.091   4.807  0.0998  0.0392  0.0545
  222WAT     H1 1608   5.691   7.041   4.834  0.3543 -0.1512 -0.8872
  222WAT     H2 1609   5.562   7.033   4.790  0.3258  0.0415 -0.8376
  222WAT    EPW 1610   5.625   7.075   4.809  0.1708  0.0114 -0.2164
  223WAT      O 1611   6.239   0.965   5.530  0.3745  0.1496  0.0398
  223WAT     H1 1612   6.198   0.955   5.606 -0.6163 -0.4562 -0.5626
  223WAT     H2 1613   6.205   1.038   5.497  1.0998  0.6368  0.3548
  223WAT    EPW 1614   6.228   0.974   5.536  0.3353  0.1321 -0.0026
  224WAT      O 1615   6.482   0.062   4.289 -0.1984 -0.1200 -0.6387
  224WAT     H1 1616   6.402   0.061   4.324 -0.0553 -0.0347 -0.3060
  224WAT     H2 1617   6.467   0.071   4.203 -0.5231  1.1997 -0.4756
  224WAT    EPW 1618   6.468   0.063   4.281 -0.2252  0.0876 -0.5654
  225WAT      O 1619   5.619   7.113   3.582  0.1931  0.3461 -0.4992
  225WAT     H1 1620   5.704   7.094   3.589 -0.0363 -0.1122  2.5826
  225WAT     H2 1621   5.610   7.184   3.632 -1.2797  0.2080 -0.5235
  225WAT    EPW 1622   5.630   7.120   3.591 -0.0583  0.2580 -0.0476
  226WAT      O 1623   6.016   0.509   4.501  0.3137 -0.1709  0.1142
  226WAT     H1 1624   6.000   0.521   4.416  2.5543 -3.4660 -0.9932
  226WAT     H2 1625   5.963   0.443   4.522  1.4411 -0.9526  0.5644
  226WAT    EPW 1626   6.006   0.501   4.491  0.8112 -0.7731  0.0171
  227WAT      O 1627   5.388   7.571   4.241 -0.6105  0.0700 -0.2116
  227WAT     H1 1628   5.423   7.494   4.220  0.0022  0.4232 -0.5419
  227WAT     H2 1629   5.442   7.601   4.303 -1.7265 -0.4375  1.0483
  227WAT    EPW 1630   5.401   7.564   4.247 -0.6848  0.0472 -0.0743
  228WAT      O 1631   6.782   7.234   4.985  0.4441 -0.5417 -0.4975
  228WAT     H1 1632   6.738   7.167   4.951  1.3482 -0.7259 -1.3290
  228WAT     H2 1633   6.864   7.222   4.958  0.9216  0.0843  0.5863
  228WAT    EPW 1634   6.787   7.222   4.976  0.6482 -0.4765 -0.4602
  229WAT      O 1635   5.816   6.555   3.672  0.8658  0.3736 -0.4123
  229WAT     H1 1636   5.757   6.532   3.732  1.3208  0.3658  0.0339
  229WAT     H2 1637   5.816   6.642   3.676  0.7567  0.3807 -0.5422
  229WAT    EPW 1638   5.807   6.565   3.682  0.9169  0.3735 -0.3656
  230WAT      O 1639   6.268   6.123   4.762  0.2294  0.2111  0.1415
  230WAT     H1 1640   6.193   6.135   4.806 -0.7441 -0.7552 -1.1437
  230WAT     H2 1641   6.248   6.059   4.706  1.7055  0.6798 -0.9901
  230WAT    EPW 1642   6.254   6.115   4.760  0.3037  0.1376 -0.2155
  231WAT      O 1643   4.947   5.675   4.236 -0.3474  0.0707  0.3988
  231WAT     H1 1644   4.889   5.619   4.270  0.4247 -0.3916  0.9647
  231WAT     H2 1645   4.978   5.632   4.167  0.6551 -0.4360  1.1572
  231WAT    EPW 1646   4.943   5.661   4.231 -0.0852 -0.0724  0.5944
  232WAT      O 1647   7.229   6.336   6.634 -0.3481  0.1140  0.0529
  232WAT     H1 1648   7.274   6.407   6.657  0.3623 -0.7533  1.4764
  232WAT     H2 1649   7.147   6.356   6.653 -0.0678  0.3350  1.0944
  232WAT    EPW 1650   7.224   6.349   6.640 -0.2017  0.0185  0.4170
  233WAT      O 1651   6.224   6.362   5.233 -0.1252  0.0780 -0.3146
  233WAT     H1 1652   6.221   6.392   5.314  2.0518  1.8663 -0.8022
  233WAT     H2 1653   6.271   6.288   5.240 -1.4467 -0.7519  0.2313
  233WAT    EPW 1654   6.230   6.355   5.246  0.0012  0.2196 -0.3060
  234WAT      O 1655   7.131   7.059   5.468 -0.5516  0.0855  0.3382
  234WAT     H1 1656   7.114   7.001   5.531 -0.3347 -0.1100  0.2172
  234WAT     H2 1657   7.215   7.044   5.447  0.0408  1.5288  1.4440
  234WAT    EPW 1658   7.141   7.049   5.474 -0.4320  0.2698  0.4837
  235WAT      O 1659   5.961   0.454   4.770 -0.7982  0.6521 -0.3529
  235WAT     H1 1660   5.978   0.493   4.694  0.2160  0.3997 -0.2736
  235WAT     H2 1661   5.998   0.376   4.762 -0.7545  0.5908  0.3703
  235WAT    EPW 1662   5.969   0.448   4.758 -0.6419  0.6058 -0.2344
  236WAT      O 1663   5.647   5.872   5.854  0.4175 -0.1541 -0.5708
  236WAT     H1 1664   5.600   5.888   5.926  0.2543 -0.8552 -0.5063
  236WAT     H2 1665   5.729   5.893   5.877  0.2183  0.5894 -0.5185
  236WAT    EPW 1666   5.652   5.877   5.868  0.3640 -0.1479 -0.5535
  237WAT      O 1667   5.822   0.744   4.573 -0.3665 -0.2823 -0.1488
  237WAT     H1 1668   5.810   0.812   4.627  0.7466  0.4805 -0.8402
  237WAT     H2 1669   5.907   0.725   4.582 -0.0515  0.1143 -1.8931
  237WAT    EPW 1670   5.833   0.751   4.582 -0.1555 -0.1111 -0.5086
  238WAT      O 1671   4.972   6.511   5.135 -0.3751 -0.5206 -0.2588
  238WAT     H1 1672   4.935   6.567   5.080 -0.8501  0.9239  1.4208
  238WAT     H2 1673   5.056   6.535   5.135 -0.0277 -1.6028 -1.5281
  238WAT    EPW 1674   4.979   6.523   5.127 -0.3940 -0.4671 -0.1981
  239WAT      O 1675   6.619   6.650   4.691  0.5468 -0.5583  0.0964
  239WAT     H1 1676   6.579   6.655   4.768  0.7363 -0.6723  0.2041
  239WAT     H2 1677   6.676   6.717   4.693  0.0477 -0.1122 -0.2440
  239WAT    EPW 1678   6.622   6.661   4.703  0.5011 -0.5092  0.0621
  240WAT      O 1679   5.425   6.553   3.566  0.3834  0.4891  0.7958
  240WAT     H1 1680   5.454   6.616   3.513 -0.2635  1.0831  1.1384
  240WAT     H2 1681   5.401   6.595   3.638 -0.0568 -0.1481  1.0313
  240WAT    EPW 1682   5.426   6.568   3.569  0.2228  0.4827  0.8812
  241WAT      O 1683   6.902   0.914   3.472  0.5366 -0.1765 -0.3744
  241WAT     H1 1684   6.827   0.879   3.500  1.2802 -0.0745  2.0023
  241WAT     H2 1685   6.933   0.855   3.416 -0.9414 -0.5821 -0.7897
  241WAT    EPW 1686   6.896   0.900   3.468  0.4281 -0.2214 -0.0846
  242WAT      O 1687   3.530   0.783   2.551  0.7834 -0.6006 -0.2776
  242WAT     H1 1688   3.491   0.849   2.593  1.5930 -0.0425 -0.3636
  242WAT     H2 1689   3.491   0.712   2.582  1.6936 -0.2564  1.8472
  242WAT    EPW 1690   3.519   0.783   2.561  1.0374 -0.4673  0.0236
  243WAT      O 1691   6.286   0.568   4.722  0.1129 -0.2782  0.8903
  243WAT     H1 1692   6.310   0.616   4.791 -2.4129 -0.7992  2.2545
  243WAT     H2 1693   6.212   0.606   4.696 -0.3593 -1.6579  0.1376
  243WAT    EPW 1694   6.279   0.581   4.729 -0.3300 -0.5590  0.9807
  244WAT      O 1695   5.647   0.736   4.347  0.1635 -0.3926 -0.8344
  244WAT     H1 1696   5.595   0.767   4.411 -0.6776 -0.1709 -1.6054
  244WAT     H2 1697   5.727   0.742   4.381 -0.2496 -0.0621  0.1155
  244WAT    EPW 1698   5.651   0.741   4.362 -0.0218 -0.3110 -0.8080
  245WAT      O 1699   4.297   7.256   5.133 -0.0739  0.0640 -0.2017
  245WAT     H1 1700   4.360   7.256   5.193 -0.5079  1.0870  0.2731
  245WAT     H2 1701   4.341   7.254   5.057  0.7017  3.0351  0.0239
  245WAT    EPW 1702   4.313   7.256   5.130 -0.0234  0.6540 -0.0982
  246WAT      O 1703   5.903   6.476   6.924  0.2244 -0.0811  0.1731
  246WAT     H1 1704   5.874   6.556   6.941 -1.3112 -0.2770 -1.2391
  246WAT     H2 1705   5.956   6.459   6.991  1.2626  2.4147  0.0983
  246WAT    EPW 1706   5.906   6.485   6.936  0.1510  0.2586 -0.0466
  247WAT      O 1707   5.753   6.119   4.974  0.1002 -0.6960  0.1511
  247WAT     H1 1708   5.722   6.200   4.965  1.3178 -0.4291 -2.2454
  247WAT     H2 1709   5.717   6.092   5.049 -1.4626  1.5314  0.2957
  247WAT    EPW 1710   5.743   6.127   4.984  0.0492 -0.3276 -0.1816
  248WAT      O 1711   6.646   6.751   5.134 -0.3390 -0.1003 -0.3154
  248WAT     H1 1712   6.610   6.759   5.212  0.8574 -1.0514  0.3805
  248WAT     H2 1713   6.601   6.686   5.096  1.5062 -2.4036  1.1606
  248WAT    EPW 1714   6.634   6.743   5.140  0.1103 -0.5810  0.0055
  249WAT      O 1715   5.769   7.488   4.221 -0.4942 -0.7284 -0.4389
  249WAT     H1 1716   5.729   7.550   4.266  0.5739 -0.4142  0.1206
  249WAT     H2 1717   5.705   7.435   4.196 -1.2405 -0.2417  0.4148
  249WAT    EPW 1718   5.754   7.489   4.224 -0.4467 -0.6101 -0.2301
  250WAT      O 1719   5.879   1.015   4.412  0.4669  0.5862  0.0593
  250WAT     H1 1720   5.933   1.022   4.480  0.8562 -0.8435 -0.0571
  250WAT     H2 1721   5.906   0.942   4.372 -1.5994 -0.2432  0.0522
  250WAT    EPW 1722   5.891   1.005   4.416  0.2192  0.2525  0.0411
  251WAT      O 1723   5.457   5.737   3.961 -0.5071 -0.0225  0.2559
  251WAT     H1 1724   5.470   5.674   4.021  3.2318 -0.4265 -0.7171
  251WAT     H2 1725   5.503   5.805   3.993 -0.9810  0.7797 -0.7121
  251WAT    EPW 1726   5.466   5.738   3.975 -0.0248  0.0363 -0.0308
  252WAT      O 1727   6.814   6.292   5.337  0.0340  0.2985 -0.4006
  252WAT     H1 1728   6.742   6.262   5.376 -0.6558  2.3261  0.0300
  252WAT     H2 1729   6.803   6.272   5.253 -0.7078 -0.0239 -0.2337
  252WAT    EPW 1730   6.802   6.285   5.331 -0.1775  0.5504 -0.3123
  253WAT      O 1731   6.091   6.320   4.638 -0.4542 -0.6602  0.2746
  253WAT     H1 1732   6.111   6.279   4.712  0.8126  0.3555  0.5177
  253WAT     H2 1733   6.007   6.344   4.650 -0.1904 -0.2772  1.4895
  253WAT    EPW 1734   6.081   6.318   4.651 -0.2281 -0.4536  0.4900
  254WAT      O 1735   5.685   7.552   4.963  0.2409 -0.2876  0.6256
  254WAT     H1 1736   5.722   7.488   4.916 -0.7834 -1.1060  0.9125
  254WAT     H2 1737   5.727   7.624   4.936  0.7696 -0.9521 -0.3743
  254WAT    EPW 1738   5.697   7.553   4.952  0.1677 -0.5067  0.5203
  255WAT      O 1739   5.603   6.847   4.466  0.4467 -0.3224 -0.3081
  255WAT     H1 1740   5.654   6.910   4.433  0.3174  0.4413  0.8859
  255WAT     H2 1741   5.532   6.891   4.493 -0.4861 -1.2548 -1.1655
  255WAT    EPW 1742   5.600   6.863   4.465  0.2898 -0.3473 -0.2584
  256WAT      O 1743   6.349   7.005   3.818 -0.3924  0.1947 -0.1076
  256WAT     H1 1744   6.424   7.013   3.775 -0.0183  0.4376  0.5799
  256WAT     H2 1745   6.357   7.060   3.884 -0.5424 -0.8911  0.8496
  256WAT    EPW 1746   6.361   7.014   3.821 -0.3593  0.0702  0.1353
  257WAT      O 1747   4.431   0.884   6.198 -0.2554  0.1426 -0.6976
  257WAT     H1 1748   4.444   0.969   6.185 -1.7142  0.2821 -1.3679
  257WAT     H2 1749   4.468   0.847   6.128 -0.3283  0.2811 -0.8096
  257WAT    EPW 1750   4.439   0.891   6.186 -0.4817  0.1837 -0.8132
  258WAT      O 1751   6.886   1.121   3.273 -0.1499  0.3480 -0.4746
  258WAT     H1 1752   6.881   1.062   3.337 -1.3116  0.5295 -0.3720
  258WAT     H2 1753   6.913   1.075   3.204 -1.0018 -0.3032 -0.3837
  258WAT    EPW 1754   6.889   1.106   3.272 -0.4473  0.2786 -0.4460
  259WAT      O 1755   5.427   1.908   3.779  0.3541  0.4405  0.4907
  259WAT     H1 1756   5.486   1.847   3.762 -1.3845 -0.9902 -0.7433
  259WAT     H2 1757   5.461   1.980   3.744  1.9472 -0.0133  1.0099
  259WAT    EPW 1758   5.441   1.910   3.772  0.3326  0.1621  0.3851
  260WAT      O 1759   6.376   6.973   5.478  0.0007  0.4636  0.0077
  260WAT     H1 1760   6.434   6.989   5.541 -1.8119 -0.0868  1.9413
  260WAT     H2 1761   6.386   7.040   5.424  1.6340  0.9831  0.8628
  260WAT    EPW 1762   6.386   6.985   5.480 -0.0258  0.4591  0.4196
  261WAT      O 1763   4.853   0.370   3.290 -0.1300  0.1078  0.1059
  261WAT     H1 1764   4.841   0.352   3.206 -0.0920  1.7464 -0.2727
  261WAT     H2 1765   4.933   0.339   3.306 -0.7342 -1.6293 -0.0139
  261WAT    EPW 1766   4.863   0.363   3.280 -0.2137  0.0932  0.0323
  262WAT      O 1767   6.685   7.261   5.260  0.7091  0.1356  0.1672
  262WAT     H1 1768   6.742   7.212   5.305  0.7069  1.0265  1.1756
  262WAT     H2 1769   6.725   7.272   5.183  1.4780 -0.0382  0.5264
  262WAT    EPW 1770   6.700   7.255   5.255  0.8223  0.2415  0.3692
  263WAT      O 1771   6.776   0.169   6.676  0.2136  0.5335 -0.2223
  263WAT     H1 1772   6.800   0.087   6.660 -1.8110 -0.0796 -0.3423
  263WAT     H2 1773   6.744   0.197   6.600  1.0016  1.5072 -0.2243
  263WAT    EPW 1774   6.775   0.161   6.663  0.0310  0.5868 -0.2403
  264WAT      O 1775   6.792   6.685   4.257 -0.4825 -0.4222 -0.7501
  264WAT     H1 1776   6.749   6.708   4.184 -1.6487 -0.3452 -0.0523
  264WAT     H2 1777   6.805   6.600   4.246 -2.3775 -0.8331 -0.2292
  264WAT    EPW 1778   6.788   6.676   4.244 -0.9347 -0.4715 -0.5701
  265WAT      O 1779   5.713   7.539   6.334 -0.0271  0.7215 -0.7022
  265WAT     H1 1780   5.638   7.579   6.351  0.3090  2.1320 -2.2384
  265WAT     H2 1781   5.750   7.530   6.413 -1.9198 -0.3317  0.1144
  265WAT    EPW 1782   5.708   7.544   6.348 -0.2570  0.7743 -0.8085
  266WAT      O 1783   6.309   6.823   4.748  0.2230 -0.0756  0.3603
  266WAT     H1 1784   6.305   6.736   4.739 -0.4056 -0.0169 -0.0190
  266WAT     H2 1785   6.330   6.851   4.668 -0.2369  0.1568  0.3167
  266WAT    EPW 1786   6.312   6.814   4.735  0.0622 -0.0326  0.2978
  267WAT      O 1787   6.527   7.451   4.547  0.5189 -0.4140  0.1066
  267WAT     H1 1788   6.552   7.443   4.464  2.8667  1.9457  0.4143
  267WAT     H2 1789   6.547   7.374   4.582  0.7808 -0.9792 -1.2176
  267WAT    EPW 1790   6.534   7.439   4.540  0.9044 -0.1489 -0.0436
  268WAT      O 1791   5.706   6.830   4.760 -0.1568  0.6094 -0.1825
  268WAT     H1 1792   5.728   6.747   4.776 -0.2122  0.4745 -0.7900
  268WAT     H2 1793   5.701   6.834   4.673  1.7470  1.7311 -0.2843
  268WAT    EPW 1794   5.708   6.818   4.749  0.1163  0.7552 -0.2873
  269WAT      O 1795   6.182   7.404   3.583 -0.4086 -0.0677 -0.4410
  269WAT     H1 1796   6.218   7.448   3.516  2.2766  1.4982  1.7842
  269WAT     H2 1797   6.204   7.321   3.567 -0.2168  0.2068 -1.7008
  269WAT    EPW 1798   6.191   7.399   3.571  0.0164  0.2042 -0.2984
  270WAT      O 1799   5.951   1.224   5.058  0.5502  0.0379 -0.3304
  270WAT     H1 1800   5.880   1.274   5.047 -0.5985 -1.2141  0.8599
  270WAT     H2 1801   5.999   1.240   4.987 -1.3908  0.2185 -1.6975
  270WAT    EPW 1802   5.947   1.234   5.046  0.0938 -0.1204 -0.3565
  271WAT      O 1803   5.258   6.001   4.105  0.3311 -0.2213  0.0405
  271WAT     H1 1804   5.178   5.975   4.082  0.5754 -0.3274 -0.7276
  271WAT     H2 1805   5.289   5.934   4.151 -0.8354  0.7080  2.3467
  271WAT    EPW 1806   5.250   5.988   4.109  0.1949 -0.0997  0.2677
  272WAT      O 1807   6.774   7.593   5.108 -0.0640 -0.7017 -0.5330
  272WAT     H1 1808   6.839   7.599   5.165  0.5662 -0.9547 -1.2075
  272WAT     H2 1809   6.722   7.533   5.143 -0.7526  0.6026  0.7694
  272WAT    EPW 1810   6.776   7.585   5.121 -0.0726 -0.5464 -0.4403
  273WAT      O 1811   6.625   7.153   2.966 -0.4183  0.1220  0.4472
  273WAT     H1 1812   6.641   7.192   3.043  0.9367  0.7193 -0.1092
  273WAT     H2 1813   6.687   7.092   2.961 -0.9086 -0.3541  0.1206
  273WAT    EPW 1814   6.636   7.150   2.977 -0.2906  0.1399  0.3168
  274WAT      O 1815   6.395   0.280   3.526  0.0442  0.0667 -0.4467
  274WAT     H1 1816   6.396   0.196   3.550 -1.5587  0.3921  0.9636
  274WAT     H2 1817   6.354   0.278   3.448 -0.6232 -0.4129 -0.1009
  274WAT    EPW 1818   6.389   0.267   3.518 -0.2911  0.0440 -0.1873
  275WAT      O 1819   5.951   6.123   4.500  0.4497  0.8027  0.7490
  275WAT     H1 1820   5.896   6.122   4.568  0.5860  1.5781  0.8750
  275WAT     H2 1821   6.016   6.175   4.526  0.0526  1.8759 -0.3133
  275WAT    EPW 1822   5.952   6.131   4.514  0.4112  1.0758  0.6107
  276WAT      O 1823   6.464   5.927   5.526  0.4820 -0.1316 -0.0258
  276WAT     H1 1824   6.520   5.868   5.496 -0.8907 -1.3218 -0.3947
  276WAT     H2 1825   6.391   5.910   5.482 -0.7121  0.0992  1.7586
  276WAT    EPW 1826   6.461   5.916   5.515  0.1029 -0.2734  0.1833
  277WAT      O 1827   6.118   6.999   3.291 -0.9988  0.0372 -0.5494
  277WAT     H1 1828   6.120   7.013   3.204 -1.2862 -2.3543 -0.9922
  277WAT     H2 1829   6.052   6.943   3.301 -0.0291 -0.8938  1.0222
  277WAT    EPW 1830   6.108   6.993   3.280 -0.8980 -0.4536 -0.3826
  278WAT      O 1831   6.053   6.669   5.874 -0.4340  0.7721 -0.2995
  278WAT     H1 1832   5.972   6.701   5.870 -0.8613 -0.3606 -2.1486
  278WAT     H2 1833   6.099   6.723   5.822 -0.1735  0.9561  0.1183
  278WAT    EPW 1834   6.048   6.681   5.865 -0.4587  0.6320 -0.5109
  279WAT      O 1835   5.325   7.636   5.036 -0.1000 -0.4772 -0.3990
  279WAT     H1 1836   5.379   7.570   5.019  0.9895  0.4103 -0.4778
  279WAT     H2 1837   5.247   7.597   5.041  0.3222 -1.5879 -1.7138
  279WAT    EPW 1838   5.321   7.620   5.034  0.1233 -0.5102 -0.6049
  280WAT      O 1839   6.008   6.710   5.441  0.1524 -0.2877  0.5824
  280WAT     H1 1840   6.015   6.796   5.425 -1.3909 -0.5978 -2.3483
  280WAT     H2 1841   5.931   6.704   5.483 -0.5678 -0.3448 -0.7024
  280WAT    EPW 1842   5.997   6.722   5.445 -0.1820 -0.3420 -0.0403
  281WAT      O 1843   6.676   0.335   3.570  0.0034 -0.5632 -0.3107
  281WAT     H1 1844   6.594   0.315   3.549 -0.0410  0.8164 -1.6584
  281WAT     H2 1845   6.685   0.416   3.540  1.0574  0.3263  2.1883
  281WAT    EPW 1846   6.665   0.344   3.562  0.1526 -0.2280 -0.1406
  282WAT      O 1847   6.242   5.810   6.434 -0.5263  0.2025 -0.1442
  282WAT     H1 1848   6.312   5.851   6.402 -1.5522  4.2334  2.1160
  282WAT     H2 1849   6.181   5.824   6.374 -1.0231  2.9600  0.8181
  282WAT    EPW 1850   6.244   5.818   6.421 -0.7512  1.2053  0.3318
  283WAT      O 1851   6.287   7.354   0.027  0.1812  0.2373 -0.4180
  283WAT     H1 1852   6.351   7.313  -0.016  0.9972 -0.1583  1.0893
  283WAT     H2 1853   6.216   7.336  -0.020  0.8516 -1.1615 -0.9606
  283WAT    EPW 1854   6.286   7.345   0.014  0.4008 -0.0278 -0.2755
  284WAT      O 1855   6.015   7.161   4.571  0.0916 -0.3855 -0.1531
  284WAT     H1 1856   6.019   7.153   4.658 -1.3173 -0.8076 -0.1032
  284WAT     H2 1857   6.019   7.248   4.559 -1.1317 -0.2140  0.4598
  284WAT    EPW 1858   6.016   7.173   4.583 -0.2972 -0.4225 -0.0552
  285WAT      O 1859   6.702   6.443   6.067  0.3671  0.0115 -0.3997
  285WAT     H1 1860   6.779   6.465   6.104  0.2645 -0.0002 -0.1782
  285WAT     H2 1861   6.683   6.513   6.019  0.2884  0.2108 -0.0852
  285WAT    EPW 1862   6.711   6.457   6.066  0.3403  0.0392 -0.3205
  286WAT      O 1863   5.972   6.879   4.506 -0.6030  0.2010  0.2290
  286WAT     H1 1864   5.995   6.876   4.590  0.1956 -0.0916  0.0179
  286WAT     H2 1865   5.950   6.962   4.493  1.4763  0.8024  0.2084
  286WAT    EPW 1866   5.972   6.891   4.516 -0.1778  0.2466  0.1948
  287WAT      O 1867   7.013   6.472   5.017  0.3563 -0.4668 -0.6850
  287WAT     H1 1868   7.057   6.522   4.961  0.3769  1.1787  0.7147
  287WAT     H2 1869   7.028   6.509   5.094 -1.1080 -1.6034  0.2062
  287WAT    EPW 1870   7.022   6.485   5.020  0.1430 -0.3916 -0.3466
  288WAT      O 1871   6.026   7.127   5.174  0.8849 -0.0967 -0.2138
  288WAT     H1 1872   5.979   7.188   5.214  1.2702 -0.4072  0.7403
  288WAT     H2 1873   6.035   7.065   5.235  2.2650 -0.1674 -0.4637
  288WAT    EPW 1874   6.021   7.127   5.189  1.1457 -0.1530 -0.1098
  289WAT      O 1875   4.549   0.093   4.874  0.0745  0.0787 -0.5354
  289WAT     H1 1876   4.467   0.066   4.859  0.0619 -0.2337  0.0832
  289WAT     H2 1877   4.595   0.052   4.812 -0.3762  1.1377 -1.6114
  289WAT    EPW 1878   4.544   0.083   4.862  0.0061  0.1890 -0.6030
  290WAT      O 1879   6.539   6.978   4.267 -0.0416 -0.6322 -0.3567
  290WAT     H1 1880   6.587   6.919   4.225  1.1728 -0.5086  0.8031
  290WAT     H2 1881   6.492   6.931   4.324 -0.6339 -0.6582 -0.8497
  290WAT    EPW 1882   6.539   6.962   4.269  0.0503 -0.6178 -0.2582
  291WAT      O 1883   6.071   7.009   3.790 -0.0294  0.1078  0.5547
  291WAT     H1 1884   6.078   7.069   3.852  0.5700  0.2639  0.3429
  291WAT     H2 1885   6.131   6.950   3.812  0.8232  0.6043 -0.3567
  291WAT    EPW 1886   6.081   7.009   3.803  0.1851  0.2042  0.3887
  292WAT      O 1887   6.655   5.970   3.155  0.2614  0.2766 -0.1260
  292WAT     H1 1888   6.628   5.952   3.236  1.6901 -1.1322  0.0678
  292WAT     H2 1889   6.581   5.971   3.109 -0.7767  2.6129  1.3939
  292WAT    EPW 1890   6.640   5.968   3.160  0.3191  0.4136  0.1271
  293WAT      O 1891   3.891   5.952   5.389  0.2341  0.0302  0.1258
  293WAT     H1 1892   3.950   5.888   5.387  0.9001  0.6626 -1.7099
  293WAT     H2 1893   3.911   5.996   5.462  0.0828 -1.4974  1.1455
  293WAT    EPW 1894   3.903   5.949   5.399  0.3101 -0.1020  0.0052
  294WAT      O 1895   6.803   5.772   4.389  0.0944  0.1072  0.7672
  294WAT     H1 1896   6.808   5.724   4.316  1.6748 -0.3319  1.1388
  294WAT     H2 1897   6.816   5.853   4.361 -0.7420  0.1218  0.3861
  294WAT    EPW 1898   6.805   5.777   4.374  0.2043  0.0445  0.7658
  295WAT      O 1899   6.787   0.603   5.189 -0.2407  0.5515  0.3669
  295WAT     H1 1900   6.787   0.576   5.272  1.1786  0.3291  0.3143
  295WAT     H2 1901   6.765   0.531   5.144  1.1238  0.0827  0.4095
  295WAT    EPW 1902   6.784   0.589   5.194  0.1705  0.4494  0.3654
  296WAT      O 1903   4.463   7.370   4.426  0.0766  0.6747  0.5052
  296WAT     H1 1904   4.486   7.372   4.342 -2.0884  0.9184 -0.1319
  296WAT     H2 1905   4.502   7.299   4.456 -0.8163 -0.6426 -1.2719
  296WAT    EPW 1906   4.472   7.360   4.418 -0.3751  0.5161  0.1485
  297WAT      O 1907   6.752   1.325   5.711 -0.4207  0.1767 -0.0187
  297WAT     H1 1908   6.691   1.267   5.733 -0.7596  0.5870  0.1281
  297WAT     H2 1909   6.765   1.310   5.626 -0.6793  0.0514 -0.0359
  297WAT    EPW 1910   6.745   1.314   5.702 -0.5090  0.2188  0.0005
  298WAT      O 1911   5.918   6.707   6.452  0.0205  0.2440  0.0526
  298WAT     H1 1912   5.982   6.766   6.461  0.8136 -0.0304 -2.6909
  298WAT     H2 1913   5.845   6.755   6.455  0.4701  0.8967  0.9753
  298WAT    EPW 1914   5.917   6.723   6.454  0.2041  0.2999 -0.2163
  299WAT      O 1915   5.639   7.533   5.221  0.6842 -0.0803 -0.2234
  299WAT     H1 1916   5.563   7.490   5.229 -0.2348  1.1259 -1.8429
  299WAT     H2 1917   5.661   7.520   5.138  0.6250  2.0900 -0.6272
  299WAT    EPW 1918   5.631   7.525   5.210  0.5397  0.4185 -0.5223
  300WAT      O 1919   6.012   6.267   5.550 -0.1594  0.2386  0.2565
  300WAT     H1 1920   5.964   6.273   5.477 -0.1608  2.7242  0.3863
  300WAT     H2 1921   5.967   6.212   5.600 -0.7100 -0.6699 -1.1815
  300WAT    EPW 1922   5.998   6.259   5.547 -0.2409  0.4715  0.0632
  301WAT      O 1923   4.397   6.711   2.979 -0.0792 -0.2102 -0.3195
  301WAT     H1 1924   4.459   6.669   3.024  1.7461  1.0457 -1.5198
  301WAT     H2 1925   4.379   6.657   2.913  0.2879 -0.2526 -0.3835
  301WAT    EPW 1926   4.403   6.697   2.976  0.2447 -0.0310 -0.5063
  302WAT      O 1927   5.461   7.172   3.946 -0.0377  0.4432 -0.3256
  302WAT     H1 1928   5.441   7.122   4.014 -2.0049 -1.2747 -2.0256
  302WAT     H2 1929   5.535   7.137   3.915  0.8527  1.2199  0.8420
  302WAT    EPW 1930   5.469   7.160   3.951 -0.1968  0.3041 -0.4042
  303WAT      O 1931   4.993   7.688   1.239  0.1404 -0.4301 -0.2224
  303WAT     H1 1932   5.025   7.706   1.318  2.4100  1.7089 -1.4824
  303WAT     H2 1933   5.041   7.619   1.213 -0.4009 -0.9430  0.1045
  303WAT    EPW 1934   5.005   7.680   1.247  0.3957 -0.1899 -0.3602
  304WAT      O 1935   7.019   6.964   2.929  0.0831 -0.6461 -0.4266
  304WAT     H1 1936   7.013   6.921   3.005 -0.7351  1.0458  0.5252
  304WAT     H2 1937   7.064   6.909   2.878  0.5467 -1.8936  1.2312
  304WAT    EPW 1938   7.025   6.950   2.933  0.0307 -0.5804 -0.0411
  305WAT      O 1939   6.322   7.408   2.702  0.0724  0.0500  0.0400
  305WAT     H1 1940   6.290   7.402   2.621 -0.5566  0.4223  0.2554
  305WAT     H2 1941   6.348   7.326   2.720  0.4597  0.0232 -0.6312
  305WAT    EPW 1942   6.321   7.395   2.693  0.0367  0.1011 -0.0273
  306WAT      O 1943   6.193   0.005   3.802 -0.2205  0.3263 -0.3631
  306WAT     H1 1944   6.261   0.016   3.748 -0.1253 -1.7827 -0.7688
  306WAT     H2 1945   6.216   0.049   3.874  1.0422  0.5965 -0.9104
  306WAT    EPW 1946   6.206   0.013   3.805 -0.0199  0.0547 -0.5039
  307WAT      O 1947   6.682   6.884   2.700  0.1684  0.4824 -0.3359
  307WAT     H1 1948   6.604   6.918   2.684  0.1652  0.4058 -0.4884
  307WAT     H2 1949   6.672   6.843   2.776  0.7239  2.6057  0.9767
  307WAT    EPW 1950   6.669   6.883   2.709  0.2500  0.7848 -0.1645
  308WAT      O 1951   6.540   6.953   0.856  0.5619  0.0238 -0.1727
  308WAT     H1 1952   6.540   7.038   0.872 -0.1993  0.1659 -0.8244
  308WAT     H2 1953   6.575   6.947   0.776 -0.1743 -0.1724 -0.4974
  308WAT    EPW 1954   6.545   6.964   0.846  0.3407  0.0158 -0.3170
  309WAT      O 1955   5.559   0.735   4.808 -0.2195  0.3983 -0.1699
  309WAT     H1 1956   5.486   0.727   4.854 -0.7182 -1.3518 -1.1502
  309WAT     H2 1957   5.598   0.658   4.819  0.5747  0.6463 -1.1178
  309WAT    EPW 1958   5.554   0.722   4.816 -0.1759  0.1764 -0.4547
  310WAT      O 1959   5.395   7.319   2.110 -0.2986  0.0696 -0.0086
  310WAT     H1 1960   5.353   7.275   2.173  0.1646 -0.3298  0.0234
  310WAT     H2 1961   5.461   7.357   2.152  0.0083 -0.1934 -0.2467
  310WAT    EPW 1962   5.398   7.318   2.126 -0.1848 -0.0282 -0.0390
  311WAT      O 1963   6.540   6.659   3.669  0.3142 -0.6388  0.5827
  311WAT     H1 1964   6.567   6.617   3.598 -0.1496 -0.7918  0.4975
  311WAT     H2 1965   6.454   6.662   3.660  0.3502  0.4667  0.5117
  311WAT    EPW 1966   6.531   6.653   3.657  0.2510 -0.4981  0.5596
  312WAT      O 1967   6.943   7.142   2.332  0.0421  0.1855  0.1396
  312WAT     H1 1968   6.901   7.070   2.305 -0.3739  0.6320 -0.4232
  312WAT     H2 1969   6.928   7.143   2.418 -4.1419  2.1719 -0.3609
  312WAT    EPW 1970   6.935   7.132   2.340 -0.6374  0.5449 -0.0175
  313WAT      O 1971   6.356   7.159   2.846 -0.2387 -0.2952 -0.0787
  313WAT     H1 1972   6.431   7.169   2.888 -0.6495  1.1736  0.3974
  313WAT     H2 1973   6.300   7.136   2.909 -0.6697  1.0404  0.0657
  313WAT    EPW 1974   6.359   7.157   2.862 -0.3631  0.1191  0.0130
  314WAT      O 1975   5.611   0.737   2.691  0.1541 -0.1621 -0.2958
  314WAT     H1 1976   5.547   0.696   2.734  0.1596  0.3941  0.2609
  314WAT     H2 1977   5.658   0.671   2.658  0.2416 -0.6235  0.6917
  314WAT    EPW 1978   5.609   0.721   2.693  0.1678 -0.1481 -0.0677
  315WAT      O 1979   5.529   6.578   1.334  0.8255 -0.0455 -1.0476
  315WAT     H1 1980   5.517   6.601   1.417  1.0492 -0.1617 -0.9824
  315WAT     H2 1981   5.448   6.564   1.305  0.8421 -1.9003 -0.3080
  315WAT    EPW 1982   5.515   6.579   1.342  0.8610 -0.3366 -0.9287
  316WAT      O 1983   5.389   0.649   2.852 -0.0203  0.6942  0.1678
  316WAT     H1 1984   5.383   0.707   2.916  0.7707  0.5199  0.4161
  316WAT     H2 1985   5.416   0.576   2.892  1.6107  0.8858 -0.4757
  316WAT    EPW 1986   5.392   0.647   2.867  0.3374  0.6968  0.1094
  317WAT      O 1987   6.787   7.214   3.724  0.7127  0.6344 -0.3487
  317WAT     H1 1988   6.758   7.180   3.649  1.2016 -1.2661  0.2709
  317WAT     H2 1989   6.726   7.273   3.745 -0.4696 -0.2339 -1.2439
  317WAT    EPW 1990   6.773   7.217   3.716  0.6103  0.2254 -0.3894
  318WAT      O 1991   6.154   6.934   2.028  0.3690 -0.0899  0.4167
  318WAT     H1 1992   6.095   6.933   2.093  1.2564  2.3448  1.3441
  318WAT     H2 1993   6.116   6.983   1.967  0.1531 -1.1868 -0.3738
  318WAT    EPW 1994   6.140   6.941   2.028  0.4682  0.1077  0.4370
  319WAT      O 1995   6.846   6.564   5.397  0.7509 -0.3779  0.1215
  319WAT     H1 1996   6.838   6.543   5.482 -0.5748 -1.6043 -0.2740
  319WAT     H2 1997   6.830   6.489   5.356  2.5167 -0.0596 -1.2128
  319WAT    EPW 1998   6.842   6.550   5.404  0.8159 -0.5120 -0.1340
  320WAT      O 1999   6.457   1.103   2.558 -0.3066 -0.7160 -0.5527
  320WAT     H1 2000   6.404   1.039   2.531 -0.8664 -0.2987 -0.4620
  320WAT     H2 2001   6.405   1.172   2.562  0.5917  0.1082 -2.0567
  320WAT    EPW 2002   6.441   1.103   2.555 -0.2566 -0.5326 -0.7615
  321WAT      O 2003   7.144   6.503   1.595 -0.3624 -0.0986 -0.4259
  321WAT     H1 2004   7.206   6.562   1.580 -0.4264 -0.1595 -0.9235
  321WAT     H2 2005   7.070   6.549   1.588 -0.4173 -0.2644 -0.9305
  321WAT    EPW 2006   7.142   6.519   1.592 -0.3799 -0.1321 -0.5740
  322WAT      O 2007   5.502   0.316   1.962 -0.1001 -0.2388  0.8282
  322WAT     H1 2008   5.459   0.374   2.011 -0.0169  1.1483 -0.6602
  322WAT     H2 2009   5.439   0.280   1.912  0.1321  0.1466  0.2450
  322WAT    EPW 2010   5.486   0.319   1.962 -0.0535  0.0230  0.5222
  323WAT      O 2011   6.366   5.643   3.209  0.1056 -0.3818 -0.3414
  323WAT     H1 2012   6.294   5.640   3.257  0.1734 -1.0634 -0.2711
  323WAT     H2 2013   6.430   5.651   3.268  0.1054  0.0555 -0.3945
  323WAT    EPW 2014   6.365   5.644   3.224  0.1156 -0.4179 -0.3389
  324WAT      O 2015   5.179   7.242   2.614 -0.0052  0.6392  0.1363
  324WAT     H1 2016   5.176   7.304   2.675  0.4333  2.1317 -1.2847
  324WAT     H2 2017   5.252   7.261   2.570 -1.1616  0.6563 -1.8728
  324WAT    EPW 2018   5.190   7.254   2.617 -0.1112  0.8622 -0.3704
  325WAT      O 2019   4.167   0.399   1.625  0.0068 -0.3653  0.0643
  325WAT     H1 2020   4.145   0.458   1.564  0.8997 -0.6163 -0.5149
  325WAT     H2 2021   4.215   0.341   1.581 -0.2103 -1.1104  0.7953
  325WAT    EPW 2022   4.171   0.399   1.609  0.1066 -0.5124  0.0867
  326WAT      O 2023   6.193   7.021   2.448  0.1397 -0.2466 -0.1041
  326WAT     H1 2024   6.207   6.940   2.417 -3.4468 -0.7541 -0.7905
  326WAT     H2 2025   6.202   7.071   2.378  0.7167 -0.2341 -0.0282
  326WAT    EPW 2026   6.196   7.016   2.433 -0.3049 -0.3197 -0.1943
  327WAT      O 2027   6.528   7.314   3.730 -0.3962 -0.0907  0.2509
  327WAT     H1 2028   6.466   7.349   3.780 -0.1687  1.3109 -0.3782
  327WAT     H2 2029   6.489   7.302   3.653  0.0562  0.7514 -0.1351
  327WAT    EPW 2030   6.513   7.318   3.726 -0.2958  0.2407  0.1009
  328WAT      O 2031   5.659   6.325   3.010  0.2055 -0.1845 -0.5151
  328WAT     H1 2032   5.739   6.357   2.996  0.0213 -0.5933 -2.8626
  328WAT     H2 2033   5.627   6.312   2.930 -1.6315 -1.5244  0.3500
  328WAT    EPW 2034   5.666   6.328   2.996 -0.0931 -0.4428 -0.7341
  329WAT      O 2035   5.341   0.227   1.757 -0.3921  0.2745  0.5639
  329WAT     H1 2036   5.263   0.187   1.757 -0.8326  1.1005  1.5678
  329WAT     H2 2037   5.321   0.310   1.742  0.4747  0.2524 -0.9193
  329WAT    EPW 2038   5.327   0.233   1.755 -0.3291  0.3932  0.4931
  330WAT      O 2039   6.410   6.911   3.482 -0.1775  0.1458 -0.1436
  330WAT     H1 2040   6.478   6.925   3.535 -0.2913  0.0631  0.0235
  330WAT     H2 2041   6.364   6.984   3.487  0.4080  0.5898 -1.0137
  330WAT    EPW 2042   6.414   6.924   3.490 -0.1078  0.1992 -0.2475
  331WAT      O 2043   5.601   0.199   3.789 -0.6550  0.0059 -0.3333
  331WAT     H1 2044   5.569   0.205   3.708 -2.0151  0.1687  0.1895
  331WAT     H2 2045   5.580   0.117   3.812 -0.4994  0.0448 -0.0595
  331WAT    EPW 2046   5.593   0.188   3.780 -0.8329  0.0357 -0.2156
  332WAT      O 2047   5.316   5.620   1.613  0.0615  0.3742 -0.9219
  332WAT     H1 2048   5.277   5.551   1.649 -0.4152  1.6351  1.1631
  332WAT     H2 2049   5.371   5.585   1.555 -0.3076 -1.7239 -0.0794
  332WAT    EPW 2050   5.318   5.605   1.610 -0.0635  0.2506 -0.4894
  333WAT      O 2051   5.274   5.490   4.501  0.4440  0.1600 -0.2862
  333WAT     H1 2052   5.202   5.520   4.541  0.8603 -1.6020  1.9928
  333WAT     H2 2053   5.320   5.562   4.485  0.3502  1.0155  2.7629
  333WAT    EPW 2054   5.270   5.505   4.504  0.4916  0.0261  0.5009
  334WAT      O 2055   6.072   0.867   2.105  0.1411 -0.1935 -0.1992
  334WAT     H1 2056   6.007   0.865   2.046 -0.0529  0.9329 -0.0488
  334WAT     H2 2057   6.101   0.785   2.105  0.7807 -0.0501 -2.5537
  334WAT    EPW 2058   6.066   0.855   2.096  0.2069 -0.0059 -0.5248
  335WAT      O 2059   5.064   7.133   3.528 -0.3424 -0.2959 -0.6251
  335WAT     H1 2060   5.031   7.166   3.455  1.5749  0.7272 -1.0623
  335WAT     H2 2061   5.087   7.203   3.575  1.4345 -0.9294 -0.4669
  335WAT    EPW 2062   5.062   7.148   3.524  0.2033 -0.2383 -0.6663
  336WAT      O 2063   5.755   7.185   1.603 -0.3768  1.2200  0.2766
  336WAT     H1 2064   5.839   7.201   1.584  0.5563 -0.8297  2.0758
  336WAT     H2 2065   5.726   7.144   1.532  1.0730 -0.5908  0.6258
  336WAT    EPW 2066   5.763   7.181   1.590 -0.0248  0.6497  0.5940
  337WAT      O 2067   6.786   1.521   2.262  0.2710 -0.1165  0.0771
  337WAT     H1 2068   6.845   1.493   2.204  0.0893 -0.7218  0.1804
  337WAT     H2 2069   6.834   1.567   2.319  0.5681 -0.1925 -0.1090
  337WAT    EPW 2070   6.802   1.524   2.261  0.2881 -0.2171  0.0649
  338WAT      O 2071   6.790   6.893   2.257  0.4806  0.3754  0.2581
  338WAT     H1 2072   6.756   6.861   2.331 -0.4943  0.0521 -0.3125
  338WAT     H2 2073   6.848   6.832   2.234 -0.1951 -0.2028  0.0452
  338WAT    EPW 2074   6.794   6.879   2.265  0.2368  0.2422  0.1424
  339WAT      O 2075   5.218   0.334   3.616 -0.0040  0.3248  0.2121
  339WAT     H1 2076   5.195   0.383   3.684 -2.0769  0.4155 -0.4899
  339WAT     H2 2077   5.189   0.254   3.638 -1.5802  0.5376 -0.9011
  339WAT    EPW 2078   5.210   0.329   3.630 -0.5431  0.3697 -0.0560
  340WAT      O 2079   5.249   0.497   1.789  0.1194  0.5244  0.1478
  340WAT     H1 2080   5.287   0.537   1.856  2.8405 -1.4272 -0.0743
  340WAT     H2 2081   5.166   0.525   1.793  0.9938  3.2839  2.0656
  340WAT    EPW 2082   5.242   0.507   1.799  0.6505  0.6438  0.3983
  341WAT      O 2083   4.572   6.685   3.603 -0.6648 -0.3745  0.1837
  341WAT     H1 2084   4.620   6.747   3.641 -0.0903  0.1731 -1.3691
  341WAT     H2 2085   4.629   6.642   3.552 -1.4563 -0.8752 -0.3066
  341WAT    EPW 2086   4.587   6.688   3.601 -0.6969 -0.3676 -0.1181
  342WAT      O 2087   6.919   6.810   3.143 -0.8598 -0.4449  0.3238
  342WAT     H1 2088   6.900   6.858   3.214 -0.1733 -0.3475  0.4441
  342WAT     H2 2089   6.842   6.801   3.104 -1.1902 -0.2067  0.9034
  342WAT    EPW 2090   6.905   6.816   3.148 -0.8072 -0.3953  0.4272
  343WAT      O 2091   6.761   0.499   1.892 -0.4652  0.0178 -0.0617
  343WAT     H1 2092   6.708   0.558   1.927 -2.8992 -2.0238 -0.0244
  343WAT     H2 2093   6.796   0.459   1.961 -0.3107  0.1370 -0.0694
  343WAT    EPW 2094   6.758   0.502   1.907 -0.8019 -0.2662 -0.0574
  344WAT      O 2095   6.322   0.070   4.038 -0.0840 -0.8601 -0.5859
  344WAT     H1 2096   6.281   0.145   4.053  0.3372 -0.8935  0.9154
  344WAT     H2 2097   6.387   0.093   3.984  0.3333 -0.0276  0.2381
  344WAT    EPW 2098   6.326   0.084   4.033  0.0398 -0.7421 -0.2424
  345WAT      O 2099   6.086   6.794   2.881 -0.2851  0.7168  0.0320
  345WAT     H1 2100   6.009   6.762   2.856 -1.1272  3.1089 -0.6872
  345WAT     H2 2101   6.134   6.792   2.808 -0.7997  2.2683 -0.3801
  345WAT    EPW 2102   6.082   6.789   2.867 -0.4855  1.2993 -0.1351
  346WAT      O 2103   6.408   6.826   1.870 -0.0115 -0.1056  0.2936
  346WAT     H1 2104   6.433   6.906   1.845 -0.0731 -0.1053  0.2306
  346WAT     H2 2105   6.338   6.842   1.920 -0.4962 -0.1629 -0.3521
  346WAT    EPW 2106   6.401   6.841   1.874 -0.0922 -0.1140  0.1889
  347WAT      O 2107   5.611   6.916   2.438  0.4349  0.4458  0.7884
  347WAT     H1 2108   5.640   6.973   2.378 -1.6393 -0.6799 -1.4752
  347WAT     H2 2109   5.663   6.847   2.428 -1.2730 -0.6509 -1.5744
  347WAT    EPW 2110   5.623   6.914   2.428 -0.1238  0.1175  0.1050
  348WAT      O 2111   6.004   5.059   2.541  0.0356  0.2682 -0.0294
  348WAT     H1 2112   5.968   5.002   2.596 -0.2209 -0.2474 -0.7103
  348WAT     H2 2113   5.935   5.093   2.499  0.2707  0.0245 -0.6233
  348WAT    EPW 2114   5.988   5.056   2.543  0.0324  0.1560 -0.2177
  349WAT      O 2115   6.256   5.735   5.232 -0.2671  0.4912  0.6576
  349WAT     H1 2116   6.337   5.708   5.219  0.3180  2.4880 -0.2054
  349WAT     H2 2117   6.227   5.752   5.152 -2.3640 -2.1501  0.6950
  349WAT    EPW 2118   6.263   5.733   5.218 -0.4904  0.3960  0.5356
  350WAT      O 2119   5.190   6.171   1.792  0.2684 -0.2073 -0.0428
  350WAT     H1 2120   5.121   6.120   1.779  1.3499 -1.6411 -0.3952
  350WAT     H2 2121   5.236   6.129   1.853  0.7541  0.8159  0.3196
  350WAT    EPW 2122   5.187   6.157   1.799  0.4999 -0.2680 -0.0413
  351WAT      O 2123   3.964   7.644   1.941 -0.4414  0.4761 -0.3129
  351WAT     H1 2124   4.047   7.621   1.929 -0.7812 -0.4016 -1.1935
  351WAT     H2 2125   3.935   7.660   1.860 -0.7806  2.1080  0.1064
  351WAT    EPW 2126   3.972   7.643   1.927 -0.5417  0.5875 -0.3810
  352WAT      O 2127   5.918   6.865   3.371  0.0335  0.1166 -0.3750
  352WAT     H1 2128   5.848   6.909   3.344 -0.0372  0.0557 -0.2913
  352WAT     H2 2129   5.910   6.788   3.332  0.0715  0.1218 -0.3924
  352WAT    EPW 2130   5.906   6.860   3.362  0.0287  0.1084 -0.3652
  353WAT      O 2131   6.041   6.182   3.197  0.2048  0.4064 -0.3899
  353WAT     H1 2132   6.123   6.211   3.206  0.4469  0.3518 -2.0257
  353WAT     H2 2133   5.992   6.249   3.224  0.7133 -0.3469  2.7600
  353WAT    EPW 2134   6.046   6.196   3.202  0.3157  0.2871 -0.1662
  354WAT      O 2135   5.875   0.308   0.976  0.2049  0.4805 -0.1141
  354WAT     H1 2136   5.802   0.272   0.944 -0.5452  0.7799  1.1889
  354WAT     H2 2137   5.931   0.242   0.980 -0.4384 -0.0617  0.1505
  354WAT    EPW 2138   5.872   0.293   0.972 -0.0009  0.4446  0.1174
  355WAT      O 2139   5.633   0.453   1.535  0.1427 -0.1891 -0.6115
  355WAT     H1 2140   5.672   0.456   1.457 -0.5477  2.7120 -0.9692
  355WAT     H2 2141   5.552   0.481   1.518  0.9417  4.1612  1.5130
  355WAT    EPW 2142   5.627   0.457   1.521  0.1588  0.8821 -0.3505
  356WAT      O 2143   5.700   7.638   1.351  0.2423  0.4393 -0.1467
  356WAT     H1 2144   5.619   7.627   1.321  0.3137 -1.6529  0.2747
  356WAT     H2 2145   5.705   7.724   1.367 -0.8019  1.1856 -3.1533
  356WAT    EPW 2146   5.689   7.649   1.349  0.0986  0.2405 -0.5286
  357WAT      O 2147   6.915   0.118   4.631 -0.9761 -0.1750 -0.2640
  357WAT     H1 2148   6.857   0.121   4.695 -0.2083  2.3930  0.4048
  357WAT     H2 2149   6.992   0.119   4.672 -0.4369 -0.9409 -1.1935
  357WAT    EPW 2150   6.918   0.118   4.647 -0.7831  0.0912 -0.3025
  358WAT      O 2151   6.932   0.206   2.314  0.5922 -0.0879 -0.6734
  358WAT     H1 2152   6.976   0.173   2.382  1.0388 -0.2955 -1.0645
  358WAT     H2 2153   6.850   0.178   2.327  0.8133 -0.7067 -0.5926
  358WAT    EPW 2154   6.927   0.197   2.326  0.6908 -0.2100 -0.7193
  359WAT      O 2155   6.115   1.202   4.826  0.3450  0.2187 -0.1895
  359WAT     H1 2156   6.163   1.273   4.811 -0.6641  1.5315  2.2463
  359WAT     H2 2157   6.172   1.136   4.818  1.6033  1.3809 -1.2043
  359WAT    EPW 2158   6.130   1.203   4.822  0.3818  0.5843  0.0204
  360WAT      O 2159   6.390   5.781   3.550 -0.6141 -0.0063 -0.1589
  360WAT     H1 2160   6.373   5.702   3.517 -0.9466  0.3182 -0.7945
  360WAT     H2 2161   6.385   5.769   3.636 -2.7034 -0.2638 -0.2677
  360WAT    EPW 2162   6.387   5.768   3.558 -0.9718  0.0036 -0.2688
  361WAT      O 2163   6.229   7.227   2.222  0.6534  0.2133  0.4486
  361WAT     H1 2164   6.314   7.247   2.215  0.4909  0.8992  0.4026
  361WAT     H2 2165   6.198   7.245   2.142  0.8079 -1.8111 -0.1365
  361WAT    EPW 2166   6.237   7.233   2.209  0.6522  0.0156  0.3554
  362WAT      O 2167   6.185   7.120   4.356 -0.3044  0.2078 -0.0339
  362WAT     H1 2168   6.228   7.193   4.340  1.0733 -0.6173 -0.2392
  362WAT     H2 2169   6.154   7.131   4.437 -0.8260  1.3315 -0.3717
  362WAT    EPW 2170   6.187   7.132   4.366 -0.1779  0.2519 -0.1141
  363WAT      O 2171   6.615   6.921   3.690 -0.0633  0.2936 -0.5917
  363WAT     H1 2172   6.669   6.956   3.749 -2.3915 -0.2412  2.0555
  363WAT     H2 2173   6.612   6.836   3.712 -0.3672 -0.1038 -2.0345
  363WAT    EPW 2174   6.622   6.913   3.702 -0.4521  0.1559 -0.4138
  364WAT      O 2175   6.975   0.040   2.592 -0.2534  0.2291 -0.0033
  364WAT     H1 2176   6.958  -0.027   2.539  1.1519 -0.3112  0.1787
  364WAT     H2 2177   6.965   0.007   2.672  0.8880  0.0880  0.0939
  364WAT    EPW 2178   6.971   0.025   2.596  0.1228  0.1284  0.0380
  365WAT      O 2179   6.131   0.359   2.444 -0.0616  0.2212  0.6870
  365WAT     H1 2180   6.213   0.331   2.435  0.2051  0.3102  2.4290
  365WAT     H2 2181   6.086   0.315   2.384  1.4108  0.9234 -1.0118
  365WAT    EPW 2182   6.136   0.349   2.434  0.1953  0.3381  0.6933
  366WAT      O 2183   6.720   0.416   0.678 -0.0571  0.5285 -0.4997
  366WAT     H1 2184   6.704   0.376   0.601 -1.4187 -0.2747  0.1648
  366WAT     H2 2185   6.695   0.498   0.664 -0.1215  0.4330 -0.9814
  366WAT    EPW 2186   6.714   0.422   0.664 -0.2677  0.3957 -0.4727
  367WAT      O 2187   6.202   0.041   2.643  0.1255  0.2053  0.0383
  367WAT     H1 2188   6.218   0.019   2.560  1.7401  0.0836  0.3368
  367WAT     H2 2189   6.239   0.119   2.651  0.4447 -0.0059  0.7563
  367WAT    EPW 2190   6.210   0.049   2.632  0.4111  0.1562  0.1884
  368WAT      O 2191   5.288   7.102   3.250  0.0986  0.6235  0.1820
  368WAT     H1 2192   5.285   7.051   3.321 -0.1718  1.3584  0.7041
  368WAT     H2 2193   5.323   7.050   3.190  0.6922  0.1103  0.9492
  368WAT    EPW 2194   5.293   7.086   3.252  0.1463  0.6562  0.3724
  369WAT      O 2195   5.143   7.580   2.019  0.4133 -0.5769 -0.2183
  369WAT     H1 2196   5.094   7.525   2.066  1.2911 -1.3334 -0.1582
  369WAT     H2 2197   5.186   7.627   2.080 -1.0132  0.8546 -0.2529
  369WAT    EPW 2198   5.142   7.579   2.035  0.3323 -0.4772 -0.2146
  370WAT      O 2199   6.021   7.401   3.025  0.0869 -0.3824  0.2747
  370WAT     H1 2200   6.055   7.458   2.968  2.2374 -1.2532  0.5967
  370WAT     H2 2201   5.990   7.452   3.088  0.5307  0.4945 -0.1867
  370WAT    EPW 2202   6.021   7.417   3.026  0.4702 -0.3815  0.2541
  371WAT      O 2203   5.981   7.614   4.585 -0.1274  0.5069 -0.5425
  371WAT     H1 2204   6.052   7.596   4.633 -1.2388 -0.3919  0.8623
  371WAT     H2 2205   5.951   7.535   4.563 -0.5001  0.8832 -1.4141
  371WAT    EPW 2206   5.987   7.600   4.589 -0.3466  0.4297 -0.4637
  372WAT      O 2207   5.289   7.164   2.317  0.0686 -0.1784 -0.4066
  372WAT     H1 2208   5.338   7.093   2.308 -0.8007 -0.7593 -0.6940
  372WAT     H2 2209   5.218   7.135   2.359  0.2285  0.7624  0.5824
  372WAT    EPW 2210   5.286   7.150   2.322 -0.0362 -0.1252 -0.3029
  373WAT      O 2211   7.064   7.325   3.790 -0.0676 -0.1053  0.0357
  373WAT     H1 2212   7.089   7.299   3.870  0.3569 -0.1857 -0.1223
  373WAT     H2 2213   7.002   7.268   3.769  0.6820 -0.8440 -0.2012
  373WAT    EPW 2214   7.059   7.313   3.799  0.1058 -0.2263 -0.0226
  374WAT      O 2215   4.924   0.025   2.279  0.2484  0.2554 -0.2066
  374WAT     H1 2216   4.837   0.034   2.283  0.4469  2.4687  2.5591
  374WAT     H2 2217   4.949   0.100   2.241  0.9806 -0.4508 -1.1454
  374WAT    EPW 2218   4.915   0.038   2.274  0.3859  0.4780  0.0633
  375WAT      O 2219   6.883   0.003   4.094  0.0207  0.1832  0.0166
  375WAT     H1 2220   6.846   0.037   4.164 -2.4096  0.2798 -1.2243
  375WAT     H2 2221   6.893   0.071   4.040 -0.7801 -0.3130 -0.7891
  375WAT    EPW 2222   6.879   0.018   4.096 -0.4566  0.1241 -0.2858
  376WAT      O 2223   4.961   7.316   3.360  0.0992  0.1339 -0.3612
  376WAT     H1 2224   5.029   7.338   3.310 -0.5191  0.3816 -1.1029
  376WAT     H2 2225   4.897   7.301   3.303 -0.2219 -1.0231  0.2720
  376WAT    EPW 2226   4.961   7.317   3.344 -0.0395 -0.0004 -0.3772
  377WAT      O 2227   4.639   0.061   3.418  0.4113 -0.1366 -0.0239
  377WAT     H1 2228   4.641   0.070   3.505  0.9830  0.1453 -0.0627
  377WAT     H2 2229   4.620   0.141   3.390 -0.9499 -0.4609 -0.1295
  377WAT    EPW 2230   4.636   0.074   3.427  0.2947 -0.1428 -0.0452
  378WAT      O 2231   5.107   0.253   2.179 -0.0400 -0.3248  0.3169
  378WAT     H1 2232   5.060   0.278   2.110 -1.1225 -0.8267  0.8414
  378WAT     H2 2233   5.095   0.317   2.237  0.8729  0.0989  0.0582
  378WAT    EPW 2234   5.098   0.266   2.178 -0.0650 -0.3364  0.3561
  379WAT      O 2235   6.757   7.265   3.209  0.1409 -0.5806  0.2628
  379WAT     H1 2236   6.743   7.351   3.208  1.6463 -0.3117 -0.3193
  379WAT     H2 2237   6.819   7.254   3.148 -1.7495 -2.4053 -1.4999
  379WAT    EPW 2238   6.764   7.276   3.200  0.0840 -0.8105 -0.0836
  380WAT      O 2239   6.711   0.352   3.849  0.6575 -0.0824  0.1957
  380WAT     H1 2240   6.686   0.434   3.864 -0.0714 -0.3405  0.4384
  380WAT     H2 2241   6.707   0.345   3.762  0.5025  0.0702  0.1900
  380WAT    EPW 2242   6.707   0.363   3.838  0.5269 -0.0980  0.2307
  381WAT      O 2243   5.178   7.495   1.164  0.1408  0.2003  0.5187
  381WAT     H1 2244   5.255   7.520   1.199  0.5108  0.5123 -0.4847
  381WAT     H2 2245   5.199   7.425   1.118 -0.0092  0.7502 -0.4116
  381WAT    EPW 2246   5.193   7.489   1.162  0.1733  0.3276  0.2331
  382WAT      O 2247   6.455   6.022   3.890  0.1083 -0.4385  0.0648
  382WAT     H1 2248   6.492   5.950   3.858  0.6173  0.0826 -0.5511
  382WAT     H2 2249   6.523   6.066   3.924 -0.0277  0.2291 -0.5055
  382WAT    EPW 2250   6.471   6.018   3.890  0.1634 -0.2629 -0.1104
  383WAT      O 2251   7.082   6.181   1.574 -0.0636 -0.6641  0.1822
  383WAT     H1 2252   7.092   6.266   1.590  1.1252 -0.7020 -0.2233
  383WAT     H2 2253   7.069   6.177   1.488  0.1430 -0.9111  0.1612
  383WAT    EPW 2254   7.082   6.193   1.563  0.1425 -0.7062  0.1192
  384WAT      O 2255   6.910   5.783   5.758 -0.4813  0.3863  0.4901
  384WAT     H1 2256   6.964   5.819   5.816  0.6199 -0.3955 -0.0087
  384WAT     H2 2257   6.905   5.842   5.695 -2.0453  1.4412  1.5346
  384WAT    EPW 2258   6.917   5.797   5.758 -0.5497  0.4266  0.5707
  385WAT      O 2259   5.433   0.474   4.387 -0.2541 -0.0948 -0.2631
  385WAT     H1 2260   5.439   0.505   4.306 -0.5468  0.0132 -0.2452
  385WAT     H2 2261   5.512   0.492   4.421  0.3924 -1.4370 -0.9583
  385WAT    EPW 2262   5.446   0.482   4.380 -0.2019 -0.2771 -0.3632
  386WAT      O 2263   6.055   6.539   3.847  0.3327 -0.3941 -0.5822
  386WAT     H1 2264   6.025   6.590   3.784 -0.1380  1.6365  1.1885
  386WAT     H2 2265   6.127   6.580   3.874  0.6481 -1.3333  0.0716
  386WAT    EPW 2266   6.061   6.553   3.842  0.3098 -0.2329 -0.2240
  387WAT      O 2267   6.567   6.513   2.359  0.0788  0.1523 -0.0376
  387WAT     H1 2268   6.513   6.446   2.372  0.6099 -0.3675 -0.4806
  387WAT     H2 2269   6.522   6.567   2.308 -0.4470  0.2591  0.5308
  387WAT    EPW 2270   6.553   6.511   2.354  0.0796  0.0913 -0.0191
  388WAT      O 2271   6.035   0.122   3.343  0.1444 -0.2344 -0.0456
  388WAT     H1 2272   6.027   0.140   3.428  0.3004  1.9389 -0.4197
  388WAT     H2 2273   5.987   0.185   3.305  0.0466 -1.1876 -1.5626
  388WAT    EPW 2274   6.027   0.134   3.350  0.1530 -0.0542 -0.3250
  389WAT      O 2275   6.802   7.348   1.543  0.3431  0.1214  0.8852
  389WAT     H1 2276   6.854   7.415   1.526 -0.8355  1.0291  0.6847
  389WAT     H2 2277   6.793   7.309   1.465  0.2720  0.2983  0.8045
  389WAT    EPW 2278   6.808   7.352   1.529  0.1585  0.2816  0.8437
  390WAT      O 2279   5.551   6.764   3.341  0.3547  0.0987 -0.9273
  390WAT     H1 2280   5.495   6.713   3.299  0.0605  0.2645 -0.7355
  390WAT     H2 2281   5.625   6.755   3.295  0.0274  0.3017 -1.5062
  390WAT    EPW 2282   5.554   6.755   3.328  0.2629  0.1532 -0.9845
  391WAT      O 2283   6.708   6.493   3.492  0.1290  0.1026 -0.6242
  391WAT     H1 2284   6.731   6.409   3.502 -2.2960 -0.7934 -1.8170
  391WAT     H2 2285   6.752   6.518   3.421  1.2256  0.0284 -0.0012
  391WAT    EPW 2286   6.718   6.484   3.483 -0.0672 -0.0407 -0.7084
  392WAT      O 2287   6.249   0.383   1.553  0.1319 -0.2143  0.3280
  392WAT     H1 2288   6.303   0.337   1.604  0.6866 -1.0004 -0.9216
  392WAT     H2 2289   6.273   0.361   1.473 -2.0264 -0.5360 -0.2816
  392WAT    EPW 2290   6.261   0.373   1.549 -0.1050 -0.3779  0.0533
  393WAT      O 2291   6.911   7.554   3.658  0.3576  0.0353 -0.2200
  393WAT     H1 2292   6.958   7.497   3.705  0.2619 -1.0444 -1.3555
  393WAT     H2 2293   6.943   7.545   3.578 -1.1575 -0.0875 -0.8569
  393WAT    EPW 2294   6.922   7.544   3.653  0.1196 -0.1423 -0.4818
  394WAT      O 2295   6.275   7.275   1.490 -0.0415  0.3257 -0.3943
  394WAT     H1 2296   6.347   7.325   1.492  0.8064 -0.8693 -0.1168
  394WAT     H2 2297   6.277   7.240   1.410  0.3974 -0.6783  0.0333
  394WAT    EPW 2298   6.286   7.277   1.478  0.1486  0.0008 -0.2902
  395WAT      O 2299   6.121   7.215   3.989 -0.5096 -0.0892  0.1794
  395WAT     H1 2300   6.148   7.289   3.952 -1.6370 -0.3053 -1.1033
  395WAT     H2 2301   6.185   7.197   4.046  0.0106  1.6049  0.1844
  395WAT    EPW 2302   6.135   7.223   3.992 -0.5993  0.1291 -0.0093
  396WAT      O 2303   6.592   1.042   2.803  0.0751 -0.6292 -0.1902
  396WAT     H1 2304   6.538   1.077   2.862 -0.6049 -3.8872  1.3325
  396WAT     H2 2305   6.544   1.041   2.730 -0.5277 -0.0797  0.1867
  396WAT    EPW 2306   6.577   1.047   2.801 -0.1144 -1.0293  0.0904
  397WAT      O 2307   7.095   7.053   3.957 -0.0586  0.5204 -0.1420
  397WAT     H1 2308   7.172   7.021   3.933 -0.0430 -1.3377  2.0237
  397WAT     H2 2309   7.115   7.109   4.022 -0.4880  0.6056 -0.0762
  397WAT    EPW 2310   7.109   7.057   3.963 -0.1198  0.2585  0.1877
  398WAT      O 2311   7.138   6.931   1.546 -0.0317 -0.2786 -0.1882
  398WAT     H1 2312   7.100   6.889   1.480 -2.6622 -0.4481  1.2707
  398WAT     H2 2313   7.082   6.997   1.563 -0.0783 -0.8887  2.5110
  398WAT    EPW 2314   7.124   6.935   1.539 -0.4272 -0.3937  0.4261
  399WAT      O 2315   5.964   6.985   0.888  0.2300 -0.0692 -0.0025
  399WAT     H1 2316   5.984   7.017   0.809  1.0636  0.1598  0.2846
  399WAT     H2 2317   5.920   7.050   0.926  1.7036  0.7002  0.4884
  399WAT    EPW 2318   5.960   6.999   0.882  0.5708  0.0783  0.1125
  400WAT      O 2319   6.044   6.126   1.654  0.0415 -0.6607 -0.0060
  400WAT     H1 2320   5.957   6.128   1.646  0.1458  0.4992 -1.4597
  400WAT     H2 2321   6.059   6.063   1.713 -1.8784  0.6414  2.0081
  400WAT    EPW 2322   6.033   6.117   1.661 -0.2267 -0.2970  0.0768
  401WAT      O 2323   6.016   7.084   1.404  0.2580  0.0966  0.2804
  401WAT     H1 2324   5.995   7.115   1.325  2.2964  0.2070 -0.2768
  401WAT     H2 2325   6.048   7.154   1.445  0.3749 -0.2277  0.7465
  401WAT    EPW 2326   6.018   7.099   1.398  0.5764  0.0650  0.2669
  402WAT      O 2327   6.266   5.833   0.019 -0.0932  0.4874 -0.2177
  402WAT     H1 2328   6.222   5.840   0.094  1.9032 -0.9701  1.2156
  402WAT     H2 2329   6.210   5.796  -0.035 -0.9823 -0.3474  1.2045
  402WAT    EPW 2330   6.251   5.829   0.022  0.0704  0.1487  0.2041
  403WAT      O 2331   3.801   0.103   0.020 -0.0370 -0.1129 -0.2126
  403WAT     H1 2332   3.854   0.051   0.065 -0.3310 -0.2714 -0.0432
  403WAT     H2 2333   3.797   0.175   0.069 -0.0826 -0.1522 -0.1580
  403WAT    EPW 2334   3.808   0.106   0.034 -0.0872 -0.1421 -0.1795
  404WAT      O 2335   4.975   0.820   1.683  0.3241  0.0590 -0.2292
  404WAT     H1 2336   4.974   0.735   1.705 -0.1414  0.0551 -0.2595
  404WAT     H2 2337   5.037   0.853   1.735  1.8910 -0.6474 -1.5395
  404WAT    EPW 2338   4.984   0.812   1.694  0.4868 -0.0459 -0.4272
  405WAT      O 2339   6.090   7.120   0.658  0.0604  0.1572 -0.2211
  405WAT     H1 2340   6.110   7.069   0.590  0.4867  0.3754 -0.2655
  405WAT     H2 2341   6.032   7.175   0.625 -1.3386 -1.0478  0.1415
  405WAT    EPW 2342   6.085   7.121   0.643 -0.0833  0.0114 -0.1741
  406WAT      O 2343   4.985   0.248   1.130 -0.6226  0.2066  0.6442
  406WAT     H1 2344   4.994   0.176   1.177  1.1381  1.8464  3.0569
  406WAT     H2 2345   5.060   0.254   1.087 -1.4014 -0.1759 -0.8395
  406WAT    EPW 2346   4.997   0.239   1.131 -0.4775  0.3923  0.7815
  407WAT      O 2347   6.915   7.519   0.437 -0.6063 -0.0977 -0.0112
  407WAT     H1 2348   6.981   7.534   0.492  0.7408 -0.2090 -1.5314
  407WAT     H2 2349   6.885   7.599   0.420  1.0364  0.2562 -1.5072
  407WAT    EPW 2350   6.920   7.533   0.443 -0.1646 -0.0619 -0.4567
  408WAT      O 2351   5.032   6.543   1.421 -0.1849 -0.6457  0.0959
  408WAT     H1 2352   5.101   6.492   1.437 -0.2452 -0.8464 -0.2700
  408WAT     H2 2353   5.026   6.593   1.492  1.6364  0.8747 -0.7081
  408WAT    EPW 2354   5.042   6.543   1.433  0.0752 -0.4507 -0.0769
  409WAT      O 2355   5.270   6.371   0.623  0.2402  0.1589  0.3197
  409WAT     H1 2356   5.339   6.385   0.675 -0.4133  1.4826  0.8800
  409WAT     H2 2357   5.227   6.307   0.662  1.0695 -0.6039  0.0284
  409WAT    EPW 2358   5.274   6.364   0.636  0.2662  0.2418  0.3594
  410WAT      O 2359   5.167   0.957   0.933  0.8530  0.3529 -0.8131
  410WAT     H1 2360   5.113   1.021   0.907 -1.0658 -1.0121 -0.4040
  410WAT     H2 2361   5.201   0.988   1.008 -0.8304  0.5303 -0.0859
  410WAT    EPW 2362   5.164   0.971   0.940  0.3209  0.1775 -0.6453
  411WAT      O 2363   6.875   6.801   1.748 -0.0255 -0.1635 -0.1007
  411WAT     H1 2364   6.809   6.838   1.705 -1.4791 -0.6313  1.5939
  411WAT     H2 2365   6.877   6.845   1.824  0.2516 -1.4553  0.6760
  411WAT    EPW 2366   6.865   6.813   1.753 -0.1993 -0.4234  0.2643
  412WAT      O 2367   5.222   0.860   0.286  0.1715  0.1590 -0.2343
  412WAT     H1 2368   5.271   0.800   0.326  1.3834  1.5359  0.4340
  412WAT     H2 2369   5.280   0.913   0.249 -0.7982  1.5831  0.1785
  412WAT    EPW 2370   5.238   0.859   0.286  0.2073  0.5728 -0.0746
  413WAT      O 2371   6.350   7.386   7.547 -0.1105 -0.0225  0.7660
  413WAT     H1 2372   6.362   7.419   7.468  0.9711  1.3045  1.4362
  413WAT     H2 2373   6.405   7.432   7.597  0.2309 -1.7266  2.0632
  413WAT    EPW 2374   6.360   7.398   7.543  0.0997 -0.0782  1.0566
  414WAT      O 2375   6.092   7.358   2.439 -0.4169 -0.5536 -0.2628
  414WAT     H1 2376   6.136   7.303   2.387 -1.0393 -2.3809  1.0860
  414WAT     H2 2377   6.031   7.309   2.475 -1.2411  1.1234  0.7412
  414WAT    EPW 2378   6.090   7.343   2.436 -0.6306 -0.5758  0.0847
  415WAT      O 2379   5.230   7.226   1.040 -0.0689 -0.2293  0.1535
  415WAT     H1 2380   5.207   7.285   0.980 -0.1912  0.4227  0.8294
  415WAT     H2 2381   5.213   7.150   1.001 -0.3221  0.1869 -0.5677
  415WAT    EPW 2382   5.224   7.224   1.025 -0.1244 -0.0715  0.1468
  416WAT      O 2383   6.801   6.942   1.259  0.6539  1.0648 -0.4282
  416WAT     H1 2384   6.872   6.909   1.298 -0.8839 -0.8489  0.9971
  416WAT     H2 2385   6.789   6.890   1.191  0.5239  1.2692 -0.5604
  416WAT    EPW 2386   6.810   6.929   1.255  0.4075  0.8123 -0.2372
  417WAT      O 2387   6.918   6.027   3.348 -0.1555  0.4842 -0.4736
  417WAT     H1 2388   6.923   6.109   3.318  0.7033  0.8096  0.4774
  417WAT     H2 2389   6.975   5.983   3.298 -1.6791  0.1069 -1.9679
  417WAT    EPW 2390   6.927   6.033   3.336 -0.2537  0.4766 -0.5538
  418WAT      O 2391   5.104   6.768   1.235  0.8298  0.4499 -0.1552
  418WAT     H1 2392   5.017   6.768   1.243  0.9443  1.7565  1.4966
  418WAT     H2 2393   5.128   6.700   1.284  0.7717  0.2339 -0.4202
  418WAT    EPW 2394   5.094   6.758   1.244  0.8381  0.6110  0.0496
  419WAT      O 2395   6.634   0.299   0.447  0.3490 -0.1744 -0.3406
  419WAT     H1 2396   6.590   0.368   0.419 -0.5711 -0.9357 -0.8168
  419WAT     H2 2397   6.572   0.243   0.473  0.9080 -1.8863 -2.4068
  419WAT    EPW 2398   6.619   0.301   0.447  0.2957 -0.5398 -0.7162
  420WAT      O 2399   5.732   6.931   0.165  0.1342  0.2911 -0.6350
  420WAT     H1 2400   5.779   6.904   0.234 -0.1364  0.4865 -0.3767
  420WAT     H2 2401   5.665   6.974   0.201 -1.3083 -1.5918 -0.9104
  420WAT    EPW 2402   5.729   6.933   0.181 -0.1188  0.0418 -0.6375
  421WAT      O 2403   5.722   0.445   1.789  0.0520  0.7159  0.1002
  421WAT     H1 2404   5.660   0.403   1.834  0.1366  0.1671 -0.2847
  421WAT     H2 2405   5.691   0.446   1.708  1.9879 -2.6498 -0.8898
  421WAT    EPW 2406   5.708   0.439   1.784  0.3505  0.1377 -0.1029
  422WAT      O 2407   6.859   6.229   1.267 -0.3282 -0.8188  0.3579
  422WAT     H1 2408   6.930   6.264   1.304  2.3446 -3.3735 -1.8837
  422WAT     H2 2409   6.806   6.213   1.335  1.4041  0.6973  2.1884
  422WAT    EPW 2410   6.861   6.232   1.283  0.3225 -0.9722  0.2971
  423WAT      O 2411   6.953   7.394   1.127  0.0313 -0.1923 -0.6838
  423WAT     H1 2412   6.900   7.363   1.188  0.5071  0.6529  0.1819
  423WAT     H2 2413   6.958   7.329   1.069 -0.5431 -0.9501  0.0987
  423WAT    EPW 2414   6.946   7.380   1.127  0.0167 -0.1794 -0.4403
  424WAT      O 2415   5.812   4.447   0.319 -0.6769  0.0256 -0.0273
  424WAT     H1 2416   5.866   4.464   0.253  1.8687 -1.4864  1.4998
  424WAT     H2 2417   5.801   4.525   0.356  1.2620  0.2953  0.1056
  424WAT    EPW 2418   5.818   4.461   0.315 -0.0144 -0.1579  0.2179
  425WAT      O 2419   5.592   7.339   1.315 -0.9693 -0.3489 -0.0390
  425WAT     H1 2420   5.551   7.326   1.239 -0.6131 -0.3501 -0.2301
  425WAT     H2 2421   5.640   7.268   1.326 -0.2606  0.0836 -0.2985
  425WAT    EPW 2422   5.593   7.327   1.305 -0.8120 -0.2852 -0.1056
  426WAT      O 2423   6.140   0.006   7.600  0.0296 -0.3172  0.5501
  426WAT     H1 2424   6.080   0.068   7.613  1.6256  1.1450  1.2689
  426WAT     H2 2425   6.149  -0.031   7.679 -0.0715 -0.7030  0.3874
  426WAT    EPW 2426   6.132   0.009   7.614  0.2504 -0.1582  0.6323
  427WAT      O 2427   5.105   6.923   1.002 -0.1149 -0.0583  0.3613
  427WAT     H1 2428   5.087   6.861   1.061 -2.5241 -1.4056 -1.6036
  427WAT     H2 2429   5.027   6.944   0.970  1.0056  1.1861 -1.7749
  427WAT    EPW 2430   5.091   6.917   1.006 -0.3053 -0.0735 -0.2445
  428WAT      O 2431   5.778   6.829   1.848 -0.1322  0.5699 -0.1084
  428WAT     H1 2432   5.695   6.850   1.833 -0.9839 -0.9345  2.0570
  428WAT     H2 2433   5.801   6.783   1.777 -1.3035  0.6329 -0.5438
  428WAT    EPW 2434   5.769   6.825   1.835 -0.4311  0.3570  0.1472
  429WAT      O 2435   6.278   5.951   1.008  0.1205 -0.2674  0.1490
  429WAT     H1 2436   6.209   5.898   1.013 -1.1042  1.2212 -0.3284
  429WAT     H2 2437   6.275   5.995   1.083  0.3678  0.0246 -0.0123
  429WAT    EPW 2438   6.267   5.950   1.020 -0.0239 -0.0044  0.0547
  430WAT      O 2439   6.542   6.976   2.172  0.3313 -0.2552 -0.4175
  430WAT     H1 2440   6.624   6.953   2.188  0.1041 -0.7698  0.0372
  430WAT     H2 2441   6.533   7.052   2.213  1.0827  0.6887 -1.9157
  430WAT    EPW 2442   6.553   6.984   2.180  0.4088 -0.1918 -0.5717
  431WAT      O 2443   4.359   0.803   1.375  0.2994  0.1511  0.9598
  431WAT     H1 2444   4.375   0.871   1.323 -0.0053 -0.6498 -0.2150
  431WAT     H2 2445   4.272   0.795   1.372  0.3999 -0.9143  0.2429
  431WAT    EPW 2446   4.348   0.812   1.367  0.2692 -0.1246  0.6804
  432WAT      O 2447   6.975   0.032   1.373 -0.2393 -0.3363  0.0844
  432WAT     H1 2448   7.042   0.010   1.426 -0.0483  1.4861  0.6709
  432WAT     H2 2449   6.905   0.024   1.425 -0.3812 -1.2169 -0.2233
  432WAT    EPW 2450   6.975   0.027   1.389 -0.2320 -0.1972  0.1256
  433WAT      O 2451   6.476   7.364   1.802 -0.2021  0.5150  0.0381
  433WAT     H1 2452   6.391   7.356   1.819  0.2039 -1.0739  1.6620
  433WAT     H2 2453   6.478   7.386   1.718 -2.2024 -1.4500 -0.6455
  433WAT    EPW 2454   6.463   7.366   1.792 -0.4376 -0.0100  0.1770
  434WAT      O 2455   7.121   0.305   6.388 -0.4017  0.2181  0.0976
  434WAT     H1 2456   7.154   0.386   6.382  1.6706 -0.6226 -0.7086
  434WAT     H2 2457   7.115   0.292   6.474 -1.0378  1.3254  0.2370
  434WAT    EPW 2458   7.125   0.315   6.400 -0.1895  0.2574 -0.0009
  435WAT      O 2459   6.069   1.963   0.570 -0.0535  0.2557  0.5812
  435WAT     H1 2460   6.101   2.030   0.617  1.2711  0.5159 -0.6142
  435WAT     H2 2461   5.985   1.960   0.593  0.0995  1.6468  1.4503
  435WAT    EPW 2462   6.062   1.973   0.580  0.1648  0.4997  0.5330
  436WAT      O 2463   6.132   0.123   0.952  0.5645 -0.1137  0.5701
  436WAT     H1 2464   6.206   0.113   0.907  0.4886 -0.7015  0.5713
  436WAT     H2 2465   6.107   0.041   0.970 -0.3929  0.0550  0.0754
  436WAT    EPW 2466   6.139   0.110   0.948  0.4119 -0.1756  0.4972
  437WAT      O 2467   5.083   6.897   0.161  0.2523 -0.4756  0.4093
  437WAT     H1 2468   5.098   6.903   0.075  0.2926 -1.4398  0.3347
  437WAT     H2 2469   5.066   6.979   0.185 -0.8565 -0.3403 -0.7321
  437WAT    EPW 2470   5.083   6.910   0.151  0.0945 -0.5980  0.2297
  438WAT      O 2471   5.329   6.811   0.242  0.0742  0.1361 -0.1972
  438WAT     H1 2472   5.245   6.829   0.229 -0.0240 -0.2650 -0.1351
  438WAT     H2 2473   5.332   6.784   0.324  0.8048  3.3841  1.0256
  438WAT    EPW 2474   5.317   6.810   0.252  0.1676  0.5566 -0.0074
  439WAT      O 2475   6.992   5.743   1.544 -0.7154  0.0285  0.1609
  439WAT     H1 2476   6.959   5.685   1.600 -1.5898  0.6756  0.3329
  439WAT     H2 2477   6.984   5.819   1.586  1.7473  0.1544  0.5458
  439WAT    EPW 2478   6.986   5.745   1.559 -0.4808  0.1427  0.2432
  440WAT      O 2479   6.829   6.587   0.737  0.1048 -0.3225 -0.4202
  440WAT     H1 2480   6.803   6.512   0.701 -0.6717  0.6177 -1.9368
  440WAT     H2 2481   6.886   6.619   0.680  0.8925 -0.0264  0.5088
  440WAT    EPW 2482   6.833   6.581   0.724  0.1064 -0.1399 -0.5070
  441WAT      O 2483   6.621   7.124   7.246 -0.2581 -0.0478  0.0877
  441WAT     H1 2484   6.611   7.126   7.333 -1.0083 -2.2526  0.1115
  441WAT     H2 2485   6.539   7.125   7.216 -0.2699 -3.2718 -0.3537
  441WAT    EPW 2486   6.607   7.125   7.255 -0.3706 -0.8498  0.0260
  442WAT      O 2487   6.382   7.094   3.198 -0.3862  0.0140 -0.0864
  442WAT     H1 2488   6.454   7.046   3.199  0.5681  1.4115  0.0855
  442WAT     H2 2489   6.322   7.042   3.235  0.3986 -1.3272 -0.6480
  442WAT    EPW 2490   6.384   7.079   3.204 -0.1293  0.0223 -0.1439
  443WAT      O 2491   7.204   6.737   0.110 -0.7032 -0.1106 -0.6701
  443WAT     H1 2492   7.177   6.654   0.099 -0.2248 -0.1906 -1.3167
  443WAT     H2 2493   7.183   6.754   0.192  1.3552 -1.7235  0.3078
  443WAT    EPW 2494   7.197   6.727   0.120 -0.3285 -0.3607 -0.6212
  444WAT      O 2495   6.831   4.019   7.756  0.1011 -0.0361  0.0374
  444WAT     H1 2496   6.773   4.048   7.698  0.3449 -2.0076 -1.2797
  444WAT     H2 2497   6.795   4.038   7.833 -0.1417  2.8521 -0.6756
  444WAT    EPW 2498   6.817   4.026   7.758  0.1012  0.0993 -0.2625
  445WAT      O 2499   6.089   0.149   1.921 -0.2046  0.3778 -0.6412
  445WAT     H1 2500   6.003   0.151   1.906 -0.2370  1.8582 -0.3968
  445WAT     H2 2501   6.108   0.231   1.943  0.8095 -0.4283  1.8552
  445WAT    EPW 2502   6.079   0.161   1.922 -0.0596  0.4774 -0.2363
  446WAT      O 2503   6.328   6.209   7.401 -0.5349 -0.0586  0.5905
  446WAT     H1 2504   6.258   6.163   7.379  0.3066 -0.7581 -0.7852
  446WAT     H2 2505   6.392   6.150   7.401  0.4906  0.9837 -0.7530
  446WAT    EPW 2506   6.327   6.194   7.398 -0.2591 -0.0080  0.1888
  447WAT      O 2507   5.186   6.970   7.752  0.3394 -0.5197  0.8339
  447WAT     H1 2508   5.147   7.003   7.681 -0.4828 -0.4815  1.2929
  447WAT     H2 2509   5.242   6.912   7.719 -0.2948 -0.7727  0.1685
  447WAT    EPW 2510   5.189   6.967   7.736  0.1243 -0.5514  0.8034
  448WAT      O 2511   7.038   7.609   7.511 -0.2410 -0.6852  0.1325
  448WAT     H1 2512   6.998   7.622   7.435 -0.1842 -3.1340 -0.3888
  448WAT     H2 2513   7.120   7.636   7.497 -0.7153  0.7865  0.0210
  448WAT    EPW 2514   7.044   7.615   7.498 -0.3027 -0.8296  0.0391
  449WAT      O 2515   6.181   6.992   0.409 -0.1963 -0.5743  0.2536
  449WAT     H1 2516   6.244   6.955   0.456  0.6527  0.7512  0.2327
  449WAT     H2 2517   6.115   6.935   0.413  0.4780 -1.3045  1.5321
  449WAT    EPW 2518   6.180   6.978   0.416  0.0288 -0.4864  0.4394
  450WAT      O 2519   5.022   6.014   0.987  0.5007  0.1725 -0.6189
  450WAT     H1 2520   5.024   6.098   0.965  1.1874  0.3348  0.0271
  450WAT     H2 2521   4.951   6.007   1.037 -0.3205  0.0731 -1.7685
  450WAT    EPW 2522   5.012   6.025   0.991  0.4808  0.1818 -0.6933
  451WAT      O 2523   6.662   6.623   0.121  0.1261  0.7046 -0.1406
  451WAT     H1 2524   6.581   6.642   0.148 -0.1342 -0.1655 -0.2809
  451WAT     H2 2525   6.651   6.600   0.037  0.3489 -0.4911  0.1425
  451WAT    EPW 2526   6.648   6.623   0.113  0.1206  0.3994 -0.1195
  452WAT      O 2527   6.796   6.459   2.196  0.8212  0.2192 -0.1915
  452WAT     H1 2528   6.788   6.383   2.155 -0.5304 -0.6993  1.6462
  452WAT     H2 2529   6.722   6.466   2.241  1.5025  1.9662  0.7666
  452WAT    EPW 2530   6.784   6.449   2.196  0.7222  0.3416  0.2215
  453WAT      O 2531   3.608   6.720   0.785  0.0525  0.2027 -0.1695
  453WAT     H1 2532   3.557   6.657   0.751  0.3453  0.0982 -0.4150
  453WAT     H2 2533   3.577   6.729   0.866  0.7971 -1.1424  0.3091
  453WAT    EPW 2534   3.596   6.712   0.792  0.2057 -0.0114 -0.1351
  454WAT      O 2535   4.503   5.727   1.470 -0.6317  0.2998 -0.2582
  454WAT     H1 2536   4.442   5.687   1.518  0.1178 -1.0029 -0.3568
  454WAT     H2 2537   4.564   5.666   1.459 -0.1035  1.0291 -1.6280
  454WAT    EPW 2538   4.503   5.712   1.475 -0.4430  0.2151 -0.4751
  455WAT      O 2539   6.862   7.667   1.134 -0.1658  0.5765  0.0438
  455WAT     H1 2540   6.912   7.601   1.106  1.0351  1.2369  0.5293
  455WAT     H2 2541   6.899   7.689   1.210 -0.6785  1.6690 -0.0073
  455WAT    EPW 2542   6.875   7.660   1.141 -0.0641  0.8355  0.1080
  456WAT      O 2543   6.443   6.697   2.199  0.2665 -0.5587 -0.2530
  456WAT     H1 2544   6.454   6.783   2.191 -1.7106 -0.1189  0.9991
  456WAT     H2 2545   6.418   6.672   2.119 -1.1120  0.4293 -0.1765
  456WAT    EPW 2546   6.441   6.706   2.186 -0.2292 -0.3478 -0.0567
  457WAT      O 2547   5.743   5.495   1.676 -0.4983 -0.4045  1.0660
  457WAT     H1 2548   5.798   5.430   1.696 -1.0415 -1.5401 -0.8225
  457WAT     H2 2549   5.791   5.546   1.624 -0.6626 -0.3994  0.9185
  457WAT    EPW 2550   5.758   5.493   1.671 -0.6028 -0.5715  0.7653
  458WAT      O 2551   6.451   7.685   1.446  0.0022  0.1185 -0.4591
  458WAT     H1 2552   6.369   7.668   1.421 -0.4649  1.8801 -0.2829
  458WAT     H2 2553   6.445   7.765   1.482  1.0905 -1.1766  3.0374
  458WAT    EPW 2554   6.438   7.694   1.448  0.0940  0.1874  0.0835
  459WAT      O 2555   4.511   6.610   1.411 -0.6394 -0.0272  0.3930
  459WAT     H1 2556   4.430   6.610   1.379  0.3228 -1.7899 -2.3401
  459WAT     H2 2557   4.509   6.547   1.471 -1.2717 -0.0613  0.3443
  459WAT    EPW 2558   4.499   6.601   1.415 -0.5907 -0.2926 -0.0179
  460WAT      O 2559   4.632   6.827   0.561 -0.1226  0.2657 -0.0284
  460WAT     H1 2560   4.614   6.839   0.476  0.1796 -1.1533 -0.3099
  460WAT     H2 2561   4.608   6.903   0.597  1.1299  1.4856 -1.5752
  460WAT    EPW 2562   4.626   6.840   0.554  0.1071  0.2363 -0.2985
  461WAT      O 2563   7.068   6.281   0.352  0.4042 -0.4070 -0.0080
  461WAT     H1 2564   6.992   6.249   0.382  0.2375  1.2384  1.5355
  461WAT     H2 2565   7.102   6.321   0.422  1.0954  1.7614 -1.4844
  461WAT    EPW 2566   7.062   6.282   0.367  0.4817  0.1564  0.0019
  462WAT      O 2567   5.646   0.206   1.318 -0.5039  0.7899 -0.1450
  462WAT     H1 2568   5.593   0.255   1.269 -0.1119  0.3267 -1.0427
  462WAT     H2 2569   5.719   0.253   1.323 -0.5159  0.8006 -0.0693
  462WAT    EPW 2570   5.649   0.220   1.312 -0.4478  0.7231 -0.2664
  463WAT      O 2571   5.991   6.573   1.967 -1.0011  0.2195 -0.0879
  463WAT     H1 2572   6.015   6.495   1.935 -0.2250  0.8913 -1.1786
  463WAT     H2 2573   5.904   6.574   1.956 -0.8718 -0.0042 -1.1888
  463WAT    EPW 2574   5.982   6.561   1.961 -0.8674  0.2857 -0.4116
  464WAT      O 2575   7.126   7.126   2.099  0.6951  0.4154  0.0381
  464WAT     H1 2576   7.066   7.135   2.162  1.5020 -1.1234  1.0656
  464WAT     H2 2577   7.181   7.192   2.114  0.2635  0.7394  0.2240
  464WAT    EPW 2578   7.125   7.137   2.110  0.7505  0.2360  0.2174
  465WAT      O 2579   6.417   6.712   0.170 -0.0489  0.3200  0.3819
  465WAT     H1 2580   6.366   6.653   0.131  0.4546 -0.1002  0.3475
  465WAT     H2 2581   6.398   6.703   0.254  1.9009 -1.7917  0.7052
  465WAT    EPW 2582   6.407   6.702   0.177  0.3135 -0.0540  0.4246
  466WAT      O 2583   6.136   7.032   3.007  0.4941 -0.0646 -0.2650
  466WAT     H1 2584   6.128   6.955   2.966  0.0523 -0.0621 -0.1807
  466WAT     H2 2585   6.063   7.075   2.987  0.2553 -0.0745  0.5292
  466WAT    EPW 2586   6.124   7.027   2.998  0.3936 -0.0657 -0.1352
  467WAT      O 2587   4.425   6.659   0.107  0.7028 -0.1805  0.8522
  467WAT     H1 2588   4.467   6.584   0.095 -1.2825 -1.2832  0.2093
  467WAT     H2 2589   4.377   6.644   0.179  0.1753  0.3984  0.6304
  467WAT    EPW 2590   4.424   6.646   0.116  0.3316 -0.2578  0.7245
  468WAT      O 2591   4.356   6.386   2.156  0.8255  0.0103 -0.3136
  468WAT     H1 2592   4.335   6.367   2.238 -0.1479 -0.5093 -0.6737
  468WAT     H2 2593   4.364   6.308   2.118  2.6016  0.1953 -0.4141
  468WAT    EPW 2594   4.354   6.372   2.163  0.9441 -0.0392 -0.3817
  469WAT      O 2595   6.916   0.136   7.676 -0.4667  0.1254 -0.3568
  469WAT     H1 2596   6.834   0.104   7.682 -0.5282  0.1444 -1.0728
  469WAT     H2 2597   6.957   0.077   7.627  0.8376 -1.6013  2.5495
  469WAT    EPW 2598   6.910   0.122   7.670 -0.2831 -0.1269 -0.0332
  470WAT      O 2599   6.291   6.328   0.705 -0.1464 -0.0728 -0.2342
  470WAT     H1 2600   6.365   6.355   0.742  0.2570  0.4122 -1.3482
  470WAT     H2 2601   6.285   6.244   0.729  0.6075 -0.0320  0.1091
  470WAT    EPW 2602   6.301   6.319   0.714  0.0246  0.0049 -0.3481
  471WAT      O 2603   4.992   0.545   1.729  0.4813  0.2172 -0.1003
  471WAT     H1 2604   4.911   0.513   1.733  0.3952  0.5621  1.4198
  471WAT     H2 2605   5.020   0.520   1.650 -0.5163 -1.3308 -0.0075
  471WAT    EPW 2606   4.984   0.536   1.718  0.3212  0.0395  0.1380
  472WAT      O 2607   5.889   0.908   1.884  0.0357  0.0766  0.3337
  472WAT     H1 2608   5.935   0.908   1.810 -1.2658 -0.7389 -0.5189
  472WAT     H2 2609   5.871   0.824   1.898  0.3117  0.2064  1.6374
  472WAT    EPW 2610   5.893   0.895   1.875 -0.1158 -0.0247  0.4003
  473WAT      O 2611   6.342   6.777   0.928 -0.2644  0.0203  0.0208
  473WAT     H1 2612   6.400   6.825   0.882  0.2246  0.3223  0.9240
  473WAT     H2 2613   6.373   6.696   0.921  0.3483  0.1976  0.6005
  473WAT    EPW 2614   6.356   6.772   0.920 -0.1016  0.0911  0.2398
  474WAT      O 2615   5.014   6.212   0.751 -0.3617 -0.4856 -0.1185
  474WAT     H1 2616   5.012   6.299   0.761  2.1439 -0.5436  1.8804
  474WAT     H2 2617   4.930   6.190   0.748 -1.1406  1.8190  1.7550
  474WAT    EPW 2618   5.001   6.222   0.752 -0.1066 -0.1537  0.4535
  475WAT      O 2619   5.645   7.297   2.497  0.6770 -0.5233 -0.6546
  475WAT     H1 2620   5.713   7.247   2.474  1.1250  0.0615 -0.6274
  475WAT     H2 2621   5.673   7.338   2.569 -0.0969 -1.0643 -0.0311
  475WAT    EPW 2622   5.660   7.296   2.504  0.6289 -0.5168 -0.5585
  476WAT      O 2623   6.213   7.599   2.352  0.1394  0.6997 -0.0923
  476WAT     H1 2624   6.169   7.524   2.353  1.3493 -0.0324  1.1782
  476WAT     H2 2625   6.181   7.640   2.282 -2.1744 -0.0075  0.4382
  476WAT    EPW 2626   6.202   7.594   2.342 -0.0237  0.4871  0.1738
  477WAT      O 2627   5.703   6.228   6.936 -0.3245  0.3117  0.0792
  477WAT     H1 2628   5.762   6.286   6.963 -0.3999  0.0033  0.9564
  477WAT     H2 2629   5.704   6.167   6.998 -0.7107 -0.3020 -0.4973
  477WAT    EPW 2630   5.712   6.227   6.949 -0.3927  0.1755  0.1236
  478WAT      O 2631   6.036   5.718   0.665 -0.5675 -0.4652 -0.3847
  478WAT     H1 2632   6.007   5.775   0.725  0.9320  0.2053 -0.2639
  478WAT     H2 2633   6.121   5.736   0.658  0.0103 -2.8159 -0.2370
  478WAT    EPW 2634   6.044   5.729   0.673 -0.2607 -0.7134 -0.3450
  479WAT      O 2635   5.222   7.188   0.687  0.0520  0.1994  0.1774
  479WAT     H1 2636   5.144   7.189   0.648  0.2059 -0.6892 -0.1783
  479WAT     H2 2637   5.229   7.106   0.716  0.9080  0.2435  0.1018
  479WAT    EPW 2638   5.211   7.176   0.686  0.2012  0.0746  0.1137
  480WAT      O 2639   7.140   6.599   1.139 -0.4090  0.6822 -0.3758
  480WAT     H1 2640   7.074   6.623   1.089 -0.5786 -1.2087 -1.1576
  480WAT     H2 2641   7.210   6.608   1.087 -0.4611 -0.3178 -0.6370
  480WAT    EPW 2642   7.141   6.604   1.124 -0.4417  0.2552 -0.5299
  481WAT      O 2643   5.809   7.219   2.054  0.1157 -0.2175 -0.0155
  481WAT     H1 2644   5.794   7.226   1.968 -0.2205  1.2477  0.1361
  481WAT     H2 2645   5.853   7.291   2.073 -1.0101  0.1765  1.2705
  481WAT    EPW 2646   5.813   7.231   2.044 -0.1002  0.0572  0.1969
  482WAT      O 2647   6.721   6.511   2.932 -0.1809 -0.0401  0.1694
  482WAT     H1 2648   6.661   6.449   2.919 -0.1660  0.1848 -1.0404
  482WAT     H2 2649   6.780   6.496   2.870 -0.4289  1.4834 -0.4601
  482WAT    EPW 2650   6.721   6.499   2.921 -0.2153  0.2182 -0.1023
  483WAT      O 2651   5.131   6.740   0.603  0.1563 -0.6069 -0.3617
  483WAT     H1 2652   5.053   6.775   0.623  0.1491 -0.1931 -1.0841
  483WAT     H2 2653   5.187   6.785   0.651 -0.2082 -2.2546  1.7508
  483WAT    EPW 2654   5.128   6.752   0.613  0.1014 -0.7892 -0.1564
  484WAT      O 2655   6.652   6.668   1.897 -0.6161  0.4930  0.1426
  484WAT     H1 2656   6.587   6.726   1.892 -0.7516  0.2630 -3.1334
  484WAT     H2 2657   6.716   6.704   1.850  0.2838 -0.8739  0.2376
  484WAT    EPW 2658   6.652   6.682   1.889 -0.5032  0.2571 -0.3273
  485WAT      O 2659   6.345   7.356   0.326 -0.1486 -0.0711 -0.2833
  485WAT     H1 2660   6.259   7.370   0.336 -0.0443  0.6600 -0.4086
  485WAT     H2 2661   6.356   7.353   0.240 -0.3327 -2.0458 -0.2989
  485WAT    EPW 2662   6.334   7.357   0.315 -0.1604 -0.2548 -0.3041
  486WAT      O 2663   5.335   7.632   7.818  0.3106 -0.0465  0.2114
  486WAT     H1 2664   5.282   7.632   7.887 -0.7000 -0.4157 -0.5358
  486WAT     H2 2665   5.293   7.682   7.760  0.6326 -0.5949 -0.5092
  486WAT    EPW 2666   5.321   7.640   7.819  0.2089 -0.1820 -0.0054
  487WAT      O 2667   6.499   7.211   0.558  0.4531  0.5583 -0.1289
  487WAT     H1 2668   6.572   7.257   0.544 -0.1480  0.6432 -3.8451
  487WAT     H2 2669   6.437   7.260   0.523 -0.5164 -2.0439 -2.3549
  487WAT    EPW 2670   6.501   7.225   0.551  0.2211  0.1865 -1.0067
  488WAT      O 2671   5.579   7.695   2.896 -0.1119 -0.0578 -0.0254
  488WAT     H1 2672   5.635   7.754   2.864 -0.1561  0.0046  0.0117
  488WAT     H2 2673   5.594   7.697   2.982 -1.0511  0.8829  0.1405
  488WAT    EPW 2674   5.589   7.704   2.904 -0.2572  0.0904  0.0045
  489WAT      O 2675   6.689   6.741   2.448  0.3822  0.0544  0.1460
  489WAT     H1 2676   6.659   6.745   2.530 -0.9872  1.2898 -0.3855
  489WAT     H2 2677   6.647   6.672   2.414  0.5256 -0.1139  0.3035
  489WAT    EPW 2678   6.678   6.731   2.455  0.2011  0.2120  0.0908
  490WAT      O 2679   4.237   7.300   2.474 -0.6522 -0.3847 -0.2474
  490WAT     H1 2680   4.186   7.248   2.522 -1.3793 -0.2409 -0.8435
  490WAT     H2 2681   4.193   7.376   2.474 -0.4524 -0.2691 -0.7924
  490WAT    EPW 2682   4.223   7.304   2.481 -0.7301 -0.3463 -0.4160
  491WAT      O 2683   6.444   5.132   1.086  0.2076  0.3613  0.2945
  491WAT     H1 2684   6.370   5.137   1.040  0.9811 -1.5616 -1.2875
  491WAT     H2 2685   6.440   5.053   1.123  0.9802  0.6857  1.1154
  491WAT    EPW 2686   6.433   5.121   1.085  0.4360  0.1252  0.1820
  492WAT      O 2687   6.505   6.494   6.592 -1.1101 -0.3716  0.1169
  492WAT     H1 2688   6.432   6.524   6.555 -0.4396  2.5075  0.8823
  492WAT     H2 2689   6.500   6.523   6.674  0.3099 -1.2031  0.5362
  492WAT    EPW 2690   6.494   6.503   6.599 -0.8013 -0.0691  0.2919
  493WAT      O 2691   4.572   5.260   7.231  0.1612 -0.1789 -0.1323
  493WAT     H1 2692   4.555   5.274   7.146 -0.8303  1.1771  0.2644
  493WAT     H2 2693   4.555   5.175   7.241  0.2232 -0.3474 -1.2706
  493WAT    EPW 2694   4.567   5.249   7.220  0.0239 -0.0035 -0.2418
  494WAT      O 2695   5.438   6.480   4.592 -0.1572 -0.7011 -0.0863
  494WAT     H1 2696   5.491   6.515   4.533  0.9130 -0.4757  0.9897
  494WAT     H2 2697   5.470   6.401   4.604  0.1724 -0.4262  0.8594
  494WAT    EPW 2698   5.450   6.474   4.585  0.0496 -0.6272  0.2124
  495WAT      O 2699   6.449   4.636   5.516 -0.1792  0.4018  0.3246
  495WAT     H1 2700   6.518   4.681   5.485  0.7880  0.4914  2.4572
  495WAT     H2 2701   6.455   4.560   5.475 -0.2423  1.2270 -1.3027
  495WAT    EPW 2702   6.460   4.632   5.505 -0.0456  0.5369  0.3992
  496WAT      O 2703   5.818   5.026   7.082  0.3959 -0.0375  0.0605
  496WAT     H1 2704   5.810   5.083   7.147 -0.6057 -0.7509  0.5950
  496WAT     H2 2705   5.745   4.978   7.087 -0.1175  0.3794 -2.0795
  496WAT    EPW 2706   5.806   5.027   7.092  0.1721 -0.0813 -0.1767
  497WAT      O 2707   5.783   7.546   6.611  0.1422  0.0260 -0.4603
  497WAT     H1 2708   5.806   7.627   6.635  0.7200 -0.8951  2.5650
  497WAT     H2 2709   5.848   7.497   6.642 -1.6800 -1.8782  0.5938
  497WAT    EPW 2710   5.796   7.551   6.619 -0.0416 -0.3913  0.1423
  498WAT      O 2711   6.496   7.178   7.835  0.2134  0.1550 -0.1273
  498WAT     H1 2712   6.582   7.175   7.850 -0.1386  0.0710  2.2428
  498WAT     H2 2713   6.470   7.096   7.849 -0.1839 -0.0378 -1.7400
  498WAT    EPW 2714   6.505   7.166   7.839  0.1027  0.1141 -0.0154
  499WAT      O 2715   6.312   5.100   7.593  0.1932 -0.2419  0.1137
  499WAT     H1 2716   6.373   5.132   7.539  1.0412 -1.9384  0.0038
  499WAT     H2 2717   6.310   5.015   7.573 -3.4039 -0.0607 -1.0441
  499WAT    EPW 2718   6.321   5.092   7.582 -0.2129 -0.4657 -0.0735
  500WAT      O 2719   6.149   7.072   7.065  0.0868  0.4523 -0.0672
  500WAT     H1 2720   6.066   7.097   7.060  0.3127  1.0234 -2.1147
  500WAT     H2 2721   6.190   7.127   7.011  0.9669 -2.7557 -3.0882
  500WAT    EPW 2722   6.143   7.084   7.056  0.2502  0.0628 -0.8159
  501WAT      O 2723   5.358   7.247   7.164  0.4340 -0.0195 -0.4645
  501WAT     H1 2724   5.289   7.293   7.138  0.8235  0.4756 -0.6376
  501WAT     H2 2725   5.344   7.168   7.132  0.4839  0.3663 -1.4584
  501WAT    EPW 2726   5.346   7.242   7.156  0.4989  0.1106 -0.6369
  502WAT      O 2727   5.305   5.711   0.134  0.6552  0.6528 -0.6737
  502WAT     H1 2728   5.339   5.737   0.210  0.4060  0.2146 -0.4066
  502WAT     H2 2729   5.333   5.771   0.078 -0.4790  1.9028  0.0402
  502WAT    EPW 2730   5.315   5.723   0.137  0.4508  0.7727 -0.5288
  503WAT      O 2731   6.346   5.553   6.476  0.0030  0.0880  0.1798
  503WAT     H1 2732   6.409   5.565   6.534  0.4851  1.0740 -0.5355
  503WAT     H2 2733   6.320   5.633   6.456 -1.1481 -0.2840  0.0834
  503WAT    EPW 2734   6.351   5.566   6.482 -0.0958  0.1787  0.0599
  504WAT      O 2735   6.370   5.674   0.827 -0.6704  0.7475 -0.4888
  504WAT     H1 2736   6.392   5.681   0.912  2.4597  0.1500 -1.1290
  504WAT     H2 2737   6.379   5.755   0.797 -0.4289  0.7133 -0.5121
  504WAT    EPW 2738   6.374   5.687   0.835 -0.1724  0.6542 -0.5868
  505WAT      O 2739   7.081   5.868   7.235 -0.3408  0.4362  0.5629
  505WAT     H1 2740   7.082   5.888   7.150  0.3350  0.0368  0.4735
  505WAT     H2 2741   7.038   5.935   7.271  0.4253  1.2238  0.0565
  505WAT    EPW 2742   7.075   5.881   7.228 -0.1278  0.4936  0.4749
  506WAT      O 2743   7.005   6.273   5.539  0.3936  0.2241  0.0632
  506WAT     H1 2744   6.961   6.276   5.464 -1.2520  2.7137  1.0143
  506WAT     H2 2745   7.084   6.304   5.518 -0.5557  2.4988 -0.4109
  506WAT    EPW 2746   7.010   6.278   5.525  0.0103  0.9279  0.1336
  507WAT      O 2747   5.573   6.144   6.482 -0.1824 -0.0066  0.4756
  507WAT     H1 2748   5.549   6.071   6.523  0.0892 -1.0223 -1.0910
  507WAT     H2 2749   5.585   6.118   6.400 -0.3427  1.8720 -0.1829
  507WAT    EPW 2750   5.571   6.129   6.476 -0.1659  0.1209  0.1469
  508WAT      O 2751   6.425   4.070   6.770  0.7200  0.0813 -0.1206
  508WAT     H1 2752   6.414   4.127   6.705 -1.0315 -1.1997 -1.0225
  508WAT     H2 2753   6.386   4.110   6.838  2.6346  1.4611  0.2558
  508WAT    EPW 2754   6.418   4.084   6.771  0.7441  0.0959 -0.1983
  509WAT      O 2755   6.863   6.604   7.181 -0.0433  0.1779  0.0453
  509WAT     H1 2756   6.925   6.633   7.236  0.3895 -0.5474 -0.0483
  509WAT     H2 2757   6.810   6.673   7.172  0.9534  0.9393 -0.1564
  509WAT    EPW 2758   6.864   6.618   7.188  0.1679  0.1833  0.0017
  510WAT      O 2759   5.389   4.679   5.891 -0.2578  0.2016 -0.3892
  510WAT     H1 2760   5.363   4.608   5.935  0.7887  0.8046  1.2843
  510WAT     H2 2761   5.470   4.692   5.919  0.9107  0.0649 -3.2803
  510WAT    EPW 2762   5.397   4.670   5.901  0.0694  0.2705 -0.5691
  511WAT      O 2763   6.492   5.669   6.706 -0.5336 -0.0788  0.1191
  511WAT     H1 2764   6.458   5.642   6.782 -1.3094 -0.9083 -0.5042
  511WAT     H2 2765   6.574   5.691   6.727 -1.0537  0.7317  1.4079
  511WAT    EPW 2766   6.499   5.668   6.720 -0.7250 -0.0816  0.2174
  512WAT      O 2767   4.854   5.555   6.644 -0.2027  0.5049  0.0770
  512WAT     H1 2768   4.881   5.515   6.572 -0.3513  0.0816  0.2563
  512WAT     H2 2769   4.926   5.559   6.694  0.0586  1.3697 -0.3455
  512WAT    EPW 2770   4.869   5.550   6.641 -0.1860  0.5701  0.0411
  513WAT      O 2771   6.112   5.606   5.777  0.3576 -0.0329  0.1611
  513WAT     H1 2772   6.197   5.603   5.758  0.0829 -0.5669 -1.1133
  513WAT     H2 2773   6.081   5.665   5.720  0.1675  1.7401  1.9976
  513WAT    EPW 2774   6.120   5.614   5.766  0.2889  0.1501  0.2441
  514WAT      O 2775   6.590   5.437   6.277  0.1368  0.4466 -0.6893
  514WAT     H1 2776   6.628   5.381   6.221 -0.2563  0.2473 -0.7639
  514WAT     H2 2777   6.512   5.451   6.241 -0.8921 -1.1617  0.7271
  514WAT    EPW 2778   6.584   5.431   6.264 -0.0732  0.1796 -0.4911
  515WAT      O 2779   5.939   6.986   6.592  0.4787 -0.2584 -0.3392
  515WAT     H1 2780   5.860   7.023   6.596  1.2145  1.2994  0.8416
  515WAT     H2 2781   5.949   6.952   6.672  0.7438 -1.0440 -0.6993
  515WAT    EPW 2782   5.929   6.986   6.605  0.6265 -0.1443 -0.2180
  516WAT      O 2783   6.730   6.858   5.745  1.2890 -0.2541  0.1645
  516WAT     H1 2784   6.752   6.823   5.668  0.8139  0.5099 -0.3273
  516WAT     H2 2785   6.694   6.791   5.788  0.8914 -0.5141 -0.5534
  516WAT    EPW 2786   6.728   6.843   5.740  1.1601 -0.1797 -0.0142
  517WAT      O 2787   6.540   7.012   6.405  0.5881  0.4152  0.5985
  517WAT     H1 2788   6.614   6.991   6.363 -0.0035  1.6775 -1.1950
  517WAT     H2 2789   6.566   7.072   6.463  1.1998 -0.3446  1.1390
  517WAT    EPW 2790   6.555   7.018   6.408  0.5911  0.4894  0.4134
  518WAT      O 2791   5.461   6.169   7.296 -1.1169 -0.8748 -0.0100
  518WAT     H1 2792   5.401   6.194   7.354  1.2467  3.1142  1.1233
  518WAT     H2 2793   5.419   6.173   7.220 -2.8828 -0.6735  0.9262
  518WAT    EPW 2794   5.446   6.173   7.294 -1.0286 -0.2558  0.2957
  519WAT      O 2795   4.216   4.386   0.245 -0.5962 -0.8240 -0.4687
  519WAT     H1 2796   4.275   4.343   0.293 -1.4631 -0.8046  0.6539
  519WAT     H2 2797   4.197   4.330   0.181 -1.0450 -1.7716  0.4678
  519WAT    EPW 2798   4.222   4.371   0.243 -0.7905 -0.9611 -0.1645
  520WAT      O 2799   5.404   6.747   7.257  0.3815  0.2844  0.0884
  520WAT     H1 2800   5.410   6.680   7.201 -2.8821  0.9838 -1.3003
  520WAT     H2 2801   5.345   6.720   7.314  2.2935  0.3513  2.2427
  520WAT    EPW 2802   5.396   6.733   7.257  0.1818  0.3976  0.2015
  521WAT      O 2803   6.642   5.294   0.330  0.1613 -0.3038  0.4454
  521WAT     H1 2804   6.619   5.378   0.325  1.2573 -0.0178  0.0045
  521WAT     H2 2805   6.729   5.295   0.318 -0.0441 -1.6810 -1.5535
  521WAT    EPW 2806   6.652   5.307   0.328  0.2929 -0.4650  0.0850
  522WAT      O 2807   6.801   6.524   7.553  0.2747  0.0648  0.5647
  522WAT     H1 2808   6.754   6.483   7.492  0.7678 -1.5058  1.1818
  522WAT     H2 2809   6.805   6.606   7.525 -1.3638 -0.1402 -0.3833
  522WAT    EPW 2810   6.795   6.530   7.540  0.1055 -0.1975  0.5158
  523WAT      O 2811   4.974   4.508   0.569 -0.0239 -0.1567 -0.3171
  523WAT     H1 2812   5.000   4.575   0.520  1.0186 -0.2192  0.1148
  523WAT     H2 2813   4.955   4.446   0.511  0.9236 -0.1371 -0.6689
  523WAT    EPW 2814   4.975   4.509   0.553  0.2700 -0.1631 -0.3053
  524WAT      O 2815   6.891   7.627   6.631 -0.6540 -0.4115 -0.3070
  524WAT     H1 2816   6.938   7.624   6.558  0.0903 -1.5527  0.1944
  524WAT     H2 2817   6.944   7.594   6.692 -0.8566  1.5160  0.9995
  524WAT    EPW 2818   6.906   7.621   6.629 -0.5740 -0.2954 -0.0399
  525WAT      O 2819   6.603   6.633   5.861  0.4954 -0.0077 -0.1042
  525WAT     H1 2820   6.558   6.657   5.931 -0.2177 -1.0757 -0.1786
  525WAT     H2 2821   6.559   6.564   5.830  0.8322  0.3776 -1.5499
  525WAT    EPW 2822   6.590   6.626   5.867  0.4398 -0.1085 -0.3288
  526WAT      O 2823   6.171   4.409   0.472  0.1025  0.3296  0.5211
  526WAT     H1 2824   6.244   4.377   0.507  1.2909  2.1303 -0.1739
  526WAT     H2 2825   6.200   4.457   0.405 -1.8352 -0.0356 -0.6483
  526WAT    EPW 2826   6.186   4.412   0.467 -0.0082  0.5417  0.2457
  527WAT      O 2827   6.684   5.416   7.055 -0.0824 -0.5170  0.6999
  527WAT     H1 2828   6.697   5.490   7.100 -0.4200  0.0295 -0.0612
  527WAT     H2 2829   6.698   5.353   7.113 -2.1724  0.1451  2.0573
  527WAT    EPW 2830   6.688   5.418   7.070 -0.4410 -0.3385  0.7880
  528WAT      O 2831   6.894   5.442   6.720  0.4518  0.0035  0.2394
  528WAT     H1 2832   6.900   5.385   6.785 -0.6917  0.1393  0.4892
  528WAT     H2 2833   6.882   5.392   6.649 -2.2178 -0.0996  0.6625
  528WAT    EPW 2834   6.893   5.426   6.719 -0.1114  0.0083  0.3388
  529WAT      O 2835   6.338   6.670   6.292 -0.4699  0.5742  0.0997
  529WAT     H1 2836   6.346   6.733   6.352  0.3241 -0.9017  1.6232
  529WAT     H2 2837   6.342   6.713   6.216  3.8086  2.1292  0.9226
  529WAT    EPW 2838   6.339   6.686   6.289  0.2794  0.5859  0.4463
  530WAT      O 2839   6.785   6.410   1.041  0.4002  0.1692 -0.1713
  530WAT     H1 2840   6.809   6.370   1.114  0.1630  0.5976  0.1436
  530WAT     H2 2841   6.818   6.490   1.048 -0.9711  0.7378  0.2225
  530WAT    EPW 2842   6.793   6.416   1.053  0.1626  0.3165 -0.0666
  531WAT      O 2843   5.240   5.402   0.064  0.0708 -0.0240 -0.5038
  531WAT     H1 2844   5.255   5.426   0.147 -0.9951  0.5388 -0.4550
  531WAT     H2 2845   5.256   5.475   0.018 -1.0054  0.1730 -0.5954
  531WAT    EPW 2846   5.245   5.416   0.070 -0.2456  0.0883 -0.5101
  532WAT      O 2847   6.527   4.737   7.365  0.7726  0.1438  0.3849
  532WAT     H1 2848   6.459   4.709   7.413  1.2972  0.6658  1.4677
  532WAT     H2 2849   6.590   4.681   7.385  1.3931  1.1628  1.4036
  532WAT    EPW 2850   6.526   4.725   7.375  0.9418  0.3715  0.6953
  533WAT      O 2851   6.467   7.255   6.059 -0.2487  0.1990 -0.0916
  533WAT     H1 2852   6.491   7.294   5.984 -2.5669  0.7029 -0.6676
  533WAT     H2 2853   6.405   7.307   6.090 -0.8109 -1.1139  1.0922
  533WAT    EPW 2854   6.461   7.268   6.052 -0.6742  0.0795 -0.0018
  534WAT      O 2855   4.727   4.896   7.347 -0.7738 -0.0966  0.3687
  534WAT     H1 2856   4.737   4.823   7.393 -2.7763 -0.5935  0.0907
  534WAT     H2 2857   4.791   4.948   7.377  0.8777 -2.0145  0.3579
  534WAT    EPW 2858   4.738   4.893   7.358 -0.8256 -0.4533  0.3261
  535WAT      O 2859   4.463   4.204   5.128  0.0107  0.4418  0.7920
  535WAT     H1 2860   4.435   4.270   5.178  0.9355 -0.7384  3.0199
  535WAT     H2 2861   4.548   4.219   5.118 -0.1025  0.4910 -0.2062
  535WAT    EPW 2862   4.471   4.216   5.134  0.1306  0.2748  0.9737
  536WAT      O 2863   5.928   7.166   0.270 -0.1763  0.7390 -0.0680
  536WAT     H1 2864   5.897   7.105   0.324  1.2050  0.2428  0.2030
  536WAT     H2 2865   5.995   7.126   0.230 -0.0038  1.6950 -0.7791
  536WAT    EPW 2866   5.933   7.151   0.272  0.0533  0.8069 -0.1330
  537WAT      O 2867   6.456   3.961   6.392 -0.2754 -0.3522 -0.7300
  537WAT     H1 2868   6.535   3.989   6.369  1.5132 -2.6938  1.8982
  537WAT     H2 2869   6.427   4.023   6.446  1.2219 -0.8410  0.7244
  537WAT    EPW 2870   6.463   3.974   6.397  0.2100 -0.7703 -0.1269
  538WAT      O 2871   5.103   6.644   7.067 -0.1981 -0.1501 -0.4697
  538WAT     H1 2872   5.178   6.599   7.064  0.1630  0.4782 -1.1393
  538WAT     H2 2873   5.051   6.594   7.116 -0.3071 -2.0734 -2.3869
  538WAT    EPW 2874   5.106   6.630   7.074 -0.1609 -0.3414 -0.8519
  539WAT      O 2875   5.150   3.319   7.134 -0.4680 -0.1765  0.0329
  539WAT     H1 2876   5.156   3.405   7.149 -2.7477  0.1272 -0.4315
  539WAT     H2 2877   5.205   3.285   7.192  0.9587  1.6053 -0.1787
  539WAT    EPW 2878   5.159   3.327   7.145 -0.5940  0.1316 -0.0669
  540WAT      O 2879   6.477   6.763   6.066 -0.5653 -0.1092 -0.7455
  540WAT     H1 2880   6.532   6.793   6.127  1.8505 -0.9945 -2.3116
  540WAT     H2 2881   6.424   6.830   6.051  1.8632  1.8906 -1.0569
  540WAT    EPW 2882   6.477   6.777   6.073  0.1503  0.0554 -1.0229
  541WAT      O 2883   6.355   6.147   6.358  0.7511 -0.3084  0.4524
  541WAT     H1 2884   6.275   6.182   6.361  0.0477 -1.7245 -0.6581
  541WAT     H2 2885   6.403   6.209   6.319  0.2198  0.5813  1.1896
  541WAT    EPW 2886   6.351   6.161   6.352  0.5687 -0.3862  0.3973
  542WAT      O 2887   7.120   5.163   7.156 -0.0912  0.4923 -0.7720
  542WAT     H1 2888   7.187   5.140   7.105  0.9254 -0.8158  1.0255
  542WAT     H2 2889   7.154   5.224   7.209 -0.4733  0.2609 -0.2471
  542WAT    EPW 2890   7.135   5.169   7.156  0.0025  0.2649 -0.4289
  543WAT      O 2891   5.781   5.196   6.751  0.1804 -0.1883 -0.0758
  543WAT     H1 2892   5.810   5.199   6.833  0.3977 -0.5453 -0.1382
  543WAT     H2 2893   5.835   5.249   6.708 -0.0808  0.1872  0.0532
  543WAT    EPW 2894   5.793   5.204   6.757  0.1739 -0.1855 -0.0660
  544WAT      O 2895   6.056   4.381   1.230 -0.3416 -0.2955  0.1661
  544WAT     H1 2896   5.991   4.426   1.265 -0.3655 -0.8879  0.8892
  544WAT     H2 2897   6.016   4.315   1.189 -0.3214  0.4090 -1.0624
  544WAT    EPW 2898   6.041   4.378   1.229 -0.3421 -0.2789  0.0914
  545WAT      O 2899   5.523   5.340   6.699  0.0731 -0.4919 -0.2281
  545WAT     H1 2900   5.601   5.304   6.711 -0.6296 -1.9222  0.1951
  545WAT     H2 2901   5.517   5.347   6.612  1.1950  0.9182 -0.2411
  545WAT    EPW 2902   5.534   5.336   6.688  0.1351 -0.4949 -0.1675
  546WAT      O 2903   7.128   4.462   1.685  0.4588 -0.0552  0.4774
  546WAT     H1 2904   7.091   4.483   1.762  0.7394 -0.7223  0.7958
  546WAT     H2 2905   7.138   4.540   1.647 -0.3404  0.2300  0.8116
  546WAT    EPW 2906   7.124   4.477   1.691  0.3822 -0.1116  0.5738
  547WAT      O 2907   4.793   6.329   5.587  0.3651 -0.0946  0.2291
  547WAT     H1 2908   4.746   6.382   5.536 -0.1462 -0.8133 -0.0623
  547WAT     H2 2909   4.780   6.361   5.668  1.6030  1.3780 -0.0941
  547WAT    EPW 2910   4.784   6.342   5.592  0.4724  0.0168  0.1383
  548WAT      O 2911   6.687   5.622   7.476  0.1485 -0.2075 -0.1376
  548WAT     H1 2912   6.697   5.636   7.390 -1.0869  1.6211 -0.0395
  548WAT     H2 2913   6.618   5.570   7.481  0.3121 -0.4356 -0.2652
  548WAT    EPW 2914   6.679   5.617   7.464 -0.0098  0.0290 -0.1420
  549WAT      O 2915   7.188   3.574   7.625 -0.2933  0.4864  0.5742
  549WAT     H1 2916   7.151   3.630   7.569 -1.1767 -1.5178 -0.9866
  549WAT     H2 2917   7.273   3.582   7.608 -0.4800  0.6784 -0.3318
  549WAT    EPW 2918   7.195   3.583   7.614 -0.4514  0.2187  0.2098
  550WAT      O 2919   6.043   6.188   7.521 -0.0194  1.3916  0.2052
  550WAT     H1 2920   6.075   6.108   7.536 -0.4474  1.5494  2.2806
  550WAT     H2 2921   6.096   6.240   7.567  0.0524  2.2850 -0.8532
  550WAT    EPW 2922   6.056   6.184   7.530 -0.0720  1.5469  0.3554
  551WAT      O 2923   6.397   5.978   5.827  0.2917  0.1318  0.2448
  551WAT     H1 2924   6.338   6.042   5.830  1.2251  1.0088  0.6102
  551WAT     H2 2925   6.424   5.980   5.744 -0.2673 -0.3530  0.0459
  551WAT    EPW 2926   6.393   5.988   5.815  0.3470  0.1898  0.2694
  552WAT      O 2927   6.961   4.736   7.405  0.6918  0.2276  0.5405
  552WAT     H1 2928   6.985   4.748   7.488  3.0764  4.3157 -0.4444
  552WAT     H2 2929   7.030   4.696   7.369 -0.8273 -2.6856  0.5845
  552WAT    EPW 2930   6.975   4.732   7.412  0.8197  0.4012  0.4015
  553WAT      O 2931   5.273   6.670   6.116  0.2941  0.2652 -0.3196
  553WAT     H1 2932   5.320   6.605   6.150 -0.5960 -0.9644 -1.3478
  553WAT     H2 2933   5.328   6.708   6.060  0.3973 -0.4854 -0.7308
  553WAT    EPW 2934   5.288   6.666   6.113  0.1778 -0.0273 -0.5322
  554WAT      O 2935   5.959   5.661   5.995 -0.5705 -0.0998  0.1093
  554WAT     H1 2936   6.016   5.651   5.929 -0.6724  1.7402 -0.2938
  554WAT     H2 2937   6.000   5.625   6.063  0.2182 -0.5922 -0.5977
  554WAT    EPW 2938   5.973   5.654   5.995 -0.4690  0.0993 -0.0547
  555WAT      O 2939   6.057   5.013   6.716  0.1904  0.6179  0.5079
  555WAT     H1 2940   6.027   5.072   6.774  1.1033 -0.2528  1.9186
  555WAT     H2 2941   6.143   5.018   6.724  0.3251  0.2133 -0.5404
  555WAT    EPW 2942   6.065   5.023   6.726  0.3452  0.4295  0.5615
  556WAT      O 2943   6.704   5.272   6.043  0.0982 -0.0128  0.2485
  556WAT     H1 2944   6.684   5.213   6.104  1.2400  0.6879  1.3596
  556WAT     H2 2945   6.636   5.270   5.989 -0.5285 -1.3231  1.0425
  556WAT    EPW 2946   6.691   5.263   6.044  0.1743 -0.1028  0.5299
  557WAT      O 2947   6.449   5.649   7.008 -0.4862  0.0942  0.0087
  557WAT     H1 2948   6.530   5.637   7.038 -0.3570 -0.5756 -0.5859
  557WAT     H2 2949   6.407   5.577   7.034 -0.1321 -0.9672 -2.1649
  557WAT    EPW 2950   6.455   5.637   7.017 -0.4148 -0.1615 -0.4002
  558WAT      O 2951   5.762   6.110   6.692 -0.0024 -0.0564  0.1740
  558WAT     H1 2952   5.691   6.106   6.642  0.7187 -1.0515 -0.8284
  558WAT     H2 2953   5.734   6.147   6.766 -1.4817 -0.1590 -0.3132
  558WAT    EPW 2954   5.748   6.115   6.696 -0.1144 -0.2185 -0.0460
  559WAT      O 2955   4.655   5.909   7.418 -0.5628 -0.3065  0.0716
  559WAT     H1 2956   4.639   5.933   7.336  0.9075  1.3096  0.1908
  559WAT     H2 2957   4.740   5.925   7.428 -0.4436 -1.5587  1.5856
  559WAT    EPW 2958   4.666   5.915   7.408 -0.3280 -0.2527  0.3128
  560WAT      O 2959   6.770   4.492   6.369 -0.1769 -0.0723 -0.0749
  560WAT     H1 2960   6.822   4.492   6.439  0.0309 -1.6160 -0.1881
  560WAT     H2 2961   6.733   4.571   6.370 -0.5719 -0.2405  2.0810
  560WAT    EPW 2962   6.772   4.503   6.379 -0.2046 -0.3252  0.2268
  561WAT      O 2963   6.174   6.839   0.666  0.2574 -0.0798  0.2477
  561WAT     H1 2964   6.166   6.753   0.656 -2.2792 -0.0704  1.3019
  561WAT     H2 2965   6.210   6.848   0.745  1.3157 -0.1351 -0.2111
  561WAT    EPW 2966   6.178   6.828   0.676  0.0390 -0.0866  0.3356
  562WAT      O 2967   6.451   5.208   6.526 -1.0329 -0.4784  0.7395
  562WAT     H1 2968   6.450   5.247   6.604  1.7752  0.6259  0.3552
  562WAT     H2 2969   6.428   5.271   6.471  0.1880 -0.2701  0.4302
  562WAT    EPW 2970   6.448   5.223   6.530 -0.4378 -0.2845  0.6370
  563WAT      O 2971   6.120   3.770   7.864  0.8412 -0.0946  0.3357
  563WAT     H1 2972   6.122   3.846   7.906  0.3581 -0.1830  0.5329
  563WAT     H2 2973   6.157   3.788   7.787  0.8159  0.3166  0.4151
  563WAT    EPW 2974   6.126   3.784   7.859  0.7661 -0.0469  0.3765
  564WAT      O 2975   4.813   5.039   0.374 -0.5415  0.0202  0.1977
  564WAT     H1 2976   4.750   4.979   0.383 -1.4337  0.7590 -0.9305
  564WAT     H2 2977   4.773   5.114   0.393  0.2120  0.4317  0.2116
  564WAT    EPW 2978   4.798   5.041   0.378 -0.5620  0.1901  0.0331
  565WAT      O 2979   6.723   5.832   6.713  0.0532 -0.6944  0.0482
  565WAT     H1 2980   6.793   5.793   6.678  0.1129 -0.4478 -0.1098
  565WAT     H2 2981   6.757   5.885   6.773 -0.1153 -1.9493  1.3018
  565WAT    EPW 2982   6.739   5.834   6.717  0.0371 -0.8433  0.2100
  566WAT      O 2983   5.014   5.084   6.316 -0.3708  0.1661 -0.3116
  566WAT     H1 2984   5.072   5.144   6.290  1.8007 -1.2308  1.0072
  566WAT     H2 2985   4.962   5.074   6.246  0.3554  2.1627 -1.2163
  566WAT    EPW 2986   5.015   5.092   6.301  0.0573  0.2547 -0.2504
  567WAT      O 2987   6.907   5.007   7.275  0.0262  0.5700  0.0922
  567WAT     H1 2988   6.990   5.027   7.257  1.7170 -1.9186  3.7958
  567WAT     H2 2989   6.913   4.932   7.320 -4.2086  0.5098  1.0002
  567WAT    EPW 2990   6.920   4.999   7.279 -0.3496  0.1935  0.7734
  568WAT      O 2991   6.735   6.663   6.303  0.1525  0.0747 -0.7224
  568WAT     H1 2992   6.738   6.645   6.388 -0.6477  0.7540 -0.5381
  568WAT     H2 2993   6.684   6.599   6.271  0.3325 -0.0957 -0.6715
  568WAT    EPW 2994   6.728   6.651   6.311  0.0609  0.1498 -0.6877
  569WAT      O 2995   5.700   6.069   7.181 -0.0167 -0.0326 -0.3802
  569WAT     H1 2996   5.743   6.136   7.215 -1.4631  1.3320 -1.1107
  569WAT     H2 2997   5.617   6.085   7.201 -0.5133 -1.0404 -1.4800
  569WAT    EPW 2998   5.694   6.081   7.189 -0.3037  0.0201 -0.6505
  570WAT      O 2999   5.569   4.575   6.897  0.1907 -0.1096  0.1541
  570WAT     H1 3000   5.588   4.521   6.830  1.6392  0.4005  0.1118
  570WAT     H2 3001   5.574   4.654   6.861  0.1128  0.1328  0.6766
  570WAT    EPW 3002   5.573   4.579   6.882  0.3932  0.0016  0.2250
  571WAT      O 3003   5.744   5.779   6.633 -0.9309 -0.1918 -0.3698
  571WAT     H1 3004   5.728   5.735   6.707  1.6198  0.9761  1.0090
  571WAT     H2 3005   5.685   5.843   6.635 -0.3107  0.3705  1.1727
  571WAT    EPW 3006   5.733   5.782   6.644 -0.4625  0.0638  0.0617
  572WAT      O 3007   5.512   5.823   7.235  0.2299  0.2046  0.0092
  572WAT     H1 3008   5.552   5.813   7.312  1.6266  0.5998 -0.6304
  572WAT     H2 3009   5.431   5.846   7.256  0.6297  0.4278  1.3622
  572WAT    EPW 3010   5.506   5.825   7.249  0.4952  0.2959  0.1146
  573WAT      O 3011   4.387   6.276   6.689  0.4670 -0.5493 -0.1420
  573WAT     H1 3012   4.411   6.319   6.761 -2.7592  0.7276  0.3254
  573WAT     H2 3013   4.350   6.203   6.720  0.8791 -0.9771 -0.6427
  573WAT    EPW 3014   4.385   6.272   6.704  0.0513 -0.4239 -0.1469
  574WAT      O 3015   6.810   5.071   6.996 -0.4431  0.2009 -0.0686
  574WAT     H1 3016   6.838   5.085   7.077  1.1024 -1.0327 -0.3411
  574WAT     H2 3017   6.810   4.984   6.989  0.9772  0.2842 -1.8548
  574WAT    EPW 3018   6.814   5.060   7.007 -0.0050  0.0310 -0.3727
  575WAT      O 3019   6.114   6.712   7.303 -0.0746 -0.4549  0.6251
  575WAT     H1 3020   6.034   6.746   7.298  0.0268 -0.3098 -0.0551
  575WAT     H2 3021   6.111   6.664   7.376 -0.5104  0.2466  1.0866
  575WAT    EPW 3022   6.102   6.710   7.313 -0.1240 -0.3299  0.5928
  576WAT      O 3023   5.830   4.685   7.495 -0.0345  0.4436 -0.4184
  576WAT     H1 3024   5.763   4.630   7.488 -0.7420  1.1226  0.7731
  576WAT     H2 3025   5.793   4.764   7.491  0.8182  0.8443 -0.7983
  576WAT    EPW 3026   5.815   4.689   7.493 -0.0130  0.6031 -0.2985
  577WAT      O 3027   5.114   4.715   7.625  0.4549  0.1259  0.0286
  577WAT     H1 3028   5.186   4.693   7.580  1.1185 -1.9105  1.8573
  577WAT     H2 3029   5.147   4.748   7.699 -0.5563  1.3241 -0.0365
  577WAT    EPW 3030   5.130   4.716   7.630  0.4036  0.0021  0.2892
  578WAT      O 3031   5.250   5.126   0.595  0.1623  0.9161  0.1300
  578WAT     H1 3032   5.168   5.098   0.601 -0.1664  1.8372  0.1537
  578WAT     H2 3033   5.283   5.079   0.530  0.4095 -1.2798  1.7279
  578WAT    EPW 3034   5.243   5.115   0.586  0.1502  0.7278  0.3695
  579WAT      O 3035   6.154   6.880   6.435  0.1827 -0.0592 -0.1608
  579WAT     H1 3036   6.114   6.918   6.502  1.7022  0.5471  0.4586
  579WAT     H2 3037   6.168   6.945   6.379  0.7085 -0.1497 -0.1476
  579WAT    EPW 3038   6.150   6.895   6.437  0.4848  0.0170 -0.0674
  580WAT      O 3039   6.533   6.444   0.340 -0.6332 -0.4814  0.5352
  580WAT     H1 3040   6.496   6.516   0.371 -3.6827 -1.3101 -0.7727
  580WAT     H2 3041   6.593   6.473   0.284 -0.3591  0.9858  1.5513
  580WAT    EPW 3042   6.536   6.459   0.336 -1.0432 -0.3871  0.4921
  581WAT      O 3043   4.950   3.828   7.451 -0.3194 -0.6920  0.3655
  581WAT     H1 3044   4.982   3.881   7.512 -0.6624 -1.2272  1.0212
  581WAT     H2 3045   4.901   3.880   7.401 -0.4598 -0.3465  0.8603
  581WAT    EPW 3046   4.948   3.843   7.452 -0.3908 -0.7201  0.5354
  582WAT      O 3047   5.366   6.362   4.940 -0.2389  0.0726  0.7470
  582WAT     H1 3048   5.304   6.365   4.880 -0.4592 -0.9280  0.9179
  582WAT     H2 3049   5.323   6.369   5.016 -0.0750  0.0869  0.8415
  582WAT    EPW 3050   5.351   6.364   4.943 -0.2472 -0.0731  0.7862
  583WAT      O 3051   5.714   4.971   6.620 -0.0877  0.1279 -0.4503
  583WAT     H1 3052   5.729   5.049   6.655  0.0691 -0.4074  0.7174
  583WAT     H2 3053   5.761   4.971   6.546  0.4903  0.8598 -0.0888
  583WAT    EPW 3054   5.723   4.982   6.614  0.0209  0.1569 -0.2244
  584WAT      O 3055   6.766   7.229   1.280 -0.2032 -0.0438 -0.2793
  584WAT     H1 3056   6.766   7.142   1.269  0.4054 -0.2412  1.1376
  584WAT     H2 3057   6.699   7.255   1.230 -0.1734 -1.2807 -1.0128
  584WAT    EPW 3058   6.756   7.220   1.271 -0.1089 -0.2557 -0.1783
  585WAT      O 3059   5.984   4.494   0.103  0.3462  0.3198  1.0385
  585WAT     H1 3060   6.060   4.522   0.135  0.4061  1.2278  0.1537
  585WAT     H2 3061   5.970   4.546   0.034 -1.2840  0.4672  1.4267
  585WAT    EPW 3062   5.993   4.506   0.097  0.1142  0.4757  0.9651
  586WAT      O 3063   5.854   6.282   6.147  0.4090 -0.6788 -0.1670
  586WAT     H1 3064   5.802   6.230   6.195 -0.9924 -1.5075 -2.3928
  586WAT     H2 3065   5.810   6.291   6.072  0.5299  3.8029 -0.0017
  586WAT    EPW 3066   5.840   6.276   6.143  0.2198 -0.1392 -0.4714
  587WAT      O 3067   5.945   4.990   6.458 -0.5529  0.4262 -0.3319
  587WAT     H1 3068   6.008   4.962   6.404 -0.3747  1.0120 -0.4326
  587WAT     H2 3069   5.986   4.997   6.535 -0.5792  0.4746 -0.3221
  587WAT    EPW 3070   5.961   4.987   6.462 -0.5304  0.5199 -0.3453
  588WAT      O 3071   6.664   6.429   7.307 -0.3363  0.4274  0.5650
  588WAT     H1 3072   6.659   6.346   7.281  0.4159  0.2280  1.0077
  588WAT     H2 3073   6.726   6.463   7.256  1.0968  0.0521  1.9485
  588WAT    EPW 3074   6.673   6.421   7.296 -0.0135  0.3425  0.8348
  589WAT      O 3075   7.090   5.535   0.015 -0.3181 -0.3735 -0.8774
  589WAT     H1 3076   7.021   5.567   0.058 -0.1025  1.8275 -2.0695
  589WAT     H2 3077   7.154   5.535   0.074 -0.3988  1.2061 -0.7700
  589WAT    EPW 3078   7.089   5.540   0.030 -0.2981  0.1850 -1.0376
  590WAT      O 3079   7.199   3.892   0.086  0.1072  0.4630  0.4816
  590WAT     H1 3080   7.259   3.835   0.056  0.7809  0.3505  1.9629
  590WAT     H2 3081   7.158   3.918   0.013  0.6415 -0.9456 -0.3686
  590WAT    EPW 3082   7.202   3.887   0.071  0.2856  0.2383  0.5748
  591WAT      O 3083   7.030   4.500   6.842  0.8980 -0.4192  0.1105
  591WAT     H1 3084   7.067   4.578   6.848  1.3345 -0.6925  1.2190
  591WAT     H2 3085   6.999   4.485   6.923  1.2450 -1.5832  0.0449
  591WAT    EPW 3086   7.031   4.509   6.855  1.0138 -0.6315  0.2646
  592WAT      O 3087   7.126   6.221   0.039 -0.0237 -0.6885 -0.5254
  592WAT     H1 3088   7.127   6.240   0.124  0.7527  1.0949 -0.8964
  592WAT     H2 3089   7.056   6.169   0.031 -1.2312  0.5992  0.9106
  592WAT    EPW 3090   7.115   6.216   0.050 -0.0874 -0.2348 -0.3681
  593WAT      O 3091   6.109   5.133   5.927  0.3978  0.3486 -0.4234
  593WAT     H1 3092   6.181   5.086   5.909  1.5678  1.3046  1.4291
  593WAT     H2 3093   6.067   5.083   5.985  1.2130  1.1419  0.8985
  593WAT    EPW 3094   6.113   5.118   5.933  0.6910  0.6070  0.0455
  594WAT      O 3095   6.728   4.061   6.349  0.3580  0.2011 -0.6021
  594WAT     H1 3096   6.778   4.007   6.396  0.0274 -0.4446 -0.9817
  594WAT     H2 3097   6.784   4.096   6.292  0.4800 -0.1243 -0.6838
  594WAT    EPW 3098   6.744   4.058   6.347  0.3272  0.0577 -0.6702
  595WAT      O 3099   7.172   7.049   6.992 -0.2577  0.3083 -0.5909
  595WAT     H1 3100   7.097   7.006   7.000  0.3811 -0.5677  1.3092
  595WAT     H2 3101   7.204   7.021   6.916 -1.5396  0.1846 -1.0959
  595WAT    EPW 3102   7.166   7.038   6.982 -0.3527  0.1606 -0.3848
  596WAT      O 3103   6.606   5.035   6.181 -0.0719  0.0556 -0.1464
  596WAT     H1 3104   6.628   4.957   6.148 -0.7040  0.3470 -1.2982
  596WAT     H2 3105   6.571   5.014   6.259 -0.1224 -0.8015 -0.3873
  596WAT    EPW 3106   6.604   5.020   6.188 -0.1727 -0.0280 -0.3521
  597WAT      O 3107   6.394   5.957   6.794 -0.0025  0.5442  0.0290
  597WAT     H1 3108   6.461   5.910   6.765  0.6738  1.3614  0.2456
  597WAT     H2 3109   6.388   6.024   6.738 -2.0447 -0.6254 -1.3014
  597WAT    EPW 3110   6.403   5.960   6.781 -0.2043  0.4922 -0.1355
  598WAT      O 3111   4.999   6.687   6.177  0.5095  0.5516  0.3936
  598WAT     H1 3112   4.937   6.701   6.117 -0.3395  2.7417  1.6686
  598WAT     H2 3113   5.073   6.687   6.130 -0.2662 -0.0773 -0.8975
  598WAT    EPW 3114   5.001   6.689   6.161  0.2695  0.7822  0.3912
  599WAT      O 3115   4.768   5.853   6.990 -0.1540  0.3328 -0.8709
  599WAT     H1 3116   4.699   5.801   6.977  0.4378 -0.6642 -0.1843
  599WAT     H2 3117   4.748   5.895   7.063 -0.1233  0.1738 -0.7687
  599WAT    EPW 3118   4.755   5.851   6.999 -0.0620  0.1620 -0.7544
  600WAT      O 3119   6.536   6.105   6.023 -0.3674  0.2890 -0.2056
  600WAT     H1 3120   6.482   6.145   6.079 -0.7000  0.4728 -0.6592
  600WAT     H2 3121   6.483   6.077   5.960  0.3307  2.6726 -1.9643
  600WAT    EPW 3122   6.520   6.107   6.022 -0.3134  0.6682 -0.5324
  601WAT      O 3123   5.138   5.661   4.688  0.2160  0.3723 -0.1886
  601WAT     H1 3124   5.130   5.707   4.614 -0.4830  2.1747  0.9633
  601WAT     H2 3125   5.166   5.720   4.746 -1.6239 -0.4142  1.5791
  601WAT    EPW 3126   5.141   5.676   4.686 -0.1591  0.5224  0.2426
  602WAT      O 3127   7.238   6.451   5.545  0.0072  0.2209 -0.1698
  602WAT     H1 3128   7.221   6.516   5.601  1.2079  0.0457  0.4193
  602WAT     H2 3129   7.252   6.492   5.469 -0.1297  0.5689 -0.0078
  602WAT    EPW 3130   7.238   6.467   5.542  0.1643  0.2464 -0.0588
  603WAT      O 3131   6.513   6.351   6.263 -0.4075  0.1102  0.2313
  603WAT     H1 3132   6.432   6.369   6.236 -0.3022 -0.4895 -0.5155
  603WAT     H2 3133   6.562   6.364   6.192  0.1998  0.7968  0.7712
  603WAT    EPW 3134   6.508   6.355   6.248 -0.3022  0.1230  0.2007
  604WAT      O 3135   3.891   5.379   0.346  0.3688 -0.5460  0.6794
  604WAT     H1 3136   3.897   5.371   0.260  0.7504 -0.1673  0.6687
  604WAT     H2 3137   3.935   5.310   0.376  1.2008 -0.0627  0.5762
  604WAT    EPW 3138   3.898   5.368   0.338  0.5481 -0.4187  0.6626
  605WAT      O 3139   5.667   5.871   0.058  0.2988 -0.1258 -0.0027
  605WAT     H1 3140   5.617   5.919   0.111 -0.0445 -0.0527 -0.3929
  605WAT     H2 3141   5.620   5.798   0.045  0.7016 -0.4554  0.3743
  605WAT    EPW 3142   5.653   5.867   0.064  0.3076 -0.1637 -0.0046
  606WAT      O 3143   6.539   5.295   7.502  0.1194 -0.2406 -0.3396
  606WAT     H1 3144   6.514   5.277   7.583 -2.3936 -1.5078 -1.2633
  606WAT     H2 3145   6.497   5.370   7.484  1.3595  0.5090 -0.2341
  606WAT    EPW 3146   6.529   5.303   7.511 -0.0686 -0.3171 -0.4605
  607WAT      O 3147   6.013   5.239   6.902 -0.7166 -0.4438 -0.7230
  607WAT     H1 3148   6.086   5.281   6.880 -0.5792 -0.6160 -0.5969
  607WAT     H2 3149   5.991   5.275   6.979 -0.8461 -0.2874 -0.8339
  607WAT    EPW 3150   6.020   5.250   6.910 -0.7154 -0.4462 -0.7208
  608WAT      O 3151   7.260   5.539   0.223 -0.8339 -0.4828 -0.3713
  608WAT     H1 3152   7.335   5.496   0.234  0.1461  0.9725 -0.9974
  608WAT     H2 3153   7.211   5.514   0.290  0.6193 -0.6619  0.6618
  608WAT    EPW 3154   7.264   5.529   0.234 -0.4744 -0.2943 -0.3112
  609WAT      O 3155   6.740   6.801   5.459 -0.4894  0.1358 -0.8083
  609WAT     H1 3156   6.658   6.777   5.442 -0.5227  1.4949 -3.0124
  609WAT     H2 3157   6.787   6.731   5.439 -1.1233 -0.9489  1.3069
  609WAT    EPW 3158   6.735   6.787   5.453 -0.5879  0.1763 -0.8214
  610WAT      O 3159   6.875   5.970   5.556  0.4375 -0.4548  0.1639
  610WAT     H1 3160   6.914   6.045   5.534 -0.3248 -0.1911 -0.3534
  610WAT     H2 3161   6.804   5.969   5.505  0.2696 -1.3745  0.4000
  610WAT    EPW 3162   6.871   5.981   5.545  0.3001 -0.5517  0.1224
  611WAT      O 3163   6.432   3.823   7.423 -0.2792  0.1975  0.1687
  611WAT     H1 3164   6.509   3.864   7.428 -0.8580  1.6112 -1.3474
  611WAT     H2 3165   6.400   3.829   7.504  0.1472  1.8390  0.2576
  611WAT    EPW 3166   6.439   3.830   7.435 -0.3017  0.6488 -0.0421
  612WAT      O 3167   6.343   5.005   6.774 -0.4142  0.2001  0.8262
  612WAT     H1 3168   6.319   4.949   6.836  0.6919 -1.7011 -0.3640
  612WAT     H2 3169   6.423   4.979   6.752  0.3252  2.5190  0.4469
  612WAT    EPW 3170   6.351   4.993   6.780 -0.1416  0.2618  0.5943
  613WAT      O 3171   6.531   4.168   0.272  0.4565 -0.0489 -0.8894
  613WAT     H1 3172   6.560   4.180   0.354 -0.2313 -0.2803 -0.6055
  613WAT     H2 3173   6.500   4.086   0.274  0.2328  0.0268 -1.3223
  613WAT    EPW 3174   6.531   4.158   0.284  0.3218 -0.0719 -0.9114
  614WAT      O 3175   5.099   6.699   6.790 -0.6665  0.5706  0.1010
  614WAT     H1 3176   5.113   6.665   6.869 -1.8433  1.7604  0.8635
  614WAT     H2 3177   5.033   6.754   6.803  0.0779  1.9072 -1.3955
  614WAT    EPW 3178   5.091   6.702   6.803 -0.7304  0.9438 -0.0074
  615WAT      O 3179   5.942   5.285   7.644 -0.7713  0.2890  0.0387
  615WAT     H1 3180   5.942   5.368   7.672 -1.1049  0.4825 -0.5301
  615WAT     H2 3181   5.898   5.243   7.707 -1.5800  0.7333 -0.2134
  615WAT    EPW 3182   5.936   5.291   7.658 -0.9400  0.3832 -0.0826
  616WAT      O 3183   5.739   5.728   7.121 -0.8673  0.0971 -0.4555
  616WAT     H1 3184   5.688   5.669   7.160  0.3392 -0.3473  0.5457
  616WAT     H2 3185   5.708   5.804   7.150 -0.8187 -0.1790  0.3580
  616WAT    EPW 3186   5.727   5.731   7.131 -0.6819 -0.0093 -0.1874
  617WAT      O 3187   6.371   4.600   6.850 -0.0930  0.0066 -0.0466
  617WAT     H1 3188   6.377   4.537   6.910 -0.4382 -0.8283 -0.8658
  617WAT     H2 3189   6.341   4.668   6.895  0.7531 -0.2508  0.9633
  617WAT    EPW 3190   6.368   4.600   6.866 -0.0190 -0.1548 -0.0184
  618WAT      O 3191   5.198   6.107   7.745 -0.5488 -0.0285 -0.0391
  618WAT     H1 3192   5.237   6.176   7.781 -2.0855 -0.0544  1.8329
  618WAT     H2 3193   5.253   6.041   7.763  0.2670  0.4801 -0.6304
  618WAT    EPW 3194   5.212   6.108   7.753 -0.6553  0.0428  0.1501
  619WAT      O 3195   7.265   6.827   7.342 -0.0297 -0.0166  0.2955
  619WAT     H1 3196   7.334   6.790   7.380  0.2838  0.4024  0.1456
  619WAT     H2 3197   7.204   6.825   7.404 -0.9105 -3.1247 -0.4793
  619WAT    EPW 3198   7.267   6.821   7.357 -0.1135 -0.4139  0.1589
  620WAT      O 3199   5.901   3.999   7.120 -0.6621  0.6193  0.0061
  620WAT     H1 3200   5.958   3.934   7.125 -0.5330  0.6155 -1.1013
  620WAT     H2 3201   5.925   4.041   7.047 -2.5705  0.0981 -0.9928
  620WAT    EPW 3202   5.913   3.996   7.110 -0.9249  0.5418 -0.3050
  621WAT      O 3203   5.955   5.954   7.054 -0.2883 -0.2858  0.1055
  621WAT     H1 3204   5.894   5.963   7.115  0.9431  0.2753  1.3210
  621WAT     H2 3205   5.912   5.965   6.979 -1.4390  1.4528  0.9551
  621WAT    EPW 3206   5.940   5.957   7.052 -0.2764  0.0539  0.4106
  622WAT      O 3207   6.655   6.002   0.292  0.3122 -0.2300 -0.0492
  622WAT     H1 3208   6.600   6.060   0.257  0.1126 -0.7845 -0.6900
  622WAT     H2 3209   6.733   6.034   0.273  0.2346  0.7497  1.1843
  622WAT    EPW 3210   6.658   6.015   0.284  0.2713 -0.1672  0.0384
  623WAT      O 3211   7.018   0.493   0.287 -0.2011  0.2509 -0.3981
  623WAT     H1 3212   6.951   0.443   0.263 -0.1600  0.6764 -1.4474
  623WAT     H2 3213   7.044   0.531   0.213 -1.6467  3.5503  0.5834
  623WAT    EPW 3214   7.012   0.491   0.273 -0.4086  0.8011 -0.4081
  624WAT      O 3215   6.380   2.917   6.529  0.2366  0.2389  0.5851
  624WAT     H1 3216   6.428   2.986   6.553  1.2258 -0.2971  0.2229
  624WAT     H2 3217   6.351   2.938   6.450  0.6100  0.2025  0.4379
  624WAT    EPW 3218   6.383   2.930   6.521  0.4379  0.1543  0.5098
  625WAT      O 3219   6.483   6.458   5.515  0.6819 -0.2028 -0.2764
  625WAT     H1 3220   6.520   6.386   5.481  0.2228 -0.0967 -1.0293
  625WAT     H2 3221   6.398   6.445   5.502  0.5807  0.3801 -0.2257
  625WAT    EPW 3222   6.476   6.445   5.508  0.5991 -0.1010 -0.3801
  626WAT      O 3223   5.445   5.803   6.914 -0.0428 -0.4126 -0.0252
  626WAT     H1 3224   5.464   5.805   6.999  1.3539 -0.0642 -0.3330
  626WAT     H2 3225   5.410   5.724   6.903 -1.4846  0.0092  1.0947
  626WAT    EPW 3226   5.443   5.792   6.925 -0.0494 -0.2988  0.0948
  627WAT      O 3227   6.428   4.553   7.582 -0.9142 -0.2267 -0.4474
  627WAT     H1 3228   6.474   4.502   7.528  0.6713  0.2075  0.4040
  627WAT     H2 3229   6.361   4.503   7.606 -1.1884 -0.7315 -2.1173
  627WAT    EPW 3230   6.425   4.538   7.577 -0.7205 -0.2372 -0.5683
  628WAT      O 3231   6.741   5.127   6.733  0.0050 -0.3735 -0.1831
  628WAT     H1 3232   6.673   5.177   6.757 -0.9803 -1.0532 -1.3841
  628WAT     H2 3233   6.784   5.114   6.807 -1.1407  0.1499  0.6164
  628WAT    EPW 3234   6.737   5.133   6.747 -0.3098 -0.3966 -0.2424
  629WAT      O 3235   5.654   6.765   1.116  0.7371  0.0262  0.0528
  629WAT     H1 3236   5.628   6.718   1.184 -0.0180 -0.9662 -0.9010
  629WAT     H2 3237   5.708   6.712   1.073  1.0647  0.5770 -0.2413
  629WAT    EPW 3238   5.658   6.750   1.119  0.6740 -0.0391 -0.1315
  630WAT      O 3239   7.106   4.388   0.305  0.2083 -0.3025 -0.0304
  630WAT     H1 3240   7.086   4.349   0.380  1.8800 -2.0174 -0.4002
  630WAT     H2 3241   7.135   4.467   0.330 -3.4759  1.0076  0.7061
  630WAT    EPW 3242   7.107   4.394   0.320 -0.0890 -0.3623  0.0237
  631WAT      O 3243   7.197   4.629   7.338  0.0895  0.3990 -0.3201
  631WAT     H1 3244   7.278   4.630   7.370 -0.3437  0.1336  0.8384
  631WAT     H2 3245   7.168   4.549   7.356 -1.3149  1.2699  1.6856
  631WAT    EPW 3246   7.204   4.617   7.345 -0.1820  0.4885  0.1473
  632WAT      O 3247   6.041   4.983   7.679 -0.2486 -0.3804  0.5038
  632WAT     H1 3248   6.027   5.069   7.673  0.1464 -0.2049  1.8538
  632WAT     H2 3249   6.097   4.968   7.613 -0.4401  0.3566  0.1499
  632WAT    EPW 3250   6.047   4.994   7.668 -0.2185 -0.2456  0.6509
  633WAT      O 3251   6.972   4.315   5.900  0.2789  0.1901  0.0756
  633WAT     H1 3252   6.985   4.388   5.855  1.3030 -0.0617 -0.0516
  633WAT     H2 3253   7.034   4.261   5.872  0.6859 -0.1181  1.4802
  633WAT    EPW 3254   6.983   4.318   5.889  0.4903  0.1073  0.2643
  634WAT      O 3255   6.474   5.430   0.731 -0.2270 -0.9045 -0.2018
  634WAT     H1 3256   6.513   5.408   0.806 -0.4843  1.2506  0.6318
  634WAT     H2 3257   6.465   5.517   0.736 -0.9289 -0.7659 -2.4170
  634WAT    EPW 3258   6.478   5.439   0.743 -0.3687 -0.5657 -0.4059
  635WAT      O 3259   4.125   6.046   6.392 -0.0306 -0.0990  0.0782
  635WAT     H1 3260   4.140   6.019   6.474 -0.7243  0.8876  0.5539
  635WAT     H2 3261   4.194   6.097   6.374 -0.7669  1.1932  0.7685
  635WAT    EPW 3262   4.138   6.049   6.402 -0.2419  0.2376  0.2504
  636WAT      O 3263   7.022   6.860   7.802 -0.2894  0.2651 -0.3418
  636WAT     H1 3264   7.084   6.821   7.849  0.7176 -0.4818 -2.1715
  636WAT     H2 3265   7.065   6.889   7.731 -1.5738  2.0230 -0.4783
  636WAT    EPW 3266   7.037   6.859   7.798 -0.3304  0.4144 -0.6322
  637WAT      O 3267   6.374   4.485   5.787  0.3824 -0.5771  0.3038
  637WAT     H1 3268   6.404   4.541   5.727 -0.4499 -0.0872  0.3354
  637WAT     H2 3269   6.422   4.503   5.857  0.0597  0.1771  0.3446
  637WAT    EPW 3270   6.386   4.496   5.788  0.2118 -0.3933  0.3145
  638WAT      O 3271   6.465   6.576   7.429 -0.1146 -0.1209  0.0608
  638WAT     H1 3272   6.508   6.516   7.384  0.9217  0.6567 -0.0446
  638WAT     H2 3273   6.412   6.613   7.370  0.1862 -0.0745 -0.1846
  638WAT    EPW 3274   6.464   6.573   7.414  0.0830  0.0008  0.0089
  639WAT      O 3275   6.142   5.242   6.257  0.4089 -0.3701  0.5570
  639WAT     H1 3276   6.218   5.229   6.216 -0.3459  0.5122 -1.2161
  639WAT     H2 3277   6.085   5.196   6.210 -0.2021 -0.9538  1.8175
  639WAT    EPW 3278   6.145   5.234   6.244  0.2072 -0.3260  0.4813
  640WAT      O 3279   7.128   6.575   7.304  0.6473 -0.5283 -0.2351
  640WAT     H1 3280   7.193   6.631   7.290  0.1166 -0.3682 -2.4387
  640WAT     H2 3281   7.122   6.532   7.228 -0.8087 -1.6162  0.4533
  640WAT    EPW 3282   7.137   6.577   7.291  0.3538 -0.6653 -0.4589
  641WAT      O 3283   7.236   5.644   7.334 -0.3770  0.4117  0.2322
  641WAT     H1 3284   7.198   5.656   7.412 -1.8275  2.7109 -0.7373
  641WAT     H2 3285   7.235   5.723   7.298  3.0754  0.0822 -0.9659
  641WAT    EPW 3286   7.230   5.657   7.341 -0.0812  0.7026 -0.0880
  642WAT      O 3287   5.635   5.173   0.272 -0.1160 -0.1616  0.7747
  642WAT     H1 3288   5.587   5.139   0.337 -2.1969  1.0747 -0.0166
  642WAT     H2 3289   5.681   5.235   0.312 -0.2077 -0.4357  1.3274
  642WAT    EPW 3290   5.634   5.177   0.288 -0.4370 -0.0194  0.7394
  643WAT      O 3291   5.085   4.333   6.046  0.5197  0.1091 -0.0371
  643WAT     H1 3292   5.079   4.250   6.073  1.2956  0.4265  1.1445
  643WAT     H2 3293   5.009   4.368   6.072  0.7399  0.0958  0.6358
  643WAT    EPW 3294   5.073   4.326   6.054  0.6669  0.1540  0.2368
  644WAT      O 3295   5.472   7.050   0.164  0.5015 -0.6001 -0.1261
  644WAT     H1 3296   5.428   6.982   0.196 -0.0249  0.0894  0.6444
  644WAT     H2 3297   5.425   7.119   0.188  0.6705  0.0182 -1.4631
  644WAT    EPW 3298   5.459   7.050   0.172  0.4487 -0.4069 -0.2097
  645WAT      O 3299   6.524   6.610   0.792  0.2393 -0.7103  0.0845
  645WAT     H1 3300   6.531   6.572   0.714  1.2523  1.3935 -0.9290
  645WAT     H2 3301   6.607   6.629   0.812 -0.2412  1.1821  0.3979
  645WAT    EPW 3302   6.538   6.607   0.783  0.3180 -0.1200 -0.0189
  646WAT      O 3303   5.051   4.841   7.303  0.1736  0.1537  0.1400
  646WAT     H1 3304   5.080   4.866   7.381  2.4322 -1.7562  0.0593
  646WAT     H2 3305   4.990   4.782   7.322 -1.6206  1.9851  0.3541
  646WAT    EPW 3306   5.046   4.836   7.317  0.2422  0.1421  0.1597
  647WAT      O 3307   5.992   6.364   0.061 -0.4952  0.2213  0.8690
  647WAT     H1 3308   6.016   6.307   0.122  0.2523 -0.6626 -0.2113
  647WAT     H2 3309   6.060   6.418   0.055 -0.3285 -0.0334  0.4293
  647WAT    EPW 3310   6.005   6.364   0.069 -0.3601  0.0531  0.6445
  648WAT      O 3311   6.895   6.413   0.193  0.0153 -0.2891  0.2042
  648WAT     H1 3312   6.951   6.372   0.246 -0.8854  0.0912  1.4950
  648WAT     H2 3313   6.943   6.430   0.122  0.9023 -1.9440  0.3592
  648WAT    EPW 3314   6.911   6.410   0.190  0.0133 -0.4774  0.4177
  649WAT      O 3315   5.101   4.972   7.073 -0.1247  0.5306 -0.0407
  649WAT     H1 3316   5.091   4.937   7.152  0.4867  0.0145 -0.1905
  649WAT     H2 3317   5.024   4.957   7.035 -0.3202  0.5251  0.3458
  649WAT    EPW 3318   5.088   4.965   7.079 -0.0633  0.4536 -0.0058
  650WAT      O 3319   6.511   6.223   7.008  0.5641 -0.1410 -0.3237
  650WAT     H1 3320   6.473   6.156   7.048  0.5726 -0.2794 -0.5418
  650WAT     H2 3321   6.464   6.232   6.934  0.6696 -0.0185 -0.3770
  650WAT    EPW 3322   6.498   6.215   7.003  0.5809 -0.1433 -0.3638
  651WAT      O 3323   7.115   6.505   7.845  0.0932  0.0615 -0.5716
  651WAT     H1 3324   7.108   6.523   7.760 -1.6374 -0.8418 -0.6576
  651WAT     H2 3325   7.118   6.418   7.848  0.4351  0.0924  0.2826
  651WAT    EPW 3326   7.114   6.495   7.833 -0.1119 -0.0674 -0.4581
  652WAT      O 3327   6.232   6.495   6.702  0.1220 -0.3590  0.3207
  652WAT     H1 3328   6.149   6.489   6.675  0.7510 -1.4014 -1.5396
  652WAT     H2 3329   6.245   6.421   6.746  0.1794 -0.3346  0.3455
  652WAT    EPW 3330   6.221   6.483   6.705  0.2234 -0.5094  0.0496
  653WAT      O 3331   6.582   4.577   5.945  0.6403 -1.1526  0.5524
  653WAT     H1 3332   6.580   4.641   6.003 -2.0915 -2.1058  1.6408
  653WAT     H2 3333   6.608   4.508   5.991  0.9533 -1.4097  0.0090
  653WAT    EPW 3334   6.586   4.576   5.960  0.2830 -1.3314  0.6329
  654WAT      O 3335   6.616   4.877   7.615  0.0652  0.2392  0.2957
  654WAT     H1 3336   6.578   4.859   7.539  1.5138  2.2152 -0.9803
  654WAT     H2 3337   6.636   4.799   7.648  0.0914 -0.6460 -1.7209
  654WAT    EPW 3338   6.613   4.863   7.609  0.2830  0.4003 -0.1907
  655WAT      O 3339   6.499   5.170   7.176  0.4132 -0.1153  0.0596
  655WAT     H1 3340   6.568   5.198   7.221  0.8260 -0.7186 -0.1763
  655WAT     H2 3341   6.526   5.093   7.143 -0.2701 -0.2233 -0.2704
  655WAT    EPW 3342   6.513   5.163   7.177  0.3733 -0.2204 -0.0240
  656WAT      O 3343   6.654   5.852   7.660  0.3171  0.3961 -0.4656
  656WAT     H1 3344   6.727   5.899   7.671  1.3795 -0.5601 -2.6764
  656WAT     H2 3345   6.684   5.774   7.633 -1.5059 -0.2010 -0.8979
  656WAT    EPW 3346   6.669   5.847   7.657  0.2047  0.1667 -0.8561
  657WAT      O 3347   6.466   5.000   7.822 -0.3911  0.1691 -0.1747
  657WAT     H1 3348   6.396   5.025   7.777 -0.8768 -1.2342 -0.2280
  657WAT     H2 3349   6.517   4.962   7.762 -0.4780 -0.5892  0.2246
  657WAT    EPW 3350   6.463   4.998   7.806 -0.4757 -0.1502 -0.1236
  658WAT      O 3351   6.199   5.948   7.535  0.5357  0.3068 -0.0998
  658WAT     H1 3352   6.251   5.979   7.598 -0.4922 -0.3576  1.1287
  658WAT     H2 3353   6.249   5.892   7.491  0.6161 -1.1290  1.7126
  658WAT    EPW 3354   6.214   5.945   7.538  0.3957 -0.0034  0.3494
  659WAT      O 3355   5.954   6.462   6.619 -0.0228 -0.2846  0.6174
  659WAT     H1 3356   5.927   6.472   6.702 -0.1523  1.8856  0.3547
  659WAT     H2 3357   5.941   6.540   6.583  1.6009 -0.7022 -1.0238
  659WAT    EPW 3358   5.948   6.475   6.626  0.1979 -0.0257  0.3361
  660WAT      O 3359   6.014   6.449   5.051  0.8396 -0.3742 -0.2158
  660WAT     H1 3360   5.980   6.511   5.102  0.7807  0.8533 -1.6784
  660WAT     H2 3361   6.089   6.429   5.090  0.3237 -0.2288  0.8893
  660WAT    EPW 3362   6.020   6.455   5.064  0.7547 -0.1714 -0.2686
  661WAT      O 3363   6.423   6.806   6.531  0.5226 -0.0278  0.1477
  661WAT     H1 3364   6.349   6.852   6.534  0.2240 -0.4516 -0.4256
  661WAT     H2 3365   6.473   6.851   6.475 -0.0006 -0.7152 -0.8890
  661WAT    EPW 3366   6.420   6.820   6.523  0.4012 -0.1920 -0.0901
  662WAT      O 3367   6.067   5.874   6.240  0.1574  0.0797 -0.2843
  662WAT     H1 3368   6.130   5.846   6.186  0.7621 -0.5304  0.7097
  662WAT     H2 3369   6.070   5.961   6.230  1.0498  0.0522 -0.3780
  662WAT    EPW 3370   6.077   5.883   6.230  0.3786 -0.0145 -0.1513
  663WAT      O 3371   4.856   4.418   6.182 -0.1831 -0.2279 -0.3261
  663WAT     H1 3372   4.809   4.389   6.249 -0.0143 -1.6351 -0.7890
  663WAT     H2 3373   4.803   4.474   6.142 -0.5401  0.0785  0.5661
  663WAT    EPW 3374   4.841   4.422   6.186 -0.2109 -0.3905 -0.2626
  664WAT      O 3375   5.135   5.245   7.017 -0.0044  0.6161  0.8297
  664WAT     H1 3376   5.189   5.236   6.949  0.0293  0.7180  0.8432
  664WAT     H2 3377   5.129   5.164   7.049  1.1367  0.8132  1.5981
  664WAT    EPW 3378   5.142   5.232   7.012  0.1692  0.6602  0.9452
  665WAT      O 3379   6.092   6.844   7.628 -0.3194  0.0138  0.5245
  665WAT     H1 3380   6.074   6.828   7.711 -1.5688 -0.8358  0.1080
  665WAT     H2 3381   6.091   6.765   7.591 -1.2426  0.5085 -0.5615
  665WAT    EPW 3382   6.090   6.830   7.635 -0.6403 -0.0386  0.3026
  666WAT      O 3383   6.806   7.501   7.600  0.4361  0.8358  0.0968
  666WAT     H1 3384   6.821   7.417   7.621 -0.0649  0.7156 -0.0047
  666WAT     H2 3385   6.886   7.536   7.598  0.6663  0.3230 -0.0062
  666WAT    EPW 3386   6.820   7.494   7.603  0.3961  0.7423  0.0666
  667WAT      O 3387   5.056   5.381   7.606  0.1261 -0.5791  0.9255
  667WAT     H1 3388   5.115   5.443   7.621 -0.4628  0.1835  0.1504
  667WAT     H2 3389   5.067   5.326   7.673  0.1781  0.7256  2.0308
  667WAT    EPW 3390   5.066   5.382   7.618  0.0468 -0.2737  0.9743
  668WAT      O 3391   6.291   4.830   6.980  0.3511  0.3791 -0.5388
  668WAT     H1 3392   6.223   4.861   7.024 -0.3769  0.8926 -1.9570
  668WAT     H2 3393   6.358   4.842   7.034 -0.5761  0.3885  0.6619
  668WAT    EPW 3394   6.291   4.836   6.995  0.1066  0.4563 -0.5710
  669WAT      O 3395   7.293   6.724   1.654 -0.4224  0.0789 -0.1996
  669WAT     H1 3396   7.250   6.798   1.637  0.8550  0.8867  0.0151
  669WAT     H2 3397   7.377   6.747   1.649 -0.0020 -1.1489  0.7878
  669WAT    EPW 3398   7.299   6.738   1.650 -0.1716  0.0169 -0.0221
  670WAT      O 3399   5.454   7.159   0.502  0.3736  0.3695 -0.7747
  670WAT     H1 3400   5.383   7.181   0.547  0.1426 -2.1449  0.2173
  670WAT     H2 3401   5.432   7.178   0.419 -1.9231 -1.3280 -0.6463
  670WAT    EPW 3402   5.440   7.165   0.496  0.0002 -0.2527 -0.6092
  671WAT      O 3403   6.849   6.360   6.867  0.0471  0.2969  0.1824
  671WAT     H1 3404   6.866   6.313   6.938  1.2065  0.7785  0.2449
  671WAT     H2 3405   6.765   6.382   6.876  0.3252  0.8309  1.6848
  671WAT    EPW 3406   6.839   6.356   6.879  0.2595  0.4469  0.4136
  672WAT      O 3407   3.648   5.237   0.748 -0.3928 -0.0775 -0.2071
  672WAT     H1 3408   3.661   5.259   0.832  0.8532  0.6037 -0.5610
  672WAT     H2 3409   3.720   5.192   0.728  0.0595  1.1257 -1.3626
  672WAT    EPW 3410   3.661   5.233   0.758 -0.1420  0.2008 -0.4300
  673WAT      O 3411   5.482   4.722   7.778  0.0834  0.1535  0.0660
  673WAT     H1 3412   5.413   4.737   7.830  1.0508  0.3748  1.3274
  673WAT     H2 3413   5.524   4.656   7.818  0.5889 -0.0069 -0.7081
  673WAT    EPW 3414   5.478   4.714   7.792  0.3010  0.1625  0.1379
  674WAT      O 3415   5.862   6.294   7.249  0.2053 -0.0221  0.4680
  674WAT     H1 3416   5.864   6.381   7.243  0.2220 -0.0004  0.7765
  674WAT     H2 3417   5.898   6.278   7.326 -0.0348 -0.2896  0.5259
  674WAT    EPW 3418   5.868   6.304   7.259  0.1723 -0.0584  0.5221
  675WAT      O 3419   7.269   6.084   6.763  0.1153  0.2516 -0.0857
  675WAT     H1 3420   7.224   6.046   6.698  3.7178 -0.9212 -2.2043
  675WAT     H2 3421   7.273   6.168   6.740  1.0853 -0.1005 -1.3074
  675WAT    EPW 3422   7.263   6.091   6.750  0.7908  0.0264 -0.5791
  676WAT      O 3423   5.906   4.843   6.881  0.2133 -0.2007 -0.8067
  676WAT     H1 3424   5.888   4.897   6.948  1.0006 -0.2516 -0.5518
  676WAT     H2 3425   5.945   4.895   6.823  0.1788 -0.3101 -0.9268
  676WAT    EPW 3426   5.909   4.859   6.882  0.3245 -0.2244 -0.7868
  677WAT      O 3427   4.986   6.590   7.663  0.7331  0.3055  0.7801
  677WAT     H1 3428   4.910   6.629   7.648  0.2986 -0.5897  0.6124
  677WAT     H2 3429   4.997   6.600   7.749 -0.5043 -1.1581  1.1618
  677WAT    EPW 3430   4.976   6.597   7.674  0.4861 -0.0429  0.8117
  678WAT      O 3431   6.300   6.657   4.298  0.3620  0.2317 -0.0317
  678WAT     H1 3432   6.246   6.588   4.298  0.6263  0.0011  1.2615
  678WAT     H2 3433   6.369   6.629   4.342  1.5315  0.5606 -1.5829
  678WAT    EPW 3434   6.302   6.643   4.304  0.5738  0.2462 -0.0698
  679WAT      O 3435   6.669   5.472   5.584  0.1317  0.2109 -0.9951
  679WAT     H1 3436   6.677   5.506   5.663  1.7629 -0.3476 -0.8770
  679WAT     H2 3437   6.586   5.489   5.562 -0.5952 -0.2888  1.1179
  679WAT    EPW 3438   6.658   5.480   5.592  0.2653  0.0546 -0.6655
  680WAT      O 3439   6.733   4.357   6.785 -0.4746  0.3469  0.1386
  680WAT     H1 3440   6.653   4.374   6.754 -0.6057 -2.3074 -1.2376
  680WAT     H2 3441   6.785   4.368   6.716 -0.3779 -2.7062 -0.4031
  680WAT    EPW 3442   6.729   4.361   6.770 -0.4797 -0.4962 -0.1447
  681WAT      O 3443   5.115   6.055   7.243  0.1442 -0.5267 -0.1589
  681WAT     H1 3444   5.134   6.075   7.326 -1.1744 -0.1644  0.0787
  681WAT     H2 3445   5.133   5.970   7.238  1.2559 -0.3294  0.1766
  681WAT    EPW 3446   5.121   6.045   7.255  0.1136 -0.4440 -0.0742
  682WAT      O 3447   6.731   4.405   7.804  0.0875 -0.8532 -0.2995
  682WAT     H1 3448   6.690   4.358   7.743  0.0849 -1.3019  0.0437
  682WAT     H2 3449   6.695   4.484   7.797 -1.8868 -1.5658  0.9485
  682WAT    EPW 3450   6.720   4.410   7.794 -0.2045 -1.0247 -0.0644
  683WAT      O 3451   6.063   6.146   6.700  0.1515  0.6749 -0.8631
  683WAT     H1 3452   5.988   6.189   6.683 -0.7506 -0.7478 -0.6194
  683WAT     H2 3453   6.036   6.072   6.737  1.7784  0.8720  0.8566
  683WAT    EPW 3454   6.048   6.142   6.703  0.2585  0.4939 -0.5731
  684WAT      O 3455   6.070   5.681   7.706 -0.4942  0.0792  0.3788
  684WAT     H1 3456   6.029   5.733   7.649  2.7790  1.0037 -1.3713
  684WAT     H2 3457   6.117   5.627   7.656  0.8229 -0.5801  2.1885
  684WAT    EPW 3458   6.071   5.680   7.690  0.1839  0.1184  0.3876
  685WAT      O 3459   5.897   2.910   5.079  0.0442 -0.0536 -0.5916
  685WAT     H1 3460   5.882   2.871   5.155  1.3637 -1.3589 -0.9606
  685WAT     H2 3461   5.977   2.943   5.088 -0.1575  0.5989 -1.0947
  685WAT    EPW 3462   5.907   2.909   5.091  0.2093 -0.1500 -0.7204
  686WAT      O 3463   5.022   5.657   0.097  0.0816 -0.2807  0.5081
  686WAT     H1 3464   5.109   5.660   0.090 -0.0506 -0.1002 -2.0125
  686WAT     H2 3465   4.994   5.683   0.018 -2.2680 -0.6782  1.1242
  686WAT    EPW 3466   5.031   5.661   0.084 -0.2850 -0.3128  0.2268
  687WAT      O 3467   7.083   5.435   0.409  0.3528 -0.6209  0.5211
  687WAT     H1 3468   7.037   5.509   0.413  0.3038 -0.6141 -0.1872
  687WAT     H2 3469   7.068   5.397   0.487 -3.9749 -2.5220 -0.9726
  687WAT    EPW 3470   7.074   5.440   0.421 -0.2938 -0.9007  0.1958
  688WAT      O 3471   6.512   5.978   7.465  0.2465  0.0020  0.0211
  688WAT     H1 3472   6.484   5.900   7.436  2.8607 -0.7241 -0.8554
  688WAT     H2 3473   6.553   5.958   7.539 -1.3692  1.0197  1.2531
  688WAT    EPW 3474   6.514   5.964   7.472  0.3940  0.0451  0.0736
  689WAT      O 3475   6.961   6.198   7.065  0.5557  0.1124  0.0007
  689WAT     H1 3476   6.996   6.120   7.046 -0.1841 -0.5266  1.1108
  689WAT     H2 3477   6.937   6.190   7.148 -1.2253  0.8767 -0.3784
  689WAT    EPW 3478   6.963   6.185   7.074  0.1833  0.1309  0.1087
  690WAT      O 3479   5.531   6.457   0.711  0.3409  0.2179 -0.2997
  690WAT     H1 3480   5.608   6.445   0.670 -0.0069 -1.1557 -0.5766
  690WAT     H2 3481   5.542   6.418   0.788  0.3314  1.1257  0.1787
  690WAT    EPW 3482   5.544   6.449   0.716  0.2881  0.1491 -0.2700
  691WAT      O 3483   6.564   3.414   5.341  0.6309  0.4150  0.3663
  691WAT     H1 3484   6.628   3.466   5.369  2.2038 -0.0553 -1.9656
  691WAT     H2 3485   6.604   3.366   5.279 -1.8620 -0.2993 -0.7959
  691WAT    EPW 3486   6.580   3.415   5.336  0.4950  0.2400 -0.1499
  692WAT      O 3487   7.095   6.557   4.536 -0.6636 -0.6093 -0.1569
  692WAT     H1 3488   7.122   6.476   4.515 -2.7059 -1.5016  0.3708
  692WAT     H2 3489   7.013   6.544   4.564 -0.8113  1.5825  0.5779
  692WAT    EPW 3490   7.087   6.543   4.537 -0.9871 -0.4173  0.0296
  693WAT      O 3491   5.452   6.068   4.791  0.1715  0.6933  0.0818
  693WAT     H1 3492   5.374   6.029   4.787 -0.6305  2.0242  1.4339
  693WAT     H2 3493   5.470   6.069   4.877  1.1680  1.3910 -0.1144
  693WAT    EPW 3494   5.443   6.062   4.803  0.2002  0.9930  0.2525
  694WAT      O 3495   5.902   6.594   4.486 -0.3092 -0.0732  0.3310
  694WAT     H1 3496   5.962   6.552   4.438 -0.4005 -0.2735  0.3870
  694WAT     H2 3497   5.926   6.677   4.481 -0.8145  0.0285 -0.7813
  694WAT    EPW 3498   5.915   6.600   4.478 -0.3973 -0.0878  0.1750
  695WAT      O 3499   6.117   4.000   4.180 -0.1578 -0.6353 -0.0998
  695WAT     H1 3500   6.031   4.013   4.187  0.0776  0.5733  0.7938
  695WAT     H2 3501   6.126   3.914   4.196 -1.0763 -0.5177  1.1870
  695WAT    EPW 3502   6.106   3.989   4.184 -0.2587 -0.4394  0.2223
  696WAT      O 3503   6.174   5.612   3.416  0.5112  0.0615 -0.1164
  696WAT     H1 3504   6.188   5.529   3.442  0.0866  0.0939  0.2212
  696WAT     H2 3505   6.103   5.607   3.367 -0.6301  0.4949  1.4273
  696WAT    EPW 3506   6.166   5.599   3.413  0.2799  0.1303  0.1615
  697WAT      O 3507   6.656   6.135   4.031  0.0714  0.2804 -0.5284
  697WAT     H1 3508   6.602   6.183   4.080 -1.5676 -0.9729 -0.9955
  697WAT     H2 3509   6.724   6.119   4.083 -0.6538  0.7463  0.5902
  697WAT    EPW 3510   6.658   6.140   4.046 -0.2778  0.1641 -0.4322
  698WAT      O 3511   5.761   6.772   5.575 -0.0416  0.4836  0.4085
  698WAT     H1 3512   5.723   6.850   5.562  1.6083  1.3468  0.4252
  698WAT     H2 3513   5.777   6.771   5.660 -3.4883 -1.6191  1.1987
  698WAT    EPW 3514   5.758   6.784   5.585 -0.3070  0.3005  0.5277
  699WAT      O 3515   5.866   5.412   4.656  0.1961  0.3485  0.4650
  699WAT     H1 3516   5.814   5.447   4.717 -0.2313 -1.2672  1.0950
  699WAT     H2 3517   5.945   5.441   4.677 -0.0647  0.4940  1.2827
  699WAT    EPW 3518   5.870   5.421   4.668  0.0944  0.1313  0.6788
  700WAT      O 3519   5.616   6.498   3.869 -0.1307  0.0400  0.0333
  700WAT     H1 3520   5.670   6.547   3.918  1.0295  0.1462 -1.2488
  700WAT     H2 3521   5.543   6.546   3.865  0.0660  0.4295  0.9396
  700WAT    EPW 3522   5.613   6.513   3.876  0.0698  0.1132 -0.0222
  701WAT      O 3523   5.516   6.425   5.731 -0.7882  0.2534  0.1719
  701WAT     H1 3524   5.515   6.348   5.689  1.1769 -0.4102  1.1869
  701WAT     H2 3525   5.453   6.417   5.790  0.8227 -1.5887  1.7902
  701WAT    EPW 3526   5.507   6.413   5.733 -0.2599 -0.1168  0.5609
  702WAT      O 3527   7.289   6.572   5.287 -0.2323 -0.3675 -0.2312
  702WAT     H1 3528   7.211   6.611   5.277 -0.4145 -0.6571  0.0708
  702WAT     H2 3529   7.320   6.568   5.205  0.6450  2.1492 -0.1307
  702WAT    EPW 3530   7.282   6.577   5.273 -0.1296 -0.0385 -0.1717
  703WAT      O 3531   5.519   6.096   3.377 -0.0928  0.0631  0.5182
  703WAT     H1 3532   5.558   6.084   3.300  0.4368 -0.2136  0.8253
  703WAT     H2 3533   5.519   6.183   3.387  2.9031  0.0361  1.7255
  703WAT    EPW 3534   5.525   6.107   3.367  0.4280  0.0182  0.7419
  704WAT      O 3535   6.562   5.813   4.530 -0.6668  0.1683 -0.3705
  704WAT     H1 3536   6.627   5.811   4.472 -1.0487  0.4685 -0.8141
  704WAT     H2 3537   6.594   5.769   4.598 -0.3358 -0.4844 -0.9350
  704WAT    EPW 3538   6.576   5.806   4.532 -0.6743  0.1162 -0.5194
  705WAT      O 3539   5.899   6.179   4.221 -0.8664  0.0184  0.4622
  705WAT     H1 3540   5.907   6.178   4.308 -2.0126  0.8116  0.6037
  705WAT     H2 3541   5.887   6.264   4.203  0.3141 -0.0148 -0.5790
  705WAT    EPW 3542   5.898   6.191   4.231 -0.8613  0.1307  0.3293
  706WAT      O 3543   6.687   4.809   4.751 -0.0450 -0.3961  0.1695
  706WAT     H1 3544   6.738   4.755   4.796  0.4463  0.1891  0.3322
  706WAT     H2 3545   6.609   4.802   4.791 -0.2600 -1.7033 -0.4289
  706WAT    EPW 3546   6.683   4.800   4.764 -0.0042 -0.5027  0.1051
  707WAT      O 3547   4.780   5.944   6.642 -0.3626 -0.1668  0.2038
  707WAT     H1 3548   4.762   5.927   6.726 -1.3027  0.5019  0.1500
  707WAT     H2 3549   4.701   5.959   6.607  0.1653  1.2010 -0.4304
  707WAT    EPW 3550   4.765   5.943   6.649 -0.4235  0.1340  0.1022
  708WAT      O 3551   7.145   5.001   1.874  0.8582 -0.0112  0.1124
  708WAT     H1 3552   7.059   5.006   1.882  0.8587 -0.4864  0.4395
  708WAT     H2 3553   7.171   5.084   1.885  0.5059  0.0161  0.7704
  708WAT    EPW 3554   7.136   5.014   1.877  0.8062 -0.0774  0.2579
  709WAT      O 3555   7.019   6.210   5.800  0.2795  0.0149 -0.2734
  709WAT     H1 3556   7.042   6.240   5.722  0.8726  0.7866  0.1786
  709WAT     H2 3557   6.937   6.237   5.809  0.4422  0.5466 -0.3421
  709WAT    EPW 3558   7.010   6.219   5.790  0.3911  0.2075 -0.2167
  710WAT      O 3559   6.201   4.768   4.279  0.2166 -0.3755  0.3067
  710WAT     H1 3560   6.170   4.849   4.269 -3.4910 -1.4215  1.7101
  710WAT     H2 3561   6.260   4.777   4.342  1.0727  1.3885 -0.6400
  710WAT    EPW 3562   6.205   4.782   4.286 -0.2046 -0.2694  0.3742
  711WAT      O 3563   6.691   4.796   5.486 -0.0809  0.0301 -0.5267
  711WAT     H1 3564   6.740   4.740   5.440  1.5204  0.6828  0.2751
  711WAT     H2 3565   6.725   4.790   5.566 -2.6602 -0.9419  0.5897
  711WAT    EPW 3566   6.703   4.787   5.491 -0.2254 -0.0171 -0.2433
  712WAT      O 3567   6.474   4.532   4.785 -0.2009 -0.0201  0.4619
  712WAT     H1 3568   6.552   4.493   4.782  0.0876  0.4895  1.1925
  712WAT     H2 3569   6.490   4.608   4.824 -0.9832  0.2876  0.1943
  712WAT    EPW 3570   6.488   4.537   4.791 -0.2739  0.1006  0.5303
  713WAT      O 3571   5.944   4.264   4.892 -0.1216 -0.4283  0.1628
  713WAT     H1 3572   5.945   4.318   4.961  0.7263  2.0083 -1.6000
  713WAT     H2 3573   6.029   4.253   4.874 -0.3221  0.0194 -1.1779
  713WAT    EPW 3574   5.957   4.271   4.900 -0.0260 -0.0022 -0.2957
  714WAT      O 3575   5.283   6.974   2.708  0.1114  0.3802  0.8627
  714WAT     H1 3576   5.244   6.950   2.782  1.6704  0.6777  1.8296
  714WAT     H2 3577   5.244   7.050   2.689 -0.2281  0.3622  1.4510
  714WAT    EPW 3578   5.272   6.982   2.716  0.2916  0.4215  1.0924
  715WAT      O 3579   6.579   4.353   5.535  0.1342 -0.2339 -0.4030
  715WAT     H1 3580   6.586   4.301   5.605 -1.0786 -1.4664 -1.1442
  715WAT     H2 3581   6.599   4.300   5.469  0.8702  0.8102 -1.0521
  715WAT    EPW 3582   6.583   4.337   5.536  0.0637 -0.2617 -0.6084
  716WAT      O 3583   5.711   7.011   3.968  0.5019  0.2151 -0.6755
  716WAT     H1 3584   5.681   6.942   4.011 -1.4679  0.2835 -1.7994
  716WAT     H2 3585   5.766   7.049   4.024  1.9438 -2.4112 -0.1620
  716WAT    EPW 3586   5.715   7.006   3.982  0.4239 -0.1627 -0.7657
  717WAT      O 3587   5.838   6.385   4.665  0.5115  0.6171 -0.3846
  717WAT     H1 3588   5.758   6.352   4.658  0.7036  0.0485  0.0485
  717WAT     H2 3589   5.838   6.451   4.608 -0.5487  1.1967  0.2506
  717WAT    EPW 3590   5.826   6.390   4.656  0.3832  0.6188 -0.2268
  718WAT      O 3591   6.272   5.650   3.860  0.5108  0.4855 -0.0492
  718WAT     H1 3592   6.207   5.594   3.872 -0.4348  1.7929  1.3599
  718WAT     H2 3593   6.307   5.626   3.784 -1.3584 -0.4937 -0.6569
  718WAT    EPW 3594   6.268   5.638   3.851  0.0950  0.5340  0.0692
  719WAT      O 3595   5.451   4.259   5.294 -0.0045 -0.7065  0.4396
  719WAT     H1 3596   5.518   4.268   5.240 -1.0022 -0.3973 -0.8106
  719WAT     H2 3597   5.481   4.287   5.370  0.3885  2.6336 -0.7787
  719WAT    EPW 3598   5.465   4.264   5.297 -0.0938 -0.1674  0.0750
  720WAT      O 3599   6.068   5.354   5.211  0.5563 -0.1585 -0.0933
  720WAT     H1 3600   6.121   5.341   5.279 -0.2294  0.9640  0.7761
  720WAT     H2 3601   6.122   5.376   5.147  1.3575 -1.6329  0.0168
  720WAT    EPW 3602   6.084   5.355   5.212  0.5586 -0.2105  0.0514
  721WAT      O 3603   5.660   6.385   3.535 -0.0799 -0.1825 -0.5967
  721WAT     H1 3604   5.723   6.433   3.572 -1.0194 -1.0859  2.5235
  721WAT     H2 3605   5.587   6.428   3.554 -0.6162 -0.3199 -2.1959
  721WAT    EPW 3606   5.659   6.398   3.543 -0.2979 -0.3362 -0.3720
  722WAT      O 3607   6.857   4.653   5.294 -0.7257  0.2846  0.2657
  722WAT     H1 3608   6.910   4.720   5.310  0.3679 -0.4833 -0.0501
  722WAT     H2 3609   6.811   4.680   5.224  0.8533  0.1095 -0.9056
  722WAT    EPW 3610   6.858   4.667   5.286 -0.3309  0.1453  0.0460
  723WAT      O 3611   6.737   6.264   5.859 -0.1486 -0.7187  0.1580
  723WAT     H1 3612   6.656   6.239   5.839 -0.7998  1.3354  0.0871
  723WAT     H2 3613   6.726   6.319   5.926  1.1336 -0.0322 -0.1622
  723WAT    EPW 3614   6.723   6.268   5.866 -0.0554 -0.3138  0.1002
  724WAT      O 3615   5.576   5.284   4.843 -0.2085  0.1632  0.4543
  724WAT     H1 3616   5.556   5.291   4.927 -1.7190  2.2722 -0.0163
  724WAT     H2 3617   5.634   5.218   4.841 -0.6824 -0.4234  3.0096
  724WAT    EPW 3618   5.581   5.275   4.855 -0.5016  0.3881  0.7623
  725WAT      O 3619   6.165   5.840   5.001 -0.2559 -0.3742 -0.0201
  725WAT     H1 3620   6.081   5.846   4.978 -0.5691 -2.6331  0.2698
  725WAT     H2 3621   6.202   5.800   4.932  0.2834 -0.6471  0.4149
  725WAT    EPW 3622   6.158   5.835   4.987 -0.2225 -0.7482  0.0870
  726WAT      O 3623   6.209   0.305   4.106  0.0083  0.3664  0.2115
  726WAT     H1 3624   6.218   0.319   4.191  0.5481 -1.4473  0.5194
  726WAT     H2 3625   6.126   0.325   4.089 -0.0293  0.9858  1.1029
  726WAT    EPW 3626   6.198   0.310   4.116  0.0825  0.1900  0.3887
  727WAT      O 3627   5.696   5.253   6.104 -0.5160 -0.4828  0.7088
  727WAT     H1 3628   5.720   5.267   6.187  0.8898 -2.6395  0.7373
  727WAT     H2 3629   5.759   5.293   6.058 -1.7090  1.3836  0.6078
  727WAT    EPW 3630   5.709   5.261   6.109 -0.4845 -0.5257  0.6981
  728WAT      O 3631   7.136   1.821   6.001  0.5639 -0.2636 -0.2011
  728WAT     H1 3632   7.156   1.763   5.939  0.2181 -1.5294  0.8136
  728WAT     H2 3633   7.181   1.793   6.070  0.7231  0.9437  0.2042
  728WAT    EPW 3634   7.145   1.808   6.002  0.5363 -0.2722  0.0086
  729WAT      O 3635   6.051   4.786   4.942 -0.4268  0.2993 -0.3649
  729WAT     H1 3636   6.079   4.843   5.002 -0.0119 -0.5353  0.2592
  729WAT     H2 3637   5.976   4.756   4.976  0.3827 -1.0350  0.3447
  729WAT    EPW 3638   6.044   4.790   4.956 -0.2459 -0.0211 -0.1679
  730WAT      O 3639   6.843   0.376   4.232  0.2706  0.3755 -0.5576
  730WAT     H1 3640   6.757   0.376   4.247  0.6216 -1.8457  2.2765
  730WAT     H2 3641   6.851   0.334   4.156 -1.1151 -1.8866  0.4377
  730WAT    EPW 3642   6.831   0.370   4.223  0.1177 -0.2868  0.0081
  731WAT      O 3643   5.574   0.282   4.758  0.4891  0.8082  0.3466
  731WAT     H1 3644   5.510   0.254   4.810  0.3285  0.9434  0.2246
  731WAT     H2 3645   5.602   0.354   4.797  2.6307 -0.8177  2.0446
  731WAT    EPW 3646   5.568   0.288   4.771  0.7817  0.5880  0.5794
  732WAT      O 3647   5.905   4.432   5.107 -0.2121  0.2243  0.1606
  732WAT     H1 3648   5.876   4.512   5.090 -1.2951  0.3277  2.2189
  732WAT     H2 3649   5.915   4.431   5.193 -0.0384 -1.7997  0.1774
  732WAT    EPW 3650   5.902   4.444   5.117 -0.3464 -0.0594  0.4671
  733WAT      O 3651   6.776   6.011   6.896  0.3107 -0.4264 -0.5071
  733WAT     H1 3652   6.736   6.089   6.904 -0.4099 -0.7574 -0.7875
  733WAT     H2 3653   6.850   6.021   6.941 -0.0178  0.2594 -0.1073
  733WAT    EPW 3654   6.781   6.024   6.904  0.1557 -0.3740 -0.4895
  734WAT      O 3655   5.244   6.073   3.386  0.4736 -0.0122 -0.5567
  734WAT     H1 3656   5.331   6.067   3.374  0.6935  0.0409  0.8101
  734WAT     H2 3657   5.232   6.157   3.406  0.0494  0.0552 -1.0754
  734WAT    EPW 3658   5.255   6.084   3.387  0.4434  0.0056 -0.4314
  735WAT      O 3659   6.488   4.399   3.314  0.1870 -0.7402  0.1079
  735WAT     H1 3660   6.424   4.458   3.307  0.6895 -0.1387  0.5228
  735WAT     H2 3661   6.468   4.356   3.387 -0.3471 -1.3022 -0.3560
  735WAT    EPW 3662   6.476   4.402   3.323  0.1824 -0.7344  0.1007
  736WAT      O 3663   6.867   5.242   3.514  0.2671 -0.1128  0.1481
  736WAT     H1 3664   6.790   5.220   3.479  0.0345  0.1588  0.4747
  736WAT     H2 3665   6.898   5.302   3.459 -0.1750  0.4375  0.4805
  736WAT    EPW 3666   6.860   5.248   3.501  0.1674  0.0086  0.2455
  737WAT      O 3667   5.415   6.020   5.044 -0.1146 -0.7797 -0.3825
  737WAT     H1 3668   5.381   5.941   5.034  0.0982 -0.9413  0.1315
  737WAT     H2 3669   5.478   6.008   5.103 -0.9344  0.0019  0.7109
  737WAT    EPW 3670   5.419   6.007   5.051 -0.2043 -0.6881 -0.1451
  738WAT      O 3671   6.408   5.524   5.476 -0.1512 -0.3671 -0.0138
  738WAT     H1 3672   6.342   5.467   5.472 -0.4370 -0.0695  0.4013
  738WAT     H2 3673   6.418   5.550   5.394  0.5896 -1.6910 -0.3856
  738WAT    EPW 3674   6.400   5.519   5.463 -0.0840 -0.5187 -0.0074
  739WAT      O 3675   6.883   6.884   5.132 -0.5019 -0.4404 -0.5285
  739WAT     H1 3676   6.860   6.944   5.190  0.5397 -1.4932  1.0665
  739WAT     H2 3677   6.818   6.826   5.135 -0.0416 -0.9363  0.2905
  739WAT    EPW 3678   6.870   6.884   5.141 -0.2800 -0.6692 -0.1719
  740WAT      O 3679   5.698   4.270   4.702 -0.1472  0.0175  0.2087
  740WAT     H1 3680   5.612   4.257   4.700 -0.7532  2.9416  1.3222
  740WAT     H2 3681   5.723   4.228   4.775 -0.5380 -1.1207 -0.2953
  740WAT    EPW 3682   5.689   4.262   4.713 -0.2944  0.2813  0.2987
  741WAT      O 3683   6.990   5.722   6.881  0.2310  0.0405  0.6182
  741WAT     H1 3684   7.001   5.672   6.951  4.2840 -1.1109 -0.5747
  741WAT     H2 3685   6.976   5.665   6.816  1.3358  0.6729 -0.2126
  741WAT    EPW 3686   6.989   5.706   6.882  0.9929 -0.0362  0.3193
  742WAT      O 3687   7.046   4.128   3.808 -0.1466 -0.0289  0.0208
  742WAT     H1 3688   7.054   4.215   3.811 -1.7330  0.1402  0.5586
  742WAT     H2 3689   7.041   4.110   3.723 -2.2159  0.7213 -0.0720
  742WAT    EPW 3690   7.047   4.138   3.796 -0.6866  0.1069  0.0865
  743WAT      O 3691   6.755   4.745   3.434  0.1936 -0.0866  0.2701
  743WAT     H1 3692   6.668   4.745   3.435  0.1837 -0.0053  1.6409
  743WAT     H2 3693   6.776   4.801   3.497  1.3106  3.3270 -2.7912
  743WAT    EPW 3694   6.746   4.753   3.444  0.3572  0.4296  0.0203
  744WAT      O 3695   6.199   6.478   5.516  0.4327 -0.3759  0.3208
  744WAT     H1 3696   6.145   6.545   5.500 -0.2020 -0.8994  0.1889
  744WAT     H2 3697   6.149   6.422   5.561  1.5788  0.1772  2.4035
  744WAT    EPW 3698   6.183   6.480   5.520  0.5083 -0.3715  0.6090
  745WAT      O 3699   5.730   4.872   4.636 -0.5111 -0.2471  0.0850
  745WAT     H1 3700   5.712   4.802   4.686 -1.7538  0.6614  1.0068
  745WAT     H2 3701   5.744   4.935   4.695 -3.9049  1.3331 -0.5266
  745WAT    EPW 3702   5.729   4.871   4.652 -1.1960  0.1205  0.1308
  746WAT      O 3703   6.598   5.215   3.433  0.6957  0.0178 -0.1581
  746WAT     H1 3704   6.590   5.220   3.346  1.2835 -1.1919 -0.3070
  746WAT     H2 3705   6.557   5.140   3.453  0.1167  0.5380  0.6835
  746WAT    EPW 3706   6.591   5.204   3.423  0.6970 -0.0840 -0.0558
  747WAT      O 3707   6.128   6.141   6.124  0.2597  0.0146 -0.0089
  747WAT     H1 3708   6.060   6.196   6.119  0.8095  0.7216  0.1292
  747WAT     H2 3709   6.156   6.136   6.042 -0.3375 -0.7811 -0.1760
  747WAT    EPW 3710   6.122   6.148   6.111  0.2527  0.0015 -0.0132
  748WAT      O 3711   6.679   4.349   4.993 -0.5050  0.4537 -0.6000
  748WAT     H1 3712   6.617   4.339   5.054 -1.7382  0.3429 -1.8071
  748WAT     H2 3713   6.734   4.283   5.008 -0.9125  0.2868  0.2275
  748WAT    EPW 3714   6.678   4.338   5.004 -0.7473  0.4127 -0.6561
  749WAT      O 3715   5.561   6.198   5.439 -0.0462 -0.4466 -0.3683
  749WAT     H1 3716   5.522   6.162   5.509 -0.1848  0.8870  0.2714
  749WAT     H2 3717   5.503   6.255   5.410  0.1909 -0.6824 -1.3233
  749WAT    EPW 3718   5.547   6.201   5.445 -0.0316 -0.2844 -0.4149
  750WAT      O 3719   6.909   3.427   5.073 -0.0345  0.0759  0.6424
  750WAT     H1 3720   6.992   3.453   5.083  0.1923 -0.6225  0.6906
  750WAT     H2 3721   6.914   3.341   5.088 -0.9846  0.2237  1.8918
  750WAT    EPW 3722   6.922   3.418   5.077 -0.1413 -0.0054  0.8341
  751WAT      O 3723   6.991   7.221   5.774 -0.1980  0.1628 -0.0129
  751WAT     H1 3724   6.983   7.139   5.803  0.2801  0.1201  0.0085
  751WAT     H2 3725   7.050   7.214   5.710  0.0383  0.5336  0.1650
  751WAT    EPW 3726   6.998   7.207   5.769 -0.0925  0.2113  0.0165
  752WAT      O 3727   6.705   4.257   5.786  0.6471 -0.0604 -0.0683
  752WAT     H1 3728   6.771   4.311   5.803  0.7274 -0.8751  2.6521
  752WAT     H2 3729   6.734   4.179   5.813 -0.6754 -0.8213 -0.7395
  752WAT    EPW 3730   6.719   4.254   5.792  0.4636 -0.2932  0.2344
  753WAT      O 3731   6.595   5.591   3.977  0.4870  0.3254 -0.1448
  753WAT     H1 3732   6.671   5.549   3.964  0.8191  0.9429 -0.2530
  753WAT     H2 3733   6.538   5.546   3.928  0.9847  0.4411 -0.8499
  753WAT    EPW 3734   6.598   5.578   3.968  0.6096  0.4337 -0.2649
  754WAT      O 3735   6.729   5.455   5.054  0.0433  0.3205  0.2256
  754WAT     H1 3736   6.789   5.483   5.110  0.1663 -1.9140  1.3151
  754WAT     H2 3737   6.669   5.418   5.105 -0.4442 -0.7116 -1.0429
  754WAT    EPW 3738   6.729   5.454   5.070 -0.0105 -0.1620  0.1992
  755WAT      O 3739   5.122   7.395   2.866 -0.5635 -0.3865  0.5367
  755WAT     H1 3740   5.142   7.359   2.942 -1.5722  0.2684  1.1356
  755WAT     H2 3741   5.182   7.457   2.855 -1.3442  0.5914  1.5962
  755WAT    EPW 3742   5.134   7.399   2.875 -0.8279 -0.1453  0.7817
  756WAT      O 3743   5.967   6.025   5.738  0.4433 -0.0135 -0.5055
  756WAT     H1 3744   6.012   5.962   5.697 -0.5954 -1.1363 -0.0138
  756WAT     H2 3745   5.929   5.982   5.804 -1.8490  0.6955 -1.2651
  756WAT    EPW 3746   5.968   6.009   5.742 -0.0488 -0.0747 -0.5450
  757WAT      O 3747   6.607   6.437   2.647 -0.5510 -0.1121  0.3329
  757WAT     H1 3748   6.577   6.496   2.704  0.2506  0.0403  0.5990
  757WAT     H2 3749   6.689   6.461   2.633 -0.6314 -0.3398 -0.6442
  757WAT    EPW 3750   6.615   6.449   2.653 -0.4445 -0.1232  0.2279
  758WAT      O 3751   6.569   5.800   3.792 -0.1038 -0.2042 -0.7213
  758WAT     H1 3752   6.566   5.740   3.855 -0.7663  2.1541  1.6685
  758WAT     H2 3753   6.652   5.796   3.764  0.0466 -1.7121 -0.1421
  758WAT    EPW 3754   6.581   5.790   3.797 -0.1794 -0.0786 -0.2827
  759WAT      O 3755   5.893   5.655   3.553  0.0283 -0.2154  0.7328
  759WAT     H1 3756   5.856   5.670   3.630 -2.7371  2.7435 -0.8773
  759WAT     H2 3757   5.923   5.734   3.529 -0.5186 -0.6547 -1.7369
  759WAT    EPW 3758   5.892   5.669   3.561 -0.4610  0.1568  0.1302
  760WAT      O 3759   7.047   5.666   3.001 -0.2863 -0.3358  0.1249
  760WAT     H1 3760   7.074   5.610   3.062 -0.4049 -0.3486  0.1644
  760WAT     H2 3761   7.107   5.657   2.938 -0.4103 -0.6423  0.0516
  760WAT    EPW 3762   7.060   5.656   3.001 -0.3222 -0.3829  0.1199
  761WAT      O 3763   7.061   4.795   6.949 -0.0837 -0.4024  0.1840
  761WAT     H1 3764   7.012   4.816   6.880 -0.8959 -2.2734  0.1387
  761WAT     H2 3765   7.004   4.798   7.016  0.2574 -0.4446  0.4799
  761WAT    EPW 3766   7.045   4.799   6.949 -0.1532 -0.6850  0.2210
  762WAT      O 3767   5.256   5.141   3.963 -0.4277  0.0381 -0.4982
  762WAT     H1 3768   5.308   5.135   4.033 -1.4052 -1.4061  0.1639
  762WAT     H2 3769   5.312   5.140   3.896  0.4797  0.4369  0.2312
  762WAT    EPW 3770   5.272   5.140   3.963 -0.4380 -0.1163 -0.2927
  763WAT      O 3771   6.215   5.297   5.443  0.2208 -0.6723 -0.6865
  763WAT     H1 3772   6.190   5.299   5.526 -0.3745  1.8132 -0.8453
  763WAT     H2 3773   6.198   5.215   5.418 -0.0789 -1.3191  1.4664
  763WAT    EPW 3774   6.209   5.285   5.451  0.0886 -0.4007 -0.3919
  764WAT      O 3775   6.401   5.316   4.569  0.2436 -0.4759  0.1453
  764WAT     H1 3776   6.469   5.303   4.623  0.5650 -2.0870 -0.5874
  764WAT     H2 3777   6.406   5.400   4.549  0.1671  0.1754  2.5433
  764WAT    EPW 3778   6.411   5.326   4.574  0.2798 -0.6177  0.3913
  765WAT      O 3779   6.361   6.490   3.110 -0.2455  0.8034 -0.5497
  765WAT     H1 3780   6.387   6.513   3.030 -2.6392  1.5050 -1.2087
  765WAT     H2 3781   6.435   6.485   3.155  1.1474  0.7600 -2.7029
  765WAT    EPW 3782   6.376   6.492   3.105 -0.3933  0.9006 -0.9651
  766WAT      O 3783   5.008   6.291   4.393  0.2900  0.2894  0.0714
  766WAT     H1 3784   4.941   6.325   4.437 -0.3588 -0.4287 -0.3476
  766WAT     H2 3785   4.972   6.260   4.320  1.0285 -0.3069 -0.0574
  766WAT    EPW 3786   4.993   6.291   4.389  0.3032  0.0952 -0.0095
  767WAT      O 3787   6.744   4.732   5.030  0.0003 -0.5762 -0.2159
  767WAT     H1 3788   6.765   4.659   4.987  2.9015 -0.1994  0.3674
  767WAT     H2 3789   6.660   4.720   5.051 -0.4410 -2.4075 -2.6526
  767WAT    EPW 3790   6.735   4.720   5.027  0.3637 -0.7911 -0.4897
  768WAT      O 3791   5.823   6.147   3.545  0.0081  0.2588  0.2332
  768WAT     H1 3792   5.761   6.208   3.548 -1.7669 -1.4790  1.2490
  768WAT     H2 3793   5.883   6.175   3.601  0.1380  1.9269 -0.6829
  768WAT    EPW 3794   5.823   6.160   3.554 -0.2349  0.2485  0.2479
  769WAT      O 3795   5.969   7.036   6.180  0.6572 -0.2833 -0.5017
  769WAT     H1 3796   6.024   6.968   6.183 -0.2907 -1.0242  0.6574
  769WAT     H2 3797   6.021   7.102   6.156  1.7130 -1.2926 -1.0958
  769WAT    EPW 3798   5.985   7.036   6.177  0.6731 -0.5418 -0.4182
  770WAT      O 3799   6.319   3.581   5.231 -0.0979 -0.3888  0.2670
  770WAT     H1 3800   6.259   3.525   5.261  0.2675  0.0684  1.9390
  770WAT     H2 3801   6.395   3.545   5.254  0.2526 -0.3875 -0.8142
  770WAT    EPW 3802   6.321   3.567   5.238  0.0079 -0.3211  0.3543
  771WAT      O 3803   6.913   5.680   6.552  0.0960 -0.2530  0.0143
  771WAT     H1 3804   6.907   5.616   6.611 -0.6657  1.1264  1.5235
  771WAT     H2 3805   6.842   5.668   6.502 -1.3299  0.6521  1.6888
  771WAT    EPW 3806   6.901   5.669   6.553 -0.2272  0.0845  0.4846
  772WAT      O 3807   6.379   5.516   3.633 -0.5676  0.7338 -0.5466
  772WAT     H1 3808   6.324   5.450   3.615 -1.3262  0.7224  1.5389
  772WAT     H2 3809   6.457   5.482   3.614 -0.7657 -1.4350  1.7873
  772WAT    EPW 3810   6.382   5.501   3.628 -0.7089  0.4117  0.1062
  773WAT      O 3811   4.942   5.936   6.382  0.4575  0.2764  0.4292
  773WAT     H1 3812   4.942   5.849   6.376 -2.8934  0.1149  0.7756
  773WAT     H2 3813   4.889   5.952   6.450  0.2906  2.5812 -0.1432
  773WAT    EPW 3814   4.934   5.926   6.391 -0.0622  0.5930  0.3958
  774WAT      O 3815   5.662   3.488   4.470  0.1525  0.4153  0.3826
  774WAT     H1 3816   5.659   3.561   4.421 -0.5773 -0.8234 -1.5215
  774WAT     H2 3817   5.644   3.425   4.413  1.5176 -1.3604  1.8215
  774WAT    EPW 3818   5.659   3.490   4.455  0.2463 -0.0300  0.3139
  775WAT      O 3819   5.883   7.174   3.646 -0.4982  0.0267 -0.1549
  775WAT     H1 3820   5.949   7.130   3.683 -0.3246  0.8878  0.6119
  775WAT     H2 3821   5.913   7.196   3.568 -0.2894 -0.5253 -0.2319
  775WAT    EPW 3822   5.897   7.171   3.640 -0.4417  0.0724 -0.0530
  776WAT      O 3823   7.127   6.624   4.823 -0.3121  0.7016  0.3492
  776WAT     H1 3824   7.121   6.593   4.741 -0.1115  1.2810  0.1069
  776WAT     H2 3825   7.075   6.694   4.823  2.1013  2.6689 -0.2785
  776WAT    EPW 3826   7.119   6.630   4.811  0.0740  1.0778  0.2207
  777WAT      O 3827   6.761   4.743   5.742 -0.1118  0.3465  0.1560
  777WAT     H1 3828   6.719   4.690   5.797 -0.2065 -0.8749 -1.0417
  777WAT     H2 3829   6.844   4.714   5.745 -0.1662  0.0954 -0.5062
  777WAT    EPW 3830   6.767   4.731   5.750 -0.1338  0.1290 -0.1187
  778WAT      O 3831   7.067   4.820   5.587  0.0234  0.1127  0.1017
  778WAT     H1 3832   7.000   4.876   5.591 -0.0060  0.1887 -1.2027
  778WAT     H2 3833   7.075   4.804   5.502  0.8096 -0.9401  0.3627
  778WAT    EPW 3834   7.058   4.826   5.575  0.1352 -0.0316 -0.0524
  779WAT      O 3835   5.656   5.799   5.352  0.1122  0.9335  0.3996
  779WAT     H1 3836   5.669   5.791   5.438  1.5649 -1.4450  0.0754
  779WAT     H2 3837   5.730   5.768   5.318 -1.3894 -0.6014 -1.6930
  779WAT    EPW 3838   5.669   5.793   5.360  0.1050  0.3554  0.0426
  780WAT      O 3839   4.427   5.329   3.157  0.3720 -0.0037 -0.2436
  780WAT     H1 3840   4.484   5.346   3.093  0.6901  0.2930  0.1176
  780WAT     H2 3841   4.350   5.345   3.119  0.4770 -1.0269 -0.9299
  780WAT    EPW 3842   4.424   5.334   3.142  0.4345 -0.1110 -0.2916
  781WAT      O 3843   4.638   6.538   5.879  0.6259  0.3186 -0.6353
  781WAT     H1 3844   4.617   6.483   5.943 -0.9881  1.7607  0.1583
  781WAT     H2 3845   4.697   6.591   5.916  0.3627  0.6010 -0.6150
  781WAT    EPW 3846   4.643   6.538   5.894  0.3486  0.5733 -0.5151
  782WAT      O 3847   6.368   5.157   6.118 -0.0899 -0.1093  0.6463
  782WAT     H1 3848   6.438   5.123   6.157  0.8541  2.8455  1.7841
  782WAT     H2 3849   6.398   5.184   6.041 -0.4761 -0.4808  0.3553
  782WAT    EPW 3850   6.383   5.156   6.112 -0.0075  0.2723  0.7714
  783WAT      O 3851   6.168   5.793   6.704 -0.0537  0.5076 -0.2126
  783WAT     H1 3852   6.194   5.797   6.621 -0.8200  3.5375 -0.4265
  783WAT     H2 3853   6.229   5.837   6.747  0.9666 -2.0171  1.1361
  783WAT    EPW 3854   6.181   5.800   6.698 -0.0162  0.5822 -0.0450
  784WAT      O 3855   5.621   5.924   4.084 -0.5795  0.5817  0.2532
  784WAT     H1 3856   5.564   5.982   4.117 -0.5942  0.9099 -0.3358
  784WAT     H2 3857   5.665   5.970   4.025 -0.2200  0.1274  0.1606
  784WAT    EPW 3858   5.619   5.939   4.080 -0.5285  0.5630  0.1525
  785WAT      O 3859   6.608   5.642   3.341  0.6979  0.0088  0.2705
  785WAT     H1 3860   6.645   5.616   3.415 -0.4342 -0.8150  0.5636
  785WAT     H2 3861   6.661   5.706   3.313  0.7693  0.8200  2.1328
  785WAT    EPW 3862   6.622   5.648   3.348  0.5412  0.0069  0.5889
  786WAT      O 3863   6.781   6.784   7.437  0.0102 -0.2286 -0.1908
  786WAT     H1 3864   6.718   6.813   7.491  0.8544  0.7784  0.2984
  786WAT     H2 3865   6.758   6.817   7.360 -0.1977 -0.0822 -0.0685
  786WAT    EPW 3866   6.768   6.793   7.434  0.1042 -0.0582 -0.1005
  787WAT      O 3867   6.120   7.550   4.141 -0.3804 -0.1021  0.2784
  787WAT     H1 3868   6.058   7.549   4.079  0.2009  1.4500 -0.3688
  787WAT     H2 3869   6.162   7.625   4.128  1.3944 -0.8990  0.9568
  787WAT    EPW 3870   6.117   7.561   4.130 -0.0323  0.0095  0.2830
  788WAT      O 3871   6.219   6.001   3.748 -0.5820  0.4050 -0.3666
  788WAT     H1 3872   6.295   6.039   3.769 -0.5109 -0.0453  0.2432
  788WAT     H2 3873   6.226   5.986   3.663  0.6658 -0.9939 -0.0555
  788WAT    EPW 3874   6.231   6.004   3.739 -0.3872  0.1318 -0.2305
  789WAT      O 3875   5.371   5.840   3.101  0.1667  0.0082  0.3892
  789WAT     H1 3876   5.302   5.893   3.092 -0.3361 -0.2413  2.3434
  789WAT     H2 3877   5.435   5.894   3.127 -0.2029 -0.2197  1.8471
  789WAT    EPW 3878   5.370   5.856   3.104  0.0378 -0.0623  0.8932
  790WAT      O 3879   6.957   5.295   3.762  0.3247 -0.5238  0.8898
  790WAT     H1 3880   6.997   5.227   3.798  0.9057 -0.5907  0.1380
  790WAT     H2 3881   6.924   5.263   3.687 -0.8838 -0.3954  1.3428
  790WAT    EPW 3882   6.958   5.280   3.756  0.2320 -0.5147  0.8456
  791WAT      O 3883   4.832   5.600   4.614  0.0141 -0.1667  0.4519
  791WAT     H1 3884   4.813   5.572   4.694 -3.7459 -1.4888 -0.6749
  791WAT     H2 3885   4.850   5.527   4.570  2.6793  0.5915  0.0958
  791WAT    EPW 3886   4.832   5.585   4.619 -0.1477 -0.2500  0.2328
  792WAT      O 3887   6.177   5.812   7.138 -0.0897 -0.1564 -0.5012
  792WAT     H1 3888   6.152   5.729   7.132 -2.2336  0.4471 -0.4484
  792WAT     H2 3889   6.111   5.856   7.102  1.1575  1.5233 -0.8436
  792WAT    EPW 3890   6.164   5.806   7.132 -0.2222  0.1809 -0.5440
  793WAT      O 3891   5.023   6.069   6.659  0.1052  0.7892  0.3443
  793WAT     H1 3892   4.962   6.018   6.696  0.7972  1.3463  2.3553
  793WAT     H2 3893   4.982   6.145   6.648  0.0866  0.8082  0.5487
  793WAT    EPW 3894   5.008   6.073   6.663  0.2047  0.8743  0.6715
  794WAT      O 3895   5.665   4.270   5.129 -0.6374 -0.1750  0.6821
  794WAT     H1 3896   5.669   4.227   5.054 -0.0203 -0.4085  0.8450
  794WAT     H2 3897   5.735   4.322   5.127 -1.1259  0.4925  0.6868
  794WAT    EPW 3898   5.676   4.271   5.118 -0.6184 -0.1109  0.7069
  795WAT      O 3899   6.454   3.917   4.108 -0.0952  0.0122 -0.3589
  795WAT     H1 3900   6.444   3.875   4.183 -1.3855 -1.8968 -1.5345
  795WAT     H2 3901   6.533   3.892   4.081  0.3562  0.6750  0.3078
  795WAT    EPW 3902   6.464   3.907   4.115 -0.2191 -0.1719 -0.4341
  796WAT      O 3903   6.846   5.632   5.230  0.2683  0.4813  0.1590
  796WAT     H1 3904   6.872   5.630   5.314  1.4638  1.0082 -0.1806
  796WAT     H2 3905   6.900   5.690   5.194 -0.2495  0.2620 -0.9841
  796WAT    EPW 3906   6.858   5.640   5.237  0.3684  0.5267 -0.0600
  797WAT      O 3907   5.415   5.635   4.833 -0.0779  0.2600 -0.1062
  797WAT     H1 3908   5.477   5.695   4.818 -1.3503  1.9444  0.9400
  797WAT     H2 3909   5.375   5.628   4.755  1.3463 -0.8290 -0.7855
  797WAT    EPW 3910   5.418   5.643   4.819 -0.0555  0.3480 -0.0520
  798WAT      O 3911   6.844   6.254   5.005  0.3743  0.0041 -0.3704
  798WAT     H1 3912   6.896   6.324   5.010  1.4067 -0.8081  4.2420
  798WAT     H2 3913   6.890   6.198   4.957  2.9226  0.1311  1.6814
  798WAT    EPW 3914   6.858   6.256   4.999  0.9032 -0.0971  0.6141
  799WAT      O 3915   5.431   6.866   4.791 -0.6341 -0.2561 -0.2864
  799WAT     H1 3916   5.512   6.835   4.779 -0.4796 -0.2008  0.5647
  799WAT     H2 3917   5.398   6.815   4.854 -1.1189 -0.0283 -0.3536
  799WAT    EPW 3918   5.438   6.854   4.799 -0.6829 -0.2143 -0.1706
  800WAT      O 3919   5.682   5.616   3.381 -0.3140 -0.1103  0.4451
  800WAT     H1 3920   5.636   5.690   3.378  1.9913  1.3598 -1.9706
  800WAT     H2 3921   5.737   5.629   3.448 -1.2613 -0.5814  1.3495
  800WAT    EPW 3922   5.683   5.629   3.391 -0.1134  0.0373  0.2219
  801WAT      O 3923   6.455   6.278   4.185 -0.3203  0.0704  0.4766
  801WAT     H1 3924   6.424   6.355   4.157 -0.4544  0.2075  0.9865
  801WAT     H2 3925   6.407   6.261   4.256  1.6245  0.9471  2.0956
  801WAT    EPW 3926   6.443   6.287   4.191 -0.0528  0.2202  0.7911
  802WAT      O 3927   5.307   6.233   4.228  0.5943 -0.1273  0.1573
  802WAT     H1 3928   5.314   6.233   4.315  2.0289  1.1979  0.0889
  802WAT     H2 3929   5.268   6.158   4.211 -1.9633  0.6304  2.0905
  802WAT    EPW 3930   5.303   6.222   4.238  0.4284  0.1804  0.4328
  803WAT      O 3931   6.115   5.574   4.308  0.1104  0.3874  0.0375
  803WAT     H1 3932   6.090   5.642   4.259  0.5789  0.7581  0.3023
  803WAT     H2 3933   6.192   5.599   4.340 -0.1449  0.1157  0.8870
  803WAT    EPW 3934   6.122   5.588   4.305  0.1419  0.4021  0.2021
  804WAT      O 3935   6.374   5.604   4.469  0.5966 -0.3921 -0.0435
  804WAT     H1 3936   6.410   5.569   4.398 -0.8636  0.6209 -1.3478
  804WAT     H2 3937   6.420   5.677   4.482  0.2402 -0.0651 -0.5729
  804WAT    EPW 3938   6.386   5.609   4.461  0.3283 -0.1942 -0.3143
  805WAT      O 3939   6.277   5.902   4.043 -0.2024  0.0119  0.3451
  805WAT     H1 3940   6.315   5.942   3.976 -0.9254  0.5841  0.2587
  805WAT     H2 3941   6.275   5.818   4.019 -0.5047  0.2174 -0.3837
  805WAT    EPW 3942   6.282   5.895   4.030 -0.3539  0.1268  0.2247
  806WAT      O 3943   6.796   6.173   4.473  0.4646 -0.0709  0.2450
  806WAT     H1 3944   6.784   6.255   4.445  0.0637 -0.6716 -1.4230
  806WAT     H2 3945   6.825   6.131   4.402 -0.6647 -1.6962  0.7038
  806WAT    EPW 3946   6.799   6.179   4.459  0.2385 -0.3997  0.0663
  807WAT      O 3947   6.886   4.873   4.026 -0.2858  0.2397 -0.1984
  807WAT     H1 3948   6.825   4.827   4.067  0.1147  0.0275  0.1663
  807WAT     H2 3949   6.936   4.812   3.988 -0.8928  0.4404 -1.3696
  807WAT    EPW 3950   6.884   4.857   4.026 -0.3163  0.2380 -0.3176
  808WAT      O 3951   4.469   5.810   6.271 -0.0695  0.4267  0.0328
  808WAT     H1 3952   4.385   5.786   6.272  0.1856 -0.5703  1.4528
  808WAT     H2 3953   4.511   5.734   6.274  0.8577  0.9356  0.2299
  808WAT    EPW 3954   4.463   5.795   6.272  0.1052  0.3546  0.2716
  809WAT      O 3955   6.549   6.004   4.763 -0.8221  0.0729 -0.2670
  809WAT     H1 3956   6.468   6.019   4.735 -1.2540 -2.2412 -0.5093
  809WAT     H2 3957   6.539   5.986   4.847 -0.4671  0.3559 -0.1615
  809WAT    EPW 3958   6.535   6.003   4.771 -0.8335 -0.2271 -0.2872
  810WAT      O 3959   6.091   4.733   7.375 -0.3567  0.3442 -0.6698
  810WAT     H1 3960   6.017   4.711   7.415  0.5507  0.7768  1.3884
  810WAT     H2 3961   6.065   4.785   7.310 -1.8130  1.3626  0.6573
  810WAT    EPW 3962   6.076   4.737   7.371 -0.4378  0.5585 -0.1697
  811WAT      O 3963   6.027   5.577   6.837 -0.2808 -0.2554 -0.1047
  811WAT     H1 3964   6.015   5.574   6.923  0.5909  0.8760  0.0676
  811WAT     H2 3965   6.078   5.646   6.825  0.1061 -0.7474 -1.4793
  811WAT    EPW 3966   6.032   5.587   6.848 -0.0949 -0.1610 -0.2823
  812WAT      O 3967   4.852   3.815   6.203 -0.2181 -0.0280 -0.9171
  812WAT     H1 3968   4.830   3.777   6.127  2.0464 -1.6072 -0.8847
  812WAT     H2 3969   4.868   3.748   6.256  1.5239  0.9795 -0.0836
  812WAT    EPW 3970   4.851   3.799   6.199  0.3738 -0.1124 -0.7892
  813WAT      O 3971   6.749   4.538   4.813 -0.8526  0.6880  0.6380
  813WAT     H1 3972   6.768   4.512   4.732 -1.1558  1.7464  0.2098
  813WAT     H2 3973   6.743   4.464   4.858  4.1837  0.0162  0.8714
  813WAT    EPW 3974   6.751   4.524   4.808 -0.1534  0.7451  0.6092
  814WAT      O 3975   6.782   0.046   4.341 -0.1655 -0.2973  0.0190
  814WAT     H1 3976   6.824  -0.027   4.364 -0.1084 -0.1215  0.4762
  814WAT     H2 3977   6.723   0.056   4.404 -1.0131 -0.6356 -0.7058
  814WAT    EPW 3978   6.780   0.037   4.354 -0.2823 -0.3213 -0.0205
  815WAT      O 3979   6.420   5.106   4.395  0.0413 -0.5790  0.0744
  815WAT     H1 3980   6.412   5.180   4.441  0.8449  0.2900 -1.1162
  815WAT     H2 3981   6.376   5.048   4.442  0.9618  0.2070  2.0285
  815WAT    EPW 3982   6.413   5.109   4.408  0.2960 -0.3345  0.1872
  816WAT      O 3983   6.436   6.933   4.967  0.4019  0.1584 -0.0741
  816WAT     H1 3984   6.480   6.865   4.999 -1.8565 -1.1675  0.4190
  816WAT     H2 3985   6.392   6.900   4.900  0.8882  1.6750 -1.1943
  816WAT    EPW 3986   6.436   6.918   4.962  0.1401  0.1866 -0.1667
  817WAT      O 3987   5.822   5.992   4.738  0.2018 -0.0191  0.0466
  817WAT     H1 3988   5.786   6.046   4.796 -0.9737  0.5128 -1.1206
  817WAT     H2 3989   5.835   5.919   4.784 -1.0025  0.2645  0.9014
  817WAT    EPW 3990   5.819   5.989   4.754 -0.1497  0.1014  0.0005
  818WAT      O 3991   6.846   5.745   3.752  0.5108 -0.2531  0.2506
  818WAT     H1 3992   6.864   5.826   3.725  0.2189  0.2014  1.3623
  818WAT     H2 3993   6.838   5.699   3.677  1.1493  0.6282 -0.3754
  818WAT    EPW 3994   6.848   5.750   3.737  0.5620 -0.0558  0.3223
  819WAT      O 3995   5.989   5.701   4.584  0.2380 -0.1376 -0.3029
  819WAT     H1 3996   6.040   5.642   4.546  1.8988  0.4863  0.8672
  819WAT     H2 3997   5.956   5.746   4.517  0.9420 -0.7719 -1.0952
  819WAT    EPW 3998   5.992   5.699   4.569  0.5873 -0.1391 -0.2471
  820WAT      O 3999   6.760   4.452   3.840 -0.0791 -0.4507  0.5819
  820WAT     H1 4000   6.698   4.401   3.806  1.3536 -1.5031 -0.5541
  820WAT     H2 4001   6.737   4.532   3.815 -0.8178 -0.8567 -0.0702
  820WAT    EPW 4002   6.747   4.456   3.831  0.0234 -0.6661  0.3178
  821WAT      O 4003   6.206   4.413   5.195  0.2574  0.2692  0.0051
  821WAT     H1 4004   6.185   4.429   5.111  0.5569 -2.9129 -0.8103
  821WAT     H2 4005   6.153   4.347   5.216  1.2614  0.0156  1.8482
  821WAT    EPW 4006   6.195   4.405   5.186  0.4500 -0.2383  0.1569
  822WAT      O 4007   6.687   6.406   4.342  0.3857 -0.2582  0.0269
  822WAT     H1 4008   6.630   6.383   4.280  0.9765  0.6509 -0.8886
  822WAT     H2 4009   6.660   6.486   4.364  1.5200  0.3376 -0.6917
  822WAT    EPW 4010   6.674   6.415   4.336  0.6406 -0.0359 -0.2145
  823WAT      O 4011   6.556   1.228   7.791  0.1477 -0.7128  0.8234
  823WAT     H1 4012   6.574   1.172   7.855 -0.3913  0.6596  2.2301
  823WAT     H2 4013   6.470   1.222   7.782  0.1566 -0.5080  0.6064
  823WAT    EPW 4014   6.546   1.219   7.799  0.0694 -0.4798  0.9992
  824WAT      O 4015   6.825   4.052   5.551 -0.0196  0.6500  0.0070
  824WAT     H1 4016   6.878   4.119   5.570  0.3837  0.5875 -0.8554
  824WAT     H2 4017   6.829   4.001   5.622 -0.2274  1.4664  0.6200
  824WAT    EPW 4018   6.834   4.054   5.564  0.0093  0.7613 -0.0298
  825WAT      O 4019   4.939   6.870   5.039  0.2415 -0.3846 -0.2202
  825WAT     H1 4020   4.883   6.842   5.100 -1.8017  0.4500 -1.6186
  825WAT     H2 4021   4.929   6.811   4.975  1.8683 -0.8685 -0.0801
  825WAT    EPW 4022   4.929   6.857   5.038  0.1800 -0.3328 -0.4061
  826WAT      O 4023   6.725   5.649   7.202 -0.1624  0.0510 -0.0382
  826WAT     H1 4024   6.728   5.736   7.196 -0.6459  0.1071  0.4927
  826WAT     H2 4025   6.810   5.626   7.200  0.0161  0.5932  0.5675
  826WAT    EPW 4026   6.738   5.659   7.201 -0.2074  0.1394  0.1297
  827WAT      O 4027   6.970   4.562   5.749 -0.8138  1.0136  0.3133
  827WAT     H1 4028   7.041   4.604   5.720 -1.9890  3.0112  0.1942
  827WAT     H2 4029   6.933   4.530   5.677  0.5899 -1.2398  0.4793
  827WAT    EPW 4030   6.975   4.563   5.734 -0.7800  0.9758  0.3203
  828WAT      O 4031   6.808   5.352   3.099  0.1729 -0.6502  0.3947
  828WAT     H1 4032   6.732   5.310   3.106 -0.0725 -0.4665 -0.9037
  828WAT     H2 4033   6.867   5.288   3.097  0.0873 -0.7893  1.5355
  828WAT    EPW 4034   6.806   5.336   3.100  0.1240 -0.6436  0.3714
  829WAT      O 4035   5.168   7.043   4.030 -0.0511 -0.0276  0.0956
  829WAT     H1 4036   5.114   6.975   4.038 -1.9184  1.3103 -0.5840
  829WAT     H2 4037   5.236   7.020   4.080 -0.1412 -2.7918 -0.8615
  829WAT    EPW 4038   5.170   7.030   4.039 -0.3403 -0.2383 -0.1462
  830WAT      O 4039   6.466   6.551   4.073  0.2518 -0.1921  0.4720
  830WAT     H1 4040   6.429   6.628   4.088 -1.8087 -0.7865 -0.9997
  830WAT     H2 4041   6.529   6.568   4.016 -1.0017  0.3222 -0.8276
  830WAT    EPW 4042   6.470   6.565   4.066 -0.2378 -0.2039  0.0626
  831WAT      O 4043   6.349   5.395   7.093 -0.2424 -0.7345  0.0526
  831WAT     H1 4044   6.420   5.344   7.100  0.8682  0.7999  0.4916
  831WAT     H2 4045   6.306   5.361   7.025 -0.8665 -3.7468  1.7699
  831WAT    EPW 4046   6.353   5.382   7.084 -0.1705 -0.9528  0.3711
  832WAT      O 4047   6.186   5.901   4.599 -0.0837 -0.5939 -0.0928
  832WAT     H1 4048   6.202   5.918   4.515 -0.6523  0.4981  0.0012
  832WAT     H2 4049   6.112   5.854   4.597 -0.1827 -0.4365 -0.2086
  832WAT    EPW 4050   6.177   5.897   4.587 -0.1823 -0.4093 -0.0960
  833WAT      O 4051   7.056   6.953   6.202 -0.0586  0.2104  0.1710
  833WAT     H1 4052   7.094   7.018   6.246 -0.7019 -0.2500  1.4544
  833WAT     H2 4053   7.075   6.882   6.250  1.2385 -0.7061 -1.5680
  833WAT    EPW 4054   7.065   6.952   6.216  0.0380  0.0070  0.1037
  834WAT      O 4055   5.909   6.427   2.910 -0.1903  0.3223  0.5161
  834WAT     H1 4056   5.944   6.350   2.888 -1.3965  0.2988 -1.6124
  834WAT     H2 4057   5.969   6.463   2.963  1.7659 -0.8129 -0.8125
  834WAT    EPW 4058   5.923   6.421   2.915 -0.0795  0.1511  0.0054
  835WAT      O 4059   6.149   4.515   6.061  0.3777 -0.3804  0.7743
  835WAT     H1 4060   6.226   4.475   6.064  0.2114 -0.8000 -0.0549
  835WAT     H2 4061   6.094   4.451   6.037 -0.0473  0.1443  0.3077
  835WAT    EPW 4062   6.152   4.499   6.058  0.2904 -0.3649  0.5829
  836WAT      O 4063   6.385   3.726   4.359 -0.1638  0.4297  0.7382
  836WAT     H1 4064   6.344   3.653   4.381  0.3529 -0.1813 -0.2495
  836WAT     H2 4065   6.441   3.740   4.425  0.5976 -0.7589  0.3737
  836WAT    EPW 4066   6.387   3.718   4.372  0.0250  0.1639  0.5385
  837WAT      O 4067   6.715   5.236   5.467  0.8021  0.3518 -0.1544
  837WAT     H1 4068   6.754   5.200   5.536 -2.1167 -0.1580  1.3715
  837WAT     H2 4069   6.688   5.314   5.497 -1.0003 -0.1069 -0.4729
  837WAT    EPW 4070   6.717   5.242   5.481  0.1047  0.2087  0.0239
  838WAT      O 4071   6.982   6.833   4.882 -0.1667 -0.6179  0.3122
  838WAT     H1 4072   7.041   6.895   4.865  1.0441 -1.7104  0.2987
  838WAT     H2 4073   6.963   6.845   4.966  1.0626 -0.9963  0.6730
  838WAT    EPW 4074   6.988   6.844   4.892  0.1937 -0.8352  0.3635
  839WAT      O 4075   5.260   4.886   6.051 -0.3280  0.2788 -0.1428
  839WAT     H1 4076   5.200   4.933   6.009  0.8401 -0.2695 -2.5582
  839WAT     H2 4077   5.294   4.836   5.989 -1.0568 -3.3924  2.1442
  839WAT    EPW 4078   5.256   4.886   6.036 -0.2631 -0.3445 -0.1617
  840WAT      O 4079   5.899   7.060   4.893  0.3839  0.2390  0.2059
  840WAT     H1 4080   5.939   6.986   4.870  0.3064  0.8250 -2.0595
  840WAT     H2 4081   5.935   7.080   4.969  1.9442 -1.0210 -0.1433
  840WAT    EPW 4082   5.910   7.052   4.901  0.6030  0.1394 -0.1803
  841WAT      O 4083   6.430   5.073   4.715 -0.5246 -0.2850 -0.1331
  841WAT     H1 4084   6.510   5.083   4.682 -0.0858 -0.3283  0.8649
  841WAT     H2 4085   6.436   4.999   4.760 -0.6019  0.5800  1.3665
  841WAT    EPW 4086   6.442   5.064   4.717 -0.4712 -0.1636  0.2358
  842WAT      O 4087   6.276   6.758   3.917 -0.0794  0.2465  0.0430
  842WAT     H1 4088   6.317   6.824   3.878  1.5092 -0.2641  0.7557
  842WAT     H2 4089   6.247   6.792   3.992 -2.1677  0.9401 -1.0108
  842WAT    EPW 4090   6.278   6.773   3.922 -0.1532  0.2736 -0.0074
  843WAT      O 4091   4.605   6.143   3.007  0.1197 -0.2407  0.5976
  843WAT     H1 4092   4.605   6.193   3.078  0.9650  0.7693 -0.0921
  843WAT     H2 4093   4.630   6.197   2.943 -0.1032 -1.2512 -0.3855
  843WAT    EPW 4094   4.609   6.159   3.008  0.2116 -0.2408  0.3505
  844WAT      O 4095   7.066   5.933   6.636  0.7619  0.0018  0.1099
  844WAT     H1 4096   7.025   5.901   6.707 -0.5049  0.7338 -0.2634
  844WAT     H2 4097   7.066   5.866   6.581 -2.8388  0.7738 -1.0786
  844WAT    EPW 4098   7.060   5.918   6.639  0.0428  0.2240 -0.1208
  845WAT      O 4099   6.270   5.974   4.333 -0.1723  0.2654  0.5011
  845WAT     H1 4100   6.289   5.971   4.248 -1.5619 -1.0990  0.1977
  845WAT     H2 4101   6.347   5.994   4.370  0.7704 -0.4629 -0.9579
  845WAT    EPW 4102   6.284   5.977   4.326 -0.2383 -0.0437  0.2408
  846WAT      O 4103   4.573   7.008   5.145 -0.1687 -0.4935  0.1882
  846WAT     H1 4104   4.622   6.941   5.172 -1.5239 -1.7757 -0.3621
  846WAT     H2 4105   4.627   7.054   5.095  0.8845 -1.0130  0.8181
  846WAT    EPW 4106   4.588   7.005   5.141 -0.2133 -0.7597  0.2000
  847WAT      O 4107   5.681   5.265   5.292  0.4244 -0.1771 -0.0881
  847WAT     H1 4108   5.684   5.245   5.377  1.0935  1.4896  0.3081
  847WAT     H2 4109   5.732   5.335   5.285  0.1329 -0.0882 -1.8282
  847WAT    EPW 4110   5.689   5.272   5.303  0.4802  0.0823 -0.2867
  848WAT      O 4111   6.036   7.337   6.136 -0.2238 -0.0029  0.1013
  848WAT     H1 4112   6.069   7.368   6.062 -1.7932  0.0675 -0.6072
  848WAT     H2 4113   5.955   7.371   6.138  0.1219  0.8520  2.3797
  848WAT    EPW 4114   6.029   7.347   6.125 -0.4046  0.1338  0.3332
  849WAT      O 4115   6.034   6.104   5.234  0.5653  0.0920 -0.1003
  849WAT     H1 4116   6.083   6.172   5.209  3.7235 -2.3365 -1.0623
  849WAT     H2 4117   5.954   6.139   5.239  1.5690  3.4006 -2.7231
  849WAT    EPW 4118   6.029   6.119   5.231  1.1801  0.2220 -0.6299
  850WAT      O 4119   6.762   6.579   6.560 -0.7600  0.3534 -0.4601
  850WAT     H1 4120   6.685   6.537   6.563  0.3389 -1.7436  1.7599
  850WAT     H2 4121   6.821   6.515   6.568  1.1536  2.0982  0.2791
  850WAT    EPW 4122   6.759   6.563   6.561 -0.3150  0.3013 -0.0229
  851WAT      O 4123   5.626   4.910   5.728 -0.1538  0.0278  0.2599
  851WAT     H1 4124   5.612   4.985   5.770  2.4538  0.5697  0.3564
  851WAT     H2 4125   5.700   4.925   5.683 -0.1607 -2.1244 -0.6063
  851WAT    EPW 4126   5.635   4.923   5.727  0.2304 -0.2101  0.1462
  852WAT      O 4127   6.149   5.919   3.183  0.3667 -0.3862  0.4090
  852WAT     H1 4128   6.082   5.972   3.168  0.8251  0.0793 -0.0386
  852WAT     H2 4129   6.173   5.939   3.265 -0.0968 -0.6293  0.6069
  852WAT    EPW 4130   6.143   5.930   3.193  0.3659 -0.3534  0.3721
  853WAT      O 4131   6.658   5.109   3.835 -0.0059 -0.7327 -0.0388
  853WAT     H1 4132   6.673   5.085   3.917  1.7113 -1.4643 -0.5233
  853WAT     H2 4133   6.571   5.118   3.831 -0.4195 -3.3782  1.1243
  853WAT    EPW 4134   6.647   5.107   3.847  0.1867 -1.2316  0.0615
  854WAT      O 4135   5.799   5.046   4.845  0.5045  0.1155 -0.5047
  854WAT     H1 4136   5.802   5.010   4.925 -2.0378  1.4508  0.3048
  854WAT     H2 4137   5.871   5.095   4.842  0.4052  0.4524  1.2383
  854WAT    EPW 4138   5.810   5.048   4.856  0.1143  0.3625 -0.1276
  855WAT      O 4139   5.279   5.417   3.839  0.5723 -0.1642  0.8743
  855WAT     H1 4140   5.297   5.334   3.820  0.0400 -0.0350 -0.3072
  855WAT     H2 4141   5.230   5.411   3.911  0.0729 -0.9275  0.4935
  855WAT    EPW 4142   5.274   5.404   3.847  0.4199 -0.2578  0.6435
  856WAT      O 4143   6.777   5.193   6.468  0.5160  0.4507  0.2549
  856WAT     H1 4144   6.696   5.214   6.442  0.7968  0.4605 -0.6506
  856WAT     H2 4145   6.766   5.172   6.552 -0.8018 -1.6639 -0.3760
  856WAT    EPW 4146   6.763   5.193   6.477  0.3628  0.1398  0.0280
  857WAT      O 4147   6.511   5.177   5.849  0.3410 -0.1460 -0.0036
  857WAT     H1 4148   6.525   5.111   5.794  0.4825 -0.1093 -0.0133
  857WAT     H2 4149   6.481   5.240   5.797 -3.5392 -1.3592  0.4961
  857WAT    EPW 4150   6.509   5.177   5.833 -0.2113 -0.3198  0.0688
  858WAT      O 4151   5.605   4.310   5.990 -0.5232  0.0824  0.4078
  858WAT     H1 4152   5.607   4.224   6.004  0.4168  0.0844  0.3096
  858WAT     H2 4153   5.670   4.323   5.934 -0.6829  0.8565  0.3986
  858WAT    EPW 4154   5.615   4.299   5.984 -0.4079  0.1970  0.3919
  859WAT      O 4155   6.218   6.448   5.896 -0.2696 -0.4855 -0.8421
  859WAT     H1 4156   6.159   6.505   5.866 -0.4127 -1.0518 -1.6576
  859WAT     H2 4157   6.221   6.465   5.981  0.6153  1.6239 -1.2320
  859WAT    EPW 4158   6.210   6.459   5.904 -0.1600 -0.2575 -1.0202
  860WAT      O 4159   6.776   5.765   4.708 -0.6450 -0.4444 -0.1853
  860WAT     H1 4160   6.776   5.852   4.718 -1.1107 -0.3588 -0.8481
  860WAT     H2 4161   6.832   5.753   4.641  1.8092 -0.9271  1.8046
  860WAT    EPW 4162   6.784   5.776   4.699 -0.3513 -0.5030  0.0107
  861WAT      O 4163   5.755   5.330   3.726  0.2360 -0.1524  0.1728
  861WAT     H1 4164   5.680   5.371   3.711  1.4103  1.4103 -1.9488
  861WAT     H2 4165   5.765   5.336   3.813 -1.7823  0.0864  0.4226
  861WAT    EPW 4166   5.746   5.337   3.737  0.1114  0.1137 -0.1037
  862WAT      O 4167   7.122   5.729   6.147 -0.0119 -0.3505 -0.1636
  862WAT     H1 4168   7.107   5.793   6.089 -1.6072 -0.8759 -0.3824
  862WAT     H2 4169   7.195   5.755   6.188  0.1840  0.8780 -1.2332
  862WAT    EPW 4170   7.130   5.742   6.145 -0.2186 -0.2466 -0.3539
  863WAT      O 4171   5.495   5.289   5.102  0.0086  0.8051 -0.5693
  863WAT     H1 4172   5.467   5.371   5.116  2.8351  2.1569 -1.9751
  863WAT     H2 4173   5.546   5.273   5.171 -0.1345  0.4381 -0.5497
  863WAT    EPW 4174   5.499   5.299   5.115  0.4050  0.9506 -0.7741
  864WAT      O 4175   5.931   3.863   5.292  0.2584 -0.3251 -0.8513
  864WAT     H1 4176   5.993   3.825   5.341 -0.5011 -0.3063  0.1448
  864WAT     H2 4177   5.862   3.810   5.301 -0.7368  1.0988  0.3349
  864WAT    EPW 4178   5.930   3.850   5.301 -0.0008 -0.1120 -0.5289
  865WAT      O 4179   6.556   6.210   5.443 -0.1811 -0.0571 -0.8275
  865WAT     H1 4180   6.521   6.151   5.497 -0.2880  1.0966  0.4051
  865WAT     H2 4181   6.521   6.190   5.366 -3.1055  0.5797  0.1876
  865WAT    EPW 4182   6.545   6.199   5.440 -0.6289  0.2074 -0.4955
  866WAT      O 4183   6.136   5.352   4.139 -0.1458 -0.6084 -0.3343
  866WAT     H1 4184   6.147   5.418   4.195 -2.0352  1.5274 -2.2703
  866WAT     H2 4185   6.205   5.301   4.154  1.2032  1.5722  1.5734
  866WAT    EPW 4186   6.148   5.354   4.150 -0.2256  0.0292 -0.3385
  867WAT      O 4187   6.374   4.799   3.868  0.1379  0.4018  0.0067
  867WAT     H1 4188   6.330   4.724   3.864  0.6212  0.0724  0.6250
  867WAT     H2 4189   6.377   4.816   3.954 -4.1017  3.6052 -0.1675
  867WAT    EPW 4190   6.368   4.791   3.880 -0.4170  0.8264  0.0723
  868WAT      O 4191   6.824   5.360   3.987  0.3495  0.2471  0.0258
  868WAT     H1 4192   6.791   5.286   4.019  1.2275 -0.2038 -0.0770
  868WAT     H2 4193   6.871   5.333   3.918  3.3182  0.4490  1.8130
  868WAT    EPW 4194   6.826   5.345   3.981  0.9177  0.2103  0.2746
  869WAT      O 4195   7.065   4.203   7.072 -0.6210  0.1061 -0.1342
  869WAT     H1 4196   7.034   4.123   7.088 -2.6202  0.8470 -0.0124
  869WAT     H2 4197   7.115   4.193   7.002 -1.8455 -1.0500 -0.8782
  869WAT    EPW 4198   7.068   4.190   7.064 -1.0972  0.0448 -0.2261
  870WAT      O 4199   6.852   6.486   5.651 -0.1186 -0.2178 -0.2361
  870WAT     H1 4200   6.916   6.430   5.628  0.9037  0.2350  1.3491
  870WAT     H2 4201   6.811   6.444   5.715 -3.4709 -1.8400 -3.0984
  870WAT    EPW 4202   6.855   6.471   5.657 -0.4628 -0.3906 -0.4247
  871WAT      O 4203   6.918   5.515   6.143 -0.4318  0.0009 -0.0634
  871WAT     H1 4204   6.991   5.556   6.168 -1.0508  0.1700  1.6271
  871WAT     H2 4205   6.929   5.434   6.173 -0.4377 -0.2891 -0.8459
  871WAT    EPW 4206   6.930   5.509   6.151 -0.5241 -0.0169  0.0707
  872WAT      O 4207   6.409   5.371   7.750 -0.0473  0.4458  0.6497
  872WAT     H1 4208   6.456   5.308   7.786 -2.5366 -0.7776  2.0185
  872WAT     H2 4209   6.398   5.429   7.815  0.0401  0.9931  0.1895
  872WAT    EPW 4210   6.414   5.370   7.765 -0.4021  0.3459  0.7839
  873WAT      O 4211   6.629   4.690   3.793  0.2888  0.5076  0.0666
  873WAT     H1 4212   6.553   4.724   3.819 -0.5748 -1.3637  0.0868
  873WAT     H2 4213   6.658   4.748   3.735 -0.8751  1.5339  0.4589
  873WAT    EPW 4214   6.622   4.704   3.789 -0.0107  0.3828  0.1276
  874WAT      O 4215   6.526   4.223   2.747  0.0938 -0.6606  0.0227
  874WAT     H1 4216   6.580   4.253   2.809 -1.2625 -0.4261  1.1274
  874WAT     H2 4217   6.447   4.232   2.782 -0.7538 -0.2699 -1.8472
  874WAT    EPW 4218   6.522   4.229   2.761 -0.2318 -0.5682 -0.0903
  875WAT      O 4219   6.368   6.666   7.054 -0.1856  0.0059  0.3382
  875WAT     H1 4220   6.387   6.730   7.110  0.6749 -0.0017  0.0676
  875WAT     H2 4221   6.342   6.601   7.107 -1.8360  0.7868  0.5749
  875WAT    EPW 4222   6.367   6.666   7.070 -0.3023  0.1202  0.3332
  876WAT      O 4223   5.946   5.752   5.268  0.0688  0.1738 -0.5160
  876WAT     H1 4224   6.020   5.715   5.297  0.3879 -0.2272 -1.7514
  876WAT     H2 4225   5.973   5.830   5.240 -0.1963  0.4804  0.0767
  876WAT    EPW 4226   5.961   5.758   5.268  0.0768  0.1598 -0.6109
  877WAT      O 4227   4.666   4.906   6.256 -0.4039  0.7556 -1.1264
  877WAT     H1 4228   4.744   4.911   6.218 -0.3945  4.0239 -0.9098
  877WAT     H2 4229   4.611   4.922   6.190 -0.8015  0.2852 -0.9151
  877WAT    EPW 4230   4.669   4.909   6.241 -0.4612  1.1689 -1.0632
  878WAT      O 4231   7.177   6.992   4.700  0.2323 -0.0490  0.0953
  878WAT     H1 4232   7.136   6.985   4.624  0.1568 -1.5065  0.2549
  878WAT     H2 4233   7.260   6.974   4.681 -0.0598 -2.1043  0.6149
  878WAT    EPW 4234   7.183   6.989   4.686  0.1780 -0.5679  0.1956
  879WAT      O 4235   4.520   5.908   6.532 -0.9720 -0.5174 -0.0723
  879WAT     H1 4236   4.518   5.884   6.448  0.3950 -1.6475  0.1817
  879WAT     H2 4237   4.530   5.833   6.575 -2.4351 -0.0351  1.1845
  879WAT    EPW 4238   4.522   5.894   6.526 -0.9862 -0.6131  0.1509
  880WAT      O 4239   6.591   2.587   6.599  0.4864  0.1344 -0.7568
  880WAT     H1 4240   6.635   2.634   6.658 -2.8919  1.2173  1.1981
  880WAT     H2 4241   6.560   2.519   6.645  1.2189 -1.3873 -2.3871
  880WAT    EPW 4242   6.593   2.584   6.614  0.0956  0.0696 -0.7088
  881WAT      O 4243   6.962   5.822   4.066 -0.5398  0.1951  0.0832
  881WAT     H1 4244   6.960   5.750   4.116 -5.3831  0.1904  0.3151
  881WAT     H2 4245   6.955   5.792   3.985 -0.8591  0.3576  0.0488
  881WAT    EPW 4246   6.961   5.807   4.062 -1.3024  0.2184  0.1124
  882WAT      O 4247   5.891   5.655   6.385  0.0042  0.1385  0.3008
  882WAT     H1 4248   5.858   5.664   6.465  0.9875  0.9134  0.6572
  882WAT     H2 4249   5.938   5.728   6.374  1.2091 -0.6869 -0.3320
  882WAT    EPW 4250   5.893   5.667   6.395  0.3275  0.1311  0.2600
  883WAT      O 4251   6.632   3.833   4.489  0.0528  0.2754  0.1257
  883WAT     H1 4252   6.681   3.761   4.497 -1.9063 -0.9763  1.9149
  883WAT     H2 4253   6.643   3.874   4.565  1.2736  2.0573 -0.9266
  883WAT    EPW 4254   6.641   3.829   4.501 -0.0562  0.3537  0.2345
  884WAT      O 4255   6.962   6.791   4.472 -0.6043 -0.0083  0.3117
  884WAT     H1 4256   7.020   6.725   4.472 -0.4892  0.0808  1.0003
  884WAT     H2 4257   6.909   6.772   4.406  0.5401  0.2042 -0.6911
  884WAT    EPW 4258   6.963   6.778   4.462 -0.4182  0.0362  0.2653
  885WAT      O 4259   6.042   5.031   5.424 -0.3692 -0.2626  0.5159
  885WAT     H1 4260   5.971   5.068   5.390 -0.0480  1.0251  1.1922
  885WAT     H2 4261   6.013   4.998   5.500 -0.4938 -0.7633  0.2535
  885WAT    EPW 4262   6.027   5.032   5.430 -0.3402 -0.1463  0.5770
  886WAT      O 4263   6.288   6.547   4.739 -0.4748 -0.3560  0.2163
  886WAT     H1 4264   6.356   6.492   4.734 -1.0485 -1.3313  2.0056
  886WAT     H2 4265   6.221   6.500   4.708 -0.5049  0.3160 -0.7782
  886WAT    EPW 4266   6.288   6.532   4.734 -0.5640 -0.4008  0.3337
  887WAT      O 4267   6.857   6.494   4.679  0.1003  0.0621 -0.0713
  887WAT     H1 4268   6.865   6.488   4.766 -0.0421  0.1625 -0.0517
  887WAT     H2 4269   6.780   6.533   4.668  0.6570  1.1397 -0.2265
  887WAT    EPW 4270   6.847   6.499   4.690  0.1615  0.2361 -0.0913
  888WAT      O 4271   5.911   5.753   4.853  0.4545  0.2900 -0.0621
  888WAT     H1 4272   5.874   5.678   4.880 -0.5036  0.6974 -0.2137
  888WAT     H2 4273   5.930   5.737   4.769 -2.7091  1.2269 -1.1052
  888WAT    EPW 4274   5.908   5.739   4.845 -0.1543  0.4886 -0.2385
  889WAT      O 4275   6.925   4.194   6.157 -0.0057  0.1399  0.4319
  889WAT     H1 4276   6.969   4.122   6.137 -0.5263 -0.3957  1.1561
  889WAT     H2 4277   6.930   4.243   6.085 -0.8698 -1.2238 -0.5915
  889WAT    EPW 4278   6.932   4.191   6.143 -0.2102 -0.1406  0.3877
  890WAT      O 4279   6.943   5.488   5.841 -0.1118 -0.0593  0.2956
  890WAT     H1 4280   6.938   5.569   5.810 -0.7603 -1.2043 -2.9896
  890WAT     H2 4281   6.927   5.497   5.926 -0.8599  3.1455 -0.0767
  890WAT    EPW 4282   6.940   5.501   5.849 -0.3181  0.2450 -0.2447
  891WAT      O 4283   6.418   4.793   4.849  0.3312 -0.1573 -0.2044
  891WAT     H1 4284   6.335   4.801   4.822  0.2787  2.9672  0.4466
  891WAT     H2 4285   6.411   4.796   4.936  1.1374  1.8724 -0.1501
  891WAT    EPW 4286   6.405   4.795   4.858  0.4425  0.6041 -0.1002
  892WAT      O 4287   5.484   5.092   6.972 -0.7606  0.0651 -0.2660
  892WAT     H1 4288   5.536   5.162   6.980 -0.3011 -0.1618 -1.1027
  892WAT     H2 4289   5.422   5.120   6.918 -0.0403 -0.4419 -1.3963
  892WAT    EPW 4290   5.483   5.107   6.965 -0.5863 -0.0433 -0.5566
  893WAT      O 4291   5.636   6.115   4.379  0.6524 -0.1128  0.9832
  893WAT     H1 4292   5.649   6.154   4.302 -0.2721  2.4795  2.0203
  893WAT     H2 4293   5.644   6.030   4.361  0.5854  0.3990 -1.9283
  893WAT    EPW 4294   5.639   6.108   4.365  0.5060  0.3457  0.7063
  894WAT      O 4295   6.690   6.632   3.903  0.1197 -0.0923 -0.4637
  894WAT     H1 4296   6.750   6.571   3.885  0.8420  0.4154  0.1399
  894WAT     H2 4297   6.639   6.633   3.832  0.7478 -0.6262 -0.9323
  894WAT    EPW 4298   6.691   6.623   3.890  0.3192 -0.0962 -0.4438
  895WAT      O 4299   6.288   5.711   4.790 -0.0413  0.2187 -0.6077
  895WAT     H1 4300   6.368   5.676   4.797 -0.7477 -1.1672  1.1776
  895WAT     H2 4301   6.296   5.765   4.722  1.6978 -1.7974 -2.1482
  895WAT    EPW 4302   6.301   5.714   4.781  0.1113 -0.2839 -0.5716
  896WAT      O 4303   6.601   6.396   1.877 -0.3205 -0.0172 -0.4807
  896WAT     H1 4304   6.608   6.481   1.894 -0.1952  0.0622 -0.9031
  896WAT     H2 4305   6.650   6.386   1.805 -0.4842 -0.4109 -0.5382
  896WAT    EPW 4306   6.610   6.407   1.869 -0.3262 -0.0636 -0.5516
  897WAT      O 4307   6.263   5.196   1.903 -0.5460 -0.3038 -0.3200
  897WAT     H1 4308   6.302   5.125   1.871 -0.1551  0.0680 -0.6770
  897WAT     H2 4309   6.250   5.246   1.832 -0.1194  0.3141  0.0314
  897WAT    EPW 4310   6.267   5.193   1.888 -0.4253 -0.1576 -0.3208
  898WAT      O 4311   6.600   6.498   3.234  0.2284  0.3818  0.2995
  898WAT     H1 4312   6.634   6.424   3.203  1.3415  0.4986  1.2021
  898WAT     H2 4313   6.580   6.478   3.316  0.0421  0.9360  0.3911
  898WAT    EPW 4314   6.602   6.484   3.241  0.3653  0.4809  0.4464
  899WAT      O 4315   5.984   5.519   2.976  0.1058  0.1992  0.0118
  899WAT     H1 4316   6.035   5.453   2.952 -1.0159 -0.4003 -0.7838
  899WAT     H2 4317   6.037   5.588   2.972  0.6912 -0.2969 -1.5078
  899WAT    EPW 4318   5.999   5.520   2.972  0.0266  0.0373 -0.3302
  900WAT      O 4319   6.185   5.609   2.089 -0.3743 -0.3241 -0.0522
  900WAT     H1 4320   6.255   5.590   2.040 -0.8740  0.7991 -1.2541
  900WAT     H2 4321   6.119   5.601   2.033 -1.2391 -1.4339  1.0880
  900WAT    EPW 4322   6.186   5.605   2.074 -0.5758 -0.3221 -0.0613
  901WAT      O 4323   5.334   6.863   2.376 -0.0995 -0.8791  0.0380
  901WAT     H1 4324   5.316   6.820   2.302 -0.8320 -0.9991  0.2769
  901WAT     H2 4325   5.421   6.865   2.378 -0.0700 -0.4066 -1.0992
  901WAT    EPW 4326   5.344   6.857   2.365 -0.2034 -0.8270 -0.0947
  902WAT      O 4327   6.562   6.853   3.238 -0.5806  0.0880 -0.0690
  902WAT     H1 4328   6.633   6.877   3.283 -0.8949  1.8449 -0.4713
  902WAT     H2 4329   6.503   6.836   3.300 -0.1550 -0.3538  0.2309
  902WAT    EPW 4330   6.564   6.854   3.254 -0.5642  0.2823 -0.0841
  903WAT      O 4331   5.302   5.723   2.278  0.1798  0.5254  0.2422
  903WAT     H1 4332   5.349   5.797   2.269  2.1357 -0.7647 -0.7641
  903WAT     H2 4333   5.237   5.747   2.331 -0.0427  3.3190 -1.1196
  903WAT    EPW 4334   5.299   5.738   2.285  0.4359  0.7475 -0.1076
  904WAT      O 4335   4.929   5.466   1.334 -0.6185 -0.4072  0.3495
  904WAT     H1 4336   4.962   5.541   1.307 -0.9049 -0.7707 -1.0860
  904WAT     H2 4337   4.989   5.435   1.389  0.7005 -0.3141 -0.9888
  904WAT    EPW 4338   4.942   5.472   1.338 -0.4659 -0.4472 -0.0602
  905WAT      O 4339   6.039   6.164   2.926 -0.8000  0.8350  0.1902
  905WAT     H1 4340   6.025   6.177   3.011  0.0189  1.1591  0.2865
  905WAT     H2 4341   5.975   6.110   2.902 -0.9448  0.6206  1.0509
  905WAT    EPW 4342   6.028   6.158   2.935 -0.7004  0.8512  0.3316
  906WAT      O 4343   4.428   5.629   3.215  0.6050 -0.6445 -1.0931
  906WAT     H1 4344   4.343   5.638   3.199  0.6035 -0.7235 -1.1266
  906WAT     H2 4345   4.453   5.565   3.161  0.4688 -1.3557 -0.3159
  906WAT    EPW 4346   4.420   5.621   3.204  0.5847 -0.7612 -0.9832
  907WAT      O 4347   5.665   4.637   3.352 -0.4234 -0.0827 -0.0299
  907WAT     H1 4348   5.673   4.557   3.320  0.2511 -0.1077  0.1884
  907WAT     H2 4349   5.728   4.642   3.412 -0.5398  0.5642  0.0510
  907WAT    EPW 4350   5.675   4.626   3.356 -0.3409  0.0092  0.0143
  908WAT      O 4351   5.947   4.946   2.953  0.2412 -0.3660 -0.5576
  908WAT     H1 4352   5.908   5.002   3.007  0.7242  0.1936 -0.7696
  908WAT     H2 4353   6.010   4.910   3.002 -2.3201 -3.5649  0.7419
  908WAT    EPW 4354   5.951   4.949   2.968 -0.0658 -0.7559 -0.3970
  909WAT      O 4355   6.753   5.390   4.383  0.7492 -0.1225  0.1583
  909WAT     H1 4356   6.712   5.420   4.453  1.2970 -1.3588  1.0377
  909WAT     H2 4357   6.734   5.305   4.382  1.0768 -0.1980 -0.9624
  909WAT    EPW 4358   6.744   5.382   4.393  0.8785 -0.3163  0.1227
  910WAT      O 4359   5.122   5.478   2.770  0.6243  0.2293 -0.3896
  910WAT     H1 4360   5.109   5.563   2.756  0.9023  0.1415 -1.2827
  910WAT     H2 4361   5.058   5.440   2.725  2.2394 -0.1075 -2.6251
  910WAT    EPW 4362   5.111   5.485   2.761  0.9039  0.1666 -0.8518
  911WAT      O 4363   4.826   4.992   1.673 -0.0901  0.2955 -0.0628
  911WAT     H1 4364   4.840   4.921   1.723  1.9436 -1.6963 -3.0848
  911WAT     H2 4365   4.904   5.031   1.672 -0.5025  1.1227 -0.4876
  911WAT    EPW 4366   4.840   4.987   1.681  0.1494  0.1235 -0.5720
  912WAT      O 4367   6.978   5.886   2.183 -0.0723 -0.2876 -0.2993
  912WAT     H1 4368   7.004   5.966   2.208 -1.2719 -0.3858  1.3884
  912WAT     H2 4369   7.054   5.843   2.172  0.5561  0.3858  1.1754
  912WAT    EPW 4370   6.993   5.892   2.185 -0.1567 -0.2026  0.1679
  913WAT      O 4371   6.197   7.301   1.897  0.1564 -0.0813 -0.0059
  913WAT     H1 4372   6.161   7.257   1.830 -0.5955  0.1577  0.2273
  913WAT     H2 4373   6.148   7.373   1.902 -0.1326 -0.3378  1.1387
  913WAT    EPW 4374   6.185   7.305   1.888  0.0026 -0.0839  0.1977
  914WAT      O 4375   5.436   4.827   3.240  0.0756 -0.2360 -0.1482
  914WAT     H1 4376   5.520   4.830   3.217 -0.1427 -0.3025 -0.9838
  914WAT     H2 4377   5.414   4.743   3.230 -0.1898 -0.1491 -0.3340
  914WAT    EPW 4378   5.445   4.815   3.235  0.0041 -0.2330 -0.2991
  915WAT      O 4379   6.255   6.006   2.823  0.3165  0.6425  0.0142
  915WAT     H1 4380   6.328   6.030   2.865  0.0909  3.0482 -0.8466
  915WAT     H2 4381   6.192   6.017   2.883  0.4655  0.0559  0.2846
  915WAT    EPW 4382   6.256   6.011   2.838  0.3052  0.9112 -0.0730
  916WAT      O 4383   7.026   4.441   3.767 -0.1618  0.8117  0.2116
  916WAT     H1 4384   6.945   4.444   3.798 -0.8186  0.4061 -1.3587
  916WAT     H2 4385   7.017   4.404   3.688  0.7553  5.2597 -2.3328
  916WAT    EPW 4386   7.013   4.436   3.760 -0.1233  1.4089 -0.3962
  917WAT      O 4387   5.749   3.817   3.722 -0.0153 -0.1768 -0.5831
  917WAT     H1 4388   5.683   3.762   3.704  1.4485 -2.1332 -0.3594
  917WAT     H2 4389   5.791   3.824   3.646  0.9851 -1.1135 -0.1546
  917WAT    EPW 4390   5.746   3.810   3.708  0.3487 -0.6042 -0.4867
  918WAT      O 4391   6.243   5.666   2.750  0.7020  0.3809  0.3611
  918WAT     H1 4392   6.256   5.592   2.706 -1.1415 -0.1891  0.7037
  918WAT     H2 4393   6.323   5.701   2.754  1.1565 -0.0262 -2.5225
  918WAT    EPW 4394   6.257   5.660   2.744  0.4968  0.2366 -0.0142
  919WAT      O 4395   4.814   6.114   1.393  0.3867  0.0772  0.1988
  919WAT     H1 4396   4.839   6.175   1.450  0.9908 -1.0232  1.1610
  919WAT     H2 4397   4.749   6.073   1.435  1.0670 -0.9701  0.2683
  919WAT    EPW 4398   4.808   6.117   1.408  0.5764 -0.2401  0.3512
  920WAT      O 4399   4.846   5.917   3.261  0.4059 -0.1984 -0.5106
  920WAT     H1 4400   4.908   5.877   3.308 -0.3518 -0.4204  0.3165
  920WAT     H2 4401   4.863   5.890   3.180  0.8074 -1.0302 -0.1674
  920WAT    EPW 4402   4.858   5.907   3.256  0.3533 -0.3541 -0.3377
  921WAT      O 4403   5.726   4.844   2.559  0.1276 -0.6096 -0.4499
  921WAT     H1 4404   5.641   4.825   2.551 -0.4158  1.9682 -1.7323
  921WAT     H2 4405   5.729   4.897   2.628  0.8810 -1.4360  0.1792
  921WAT    EPW 4406   5.714   4.849   2.568  0.1586 -0.3509 -0.5464
  922WAT      O 4407   7.121   6.600   1.955 -0.2620 -0.1690  0.1896
  922WAT     H1 4408   7.198   6.634   1.928 -1.1719  1.4155 -0.5741
  922WAT     H2 4409   7.068   6.615   1.887 -0.7731 -3.2607 -0.2158
  922WAT    EPW 4410   7.125   6.607   1.941 -0.4719 -0.3916  0.0169
  923WAT      O 4411   6.513   7.087   1.903  0.2868 -0.4188 -0.9005
  923WAT     H1 4412   6.494   7.172   1.894 -0.1030 -0.5972 -1.9491
  923WAT     H2 4413   6.492   7.070   1.986 -0.8589  0.2232 -1.0279
  923WAT    EPW 4414   6.507   7.097   1.914  0.0600 -0.3503 -1.0742
  924WAT      O 4415   5.159   5.337   0.882  0.5340  0.0393 -0.3597
  924WAT     H1 4416   5.191   5.272   0.930  0.7041  0.5710  0.2644
  924WAT     H2 4417   5.206   5.407   0.907  0.6805  0.3121 -1.3664
  924WAT    EPW 4418   5.170   5.338   0.893  0.5808  0.1581 -0.4162
  925WAT      O 4419   6.432   5.208   4.981 -0.0001 -0.0469 -0.6391
  925WAT     H1 4420   6.428   5.126   5.009 -1.6614 -0.0680 -0.8459
  925WAT     H2 4421   6.469   5.202   4.902  0.2484 -0.5410 -0.4834
  925WAT    EPW 4422   6.437   5.195   4.974 -0.2088 -0.1230 -0.6466
  926WAT      O 4423   4.853   6.057   2.982 -0.8031  0.1451 -0.2021
  926WAT     H1 4424   4.776   6.075   3.020 -0.4023 -0.0030  0.7146
  926WAT     H2 4425   4.859   6.116   2.918 -1.5662  0.3128 -0.1234
  926WAT    EPW 4426   4.842   6.068   2.978 -0.8566  0.1480 -0.0551
  927WAT      O 4427   6.967   5.256   2.792  0.1662 -0.2124 -0.2434
  927WAT     H1 4428   6.962   5.205   2.721  1.0877  0.2142 -0.6330
  927WAT     H2 4429   6.887   5.254   2.824 -0.7769  1.0078 -2.2986
  927WAT    EPW 4430   6.955   5.248   2.786  0.1630  0.0309 -0.6045
  928WAT      O 4431   6.038   6.777   3.618 -1.0192 -0.0649  0.1689
  928WAT     H1 4432   6.001   6.813   3.548 -1.0643 -0.7924 -0.1978
  928WAT     H2 4433   6.001   6.817   3.685  0.1993  1.8433 -0.2072
  928WAT    EPW 4434   6.027   6.788   3.617 -0.8459  0.1095  0.0592
  929WAT      O 4435   5.781   4.734   3.114  0.4198  0.3103 -0.3047
  929WAT     H1 4436   5.868   4.739   3.106  0.5654  0.9901  1.2698
  929WAT     H2 4437   5.770   4.707   3.196 -0.8680  0.1379 -0.5144
  929WAT    EPW 4438   5.792   4.731   3.125  0.2511  0.3852 -0.1031
  930WAT      O 4439   5.756   5.723   3.784  0.1617  0.2200 -0.2818
  930WAT     H1 4440   5.687   5.673   3.766 -0.0341 -0.0904  1.2098
  930WAT     H2 4441   5.728   5.804   3.766 -0.1455 -0.0161 -0.9116
  930WAT    EPW 4442   5.742   5.727   3.778  0.0874  0.1393 -0.1545
  931WAT      O 4443   6.661   6.020   2.744  0.0488  0.2195  0.2185
  931WAT     H1 4444   6.619   6.077   2.794  1.3693  1.9781 -0.5191
  931WAT     H2 4445   6.740   6.014   2.781  0.1235 -0.6476 -0.0640
  931WAT    EPW 4446   6.667   6.027   2.757  0.2549  0.3512  0.0678
  932WAT      O 4447   5.929   5.262   2.758  0.0488 -0.2205 -0.0221
  932WAT     H1 4448   5.887   5.337   2.744 -0.8306 -0.6019  0.4481
  932WAT     H2 4449   5.967   5.245   2.681  0.2228  0.6701 -0.1461
  932WAT    EPW 4450   5.928   5.270   2.745 -0.0554 -0.1453  0.0290
  933WAT      O 4451   5.943   4.675   3.794  0.2326 -0.2406  0.3581
  933WAT     H1 4452   5.927   4.714   3.870  1.8508  1.2327  0.0078
  933WAT     H2 4453   5.952   4.591   3.816  3.6110  0.4694  2.4018
  933WAT    EPW 4454   5.942   4.668   3.809  0.9707  0.0819  0.6082
  934WAT      O 4455   5.263   6.163   2.798  0.0722  0.1301 -0.7357
  934WAT     H1 4456   5.257   6.099   2.739  0.3877 -0.4805 -0.1286
  934WAT     H2 4457   5.236   6.125   2.872 -1.9019  1.3378 -0.7680
  934WAT    EPW 4458   5.258   6.148   2.800 -0.1728  0.2183 -0.6508
  935WAT      O 4459   5.837   6.650   4.008 -0.1610  0.1817  0.2628
  935WAT     H1 4460   5.911   6.630   3.967 -0.5827  1.0341 -0.9837
  935WAT     H2 4461   5.859   6.716   4.060 -0.1821  0.9774 -0.7053
  935WAT    EPW 4462   5.851   6.657   4.010 -0.2264  0.4251 -0.0643
  936WAT      O 4463   6.113   6.166   4.038  0.3675  0.3764 -0.2619
  936WAT     H1 4464   6.171   6.106   4.064  1.4426  1.0303 -1.0258
  936WAT     H2 4465   6.050   6.162   4.098  0.6581 -1.1410 -0.0142
  936WAT    EPW 4466   6.113   6.157   4.051  0.5692  0.2488 -0.3382
  937WAT      O 4467   6.127   5.403   3.861 -0.0258 -0.3501  0.1663
  937WAT     H1 4468   6.125   5.365   3.940  0.2966 -0.5856  0.0644
  937WAT     H2 4469   6.118   5.336   3.806 -0.0598 -0.2069 -0.0020
  937WAT    EPW 4470   6.126   5.388   3.865  0.0168 -0.3638  0.1264
  938WAT      O 4471   6.233   6.239   4.404 -0.0689 -0.1759 -0.6728
  938WAT     H1 4472   6.249   6.250   4.489 -1.0020 -0.8266 -0.3941
  938WAT     H2 4473   6.226   6.152   4.396 -0.1056 -0.1132 -1.3956
  938WAT    EPW 4474   6.234   6.227   4.416 -0.2122 -0.2628 -0.7384
  939WAT      O 4475   5.152   5.312   1.471  0.4417 -0.0716  0.9654
  939WAT     H1 4476   5.232   5.288   1.445  1.2581  2.2861  1.0801
  939WAT     H2 4477   5.167   5.356   1.545 -0.8722  1.0421  0.5979
  939WAT    EPW 4478   5.166   5.315   1.478  0.3682  0.4412  0.9280
  940WAT      O 4479   6.983   4.249   2.259 -0.0506 -0.3666 -0.0324
  940WAT     H1 4480   7.057   4.282   2.230  2.2442 -2.0440  3.2375
  940WAT     H2 4481   6.974   4.174   2.214  1.6054 -1.2946  1.0809
  940WAT    EPW 4482   6.992   4.243   2.248  0.5330 -0.7515  0.6151
  941WAT      O 4483   6.791   5.561   2.918 -0.2343  0.3283  0.3250
  941WAT     H1 4484   6.788   5.505   2.985  1.0024 -1.6922 -1.1685
  941WAT     H2 4485   6.856   5.615   2.939 -0.4546  0.2818  1.1385
  941WAT    EPW 4486   6.800   5.561   2.931 -0.0842  0.0230  0.2245
  942WAT      O 4487   5.648   7.346   1.797 -0.2145 -0.1688  0.6115
  942WAT     H1 4488   5.676   7.292   1.735 -0.4118 -0.8825  1.1299
  942WAT     H2 4489   5.647   7.424   1.758 -1.6377 -0.7867 -0.6820
  942WAT    EPW 4490   5.652   7.349   1.782 -0.4539 -0.3655  0.4970
  943WAT      O 4491   5.805   5.281   4.010  0.2994  0.4558 -0.3974
  943WAT     H1 4492   5.748   5.293   4.076  2.9433  0.6427  2.0740
  943WAT     H2 4493   5.856   5.351   4.014  2.2640 -0.8930 -0.7493
  943WAT    EPW 4494   5.804   5.293   4.021  0.9801  0.2841 -0.0843
  944WAT      O 4495   6.760   5.567   3.560  0.5392 -0.0072  0.4127
  944WAT     H1 4496   6.836   5.537   3.528  1.3210  0.5963  1.6163
  944WAT     H2 4497   6.728   5.498   3.603  0.5562 -0.1812  0.1470
  944WAT    EPW 4498   6.767   5.552   3.562  0.6572  0.0563  0.5513
  945WAT      O 4499   6.713   4.499   1.190 -0.2679 -0.3628  0.0908
  945WAT     H1 4500   6.727   4.575   1.228 -0.0665 -0.8105  0.9326
  945WAT     H2 4501   6.782   4.451   1.212 -0.0919 -0.6093 -0.9282
  945WAT    EPW 4502   6.725   4.503   1.199 -0.2122 -0.4653  0.0646
  946WAT      O 4503   6.924   5.641   5.504 -0.2989 -0.6979 -0.3525
  946WAT     H1 4504   6.955   5.683   5.574 -0.4497 -0.7143 -0.2763
  946WAT     H2 4505   6.921   5.558   5.530  0.3061 -0.8057 -0.6114
  946WAT    EPW 4506   6.928   5.635   5.518 -0.2318 -0.7163 -0.3795
  947WAT      O 4507   6.679   4.865   1.853 -0.2766 -0.4709 -0.4609
  947WAT     H1 4508   6.640   4.788   1.837 -0.5258 -0.7155  1.1024
  947WAT     H2 4509   6.684   4.867   1.940 -0.6430  1.4679 -0.4346
  947WAT    EPW 4510   6.674   4.854   1.864 -0.3675 -0.2206 -0.2261
  948WAT      O 4511   6.178   5.241   2.391  0.2640 -0.5731  0.0005
  948WAT     H1 4512   6.122   5.182   2.424  0.3253 -1.6868 -1.7864
  948WAT     H2 4513   6.126   5.308   2.368  0.2928  0.6274  2.9316
  948WAT    EPW 4514   6.162   5.242   2.393  0.2773 -0.5603  0.1695
  949WAT      O 4515   5.675   5.009   3.346 -0.2705 -0.2331 -0.6526
  949WAT     H1 4516   5.721   5.002   3.419  0.3932  0.8656 -0.9367
  949WAT     H2 4517   5.598   5.039   3.372 -0.6520 -1.5461 -0.2302
  949WAT    EPW 4518   5.670   5.012   3.360 -0.2289 -0.2647 -0.6321
  950WAT      O 4519   5.930   3.873   3.510  0.8853 -0.4432 -0.7240
  950WAT     H1 4520   6.000   3.900   3.556 -0.5033  1.2144  0.5273
  950WAT     H2 4521   5.948   3.789   3.495  1.6654 -1.0058  2.5092
  950WAT    EPW 4522   5.943   3.864   3.515  0.7954 -0.2815 -0.0616
  951WAT      O 4523   5.430   3.547   2.049  0.4822 -0.0438  0.3946
  951WAT     H1 4524   5.365   3.604   2.065 -0.0837 -0.0810 -1.5119
  951WAT     H2 4525   5.402   3.473   2.086  0.4416  0.4941  1.4458
  951WAT    EPW 4526   5.416   3.544   2.057  0.3926  0.0302  0.2682
  952WAT      O 4527   5.271   5.011   2.744 -0.1351 -0.6366 -0.3216
  952WAT     H1 4528   5.298   5.003   2.826 -0.5398 -0.9566 -0.2158
  952WAT     H2 4529   5.330   4.964   2.699  0.2025 -0.2933 -0.2429
  952WAT    EPW 4530   5.284   5.003   2.749 -0.1450 -0.6332 -0.2943
  953WAT      O 4531   4.234   5.874   2.665 -0.0522  0.5057 -0.0311
  953WAT     H1 4532   4.208   5.815   2.606  1.1996  0.6375 -0.7604
  953WAT     H2 4533   4.168   5.878   2.721 -0.7771 -0.5099 -0.7789
  953WAT    EPW 4534   4.221   5.866   2.665  0.0257  0.3751 -0.2493
  954WAT      O 4535   6.083   6.381   1.768 -0.0441 -0.6660  0.4228
  954WAT     H1 4536   6.168   6.363   1.777 -0.2876 -2.0996 -0.0420
  954WAT     H2 4537   6.048   6.306   1.742 -0.9610  0.6520 -2.6812
  954WAT    EPW 4538   6.090   6.368   1.765 -0.2155 -0.6830 -0.1044
  955WAT      O 4539   5.583   6.287   4.148 -0.0660  0.0958 -0.1867
  955WAT     H1 4540   5.579   6.262   4.065 -1.1188 -0.1079 -0.0887
  955WAT     H2 4541   5.507   6.259   4.182 -0.4244  1.6683  0.4056
  955WAT    EPW 4542   5.571   6.279   4.141 -0.2744  0.2980 -0.0847
  956WAT      O 4543   6.431   5.363   3.887  0.1906 -0.2829  0.0797
  956WAT     H1 4544   6.356   5.380   3.847 -0.8885 -0.2862  1.9717
  956WAT     H2 4545   6.490   5.363   3.822 -1.3632  0.0925 -1.3971
  956WAT    EPW 4546   6.429   5.366   3.872 -0.1983 -0.2280  0.1411
  957WAT      O 4547   5.225   4.418   2.408  0.4053 -0.2659  0.2281
  957WAT     H1 4548   5.161   4.385   2.359 -1.0646  2.6198 -0.0131
  957WAT     H2 4549   5.296   4.375   2.380 -1.2334 -2.9896 -0.0788
  957WAT    EPW 4550   5.226   4.407   2.397 -0.0539 -0.2419  0.1472
  958WAT      O 4551   6.727   7.369   1.935  0.1611 -0.0694 -0.3965
  958WAT     H1 4552   6.793   7.335   1.889  0.9211  1.2448 -0.3269
  958WAT     H2 4553   6.658   7.356   1.884  0.6302 -0.6477 -0.8944
  958WAT    EPW 4554   6.727   7.362   1.921  0.3427  0.0393 -0.4598
  959WAT      O 4555   3.959   5.967   3.197 -0.0997 -0.3446  0.0205
  959WAT     H1 4556   3.933   6.005   3.271  0.5644  0.5859 -0.1973
  959WAT     H2 4557   3.937   5.883   3.208  0.5503 -0.3571  1.5521
  959WAT    EPW 4558   3.952   5.960   3.210  0.0944 -0.2090  0.2146
  960WAT      O 4559   5.763   6.841   3.730  0.1012 -0.5169  0.0676
  960WAT     H1 4560   5.744   6.918   3.767 -2.5558 -0.4084 -1.3172
  960WAT     H2 4561   5.711   6.839   3.660 -0.0852 -3.6976  0.1800
  960WAT    EPW 4562   5.753   6.852   3.725 -0.3188 -0.9707 -0.1204
  961WAT      O 4563   5.208   5.680   3.634  0.2253 -0.0644  0.1893
  961WAT     H1 4564   5.246   5.748   3.597 -0.8120  0.2522 -0.3414
  961WAT     H2 4565   5.254   5.612   3.606  2.0565  0.4673  1.7265
  961WAT    EPW 4566   5.220   5.680   3.624  0.3426  0.0609  0.3380
  962WAT      O 4567   5.245   5.192   3.233 -0.6040 -0.4175  0.2195
  962WAT     H1 4568   5.243   5.265   3.185  1.8303 -0.2608  0.2317
  962WAT     H2 4569   5.161   5.176   3.250 -1.3087  1.4118 -1.2297
  962WAT    EPW 4570   5.232   5.200   3.228 -0.3485 -0.1241  0.0072
  963WAT      O 4571   6.823   5.859   2.398  0.0201  0.1457 -0.3390
  963WAT     H1 4572   6.868   5.861   2.324 -2.1027  0.1543 -1.7252
  963WAT     H2 4573   6.786   5.779   2.398 -0.6344  0.4313  0.2820
  963WAT    EPW 4574   6.824   5.847   2.387 -0.3902  0.1892 -0.4520
  964WAT      O 4575   3.735   5.947   2.685 -0.2531  0.3603 -0.1312
  964WAT     H1 4576   3.768   5.895   2.624 -0.2960 -0.4940  0.5564
  964WAT     H2 4577   3.652   5.959   2.659 -0.4697 -0.5604  0.1177
  964WAT    EPW 4578   3.728   5.941   2.672 -0.2914  0.0981  0.0071
  965WAT      O 4579   6.001   5.221   4.928 -0.0421  0.1930 -0.1747
  965WAT     H1 4580   6.063   5.200   4.871  0.5584 -0.9353  0.8335
  965WAT     H2 4581   6.039   5.209   5.006 -1.1648  0.6118  0.4798
  965WAT    EPW 4582   6.016   5.216   4.931 -0.1192  0.0882  0.0709
  966WAT      O 4583   6.108   5.196   3.051  0.0830 -0.3714 -0.2787
  966WAT     H1 4584   6.041   5.181   2.997  0.9991  0.6781 -1.7682
  966WAT     H2 4585   6.176   5.204   2.998  1.4064 -1.3337  1.2082
  966WAT    EPW 4586   6.108   5.195   3.035  0.4138 -0.3585 -0.2791
  967WAT      O 4587   6.932   5.528   1.262 -0.1339 -0.0430  0.6339
  967WAT     H1 4588   6.977   5.483   1.202  1.2302  0.8706  0.9097
  967WAT     H2 4589   6.927   5.474   1.330  1.8499  0.3236  1.1191
  967WAT    EPW 4590   6.938   5.514   1.263  0.3607  0.1461  0.7463
  968WAT      O 4591   5.951   7.263   1.181  0.3532 -0.3756  0.6230
  968WAT     H1 4592   6.028   7.295   1.155 -0.2823  0.9051  0.1871
  968WAT     H2 4593   5.923   7.323   1.239 -0.5524 -0.5254  0.3548
  968WAT    EPW 4594   5.958   7.277   1.186  0.1256 -0.2085  0.5190
  969WAT      O 4595   5.854   5.917   3.191  0.0519 -0.3779 -0.6670
  969WAT     H1 4596   5.878   5.882   3.268 -0.0681 -0.1827 -0.5384
  969WAT     H2 4597   5.866   5.852   3.134 -0.5671 -0.7730 -0.3706
  969WAT    EPW 4598   5.859   5.902   3.194 -0.0573 -0.4074 -0.6042
  970WAT      O 4599   4.650   6.857   1.405  0.2199 -0.2921  0.3333
  970WAT     H1 4600   4.665   6.893   1.483 -2.6206 -0.7959  1.1998
  970WAT     H2 4601   4.610   6.782   1.425 -1.7542  0.1732 -1.5891
  970WAT    EPW 4602   4.647   6.851   1.420 -0.4913 -0.2978  0.1773
  971WAT      O 4603   6.907   6.233   2.596  0.1524 -0.3426  0.2717
  971WAT     H1 4604   6.932   6.190   2.668  0.1154  0.1966  0.6102
  971WAT     H2 4605   6.820   6.221   2.595  0.0081  0.5684  0.9303
  971WAT    EPW 4606   6.898   6.225   2.607  0.1256 -0.1284  0.4190
  972WAT      O 4607   5.632   6.341   1.204 -0.6974 -0.7456 -0.1511
  972WAT     H1 4608   5.591   6.416   1.223 -1.2285 -1.4885  1.8090
  972WAT     H2 4609   5.695   6.337   1.263 -0.0014 -1.3598 -0.9182
  972WAT    EPW 4610   5.635   6.352   1.216 -0.6730 -0.9460  0.0251
  973WAT      O 4611   3.123   6.527   1.006  0.0311 -0.3016  0.3233
  973WAT     H1 4612   3.085   6.589   0.958 -1.5393 -1.6096 -0.2033
  973WAT     H2 4613   3.124   6.457   0.954  1.5316 -0.8293  0.9898
  973WAT    EPW 4614   3.118   6.526   0.991  0.0208 -0.5728  0.3439
  974WAT      O 4615   6.265   6.533   2.029 -0.2094  0.3553 -0.8515
  974WAT     H1 4616   6.197   6.578   1.998  0.4090  2.4735  0.6457
  974WAT     H2 4617   6.286   6.481   1.962 -2.2417  0.8198 -1.9590
  974WAT    EPW 4618   6.258   6.532   2.014 -0.4183  0.7368 -0.7940
  975WAT      O 4619   6.294   6.352   3.927  0.4186 -0.4450 -0.3479
  975WAT     H1 4620   6.337   6.406   3.982  0.9497  0.0588 -1.2293
  975WAT     H2 4621   6.237   6.312   3.979  1.2947 -0.4157  0.6932
  975WAT    EPW 4622   6.292   6.354   3.943  0.6264 -0.3663 -0.3243
  976WAT      O 4623   6.495   5.784   2.832 -0.1560 -0.5947 -0.1147
  976WAT     H1 4624   6.465   5.818   2.906 -1.5499  1.5105 -1.5131
  976WAT     H2 4625   6.548   5.847   2.801 -1.2941 -0.4417 -1.9014
  976WAT    EPW 4626   6.498   5.799   2.838 -0.5301 -0.2611 -0.5852
  977WAT      O 4627   6.476   6.181   2.906 -0.1866  0.1974 -0.1519
  977WAT     H1 4628   6.425   6.186   2.977  0.1111  1.7167 -0.0099
  977WAT     H2 4629   6.444   6.244   2.854  0.9249  0.5214 -0.4571
  977WAT    EPW 4630   6.464   6.191   2.909  0.0215  0.4697 -0.1760
  978WAT      O 4631   7.172   5.471   3.179 -0.5642 -0.0897  0.4398
  978WAT     H1 4632   7.252   5.492   3.208 -0.2040 -0.5946 -0.1735
  978WAT     H2 4633   7.182   5.389   3.149 -1.7422 -0.9042  2.0714
  978WAT    EPW 4634   7.185   5.462   3.179 -0.6850 -0.2846  0.5902
  979WAT      O 4635   6.326   4.388   2.609  0.1739  0.1999 -0.3536
  979WAT     H1 4636   6.258   4.442   2.606  0.4418  0.5696  0.1007
  979WAT     H2 4637   6.376   4.421   2.673  1.1789  0.4129 -1.2288
  979WAT    EPW 4638   6.323   4.401   2.618  0.3619  0.2860 -0.4158
  980WAT      O 4639   5.256   6.337   2.442 -0.1007  0.4908  0.8230
  980WAT     H1 4640   5.341   6.330   2.423  0.1918 -0.3434  2.2556
  980WAT     H2 4641   5.218   6.347   2.364  1.2279 -0.1414  0.0617
  980WAT    EPW 4642   5.263   6.337   2.428  0.1388  0.2742  0.9222
  981WAT      O 4643   7.022   5.571   2.695 -0.2820  0.1775  0.0551
  981WAT     H1 4644   7.039   5.486   2.687  1.2254  0.6031 -1.7953
  981WAT     H2 4645   6.940   5.572   2.724 -0.3536 -1.8949  0.0896
  981WAT    EPW 4646   7.012   5.558   2.698 -0.0699 -0.0657 -0.2132
  982WAT      O 4647   6.999   6.417   2.397  0.3465 -0.5903 -0.2294
  982WAT     H1 4648   6.954   6.373   2.458 -1.1099  0.6952 -0.3242
  982WAT     H2 4649   6.944   6.423   2.330 -0.0866  2.4758  0.2483
  982WAT    EPW 4650   6.984   6.411   2.396  0.0674  0.0525 -0.1728
  983WAT      O 4651   6.806   3.977   3.846 -0.2278 -0.2593 -0.0673
  983WAT     H1 4652   6.827   3.928   3.777  0.4607  1.7556 -1.3915
  983WAT     H2 4653   6.882   4.016   3.868 -0.8765  0.8207  0.3765
  983WAT    EPW 4654   6.821   3.976   3.839 -0.2220  0.1979 -0.1974
  984WAT      O 4655   5.453   5.864   1.723 -0.2759 -1.1424 -0.2745
  984WAT     H1 4656   5.451   5.938   1.677  0.9235 -0.8241  0.1504
  984WAT     H2 4657   5.388   5.817   1.689 -0.4259 -0.2851 -1.2167
  984WAT    EPW 4658   5.443   5.868   1.711 -0.1209 -0.9687 -0.3509
  985WAT      O 4659   5.762   6.841   2.121  0.8250  0.0891 -0.0103
  985WAT     H1 4660   5.729   6.761   2.137  1.4014 -0.4205 -1.2595
  985WAT     H2 4661   5.777   6.840   2.035  2.1762  1.0369  0.1881
  985WAT    EPW 4662   5.759   6.829   2.111  1.1098  0.1538 -0.1655
  986WAT      O 4663   6.796   4.273   2.871 -0.1346 -0.2176 -0.3197
  986WAT     H1 4664   6.816   4.323   2.803 -0.7131  1.2353  0.5138
  986WAT     H2 4665   6.806   4.327   2.939 -0.7450 -1.2634  0.6323
  986WAT    EPW 4666   6.800   4.289   2.871 -0.3103 -0.1575 -0.0559
  987WAT      O 4667   7.226   7.289   4.097 -0.4950 -0.7592 -0.2083
  987WAT     H1 4668   7.188   7.352   4.143  1.0325  0.2221 -0.2109
  987WAT     H2 4669   7.283   7.333   4.047 -0.1654 -2.0571 -1.0032
  987WAT    EPW 4670   7.229   7.305   4.096 -0.2207 -0.8059 -0.3262
  988WAT      O 4671   6.547   5.859   4.135 -0.1902  0.2028 -0.3586
  988WAT     H1 4672   6.579   5.818   4.065  1.5175  1.7975 -0.5950
  988WAT     H2 4673   6.465   5.875   4.113 -0.3845 -1.4431 -0.9809
  988WAT    EPW 4674   6.540   5.855   4.121  0.0334  0.1952 -0.4855
  989WAT      O 4675   4.719   6.400   4.256 -0.2069  0.0627 -0.1835
  989WAT     H1 4676   4.743   6.387   4.339  0.6334  2.0829 -0.0547
  989WAT     H2 4677   4.689   6.482   4.256 -1.9183 -0.4914 -1.5360
  989WAT    EPW 4678   4.718   6.410   4.268 -0.3356  0.2793 -0.3643
  990WAT      O 4679   6.976   6.250   3.178  0.4927 -0.3889  0.3405
  990WAT     H1 4680   6.972   6.336   3.189  0.6643  0.0126 -2.1313
  990WAT     H2 4681   7.057   6.236   3.149  0.0302 -1.1570 -0.6454
  990WAT    EPW 4682   6.987   6.260   3.175  0.4497 -0.4431 -0.1703
  991WAT      O 4683   6.427   6.355   3.685 -0.4820 -0.4096 -0.3982
  991WAT     H1 4684   6.464   6.434   3.690 -0.9904 -0.0454 -1.9785
  991WAT     H2 4685   6.388   6.346   3.763 -1.5746  1.5058 -0.6557
  991WAT    EPW 4686   6.426   6.365   3.697 -0.7185 -0.0729 -0.6697
  992WAT      O 4687   6.958   6.045   2.808 -0.0011 -0.5073 -0.3353
  992WAT     H1 4688   6.974   6.004   2.883 -0.4842 -0.5136 -0.2326
  992WAT     H2 4689   7.004   5.998   2.750  1.2701  0.1425  0.0978
  992WAT    EPW 4690   6.967   6.032   2.811  0.1153 -0.4122 -0.2562
  993WAT      O 4691   5.966   5.910   3.449  0.2147 -0.5813 -0.1463
  993WAT     H1 4692   5.927   5.988   3.448 -0.4981 -0.9388 -0.5758
  993WAT     H2 4693   6.050   5.929   3.461 -0.0545  0.2104  0.5818
  993WAT    EPW 4694   5.973   5.924   3.451  0.0697 -0.5172 -0.1022
  994WAT      O 4695   6.484   5.478   3.007  0.0066  0.1102  0.1269
  994WAT     H1 4696   6.526   5.534   2.955  1.8437 -0.0414  1.3727
  994WAT     H2 4697   6.448   5.530   3.067  0.5903  0.0492  0.5284
  994WAT    EPW 4698   6.485   5.494   3.008  0.3642  0.0788  0.3702
  995WAT      O 4699   4.570   5.221   1.427  0.3750  0.2660 -0.3737
  995WAT     H1 4700   4.588   5.302   1.454 -1.4759  0.8850 -0.8103
  995WAT     H2 4701   4.630   5.206   1.365  0.8137  1.2711 -0.2165
  995WAT    EPW 4702   4.581   5.231   1.421  0.1664  0.5059 -0.4150
  996WAT      O 4703   6.655   6.833   4.067  0.2921 -0.1869 -0.0325
  996WAT     H1 4704   6.672   6.759   4.024 -1.1312 -0.0840 -0.8246
  996WAT     H2 4705   6.692   6.895   4.018  3.6272 -0.4553  1.8430
  996WAT    EPW 4706   6.663   6.831   4.054  0.5745 -0.2113  0.1275
  997WAT      O 4707   5.996   7.042   1.820  0.1884  0.0060 -0.4063
  997WAT     H1 4708   5.919   7.004   1.835  0.5364 -0.4793  0.1829
  997WAT     H2 4709   5.977   7.102   1.759 -1.0644  1.2846  1.1450
  997WAT    EPW 4710   5.982   7.045   1.813  0.0548  0.1232 -0.0901
  998WAT      O 4711   6.815   3.680   2.827  0.1185 -0.7613 -0.5277
  998WAT     H1 4712   6.804   3.760   2.794  1.0531 -0.6184 -0.5146
  998WAT     H2 4713   6.739   3.664   2.868 -0.1893 -0.0149 -0.7918
  998WAT    EPW 4714   6.802   3.689   2.828  0.2111 -0.6299 -0.5647
  999WAT      O 4715   6.412   7.031   2.629  0.6068  0.5310 -0.0035
  999WAT     H1 4716   6.371   7.071   2.694 -2.1178 -0.7060 -0.8470
  999WAT     H2 4717   6.349   7.014   2.571  2.0558 -2.5433 -0.9076
  999WAT    EPW 4718   6.397   7.035   2.630  0.4184 -0.1059 -0.2617
 1000WAT      O 4719   6.592   5.949   3.425  0.1804  0.4181 -0.3211
 1000WAT     H1 4720   6.527   5.903   3.461 -0.2659 -0.1300 -1.7637
 1000WAT     H2 4721   6.663   5.920   3.467 -0.3371 -0.0402  0.2585
 1000WAT    EPW 4722   6.593   5.938   3.437  0.0380  0.2695 -0.4486
 1001WAT      O 4723   6.336   3.635   4.036  0.5922  0.0371 -0.2104
 1001WAT     H1 4724   6.356   3.718   4.018  2.5444 -0.0411  1.2233
 1001WAT     H2 4725   6.323   3.600   3.958  1.6976  1.2437 -0.9804
 1001WAT    EPW 4726   6.337   3.642   4.022  1.0439  0.2038 -0.1124
 1002WAT      O 4727   5.688   5.864   2.316 -0.3490  0.6569  0.2064
 1002WAT     H1 4728   5.645   5.819   2.377  0.2528  0.9337  0.8460
 1002WAT     H2 4729   5.768   5.830   2.318 -0.2931  0.7538 -0.3429
 1002WAT    EPW 4730   5.693   5.852   2.325 -0.2518  0.7121  0.2197
 1003WAT      O 4731   6.560   4.997   5.662  0.3991 -0.7262  0.3677
 1003WAT     H1 4732   6.533   5.058   5.606  1.9106  0.8516  1.2458
 1003WAT     H2 4733   6.529   4.923   5.629  0.1738  0.2945 -1.8594
 1003WAT    EPW 4734   6.552   4.995   5.649  0.5891 -0.3424  0.1684
 1004WAT      O 4735   5.496   4.201   1.475  0.5539  0.2414  0.1211
 1004WAT     H1 4736   5.529   4.246   1.408  1.4270  0.5401  0.7299
 1004WAT     H2 4737   5.563   4.197   1.531  1.0176 -3.0507 -0.4700
 1004WAT    EPW 4738   5.511   4.208   1.473  0.7514 -0.2008  0.1237
 1005WAT      O 4739   6.634   3.462   3.177  0.0180  0.4374  0.0786
 1005WAT     H1 4740   6.606   3.432   3.254  0.0332  0.6762  0.1768
 1005WAT     H2 4741   6.640   3.390   3.128  0.1003  0.2716  0.3301
 1005WAT    EPW 4742   6.631   3.447   3.181  0.0324  0.4482  0.1303
 1006WAT      O 4743   5.333   6.616   1.818 -0.1066 -0.3294 -0.4571
 1006WAT     H1 4744   5.395   6.631   1.759  0.2126  0.2161  0.0012
 1006WAT     H2 4745   5.378   6.587   1.887 -0.3577  0.0548 -0.1300
 1006WAT    EPW 4746   5.349   6.614   1.820 -0.0966 -0.1921 -0.3411
 1007WAT      O 4747   4.712   5.889   2.738  0.2515 -0.0586  0.1812
 1007WAT     H1 4748   4.625   5.891   2.730  0.2579 -0.6305 -0.0760
 1007WAT     H2 4749   4.732   5.972   2.757 -0.2312  0.3292 -0.9122
 1007WAT    EPW 4750   4.702   5.901   2.740  0.1811 -0.0858 -0.0183
 1008WAT      O 4751   6.261   6.063   2.528 -0.3233 -0.1086 -0.0006
 1008WAT     H1 4752   6.176   6.051   2.515 -0.0982 -3.1954  0.6487
 1008WAT     H2 4753   6.268   6.062   2.615  0.4036 -0.1034 -0.0535
 1008WAT    EPW 4754   6.249   6.061   2.539 -0.1827 -0.5638  0.0875
 1009WAT      O 4755   4.748   5.491   3.266  0.2545  0.0738 -0.3958
 1009WAT     H1 4756   4.748   5.422   3.319 -0.5833  0.6254  0.3501
 1009WAT     H2 4757   4.727   5.558   3.318  0.7042  0.8459 -1.1686
 1009WAT    EPW 4758   4.745   5.491   3.282  0.1972  0.2693 -0.3998
 1010WAT      O 4759   6.170   3.560   2.895  0.4173 -0.3820 -0.2357
 1010WAT     H1 4760   6.161   3.521   2.818  0.3802 -0.6594 -0.0899
 1010WAT     H2 4761   6.105   3.528   2.942 -1.4964  2.0134 -0.9944
 1010WAT    EPW 4762   6.159   3.550   2.890  0.1291 -0.0691 -0.3263
 1011WAT      O 4763   5.752   5.011   0.749 -0.1868 -0.1785  0.7447
 1011WAT     H1 4764   5.795   5.086   0.736  1.4402 -1.0803  0.6847
 1011WAT     H2 4765   5.777   4.961   0.682  0.1279 -1.3594  1.7038
 1011WAT    EPW 4766   5.762   5.015   0.737  0.1000 -0.4861  0.8775
 1012WAT      O 4767   6.094   5.765   2.957 -0.3390 -0.3766  0.0038
 1012WAT     H1 4768   6.145   5.801   3.017  2.2113 -3.6689  0.1195
 1012WAT     H2 4769   6.143   5.766   2.885 -0.8373 -1.8861 -0.4033
 1012WAT    EPW 4770   6.109   5.770   2.955 -0.0358 -1.0859 -0.0393
 1013WAT      O 4771   6.324   5.375   2.617 -0.4109  0.3505 -0.2395
 1013WAT     H1 4772   6.400   5.378   2.574  0.0035  1.3436  0.5334
 1013WAT     H2 4773   6.268   5.345   2.557  0.5495 -0.2615 -0.8629
 1013WAT    EPW 4774   6.327   5.371   2.602 -0.2078  0.4068 -0.2174
 1014WAT      O 4775   6.738   4.109   3.452  0.1646 -0.1565 -0.2397
 1014WAT     H1 4776   6.755   4.079   3.372  1.5753  0.3483 -0.1472
 1014WAT     H2 4777   6.654   4.088   3.463  0.7067 -2.9348 -0.6572
 1014WAT    EPW 4778   6.728   4.101   3.442  0.4531 -0.4923 -0.2877
 1015WAT      O 4779   4.994   6.418   2.541 -0.3949  0.1268  0.2347
 1015WAT     H1 4780   5.077   6.406   2.516 -0.4882 -0.7147  0.3234
 1015WAT     H2 4781   5.001   6.475   2.606  0.4431 -2.2670  2.3903
 1015WAT    EPW 4782   5.008   6.425   2.547 -0.2849 -0.3511  0.5663
 1016WAT      O 4783   6.832   5.996   3.618  0.2457  0.4978  0.1231
 1016WAT     H1 4784   6.881   6.029   3.554 -1.2155 -0.3597 -1.5293
 1016WAT     H2 4785   6.786   6.064   3.647  1.4930  1.0613  0.8891
 1016WAT    EPW 4786   6.832   6.011   3.613  0.2141  0.4544 -0.0078
 1017WAT      O 4787   6.015   6.670   2.236 -0.6732 -0.3062 -0.3699
 1017WAT     H1 4788   6.000   6.627   2.161 -1.6262  2.6283 -2.0500
 1017WAT     H2 4789   5.942   6.718   2.246  0.0913  0.5276  1.6349
 1017WAT    EPW 4790   6.002   6.671   2.226 -0.7011  0.2504 -0.3219
 1018WAT      O 4791   4.766   6.978   3.945  0.1014  0.1243 -0.0388
 1018WAT     H1 4792   4.734   6.955   3.867  0.2171  1.5804 -0.5296
 1018WAT     H2 4793   4.717   6.932   4.001  1.4056 -2.6362 -0.9817
 1018WAT    EPW 4794   4.754   6.968   3.942  0.3112 -0.0684 -0.2506
 1019WAT      O 4795   6.320   5.274   2.894 -0.1448 -0.1433 -0.3612
 1019WAT     H1 4796   6.325   5.331   2.960 -0.8514  1.5811 -1.7030
 1019WAT     H2 4797   6.320   5.325   2.823 -1.4600 -1.7897 -1.6229
 1019WAT    EPW 4798   6.321   5.290   2.893 -0.4435 -0.1318 -0.7458
 1020WAT      O 4799   6.892   6.541   3.235  0.0390 -0.0909  0.6386
 1020WAT     H1 4800   6.911   6.622   3.207  0.1492 -0.2119  0.3619
 1020WAT     H2 4801   6.805   6.536   3.222  0.1372 -0.2648 -0.0074
 1020WAT    EPW 4802   6.882   6.552   3.229  0.0698 -0.1345  0.5023
 1021WAT      O 4803   5.973   5.045   4.006  0.3274 -0.2175 -0.4735
 1021WAT     H1 4804   5.941   5.124   4.027 -0.6731 -0.5300 -0.7447
 1021WAT     H2 4805   6.039   5.033   4.062  0.6216  0.8956 -0.5690
 1021WAT    EPW 4806   5.978   5.055   4.018  0.2231 -0.0992 -0.5277
 1022WAT      O 4807   5.712   5.806   2.014  0.1792  0.3614  0.2306
 1022WAT     H1 4808   5.650   5.745   2.017  2.3027 -1.9097  0.2935
 1022WAT     H2 4809   5.714   5.837   2.095 -0.3370 -0.0723  0.4182
 1022WAT    EPW 4810   5.703   5.802   2.026  0.4166 -0.0382  0.2676
 1023WAT      O 4811   6.272   4.870   2.378  0.0025  0.1613  0.0979
 1023WAT     H1 4812   6.206   4.815   2.362  0.2864  0.0094 -0.5682
 1023WAT     H2 4813   6.274   4.921   2.307  1.8045 -1.0523 -0.8086
 1023WAT    EPW 4814   6.262   4.870   2.365  0.3106 -0.0404 -0.1344
 1024WAT      O 4815   5.673   5.492   2.453 -0.0386  0.8720 -0.1396
 1024WAT     H1 4816   5.668   5.570   2.492  0.3937  0.1532  1.4588
 1024WAT     H2 4817   5.598   5.486   2.408 -0.1776  2.1035 -0.0911
 1024WAT    EPW 4818   5.661   5.502   2.452  0.0048  0.9478  0.1037
 1025WAT      O 4819   5.654   5.047   4.338  1.0030  0.4747  0.7824
 1025WAT     H1 4820   5.674   5.095   4.409  0.3099 -0.3870  1.5799
 1025WAT     H2 4821   5.677   4.966   4.361 -1.4264 -0.2249  0.9703
 1025WAT    EPW 4822   5.661   5.042   4.352  0.5417  0.2441  0.9280
 1026WAT      O 4823   6.172   5.965   1.828  0.3087 -0.2454  0.2636
 1026WAT     H1 4824   6.254   5.938   1.841  0.2679  0.1972  1.5523
 1026WAT     H2 4825   6.139   5.971   1.908 -1.0474 -0.5730 -0.2375
 1026WAT    EPW 4826   6.179   5.962   1.842  0.1024 -0.2284  0.3799
 1027WAT      O 4827   6.597   5.180   3.139  0.3372  0.1563  0.1072
 1027WAT     H1 4828   6.585   5.099   3.109  0.9992 -0.1359  0.6254
 1027WAT     H2 4829   6.541   5.228   3.091 -1.1464 -0.8058  0.8254
 1027WAT    EPW 4830   6.587   5.175   3.127  0.2158 -0.0290  0.2899
 1028WAT      O 4831   6.208   5.110   3.318  0.3043 -0.3764  0.0890
 1028WAT     H1 4832   6.192   5.105   3.232 -1.1717  0.2871  0.3020
 1028WAT     H2 4833   6.142   5.066   3.354  1.4014 -1.4549  0.8881
 1028WAT    EPW 4834   6.196   5.103   3.310  0.2483 -0.4377  0.2385
 1029WAT      O 4835   7.173   6.797   2.774  0.7571  0.3761 -0.0806
 1029WAT     H1 4836   7.128   6.743   2.722  0.5658  0.1056  0.3637
 1029WAT     H2 4837   7.248   6.808   2.731  0.4645  0.4491 -0.5940
 1029WAT    EPW 4838   7.177   6.791   2.760  0.6856  0.3469 -0.0908
 1030WAT      O 4839   6.172   6.400   3.490 -0.5420 -0.4045 -0.0242
 1030WAT     H1 4840   6.157   6.344   3.555 -2.5207 -0.3824 -0.3927
 1030WAT     H2 4841   6.200   6.472   3.530 -1.8675 -0.3469  0.8622
 1030WAT    EPW 4842   6.174   6.403   3.505 -1.0301 -0.3927  0.0523
 1031WAT      O 4843   7.037   7.466   4.217  0.0930  0.8458 -0.0937
 1031WAT     H1 4844   7.002   7.395   4.180  1.6387  0.5363 -1.0164
 1031WAT     H2 4845   7.027   7.528   4.156 -1.1601  1.4345  0.6687
 1031WAT    EPW 4846   7.030   7.465   4.202  0.1362  0.8871 -0.1174
 1032WAT      O 4847   7.162   5.270   1.913  0.0876 -0.6945  0.7841
 1032WAT     H1 4848   7.169   5.317   1.839  0.4435 -2.8312 -0.6121
 1032WAT     H2 4849   7.097   5.310   1.956  0.4348  1.1228 -0.2533
 1032WAT    EPW 4850   7.154   5.283   1.908  0.1914 -0.7417  0.4246
 1033WAT      O 4851   7.036   4.244   1.510 -0.5011  0.0482 -0.0396
 1033WAT     H1 4852   7.068   4.164   1.521  0.5445  0.4949  0.2416
 1033WAT     H2 4853   7.087   4.294   1.559 -0.2536  1.0926 -1.3147
 1033WAT    EPW 4854   7.048   4.240   1.519 -0.3101  0.2685 -0.1864
 1034WAT      O 4855   5.397   5.473   2.384  0.2051  0.3251 -0.1392
 1034WAT     H1 4856   5.385   5.403   2.333 -2.0409 -0.5175  1.3638
 1034WAT     H2 4857   5.369   5.539   2.335  0.0130 -0.1825 -0.7386
 1034WAT    EPW 4858   5.391   5.472   2.370 -0.1551  0.1257 -0.0057
 1035WAT      O 4859   6.542   5.345   5.214  0.1223 -0.5636  0.4539
 1035WAT     H1 4860   6.516   5.290   5.153  1.4141 -0.9379  0.2019
 1035WAT     H2 4861   6.575   5.293   5.276  1.8226 -0.1059 -0.0130
 1035WAT    EPW 4862   6.543   5.329   5.214  0.5643 -0.5513  0.3477
 1036WAT      O 4863   6.880   6.495   2.697  0.7439  0.6901 -0.3316
 1036WAT     H1 4864   6.930   6.547   2.648  0.3101  0.6382 -0.8331
 1036WAT     H2 4865   6.913   6.416   2.682 -0.3414  0.4669 -1.7676
 1036WAT    EPW 4866   6.892   6.491   2.687  0.5195  0.6495 -0.6178
 1037WAT      O 4867   4.798   7.001   1.769 -0.5199 -0.5661 -0.0019
 1037WAT     H1 4868   4.844   7.023   1.699 -0.4557  0.6989  0.4152
 1037WAT     H2 4869   4.798   7.074   1.817 -3.1827 -0.4134 -0.1016
 1037WAT    EPW 4870   4.805   7.015   1.766 -0.9038 -0.3567  0.0450
 1038WAT      O 4871   7.174   3.644   2.313  0.2841  0.4230 -0.2250
 1038WAT     H1 4872   7.165   3.568   2.271 -0.7859  0.2854  0.2353
 1038WAT     H2 4873   7.252   3.673   2.285  0.4052 -0.5129 -0.9192
 1038WAT    EPW 4874   7.184   3.637   2.303  0.1439  0.2644 -0.2596
 1039WAT      O 4875   6.165   4.752   3.641 -0.2091  0.1362 -0.1616
 1039WAT     H1 4876   6.223   4.688   3.650  1.1560  1.4265  0.7741
 1039WAT     H2 4877   6.105   4.734   3.702  2.1423  1.6740  2.9206
 1039WAT    EPW 4878   6.165   4.740   3.652  0.3399  0.5540  0.4319
 1040WAT      O 4879   6.656   4.791   2.128 -0.7613  0.3918  0.0154
 1040WAT     H1 4880   6.616   4.734   2.181  0.0589 -0.1501  0.0823
 1040WAT     H2 4881   6.628   4.868   2.156 -1.4583  0.0508  0.2986
 1040WAT    EPW 4882   6.646   4.794   2.140 -0.7431  0.2614  0.0671
 1041WAT      O 4883   4.931   6.304   1.550 -0.6602 -0.1400  0.3385
 1041WAT     H1 4884   4.995   6.249   1.571  0.8360  1.2660 -0.3275
 1041WAT     H2 4885   4.935   6.366   1.611  0.3829  1.3122 -1.1324
 1041WAT    EPW 4886   4.941   6.305   1.562 -0.2851  0.2822  0.0228
 1042WAT      O 4887   6.121   4.827   3.149 -0.0734  0.5226  0.1790
 1042WAT     H1 4888   6.120   4.869   3.225  1.2352  0.8792  0.0198
 1042WAT     H2 4889   6.186   4.770   3.157 -0.0354  0.4464 -0.6051
 1042WAT    EPW 4890   6.130   4.825   3.161  0.1256  0.5640  0.0396
 1043WAT      O 4891   4.308   6.939   4.244 -0.2335 -0.0315 -0.6956
 1043WAT     H1 4892   4.281   7.018   4.270  3.5682  0.7312  1.6149
 1043WAT     H2 4893   4.321   6.949   4.158  3.3786  3.2156 -0.0487
 1043WAT    EPW 4894   4.306   6.952   4.235  0.8617  0.5608 -0.2588
 1044WAT      O 4895   5.793   5.755   2.951 -0.2292 -0.3496  0.0364
 1044WAT     H1 4896   5.714   5.723   2.931 -0.4179 -1.1161  1.7773
 1044WAT     H2 4897   5.844   5.684   2.953 -0.2590 -0.3687  2.1992
 1044WAT    EPW 4898   5.789   5.740   2.948 -0.2615 -0.4656  0.6131
 1045WAT      O 4899   5.862   5.001   1.755  0.2336  0.1484 -0.0589
 1045WAT     H1 4900   5.937   4.959   1.740  0.6023  1.1111 -1.0593
 1045WAT     H2 4901   5.840   5.032   1.677 -1.7328 -0.8951  0.0031
 1045WAT    EPW 4902   5.870   4.999   1.741 -0.0024  0.1364 -0.1975
 1046WAT      O 4903   6.526   4.567   2.762  0.0898  0.4361 -0.3311
 1046WAT     H1 4904   6.523   4.591   2.846  0.3719  1.7803 -0.6874
 1046WAT     H2 4905   6.495   4.636   2.719  2.8666  1.0967 -1.5403
 1046WAT    EPW 4906   6.521   4.581   2.768  0.5416  0.7323 -0.5624
 1047WAT      O 4907   5.922   5.518   1.454 -0.3030  0.8616  0.2950
 1047WAT     H1 4908   5.898   5.565   1.385  1.4632 -0.3953 -1.2909
 1047WAT     H2 4909   5.896   5.437   1.433  2.3252  0.0272 -0.0830
 1047WAT    EPW 4910   5.914   5.513   1.441  0.3461  0.5527  0.0049
 1048WAT      O 4911   6.227   4.136   4.885 -0.3972 -0.0574  0.0392
 1048WAT     H1 4912   6.236   4.096   4.808 -0.7423 -1.0828  0.5187
 1048WAT     H2 4913   6.268   4.212   4.873  0.1773 -0.5011 -0.9337
 1048WAT    EPW 4914   6.235   4.141   4.872 -0.3633 -0.2744 -0.0337
 1049WAT      O 4915   6.428   4.967   5.131 -0.0009  0.1402  0.3140
 1049WAT     H1 4916   6.346   4.966   5.159 -0.0329  0.3246  0.2246
 1049WAT     H2 4917   6.475   4.962   5.205 -0.0953 -0.5665  0.3283
 1049WAT    EPW 4918   6.423   4.966   5.146 -0.0196  0.0630  0.3029
 1050WAT      O 4919   4.616   7.407   4.188  0.4086 -0.3591  0.0433
 1050WAT     H1 4920   4.672   7.356   4.144 -0.0471 -0.3662 -0.5386
 1050WAT     H2 4921   4.575   7.451   4.125 -1.1567 -1.2973  0.3762
 1050WAT    EPW 4922   4.618   7.406   4.172  0.1101 -0.4987  0.0065
 1051WAT      O 4923   6.930   5.465   3.353  0.1322  0.1113 -0.0712
 1051WAT     H1 4924   6.873   5.427   3.298 -0.0402  0.8526 -0.4335
 1051WAT     H2 4925   6.999   5.480   3.303  0.2529  0.1397  0.1050
 1051WAT    EPW 4926   6.932   5.462   3.337  0.1245  0.2250 -0.0987
 1052WAT      O 4927   6.927   7.524   3.375  0.1916  0.3480  0.4224
 1052WAT     H1 4928   6.886   7.568   3.312 -1.0439 -0.4106  0.6449
 1052WAT     H2 4929   6.930   7.442   3.344  1.0554  0.2826  0.6591
 1052WAT    EPW 4930   6.921   7.518   3.361  0.1367  0.2263  0.4902
 1053WAT      O 4931   6.412   6.569   2.821 -0.5557 -0.4523 -0.1986
 1053WAT     H1 4932   6.356   6.503   2.809 -1.3654  0.1800 -0.0425
 1053WAT     H2 4933   6.378   6.633   2.772 -0.5610  0.2732  0.7211
 1053WAT    EPW 4934   6.399   6.568   2.812 -0.6761 -0.2517 -0.0397
 1054WAT      O 4935   6.944   5.914   3.079 -0.6026 -0.1250  0.0336
 1054WAT     H1 4936   6.980   5.836   3.093  0.4951  0.8151  3.6938
 1054WAT     H2 4937   6.862   5.904   3.109 -0.5047  0.0442  0.3705
 1054WAT    EPW 4938   6.937   5.901   3.086 -0.4260  0.0388  0.6240
 1055WAT      O 4939   6.210   7.093   3.518  0.1396  0.0411 -0.0437
 1055WAT     H1 4940   6.164   7.065   3.587 -1.6993  0.4551 -1.0541
 1055WAT     H2 4941   6.169   7.058   3.450  0.0695  2.0513 -1.1182
 1055WAT    EPW 4942   6.197   7.084   3.518 -0.1424  0.3992 -0.3517
 1056WAT      O 4943   5.604   6.039   3.102 -0.0811 -0.0094  0.2533
 1056WAT     H1 4944   5.619   6.110   3.054  0.6702  1.5439  2.5786
 1056WAT     H2 4945   5.680   5.996   3.099 -0.1652 -0.1202 -0.2613
 1056WAT    EPW 4946   5.617   6.043   3.095  0.0174  0.2037  0.5208
 1057WAT      O 4947   5.726   6.747   3.119 -0.7463 -0.0139 -0.4493
 1057WAT     H1 4948   5.797   6.704   3.145 -0.2414  0.7860 -0.4495
 1057WAT     H2 4949   5.759   6.812   3.070 -1.1961  2.1384  1.8806
 1057WAT    EPW 4950   5.741   6.750   3.116 -0.7381  0.4222 -0.1052
 1058WAT      O 4951   5.345   4.358   4.211  0.5273 -0.4726  0.0472
 1058WAT     H1 4952   5.317   4.290   4.164 -0.6011 -1.2265  1.7119
 1058WAT     H2 4953   5.311   4.343   4.290  2.6929  0.5218  1.2239
 1058WAT    EPW 4954   5.336   4.346   4.216  0.6805 -0.4371  0.4669
 1059WAT      O 4955   6.241   6.359   2.757  0.2928 -0.2572 -0.5405
 1059WAT     H1 4956   6.220   6.381   2.675 -0.0955 -0.5418 -0.5185
 1059WAT     H2 4957   6.184   6.295   2.776 -0.1483  0.3560  0.2289
 1059WAT    EPW 4958   6.229   6.353   2.747  0.1703 -0.2087 -0.4236
 1060WAT      O 4959   6.236   5.978   3.467 -0.0880 -0.3739  0.3137
 1060WAT     H1 4960   6.298   6.040   3.468 -0.3272 -0.0894 -0.9163
 1060WAT     H2 4961   6.282   5.904   3.481  0.1917  0.0615  1.8056
 1060WAT    EPW 4962   6.252   5.976   3.469 -0.0820 -0.2676  0.3524
 1061WAT      O 4963   4.794   6.595   2.889  0.2427  0.0964  0.1200
 1061WAT     H1 4964   4.758   6.648   2.831 -0.6285 -1.0313 -0.4019
 1061WAT     H2 4965   4.880   6.608   2.878  0.0710  2.2413  0.8512
 1061WAT    EPW 4966   4.802   6.604   2.879  0.0887  0.2467  0.1509
 1062WAT      O 4967   4.944   4.602   2.360  0.1330  0.3330  0.0100
 1062WAT     H1 4968   4.912   4.622   2.282 -0.1512  0.1418  0.0758
 1062WAT     H2 4969   4.941   4.514   2.362 -0.2059  0.3521  0.3802
 1062WAT    EPW 4970   4.939   4.592   2.349  0.0410  0.3076  0.0744
 1063WAT      O 4971   5.973   5.243   3.575 -0.1621  0.2180  0.4247
 1063WAT     H1 4972   5.956   5.253   3.490 -1.6640  0.3883  0.7209
 1063WAT     H2 4973   5.931   5.309   3.613 -2.0259 -1.5055  1.5287
 1063WAT    EPW 4974   5.965   5.254   3.568 -0.6592 -0.0115  0.6315
 1064WAT      O 4975   5.111   4.837   4.058 -0.7241  0.1050 -0.4686
 1064WAT     H1 4976   5.123   4.753   4.037  0.6880 -0.1434  1.1210
 1064WAT     H2 4977   5.129   4.880   3.985  0.9992 -0.8571 -0.6491
 1064WAT    EPW 4978   5.115   4.831   4.044 -0.2609 -0.0738 -0.2605
 1065WAT      O 4979   7.117   6.383   1.338  0.1648  0.1749  0.0526
 1065WAT     H1 4980   7.147   6.413   1.414 -2.7020  1.0874  0.9463
 1065WAT     H2 4981   7.140   6.446   1.281  1.8514 -0.2565  0.1933
 1065WAT    EPW 4982   7.125   6.397   1.341 -0.0095  0.2460  0.2054
 1066WAT      O 4983   6.663   3.161   4.036 -0.1709  0.6053 -0.2990
 1066WAT     H1 4984   6.739   3.203   4.026 -0.5985  2.4421  2.8651
 1066WAT     H2 4985   6.604   3.225   4.036 -1.3571 -0.4536  0.4977
 1066WAT    EPW 4986   6.665   3.177   4.034 -0.4093  0.7202  0.2861
 1067WAT      O 4987   6.680   6.216   3.450 -0.2847  0.1472 -0.8278
 1067WAT     H1 4988   6.720   6.200   3.374  0.9428 -0.2342 -0.1198
 1067WAT     H2 4989   6.658   6.136   3.478  1.2431  0.0533  0.2432
 1067WAT    EPW 4990   6.683   6.202   3.443  0.1223  0.0770 -0.5650
 1068WAT      O 4991   6.781   3.845   3.617 -0.3856  0.1173  0.1267
 1068WAT     H1 4992   6.734   3.800   3.559 -0.2317 -0.6598  0.5812
 1068WAT     H2 4993   6.758   3.928   3.604 -2.0906 -0.2613  0.5016
 1068WAT    EPW 4994   6.771   3.850   3.607 -0.6147 -0.0534  0.2492
 1069WAT      O 4995   6.242   6.769   2.379 -0.1741 -0.4168  0.1695
 1069WAT     H1 4996   6.167   6.751   2.339 -0.1665  1.9187 -1.0189
 1069WAT     H2 4997   6.302   6.754   2.318  0.0881  0.3456  0.2333
 1069WAT    EPW 4998   6.240   6.764   2.364 -0.1342  0.0408  0.0034
 1070WAT      O 4999   6.830   0.262   0.993 -0.2486  0.4803  0.1160
 1070WAT     H1 5000   6.890   0.294   0.939 -1.1155  0.1615 -1.0608
 1070WAT     H2 5001   6.864   0.185   1.018 -0.5406 -0.1133 -1.2402
 1070WAT    EPW 5002   6.844   0.255   0.989 -0.4198  0.3455 -0.2582
 1071WAT      O 5003   5.113   6.083   1.390  0.4160  0.2197  0.4295
 1071WAT     H1 5004   5.026   6.082   1.401  0.2510  0.2492 -0.7548
 1071WAT     H2 5005   5.141   6.017   1.439 -0.3822 -0.3966  0.0740
 1071WAT    EPW 5006   5.104   6.073   1.399  0.2737  0.1330  0.2021
 1072WAT      O 5007   5.363   5.522   3.484  0.2299  0.4198 -0.2074
 1072WAT     H1 5008   5.294   5.504   3.435  1.3360 -2.6462 -0.8821
 1072WAT     H2 5009   5.418   5.562   3.428 -0.3753  1.4487 -0.0823
 1072WAT    EPW 5010   5.361   5.525   3.468  0.3039  0.1189 -0.2886
 1073WAT      O 5011   6.109   4.847   1.801  0.0801  0.1816 -0.4534
 1073WAT     H1 5012   6.105   4.825   1.886 -2.8365  1.7095 -0.0723
 1073WAT     H2 5013   6.083   4.775   1.760 -0.4469  0.0459  0.1013
 1073WAT    EPW 5014   6.105   4.834   1.808 -0.4286  0.3873 -0.3151
 1074WAT      O 5015   6.630   5.541   2.162 -0.2150 -0.4054  0.1719
 1074WAT     H1 5016   6.594   5.464   2.142  0.3790 -0.3635 -1.2398
 1074WAT     H2 5017   6.562   5.593   2.177 -0.7066 -0.7039 -0.9114
 1074WAT    EPW 5018   6.615   5.537   2.161 -0.1999 -0.4433 -0.1966
 1075WAT      O 5019   4.969   6.834   1.933  0.1198  0.1905 -0.5490
 1075WAT     H1 5020   4.925   6.875   1.870 -0.1487 -1.0279 -1.1812
 1075WAT     H2 5021   5.035   6.888   1.950 -0.0283  0.7296 -1.5948
 1075WAT    EPW 5022   4.972   6.848   1.926  0.0582  0.0901 -0.7969
 1076WAT      O 5023   6.059   4.501   3.349 -0.1675 -0.3761  0.1622
 1076WAT     H1 5024   6.090   4.439   3.401  0.2575 -0.0627  0.2927
 1076WAT     H2 5025   6.001   4.544   3.398 -0.2838 -0.5190  0.1489
 1076WAT    EPW 5026   6.055   4.498   3.364 -0.1219 -0.3509  0.1795
 1077WAT      O 5027   7.116   5.701   2.450 -0.4617 -0.0886 -0.4233
 1077WAT     H1 5028   7.086   5.640   2.505 -1.3611  0.3874 -0.3788
 1077WAT     H2 5029   7.091   5.672   2.372 -1.0091  0.2852 -0.3901
 1077WAT    EPW 5030   7.108   5.688   2.447 -0.6754  0.0369 -0.4118
 1078WAT      O 5031   7.037   7.121   4.468  0.5670  0.4718  0.0371
 1078WAT     H1 5032   6.954   7.132   4.493  0.1716 -1.1981 -0.4271
 1078WAT     H2 5033   7.035   7.048   4.420  2.0621  1.2085 -1.2413
 1078WAT    EPW 5034   7.024   7.111   4.465  0.7295  0.3339 -0.2204
 1079WAT      O 5035   5.227   6.343   4.704  0.3151  0.6734  0.0228
 1079WAT     H1 5036   5.160   6.399   4.702 -1.0331 -0.8692 -1.2441
 1079WAT     H2 5037   5.289   6.383   4.658 -0.5521  1.1836 -0.7258
 1079WAT    EPW 5038   5.226   6.357   4.697 -0.0121  0.5209 -0.2749
 1080WAT      O 5039   6.450   4.871   4.128  0.1703  0.5292  0.0702
 1080WAT     H1 5040   6.431   4.956   4.139 -0.5609  0.4839 -0.7566
 1080WAT     H2 5041   6.378   4.831   4.157 -1.0511  0.3394 -2.8483
 1080WAT    EPW 5042   6.436   4.878   4.134 -0.1181  0.4945 -0.4830
 1081WAT      O 5043   4.891   4.743   2.663  0.4305 -0.0920 -0.1229
 1081WAT     H1 5044   4.953   4.704   2.711 -0.0934 -0.3967  0.3257
 1081WAT     H2 5045   4.890   4.697   2.589 -0.4711 -1.2339  0.5629
 1081WAT    EPW 5046   4.900   4.730   2.659  0.2199 -0.3057  0.0447
 1082WAT      O 5047   6.537   4.377   2.394 -0.3848  0.8930 -0.5479
 1082WAT     H1 5048   6.550   4.446   2.342 -0.9727  2.3381  1.1363
 1082WAT     H2 5049   6.477   4.404   2.450 -0.9189 -1.1476 -0.0477
 1082WAT    EPW 5050   6.530   4.391   2.395 -0.5506  0.8050 -0.2253
 1083WAT      O 5051   5.863   0.306   3.758  0.4466  0.0035  0.5667
 1083WAT     H1 5052   5.785   0.271   3.777  0.5552 -0.2328  0.5846
 1083WAT     H2 5053   5.903   0.242   3.714 -0.2007  0.8884 -1.4180
 1083WAT    EPW 5054   5.857   0.291   3.754  0.3670  0.0993  0.2762
 1084WAT      O 5055   5.624   6.353   4.975 -0.1883 -0.4599 -0.0471
 1084WAT     H1 5056   5.538   6.352   4.965 -0.0810 -0.3175 -1.0970
 1084WAT     H2 5057   5.636   6.408   5.042 -0.9339 -0.9607  0.5118
 1084WAT    EPW 5058   5.613   6.361   4.984 -0.2826 -0.5129 -0.1197
 1085WAT      O 5059   4.309   4.942   2.383  0.0586 -0.1764  0.0454
 1085WAT     H1 5060   4.348   5.020   2.389 -0.7319  0.4528 -2.0681
 1085WAT     H2 5061   4.300   4.930   2.297 -2.6189 -1.1658  0.3659
 1085WAT    EPW 5062   4.314   4.952   2.371 -0.4537 -0.2296 -0.2194
 1086WAT      O 5063   5.863   7.129   4.152  0.2417  0.0178  0.8817
 1086WAT     H1 5064   5.929   7.165   4.107 -0.0132 -0.3382  0.2199
 1086WAT     H2 5065   5.898   7.056   4.186  0.8156  0.9373  2.3849
 1086WAT    EPW 5066   5.878   7.123   4.151  0.2888  0.1011  1.0060
 1087WAT      O 5067   7.169   6.317   2.039  0.0487 -0.5091 -1.2062
 1087WAT     H1 5068   7.167   6.404   2.034  1.2287 -0.4646 -1.1121
 1087WAT     H2 5069   7.160   6.302   2.125 -4.3218 -0.6920 -1.4659
 1087WAT    EPW 5070   7.167   6.328   2.051 -0.4226 -0.5296 -1.2306
 1088WAT      O 5071   5.230   6.922   1.644  0.2239  0.5918 -0.1310
 1088WAT     H1 5072   5.184   6.977   1.694  1.9752  2.0054  0.0425
 1088WAT     H2 5073   5.169   6.877   1.602 -1.3422  0.0400  2.4667
 1088WAT    EPW 5074   5.214   6.924   1.645  0.2513  0.7191  0.2784
 1089WAT      O 5075   6.850   5.393   2.461  0.6005 -0.0435  0.4136
 1089WAT     H1 5076   6.799   5.424   2.525  1.3832  1.1613  0.4834
 1089WAT     H2 5077   6.839   5.450   2.396 -1.1839 -1.9333 -1.0801
 1089WAT    EPW 5078   6.841   5.406   2.461  0.4525 -0.1447  0.2033
 1090WAT      O 5079   6.823   0.083   0.387 -0.0057  0.1465  0.0191
 1090WAT     H1 5080   6.764   0.147   0.392  0.5333  0.5930  1.0212
 1090WAT     H2 5081   6.866   0.100   0.313  0.6701  1.4583  0.6672
 1090WAT    EPW 5082   6.821   0.095   0.377  0.1737  0.4062  0.2628
 1091WAT      O 5083   6.377   6.213   3.419 -0.0849  0.1874  0.6282
 1091WAT     H1 5084   6.322   6.278   3.440  1.1485  1.5086 -0.0669
 1091WAT     H2 5085   6.453   6.238   3.454  1.0960  0.5616 -1.9834
 1091WAT    EPW 5086   6.380   6.227   3.427  0.2717  0.4379  0.1398
 1092WAT      O 5087   5.549   6.002   2.680 -0.3650 -0.0485 -0.0129
 1092WAT     H1 5088   5.483   5.981   2.734  0.3577 -0.0379  0.8982
 1092WAT     H2 5089   5.552   6.089   2.684 -0.3818 -0.0423 -0.1522
 1092WAT    EPW 5090   5.540   6.012   2.689 -0.2608 -0.0460  0.1011
 1093WAT      O 5091   6.509   6.092   4.463  0.0092  0.3008 -0.5061
 1093WAT     H1 5092   6.525   6.029   4.521 -0.4806  0.7202  0.1119
 1093WAT     H2 5093   6.585   6.132   4.454  0.4745 -0.7522 -1.3738
 1093WAT    EPW 5094   6.522   6.089   4.471  0.0056  0.2072 -0.5430
 1094WAT      O 5095   6.371   5.052   3.754 -0.2327 -0.3616  0.5474
 1094WAT     H1 5096   6.295   5.078   3.789 -0.2486 -1.7623  1.6404
 1094WAT     H2 5097   6.377   4.969   3.778  1.5053 -0.3770  0.1760
 1094WAT    EPW 5098   6.360   5.044   3.763  0.0217 -0.5708  0.6540
 1095WAT      O 5099   4.227   7.036   1.937  0.4117  0.2610  0.4357
 1095WAT     H1 5100   4.180   6.962   1.935  0.2345  0.3081  1.7404
 1095WAT     H2 5101   4.238   7.056   1.853 -0.8676 -0.4214  0.0815
 1095WAT    EPW 5102   4.221   7.028   1.925  0.1966  0.1672  0.5761
 1096WAT      O 5103   5.840   5.491   4.943  0.4167  0.0355 -0.5507
 1096WAT     H1 5104   5.842   5.488   5.030 -2.6911 -0.8397 -0.4032
 1096WAT     H2 5105   5.880   5.417   4.919  1.0287  0.1389  0.1026
 1096WAT    EPW 5106   5.846   5.480   4.952  0.0480 -0.0785 -0.4324
 1097WAT      O 5107   5.173   5.685   3.243 -0.3371 -0.1619  0.0926
 1097WAT     H1 5108   5.249   5.708   3.205 -0.5745 -2.1064 -1.7340
 1097WAT     H2 5109   5.115   5.698   3.179 -1.1921 -0.9027  0.7102
 1097WAT    EPW 5110   5.176   5.691   3.228 -0.4984 -0.5586 -0.0860
 1098WAT      O 5111   6.277   6.772   2.675  0.3634  0.3082  0.2205
 1098WAT     H1 5112   6.307   6.853   2.664  0.5757  0.3704  1.1574
 1098WAT     H2 5113   6.263   6.744   2.594  1.0925  0.9796 -0.1482
 1098WAT    EPW 5114   6.279   6.780   2.662  0.5025  0.4166  0.3044
 1099WAT      O 5115   4.418   4.881   3.604  0.1991  0.2326  0.5774
 1099WAT     H1 5116   4.464   4.941   3.648 -1.2010  0.5702  1.6212
 1099WAT     H2 5117   4.340   4.882   3.642 -0.8404 -0.0427 -1.3865
 1099WAT    EPW 5118   4.414   4.890   3.616 -0.1613  0.2418  0.4415
 1100WAT      O 5119   4.780   4.359   1.454 -0.0780 -0.0281 -0.1159
 1100WAT     H1 5120   4.718   4.361   1.392  1.3045  1.5889 -1.5558
 1100WAT     H2 5121   4.738   4.384   1.526 -1.5484 -1.1284 -0.5419
 1100WAT    EPW 5122   4.764   4.363   1.455 -0.0910  0.0482 -0.3915
 1101WAT      O 5123   5.618   5.569   0.218 -0.1336 -0.1959  0.0514
 1101WAT     H1 5124   5.676   5.521   0.263 -0.0789 -0.2325 -0.0576
 1101WAT     H2 5125   5.586   5.513   0.160 -0.4067 -0.2198  0.2269
 1101WAT    EPW 5126   5.622   5.554   0.216 -0.1659 -0.2049  0.0612
 1102WAT      O 5127   3.907   5.624   6.843 -0.1985  0.5138  0.1361
 1102WAT     H1 5128   3.895   5.540   6.825  1.8223  0.3609 -0.6821
 1102WAT     H2 5129   3.914   5.626   6.930 -0.8666 -0.0583  0.2083
 1102WAT    EPW 5130   3.906   5.612   6.853  0.0013  0.4067  0.0259
 1103WAT      O 5131   6.166   6.562   0.605 -0.2188 -0.4173 -0.6636
 1103WAT     H1 5132   6.160   6.481   0.636 -2.1048  0.0828  0.4042
 1103WAT     H2 5133   6.117   6.560   0.533 -0.9472 -0.0639 -0.1960
 1103WAT    EPW 5134   6.158   6.550   0.599 -0.6050 -0.2912 -0.4368
 1104WAT      O 5135   5.811   5.613   0.507  0.5513  0.6005  0.0080
 1104WAT     H1 5136   5.887   5.607   0.550  0.7586 -2.3003 -0.5378
 1104WAT     H2 5137   5.835   5.635   0.426  0.8914 -0.6475 -0.2497
 1104WAT    EPW 5138   5.826   5.615   0.502  0.6322 -0.0123 -0.1107
 1105WAT      O 5139   6.435   4.737   0.109 -0.7075 -0.1127 -0.2592
 1105WAT     H1 5140   6.431   4.811   0.154  0.5538 -0.0201 -0.2659
 1105WAT     H2 5141   6.492   4.689   0.154 -0.4978 -0.5600 -0.9944
 1105WAT    EPW 5142   6.443   4.741   0.122 -0.4902 -0.1651 -0.3688
 1106WAT      O 5143   6.777   7.149   0.031  0.0571  0.2174 -0.3758
 1106WAT     H1 5144   6.786   7.073   0.073 -0.9917  0.1960 -0.1793
 1106WAT     H2 5145   6.829   7.139  -0.039  0.4894 -0.3980  0.0222
 1106WAT    EPW 5146   6.786   7.136   0.027 -0.0339  0.1233 -0.2880
 1107WAT      O 5147   6.634   6.146   7.290  0.2622  0.5893 -0.0219
 1107WAT     H1 5148   6.676   6.084   7.246 -0.4006 -0.6106  0.9901
 1107WAT     H2 5149   6.590   6.103   7.350 -1.9307  1.8397 -0.6130
 1107WAT    EPW 5150   6.634   6.131   7.292 -0.1596  0.5968  0.0403
 1108WAT      O 5151   5.659   5.880   1.512  0.0949  0.5274  0.0502
 1108WAT     H1 5152   5.647   5.833   1.439  1.0090 -0.1705  0.3401
 1108WAT     H2 5153   5.605   5.842   1.569  0.1741  0.4019  0.0404
 1108WAT    EPW 5154   5.649   5.868   1.509  0.2416  0.4058  0.0915
 1109WAT      O 5155   5.788   6.546   0.601  0.0849  0.3693  0.1358
 1109WAT     H1 5156   5.719   6.577   0.557 -0.9445  0.2187  1.5481
 1109WAT     H2 5157   5.837   6.617   0.616  0.3122  0.4649 -0.9620
 1109WAT    EPW 5158   5.785   6.561   0.597 -0.0336  0.3612  0.1822
 1110WAT      O 5159   4.830   6.529   0.082  0.1491 -0.2162 -0.1134
 1110WAT     H1 5160   4.782   6.498   0.149  0.8937  1.4345  1.2664
 1110WAT     H2 5161   4.910   6.498   0.097  0.4878  0.7742  0.2365
 1110WAT    EPW 5162   4.834   6.520   0.094  0.3091  0.1739  0.1421
 1111WAT      O 5163   5.456   5.865   1.277 -0.0071 -0.4876 -0.5783
 1111WAT     H1 5164   5.448   5.947   1.306  1.1337 -0.8526  0.9426
 1111WAT     H2 5165   5.382   5.827   1.305  0.7270 -0.6382  1.3386
 1111WAT    EPW 5166   5.444   5.872   1.286  0.2699 -0.5637 -0.0705
 1112WAT      O 5167   4.909   5.433   0.179  0.2228 -0.1870  0.0012
 1112WAT     H1 5168   4.947   5.496   0.131  1.7809  0.2771  1.7107
 1112WAT     H2 5169   4.928   5.360   0.135 -0.6013  0.4076 -1.4023
 1112WAT    EPW 5170   4.917   5.431   0.165  0.3312 -0.0306  0.0464
 1113WAT      O 5171   5.346   4.489   0.900 -0.0456  0.2528  0.1216
 1113WAT     H1 5172   5.301   4.452   0.834 -0.9099  2.2894 -0.5044
 1113WAT     H2 5173   5.404   4.539   0.859  0.9629 -0.1986  0.9512
 1113WAT    EPW 5174   5.348   4.491   0.884 -0.0243  0.4870  0.1517
 1114WAT      O 5175   6.295   6.599   1.747 -0.6061 -0.7696  0.1043
 1114WAT     H1 5176   6.210   6.618   1.740 -0.3410  0.9574  0.8839
 1114WAT     H2 5177   6.330   6.676   1.770  1.1074 -1.5550  0.2116
 1114WAT    EPW 5178   6.287   6.613   1.749 -0.3138 -0.6305  0.2353
 1115WAT      O 5179   6.054   5.298   0.180  0.4058 -0.5057 -0.1268
 1115WAT     H1 5180   6.110   5.239   0.213  0.7549 -0.3279 -0.3901
 1115WAT     H2 5181   6.102   5.370   0.173  0.5566 -0.6994 -1.6310
 1115WAT    EPW 5182   6.069   5.300   0.184  0.4796 -0.5081 -0.3879
 1116WAT      O 5183   5.511   7.022   3.085 -0.1969 -0.4306 -0.0369
 1116WAT     H1 5184   5.525   6.952   3.035  0.5108 -0.1295 -0.2711
 1116WAT     H2 5185   5.505   7.088   3.028  0.8653 -0.0452  0.2558
 1116WAT    EPW 5186   5.513   7.021   3.069  0.0646 -0.3292 -0.0283
 1117WAT      O 5187   6.627   5.221   0.060 -0.1247 -0.3785 -0.8622
 1117WAT     H1 5188   6.623   5.252   0.141 -3.0372  1.1234 -1.4146
 1117WAT     H2 5189   6.588   5.144   0.065  2.2298 -1.6229 -0.4379
 1117WAT    EPW 5190   6.620   5.214   0.072 -0.2071 -0.3405 -0.8811
 1118WAT      O 5191   6.965   5.985   1.729  0.3831  0.1315  0.2599
 1118WAT     H1 5192   6.881   6.010   1.731 -0.4169 -1.8435 -2.6764
 1118WAT     H2 5193   7.005   6.051   1.689 -0.3514 -0.0499 -0.8369
 1118WAT    EPW 5194   6.959   5.998   1.723  0.1564 -0.1871 -0.3359
 1119WAT      O 5195   6.597   4.129   1.053 -0.3066  0.1281 -0.1243
 1119WAT     H1 5196   6.575   4.053   1.015 -1.4759  0.8116 -0.8600
 1119WAT     H2 5197   6.556   4.189   1.005 -2.1318  1.0405  2.3748
 1119WAT    EPW 5198   6.588   4.127   1.040 -0.7490  0.3638  0.1362
 1120WAT      O 5199   5.532   5.530   3.722  0.8296 -0.5195  0.0759
 1120WAT     H1 5200   5.483   5.549   3.653  1.8096  1.5317 -0.1568
 1120WAT     H2 5201   5.474   5.517   3.786 -0.0518 -1.2242 -0.8406
 1120WAT    EPW 5202   5.516   5.531   3.722  0.8442 -0.3206 -0.0939
 1121WAT      O 5203   6.407   3.939   0.287  0.3058  0.4196  0.1977
 1121WAT     H1 5204   6.324   3.942   0.258 -0.0185 -1.5063  0.7892
 1121WAT     H2 5205   6.399   3.933   0.373  1.0717  0.2000  0.2601
 1121WAT    EPW 5206   6.393   3.939   0.295  0.3710  0.1027  0.2943
 1122WAT      O 5207   4.609   3.890   7.020  0.1285  0.2161  0.0969
 1122WAT     H1 5208   4.681   3.917   6.980 -0.2555  1.0608 -0.0395
 1122WAT     H2 5209   4.582   3.823   6.971 -0.3862  1.2821 -1.1200
 1122WAT    EPW 5210   4.616   3.884   7.007 -0.0043  0.4983 -0.1030
 1123WAT      O 5211   3.966   5.074   0.063  0.1689 -0.3691  0.2360
 1123WAT     H1 5212   3.948   5.023  -0.005 -0.0492  0.1024 -0.0685
 1123WAT     H2 5213   3.907   5.052   0.122 -1.2199  0.8914 -0.6089
 1123WAT    EPW 5214   3.955   5.063   0.061 -0.0685 -0.1132  0.0662
 1124WAT      O 5215   6.426   6.668   0.469  0.1695 -0.1276 -0.5887
 1124WAT     H1 5216   6.349   6.643   0.502  0.4905 -1.3240 -0.6961
 1124WAT     H2 5217   6.435   6.750   0.496  0.1443 -0.8528  1.8281
 1124WAT    EPW 5218   6.416   6.676   0.478  0.2132 -0.4115 -0.2476
 1125WAT      O 5219   6.525   7.218   0.829 -0.5263  0.3660  0.1416
 1125WAT     H1 5220   6.487   7.210   0.751  1.6116 -1.4148 -0.8132
 1125WAT     H2 5221   6.585   7.279   0.817 -0.2625  0.1660  0.4324
 1125WAT    EPW 5222   6.528   7.226   0.816 -0.1715  0.0734  0.0435
 1126WAT      O 5223   6.843   7.230   0.292  0.2890 -0.1256 -0.2340
 1126WAT     H1 5224   6.909   7.285   0.306 -0.6623  1.0598 -0.3256
 1126WAT     H2 5225   6.841   7.222   0.205 -0.3678  0.7155 -0.3082
 1126WAT    EPW 5226   6.852   7.237   0.281  0.0515  0.1738 -0.2585
 1127WAT      O 5227   5.486   5.018   7.593  0.8226  0.0516  0.5156
 1127WAT     H1 5228   5.465   4.942   7.631 -1.7798  0.0355 -0.7459
 1127WAT     H2 5229   5.453   5.078   7.647 -1.2676  0.0783 -0.7024
 1127WAT    EPW 5230   5.478   5.015   7.607  0.1294  0.0531  0.1493
 1128WAT      O 5231   6.361   4.398   2.015  0.0816  0.2720  0.1453
 1128WAT     H1 5232   6.290   4.354   1.991 -0.7354  1.2458  0.7126
 1128WAT     H2 5233   6.415   4.335   2.045 -1.3456 -0.2774  1.6698
 1128WAT    EPW 5234   6.359   4.382   2.016 -0.2499  0.3347  0.4543
 1129WAT      O 5235   5.438   6.993   1.476  0.2098  0.0348  0.3632
 1129WAT     H1 5236   5.376   6.943   1.513  0.4178 -0.5361 -0.0347
 1129WAT     H2 5237   5.408   7.074   1.486 -0.5884 -0.2333  0.2082
 1129WAT    EPW 5238   5.425   6.997   1.483  0.1226 -0.0892  0.2815
 1130WAT      O 5239   6.384   3.970   0.617 -0.2010  1.1222 -0.0000
 1130WAT     H1 5240   6.351   3.892   0.596 -0.3682  1.3441 -0.5941
 1130WAT     H2 5241   6.327   4.026   0.582 -0.7058  1.5304  1.4052
 1130WAT    EPW 5242   6.370   3.967   0.609 -0.3003  1.2153  0.1198
 1131WAT      O 5243   4.909   6.389   1.218 -0.0006  0.1666  0.2008
 1131WAT     H1 5244   4.936   6.432   1.289  2.2745 -0.2889 -0.3242
 1131WAT     H2 5245   4.969   6.327   1.207 -2.5688 -2.6112  0.3431
 1131WAT    EPW 5246   4.922   6.386   1.227 -0.0439 -0.3110  0.1443
 1132WAT      O 5247   4.651   4.023   1.113  0.2919 -0.1673 -0.0958
 1132WAT     H1 5248   4.579   4.015   1.161  1.6539  1.0195  2.3397
 1132WAT     H2 5249   4.715   4.000   1.168  1.8632 -0.1991 -1.8391
 1132WAT    EPW 5250   4.650   4.018   1.128  0.7252  0.0033  0.0065
 1133WAT      O 5251   4.543   5.903   1.083 -0.0416  0.0630  0.7677
 1133WAT     H1 5252   4.594   5.973   1.076 -0.5474  0.2792 -1.3645
 1133WAT     H2 5253   4.582   5.845   1.030 -0.5696 -0.6779  1.1752
 1133WAT    EPW 5254   4.556   5.904   1.074 -0.1943 -0.0145  0.5129
 1134WAT      O 5255   5.272   6.907   0.776 -0.2590 -0.1390 -0.2743
 1134WAT     H1 5256   5.224   6.912   0.849  0.3436  2.3819  0.0396
 1134WAT     H2 5257   5.349   6.875   0.805  0.4641  2.1673  0.5543
 1134WAT    EPW 5258   5.277   6.903   0.791 -0.0632  0.5741 -0.1055
 1135WAT      O 5259   6.646   6.204   2.535  0.4336  0.8514  0.0825
 1135WAT     H1 5260   6.625   6.281   2.570 -0.1704  0.1902  1.2495
 1135WAT     H2 5261   6.647   6.150   2.604  1.7406 -0.0141 -0.5762
 1135WAT    EPW 5262   6.643   6.208   2.550  0.5374  0.6259  0.1576
 1136WAT      O 5263   5.216   5.569   0.547 -1.0811  0.1582  0.1986
 1136WAT     H1 5264   5.264   5.518   0.496 -1.0346  0.6536 -0.2702
 1136WAT     H2 5265   5.164   5.514   0.589  0.4587 -0.4830  1.3720
 1136WAT    EPW 5266   5.215   5.553   0.546 -0.8468  0.1367  0.3027
 1137WAT      O 5267   5.586   5.320   0.035  0.0230  0.4767  0.0510
 1137WAT     H1 5268   5.589   5.284   0.114  0.4018  0.1589 -0.1063
 1137WAT     H2 5269   5.524   5.275  -0.006  0.8034 -0.3104 -0.2921
 1137WAT    EPW 5270   5.577   5.308   0.041  0.1942  0.3135 -0.0229
 1138WAT      O 5271   6.141   6.181   7.094 -0.1412  0.0963  0.5060
 1138WAT     H1 5272   6.086   6.225   7.146 -1.0681 -0.4514  0.0121
 1138WAT     H2 5273   6.097   6.109   7.074  0.4812 -0.0316 -0.4754
 1138WAT    EPW 5274   6.127   6.177   7.099 -0.1861 -0.0035  0.2881
 1139WAT      O 5275   5.340   5.550   1.000 -0.6072  0.2419 -0.3618
 1139WAT     H1 5276   5.306   5.627   0.978 -1.4269 -0.1890 -0.6577
 1139WAT     H2 5277   5.402   5.536   0.939 -0.1944  0.8307 -0.0819
 1139WAT    EPW 5278   5.344   5.559   0.988 -0.6673  0.2652 -0.3641
 1140WAT      O 5279   5.568   6.584   1.623 -0.1344  0.2291  0.0725
 1140WAT     H1 5280   5.644   6.626   1.613 -0.1431  0.3595  0.5165
 1140WAT     H2 5281   5.591   6.501   1.630 -0.0919  0.1852 -0.5222
 1140WAT    EPW 5282   5.582   6.578   1.622 -0.1294  0.2418  0.0502
 1141WAT      O 5283   6.925   7.187   1.902 -0.2520 -0.2096 -0.6806
 1141WAT     H1 5284   6.993   7.182   1.957  0.4862 -1.6169 -1.6342
 1141WAT     H2 5285   6.876   7.118   1.923  0.2145 -0.9681 -1.9522
 1141WAT    EPW 5286   6.928   7.176   1.913 -0.0740 -0.5295 -1.0093
 1142WAT      O 5287   5.719   6.017   0.481  0.3114  0.0661  0.1526
 1142WAT     H1 5288   5.710   6.085   0.427  0.3461 -0.5074 -0.6001
 1142WAT     H2 5289   5.647   6.020   0.530 -0.2347  0.0078 -0.6273
 1142WAT    EPW 5290   5.707   6.028   0.480  0.2358 -0.0273 -0.0738
 1143WAT      O 5291   6.920   5.986   7.711  0.2728  0.4338 -0.5963
 1143WAT     H1 5292   6.962   6.035   7.653 -0.2257 -0.5116 -1.8047
 1143WAT     H2 5293   6.979   5.926   7.734 -0.0031 -0.1749 -1.3978
 1143WAT    EPW 5294   6.935   5.984   7.706  0.1584  0.2042 -0.8932
 1144WAT      O 5295   4.936   5.146   0.133 -0.5715 -0.3094  0.3565
 1144WAT     H1 5296   4.903   5.120   0.210 -0.1791  1.2621  1.1050
 1144WAT     H2 5297   5.018   5.117   0.136 -0.2171  0.7141  1.0599
 1144WAT    EPW 5298   4.943   5.138   0.145 -0.4612  0.0739  0.5710
 1145WAT      O 5299   4.343   6.124   1.343  0.5145 -0.9443 -0.0242
 1145WAT     H1 5300   4.272   6.174   1.336  0.4015 -1.2000 -0.9005
 1145WAT     H2 5301   4.401   6.164   1.292  1.1456 -0.5193  0.9980
 1145WAT    EPW 5302   4.341   6.138   1.334  0.5911 -0.9193 -0.0027
 1146WAT      O 5303   6.072   6.561   7.561  0.4896  0.1441 -0.1899
 1146WAT     H1 5304   6.106   6.489   7.596 -0.0318 -0.5226 -0.9986
 1146WAT     H2 5305   5.987   6.543   7.555  0.4311  0.5916 -0.9114
 1146WAT    EPW 5306   6.065   6.548   7.565  0.4040  0.1117 -0.4160
 1147WAT      O 5307   4.294   6.272   4.028  0.4386 -0.1136 -0.0931
 1147WAT     H1 5308   4.314   6.188   4.024 -0.4428 -0.3484  0.2297
 1147WAT     H2 5309   4.222   6.280   3.980 -0.1036  0.2434  0.7461
 1147WAT    EPW 5310   4.287   6.261   4.021  0.2283 -0.0955  0.0785
 1148WAT      O 5311   7.010   6.660   2.538 -0.5245  0.2566  0.3469
 1148WAT     H1 5312   6.967   6.726   2.500 -1.1558  0.4022  1.2646
 1148WAT     H2 5313   7.019   6.602   2.474  1.3626  1.7949 -0.9241
 1148WAT    EPW 5314   7.005   6.661   2.523 -0.3390  0.5053  0.2947
 1149WAT      O 5315   6.543   6.866   1.379  0.3434  0.3235  0.0002
 1149WAT     H1 5316   6.617   6.880   1.336  1.3442 -1.0578  1.1677
 1149WAT     H2 5317   6.559   6.900   1.458  0.3990 -1.4749  0.7981
 1149WAT    EPW 5318   6.556   6.873   1.384  0.4994 -0.1462  0.2906
 1150WAT      O 5319   5.676   5.113   1.570 -0.1218 -0.2065 -0.3344
 1150WAT     H1 5320   5.695   5.179   1.517 -1.8248  1.3788  0.8758
 1150WAT     H2 5321   5.621   5.065   1.523 -0.9092  0.6848 -0.3591
 1150WAT    EPW 5322   5.671   5.116   1.555 -0.4897  0.1593 -0.1593
 1151WAT      O 5323   6.422   5.729   2.192 -0.0887  0.3902  0.2972
 1151WAT     H1 5324   6.336   5.714   2.184  0.4716 -3.6636  0.2164
 1151WAT     H2 5325   6.427   5.780   2.263 -2.5147  0.8564  0.2324
 1151WAT    EPW 5326   6.410   5.734   2.201 -0.3643 -0.1398  0.2757
 1152WAT      O 5327   4.189   5.066   1.600  0.2359 -0.4126  0.3938
 1152WAT     H1 5328   4.126   5.124   1.615  0.0686 -1.0771  2.5008
 1152WAT     H2 5329   4.261   5.106   1.630  0.5412 -0.3887 -0.3312
 1152WAT    EPW 5330   4.190   5.081   1.607  0.2563 -0.5072  0.5979
 1153WAT      O 5331   6.359   5.780   7.372 -0.1084  0.2735  0.3120
 1153WAT     H1 5332   6.294   5.786   7.314 -0.2240  1.5210  0.5331
 1153WAT     H2 5333   6.377   5.695   7.375  0.3642  0.2258 -2.0663
 1153WAT    EPW 5334   6.352   5.768   7.364 -0.0557  0.4507 -0.0067
 1154WAT      O 5335   5.832   6.074   1.031 -0.2247 -0.0088 -0.2621
 1154WAT     H1 5336   5.876   6.098   1.102 -1.6879  0.9857  0.3652
 1154WAT     H2 5337   5.775   6.015   1.062  0.3781 -0.9783 -0.9737
 1154WAT    EPW 5338   5.830   6.069   1.046 -0.3518 -0.0051 -0.2746
 1155WAT      O 5339   6.946   7.124   1.622 -0.4656  0.1809  0.1570
 1155WAT     H1 5340   6.976   7.143   1.702 -0.6961  1.6749 -0.0723
 1155WAT     H2 5341   6.894   7.193   1.603 -1.9718 -1.0735 -0.4991
 1155WAT    EPW 5342   6.942   7.137   1.631 -0.7222  0.2163  0.0262
 1156WAT      O 5343   5.860   6.055   1.940  0.0364  0.6256 -0.3524
 1156WAT     H1 5344   5.838   6.060   1.856  2.1097 -0.4940 -1.0388
 1156WAT     H2 5345   5.802   5.998   1.973 -0.8121  1.0969 -0.9956
 1156WAT    EPW 5346   5.848   6.047   1.933  0.2173  0.5298 -0.5488
 1157WAT      O 5347   5.600   5.728   0.638 -0.1962 -0.3345  0.3443
 1157WAT     H1 5348   5.638   5.760   0.710 -0.9637  1.6192 -0.0504
 1157WAT     H2 5349   5.667   5.705   0.587  0.3629 -2.2789  1.8295
 1157WAT    EPW 5350   5.616   5.729   0.641 -0.2270 -0.3331  0.5054
 1158WAT      O 5351   6.351   5.786   1.648 -0.0678  0.1066 -0.5331
 1158WAT     H1 5352   6.431   5.758   1.625 -0.2647 -1.2257  0.3222
 1158WAT     H2 5353   6.297   5.730   1.609 -0.6190  0.9593 -1.0462
 1158WAT    EPW 5354   6.355   5.774   1.639 -0.1783  0.0357 -0.4826
 1159WAT      O 5355   4.083   6.416   2.024 -0.0590 -0.0042  0.0968
 1159WAT     H1 5356   4.065   6.339   1.987  1.9850 -0.2024 -0.5881
 1159WAT     H2 5357   4.169   6.423   2.015 -0.0203  1.7292  1.4299
 1159WAT    EPW 5358   4.093   6.405   2.017  0.2486  0.2226  0.1926
 1160WAT      O 5359   5.927   5.853   1.490  0.0190  0.2388  0.3411
 1160WAT     H1 5360   5.840   5.860   1.494 -0.0609  0.5670 -1.1665
 1160WAT     H2 5361   5.950   5.918   1.436  1.2944  0.6215  1.2977
 1160WAT    EPW 5362   5.917   5.864   1.482  0.1956  0.3438  0.2597
 1161WAT      O 5363   5.350   5.318   7.178  0.2085 -0.0480  0.3517
 1161WAT     H1 5364   5.391   5.245   7.202  0.8082 -0.1854 -0.9971
 1161WAT     H2 5365   5.267   5.295   7.172  0.4579 -0.7483 -0.5022
 1161WAT    EPW 5366   5.344   5.304   7.181  0.3339 -0.1718  0.0263
 1162WAT      O 5367   6.744   5.663   0.916 -0.2872  0.4678  0.2187
 1162WAT     H1 5368   6.738   5.649   1.002 -0.5349 -1.7456 -0.1106
 1162WAT     H2 5369   6.732   5.584   0.881  0.1016  1.2603 -1.8546
 1162WAT    EPW 5370   6.742   5.649   0.924 -0.2664  0.2579 -0.1362
 1163WAT      O 5371   5.622   4.033   7.751  0.2640 -0.1295 -0.3842
 1163WAT     H1 5372   5.568   3.964   7.747 -1.5719  1.0981  1.2877
 1163WAT     H2 5373   5.604   4.078   7.679 -0.0875 -0.3148 -0.4140
 1163WAT    EPW 5374   5.611   4.029   7.740 -0.0591  0.0245 -0.1416
 1164WAT      O 5375   6.408   5.706   1.104 -0.0228  0.4690 -0.5825
 1164WAT     H1 5376   6.492   5.710   1.127 -0.0405 -1.7962  0.2290
 1164WAT     H2 5377   6.380   5.788   1.112  1.2545  0.7564  2.8068
 1164WAT    EPW 5378   6.416   5.718   1.109  0.1633  0.1768  0.0381
 1165WAT      O 5379   6.628   7.497   2.644  0.1272 -0.1675 -0.0706
 1165WAT     H1 5380   6.626   7.468   2.561  0.2501 -0.6860  0.1043
 1165WAT     H2 5381   6.549   7.478   2.674 -1.0772  2.8609 -0.9938
 1165WAT    EPW 5382   6.616   7.490   2.636 -0.0326  0.2032 -0.1811
 1166WAT      O 5383   4.759   6.074   1.116 -0.7227  0.2997 -0.2069
 1166WAT     H1 5384   4.741   6.145   1.071  2.2956  1.2670 -0.1392
 1166WAT     H2 5385   4.764   6.102   1.199 -3.3233 -0.8618  0.4423
 1166WAT    EPW 5386   4.757   6.088   1.122 -0.6610  0.2710 -0.1010
 1167WAT      O 5387   6.916   5.264   0.284  0.0632 -0.2886  0.1918
 1167WAT     H1 5388   6.961   5.335   0.310 -0.4556 -0.2102  0.8753
 1167WAT     H2 5389   6.947   5.200   0.334 -0.9913 -0.1215  1.0848
 1167WAT    EPW 5390   6.928   5.265   0.295 -0.1692 -0.2523  0.4247
 1168WAT      O 5391   6.960   6.696   2.145 -0.0512 -0.0233  0.2041
 1168WAT     H1 5392   6.904   6.629   2.143 -2.1788  1.6114  1.0490
 1168WAT     H2 5393   7.031   6.664   2.105 -0.9300 -2.7593  0.5841
 1168WAT    EPW 5394   6.962   6.681   2.139 -0.4953 -0.1860  0.3850
 1169WAT      O 5395   6.794   6.114   0.654  0.5350  0.0356 -0.4862
 1169WAT     H1 5396   6.839   6.174   0.698  1.5870 -0.7820 -0.4395
 1169WAT     H2 5397   6.752   6.070   0.716  1.7638 -0.9073 -0.2873
 1169WAT    EPW 5398   6.794   6.117   0.669  0.8719 -0.2245 -0.4499
 1170WAT      O 5399   6.505   5.928   0.716 -0.0057 -0.7262  0.4049
 1170WAT     H1 5400   6.573   5.930   0.770  1.1077 -0.4068 -0.9388
 1170WAT     H2 5401   6.534   5.884   0.647 -1.1742 -0.6229 -0.1951
 1170WAT    EPW 5402   6.519   5.922   0.714 -0.0139 -0.6637  0.1178
 1171WAT      O 5403   6.879   3.452   0.166  0.4182 -0.2179 -0.0084
 1171WAT     H1 5404   6.957   3.455   0.127  0.0423 -1.7676 -0.9310
 1171WAT     H2 5405   6.846   3.532   0.152  1.1772 -0.0592 -0.9696
 1171WAT    EPW 5406   6.886   3.465   0.158  0.4748 -0.4234 -0.2867
 1172WAT      O 5407   5.827   5.980   2.805  0.1815 -0.1151  0.1589
 1172WAT     H1 5408   5.829   5.920   2.868  2.3683  1.7808  2.0929
 1172WAT     H2 5409   5.745   5.976   2.775 -0.4307 -2.3083  1.9029
 1172WAT    EPW 5410   5.815   5.971   2.810  0.4141 -0.1590  0.7022
 1173WAT      O 5411   5.541   5.027   0.495  0.3671  0.2008 -0.9051
 1173WAT     H1 5412   5.532   4.940   0.493  0.2744  0.1561  0.6686
 1173WAT     H2 5413   5.589   5.041   0.566 -0.4704  1.5121 -0.5708
 1173WAT    EPW 5414   5.547   5.016   0.505  0.2297  0.3879 -0.6232
 1174WAT      O 5415   3.245   5.618   1.737  0.1608  0.0506  0.0820
 1174WAT     H1 5416   3.283   5.690   1.767  2.0904  0.7940 -3.5107
 1174WAT     H2 5417   3.161   5.639   1.734  0.5876  1.9133 -0.1213
 1174WAT    EPW 5418   3.238   5.632   1.741  0.5089  0.4356 -0.4788
 1175WAT      O 5419   6.873   5.763   0.601 -0.1419 -0.4851  0.1314
 1175WAT     H1 5420   6.856   5.686   0.638  1.4291 -0.7520  0.3770
 1175WAT     H2 5421   6.943   5.791   0.644  0.9220 -0.1643 -1.6890
 1175WAT    EPW 5422   6.881   5.756   0.613  0.2473 -0.4771 -0.1012
 1176WAT      O 5423   5.378   5.865   7.775  0.2621  0.2357 -0.3421
 1176WAT     H1 5424   5.371   5.788   7.733  0.5414  0.3968 -0.6944
 1176WAT     H2 5425   5.443   5.905   7.732  0.3124  0.5501  0.0268
 1176WAT    EPW 5426   5.387   5.860   7.762  0.3108  0.3059 -0.3396
 1177WAT      O 5427   5.908   6.307   0.700  0.0154 -0.1474  0.8745
 1177WAT     H1 5428   5.854   6.375   0.689 -2.3335 -1.9197  0.6902
 1177WAT     H2 5429   5.917   6.275   0.619 -1.6106 -1.9354  1.3507
 1177WAT    EPW 5430   5.901   6.313   0.686 -0.5717 -0.6733  0.9176
 1178WAT      O 5431   5.002   5.608   7.318 -0.1334  0.2033 -0.2578
 1178WAT     H1 5432   4.942   5.563   7.362  0.4795 -0.6979 -0.3201
 1178WAT     H2 5433   4.970   5.612   7.237 -0.6672  0.7828 -0.0313
 1178WAT    EPW 5434   4.989   5.602   7.313 -0.1217  0.1558 -0.2335
 1179WAT      O 5435   6.665   5.463   2.688  0.3240 -0.2611  0.1375
 1179WAT     H1 5436   6.696   5.494   2.763 -1.1959 -0.7865  1.0166
 1179WAT     H2 5437   6.659   5.377   2.701 -0.5658 -0.2902 -0.3314
 1179WAT    EPW 5438   6.669   5.455   2.701 -0.0320 -0.3430  0.1981
 1180WAT      O 5439   6.940   6.042   1.070  0.4321 -0.1904  0.1038
 1180WAT     H1 5440   6.914   6.093   1.135 -0.6564 -0.8436  0.2045
 1180WAT     H2 5441   6.962   5.967   1.109  0.5123 -0.3283 -0.1996
 1180WAT    EPW 5442   6.940   6.039   1.085  0.2832 -0.3073  0.0739
 1181WAT      O 5443   6.413   5.067   2.747 -0.7734  0.4000 -0.2505
 1181WAT     H1 5444   6.452   5.020   2.809  1.2476  0.8567 -1.0795
 1181WAT     H2 5445   6.370   5.128   2.791  0.8308  0.8687  0.7464
 1181WAT    EPW 5446   6.412   5.069   2.763 -0.2379  0.5367 -0.2257
 1182WAT      O 5447   5.687   6.857   6.416  0.0991 -0.1533  0.0897
 1182WAT     H1 5448   5.665   6.881   6.335 -0.2541 -0.7533 -0.0028
 1182WAT     H2 5449   5.694   6.932   6.459  0.9306  0.2207 -0.6591
 1182WAT    EPW 5450   5.685   6.871   6.410  0.1698 -0.1867 -0.0346
 1183WAT      O 5451   6.663   5.913   1.353  0.2063 -0.4266 -0.4595
 1183WAT     H1 5452   6.730   5.969   1.354 -0.2462  0.1751  1.7563
 1183WAT     H2 5453   6.606   5.951   1.298 -0.1847  1.5091  1.1477
 1183WAT    EPW 5454   6.664   5.927   1.345  0.0817 -0.0518  0.1052
 1184WAT      O 5455   3.775   5.710   2.139 -0.5614  0.5320 -0.3995
 1184WAT     H1 5456   3.712   5.699   2.079 -1.9960 -0.3647  1.2198
 1184WAT     H2 5457   3.731   5.734   2.210  1.1100  1.4768  0.3594
 1184WAT    EPW 5458   3.759   5.712   2.140 -0.5264  0.5391 -0.0482
 1185WAT      O 5459   6.460   5.875   2.432  0.2179 -0.2354 -0.3961
 1185WAT     H1 5460   6.508   5.810   2.466  0.5274  0.3426  0.2864
 1185WAT     H2 5461   6.419   5.908   2.501 -0.8252 -0.4269 -0.9047
 1185WAT    EPW 5462   6.461   5.870   2.447  0.1095 -0.1783 -0.3704
 1186WAT      O 5463   6.874   5.602   2.272 -0.2306  0.3850 -0.0654
 1186WAT     H1 5464   6.906   5.658   2.214 -2.4660  1.2416 -0.5532
 1186WAT     H2 5465   6.791   5.591   2.248 -0.6015 -1.0868  1.5875
 1186WAT    EPW 5466   6.866   5.608   2.260 -0.6156  0.2941  0.1067
 1187WAT      O 5467   6.407   3.056   2.134 -0.1502 -0.0502 -0.4539
 1187WAT     H1 5468   6.351   3.122   2.148 -2.9385 -2.4591  0.8191
 1187WAT     H2 5469   6.481   3.097   2.110 -1.9722  3.4301 -0.8171
 1187WAT    EPW 5470   6.410   3.072   2.133 -0.8312  0.1080 -0.3195
 1188WAT      O 5471   6.713   5.949   0.899  0.3351  0.5122  0.4854
 1188WAT     H1 5472   6.771   5.995   0.946  1.0885  1.6535 -1.4204
 1188WAT     H2 5473   6.730   5.866   0.920  1.0339  0.9601  1.7571
 1188WAT    EPW 5474   6.724   5.944   0.909  0.5496  0.7470  0.3918
 1189WAT      O 5475   5.862   4.909   1.330 -0.0247  0.4388  0.0843
 1189WAT     H1 5476   5.920   4.904   1.264  0.3643  1.3937  0.3372
 1189WAT     H2 5477   5.790   4.941   1.292 -0.4683 -0.8744 -0.2583
 1189WAT    EPW 5478   5.860   4.913   1.315 -0.0328  0.3859  0.0710
 1190WAT      O 5479   6.832   5.178   0.911  0.6781  0.1223 -0.4218
 1190WAT     H1 5480   6.783   5.123   0.864 -2.1265  0.8626  1.3966
 1190WAT     H2 5481   6.862   5.128   0.976  0.8442  0.0794 -0.5287
 1190WAT    EPW 5482   6.829   5.162   0.913  0.2883  0.2253 -0.1690
 1191WAT      O 5483   5.130   7.032   2.033  0.0497  0.2388  0.3509
 1191WAT     H1 5484   5.120   7.113   2.005  0.1074  0.9736  2.3130
 1191WAT     H2 5485   5.207   7.008   2.001  0.7160  1.5051  0.9556
 1191WAT    EPW 5486   5.140   7.040   2.024  0.1567  0.5344  0.7301
 1192WAT      O 5487   4.598   5.390   7.641 -0.4034 -0.9279 -0.3162
 1192WAT     H1 5488   4.629   5.460   7.599  1.0637 -0.7086  1.0174
 1192WAT     H2 5489   4.513   5.391   7.624 -0.1819  0.3510 -1.4950
 1192WAT    EPW 5490   4.590   5.400   7.633 -0.1540 -0.7066 -0.2933
 1193WAT      O 5491   6.347   6.408   7.187  0.1108  0.3505  1.1166
 1193WAT     H1 5492   6.393   6.370   7.122 -0.4536  0.2251  0.7821
 1193WAT     H2 5493   6.343   6.346   7.248 -0.7430 -0.1174  0.6021
 1193WAT    EPW 5494   6.353   6.393   7.186 -0.0987  0.2629  0.9912
 1194WAT      O 5495   6.589   5.381   1.834  0.1493  0.4291  0.1976
 1194WAT     H1 5496   6.516   5.415   1.867  1.2308  2.3182  0.8008
 1194WAT     H2 5497   6.563   5.344   1.759 -1.1581  2.5491 -0.4768
 1194WAT    EPW 5498   6.575   5.380   1.828  0.1159  1.0214  0.1871
 1195WAT      O 5499   5.940   6.232   2.144  0.2808 -0.2009  0.2700
 1195WAT     H1 5500   5.892   6.228   2.217 -0.2648  0.3815 -0.0445
 1195WAT     H2 5501   5.921   6.158   2.103  0.9962 -0.7753  0.9616
 1195WAT    EPW 5502   5.930   6.221   2.149  0.3059 -0.1997  0.3257
 1196WAT      O 5503   5.980   5.098   1.512 -0.3219 -0.3974 -0.1360
 1196WAT     H1 5504   6.065   5.090   1.497 -0.2707  0.2876 -0.2545
 1196WAT     H2 5505   5.945   5.030   1.469  0.0894 -0.1515 -0.8768
 1196WAT    EPW 5506   5.987   5.087   1.503 -0.2536 -0.2599 -0.2629
 1197WAT      O 5507   5.057   5.121   7.707  0.4410 -0.1076  0.5188
 1197WAT     H1 5508   5.035   5.058   7.763  0.5026  0.2857  0.9892
 1197WAT     H2 5509   5.124   5.086   7.663  0.8322 -0.1736  1.1515
 1197WAT    EPW 5510   5.064   5.106   7.709  0.5079 -0.0593  0.6818
 1198WAT      O 5511   6.877   6.090   0.114 -0.4274 -0.4905  0.1590
 1198WAT     H1 5512   6.818   6.149   0.090 -0.3107 -0.2252  0.5187
 1198WAT     H2 5513   6.889   6.042   0.042  1.3366  1.4667 -0.9764
 1198WAT    EPW 5514   6.870   6.091   0.100 -0.1496 -0.1622  0.0444
 1199WAT      O 5515   6.023   7.279   1.635 -0.1948  0.1587  0.2019
 1199WAT     H1 5516   6.091   7.301   1.585 -0.1780  2.3734  1.0735
 1199WAT     H2 5517   6.009   7.351   1.683 -2.7998 -0.4168  0.4608
 1199WAT    EPW 5518   6.031   7.293   1.635 -0.5771  0.4009  0.3689
 1200WAT      O 5519   7.130   5.631   2.108  0.2982 -0.1303  1.3303
 1200WAT     H1 5520   7.091   5.613   2.032  1.7248 -1.0379  0.7838
 1200WAT     H2 5521   7.208   5.593   2.101  1.0157  0.9943  2.6914
 1200WAT    EPW 5522   7.136   5.623   2.096  0.6149 -0.0982  1.4506
 1201WAT      O 5523   6.938   6.197   1.942  1.2409 -0.1473 -0.1914
 1201WAT     H1 5524   6.967   6.125   1.900  1.7683  0.5569 -1.0777
 1201WAT     H2 5525   7.012   6.235   1.970  0.9252 -0.3175  0.9347
 1201WAT    EPW 5526   6.953   6.192   1.940  1.2722 -0.0684 -0.1560
 1202WAT      O 5527   6.983   3.301   0.939  0.1658 -0.0028 -0.4191
 1202WAT     H1 5528   6.950   3.332   0.865 -1.7048 -3.4203 -1.2525
 1202WAT     H2 5529   6.939   3.344   1.001  0.0810  1.2553 -1.3112
 1202WAT    EPW 5530   6.972   3.312   0.937 -0.1231 -0.3218 -0.6740
 1203WAT      O 5531   5.991   5.097   0.509 -0.0021 -1.1127  0.7073
 1203WAT     H1 5532   6.060   5.079   0.559 -1.0691 -0.1308  2.6576
 1203WAT     H2 5533   5.946   5.156   0.556 -0.5749  0.6902 -1.8904
 1203WAT    EPW 5534   5.994   5.103   0.523 -0.2444 -0.7014  0.6117
 1204WAT      O 5535   5.678   7.056   1.362 -0.8854 -0.4200 -0.3957
 1204WAT     H1 5536   5.603   7.017   1.383 -1.6141  0.1945 -1.7074
 1204WAT     H2 5537   5.735   6.991   1.360 -1.6161 -1.0835 -0.3995
 1204WAT    EPW 5538   5.675   7.041   1.364 -1.1010 -0.4273 -0.5900
 1205WAT      O 5539   5.309   4.631   0.514  0.2098 -0.2938  0.1118
 1205WAT     H1 5540   5.261   4.635   0.441 -0.1416 -2.3836  0.1793
 1205WAT     H2 5541   5.288   4.554   0.549  1.2292  0.1584  1.8422
 1205WAT    EPW 5542   5.299   4.620   0.508  0.3085 -0.5357  0.3774
 1206WAT      O 5543   6.711   7.468   0.838  0.5581  0.0715 -0.2713
 1206WAT     H1 5544   6.736   7.522   0.773  0.0778 -0.4360 -0.8872
 1206WAT     H2 5545   6.642   7.509   0.872  1.9822  1.3534  1.2719
 1206WAT    EPW 5546   6.704   7.482   0.833  0.6975  0.1859 -0.1344
 1207WAT      O 5547   6.666   6.603   1.428  0.2625 -0.3022 -0.1700
 1207WAT     H1 5548   6.624   6.544   1.477  1.8485 -0.6987  0.7855
 1207WAT     H2 5549   6.628   6.678   1.451 -2.5721 -0.9045 -2.2252
 1207WAT    EPW 5550   6.654   6.605   1.439  0.0781 -0.4497 -0.3324
 1208WAT      O 5551   6.907   6.144   7.357  0.2745 -0.0017  0.2696
 1208WAT     H1 5552   6.966   6.168   7.416  2.2285 -0.6701 -1.2782
 1208WAT     H2 5553   6.831   6.164   7.394  1.3372 -0.8135  3.1725
 1208WAT    EPW 5554   6.905   6.150   7.371  0.7202 -0.2203  0.4698
 1209WAT      O 5555   6.907   6.659   0.992  0.3428 -0.0063 -0.4320
 1209WAT     H1 5556   6.903   6.618   0.915  0.7413 -2.9065  0.9918
 1209WAT     H2 5557   6.836   6.710   0.991 -0.4208 -0.9968 -2.1527
 1209WAT    EPW 5558   6.896   6.661   0.980  0.2888 -0.5810 -0.4759
 1210WAT      O 5559   4.792   5.275   0.767  0.4789 -0.0950 -0.3057
 1210WAT     H1 5560   4.853   5.330   0.740 -0.7107  0.9105 -1.0390
 1210WAT     H2 5561   4.756   5.247   0.693  0.8292 -1.6230  0.0650
 1210WAT    EPW 5562   4.796   5.279   0.752  0.3549 -0.1722 -0.3593
 1211WAT      O 5563   5.625   7.069   2.200  0.3251  0.3569 -0.1799
 1211WAT     H1 5564   5.668   7.117   2.141 -0.2928  1.1096 -0.0296
 1211WAT     H2 5565   5.642   6.987   2.176 -0.1822  0.6381 -1.6058
 1211WAT    EPW 5566   5.634   7.064   2.188  0.1589  0.5096 -0.3683
 1212WAT      O 5567   5.897   4.953   0.276 -0.1176  0.4393  0.0666
 1212WAT     H1 5568   5.816   4.979   0.259 -0.6282 -0.7811  0.5431
 1212WAT     H2 5569   5.921   5.000   0.345 -0.7600  0.1635  0.4813
 1212WAT    EPW 5570   5.889   4.964   0.284 -0.2879  0.2183  0.1983
 1213WAT      O 5571   6.858   5.631   0.140 -0.2302  0.0854 -0.1710
 1213WAT     H1 5572   6.786   5.675   0.118 -0.5293  0.1706  0.9354
 1213WAT     H2 5573   6.882   5.667   0.216  0.9599  0.0334 -0.4980
 1213WAT    EPW 5574   6.851   5.643   0.148 -0.0986  0.0903 -0.0558
 1214WAT      O 5575   4.498   6.449   1.640 -0.3254 -0.0419 -0.1143
 1214WAT     H1 5576   4.532   6.391   1.695 -0.4163 -0.0660 -0.0840
 1214WAT     H2 5577   4.427   6.478   1.682  0.4315  1.0651  0.4623
 1214WAT    EPW 5578   4.493   6.445   1.654 -0.2270  0.1181 -0.0247
 1215WAT      O 5579   4.682   4.349   7.830  0.5529  0.4835 -0.4898
 1215WAT     H1 5580   4.686   4.267   7.803  1.3375 -0.1594  1.3863
 1215WAT     H2 5581   4.619   4.384   7.781 -1.1375 -1.7573 -0.1106
 1215WAT    EPW 5582   4.673   4.342   7.819  0.4191  0.0575 -0.1567
 1216WAT      O 5583   5.585   5.606   2.829 -0.8330 -0.6266 -0.0340
 1216WAT     H1 5584   5.524   5.606   2.768 -1.6254 -1.4554  0.7255
 1216WAT     H2 5585   5.557   5.546   2.886  1.1790 -1.7652 -0.1455
 1216WAT    EPW 5586   5.572   5.597   2.829 -0.6528 -0.9173  0.0617
 1217WAT      O 5587   5.892   5.980   0.696  0.8158 -0.0697 -0.2773
 1217WAT     H1 5588   5.840   6.003   0.630 -1.1594 -0.3472  1.0836
 1217WAT     H2 5589   5.933   6.055   0.717 -0.2342  0.5605 -0.4054
 1217WAT    EPW 5590   5.891   5.995   0.690  0.3689 -0.0176 -0.0952
 1218WAT      O 5591   6.422   5.895   1.965 -0.3352 -0.8997  0.2158
 1218WAT     H1 5592   6.387   5.958   2.014  0.9656 -0.7722  1.0335
 1218WAT     H2 5593   6.445   5.834   2.023 -0.0051 -1.3607 -0.3814
 1218WAT    EPW 5594   6.421   5.895   1.981 -0.0942 -0.9490  0.2484
 1219WAT      O 5595   6.706   7.636   1.820 -0.6498  0.1693 -0.2484
 1219WAT     H1 5596   6.736   7.674   1.892  0.1801  0.5654 -0.7956
 1219WAT     H2 5597   6.708   7.551   1.839 -3.6177  0.3218  1.4242
 1219WAT    EPW 5598   6.711   7.629   1.834 -0.9656  0.2504 -0.0821
 1220WAT      O 5599   5.115   5.775   1.802  0.0667 -0.2152  0.3742
 1220WAT     H1 5600   5.092   5.754   1.884 -2.3722 -2.2067 -0.6986
 1220WAT     H2 5601   5.183   5.724   1.786 -0.2137 -0.7345  0.7889
 1220WAT    EPW 5602   5.121   5.765   1.812 -0.3350 -0.5861  0.2770
 1221WAT      O 5603   7.108   5.810   7.857  0.5000 -0.9410 -0.3410
 1221WAT     H1 5604   7.113   5.724   7.865  1.1737 -0.9665 -0.9652
 1221WAT     H2 5605   7.105   5.838   7.940 -1.8415 -1.6474 -0.1295
 1221WAT    EPW 5606   7.108   5.802   7.871  0.2536 -1.0491 -0.4020
 1222WAT      O 5607   6.244   5.065   1.418 -0.2330  0.7512  0.1732
 1222WAT     H1 5608   6.301   5.025   1.470  0.2611  1.0370 -0.1337
 1222WAT     H2 5609   6.225   5.004   1.358  1.3983  1.2806 -0.9687
 1222WAT    EPW 5610   6.249   5.050   1.417  0.0810  0.8716 -0.0408
 1223WAT      O 5611   6.511   6.930   0.538  0.2784 -0.5163 -0.1392
 1223WAT     H1 5612   6.504   7.016   0.537  0.0767 -0.5320 -0.1228
 1223WAT     H2 5613   6.582   6.914   0.490 -1.9370 -0.5854 -3.7494
 1223WAT    EPW 5614   6.520   6.940   0.531 -0.0787 -0.5288 -0.6701
 1224WAT      O 5615   6.461   5.448   1.266 -0.7127 -0.1701 -0.4128
 1224WAT     H1 5616   6.491   5.396   1.203 -0.7535 -1.8183  0.8554
 1224WAT     H2 5617   6.432   5.519   1.223  0.7781 -0.5025 -2.0544
 1224WAT    EPW 5618   6.461   5.451   1.250 -0.4985 -0.4627 -0.4680
 1225WAT      O 5619   5.519   6.282   2.330 -0.0180  0.2670  0.3827
 1225WAT     H1 5620   5.509   6.315   2.250  1.1978  1.3411  0.6391
 1225WAT     H2 5621   5.597   6.242   2.326 -0.8475 -1.4729  0.4741
 1225WAT    EPW 5622   5.529   6.281   2.318  0.0390  0.1687  0.4340
 1226WAT      O 5623   5.251   6.086   0.758 -0.2025  0.0249 -0.8600
 1226WAT     H1 5624   5.170   6.117   0.768 -0.3790 -0.2332 -1.4510
 1226WAT     H2 5625   5.239   5.999   0.757  0.0390 -0.0055 -1.2861
 1226WAT    EPW 5626   5.237   6.078   0.760 -0.1929 -0.0177 -1.0103
 1227WAT      O 5627   5.893   5.668   1.175  0.5129 -0.1053 -0.6125
 1227WAT     H1 5628   5.821   5.694   1.217 -0.1526  0.2921 -1.9666
 1227WAT     H2 5629   5.863   5.631   1.102  1.6131 -1.6305 -0.3396
 1227WAT    EPW 5630   5.878   5.666   1.171  0.5771 -0.2719 -0.7722
 1228WAT      O 5631   5.744   6.454   1.884  0.1653 -0.3278 -0.3692
 1228WAT     H1 5632   5.681   6.475   1.940  0.0839 -0.9469 -0.2198
 1228WAT     H2 5633   5.781   6.384   1.920  0.3098 -0.5477 -0.9376
 1228WAT    EPW 5634   5.740   6.447   1.897  0.1746 -0.4517 -0.4311
 1229WAT      O 5635   6.678   4.737   0.581 -0.5144 -0.1327  0.2269
 1229WAT     H1 5636   6.641   4.661   0.560 -3.9983  1.7077 -1.0713
 1229WAT     H2 5637   6.701   4.772   0.505 -0.4662  0.7976  0.6472
 1229WAT    EPW 5638   6.676   4.731   0.567 -1.0219  0.2766  0.0972
 1230WAT      O 5639   5.424   5.299   1.130  0.2128  0.3863 -0.7023
 1230WAT     H1 5640   5.363   5.242   1.106  0.0347 -0.0119  0.5935
 1230WAT     H2 5641   5.414   5.365   1.074 -0.4018 -0.3160 -1.4471
 1230WAT    EPW 5642   5.414   5.300   1.118  0.0957  0.2238 -0.6209
 1231WAT      O 5643   6.372   5.573   1.882  0.2217 -0.0163  0.0017
 1231WAT     H1 5644   6.376   5.653   1.846  1.1377 -0.4543 -0.9245
 1231WAT     H2 5645   6.319   5.529   1.828 -0.2527 -0.0615  0.4909
 1231WAT    EPW 5646   6.365   5.579   1.868  0.2869 -0.0877 -0.0628
 1232WAT      O 5647   5.967   6.516   1.541 -0.3306 -0.3505  0.1222
 1232WAT     H1 5648   6.031   6.541   1.487 -0.6685  0.7722  0.2130
 1232WAT     H2 5649   6.008   6.505   1.617 -0.3701  1.4282  0.4524
 1232WAT    EPW 5650   5.983   6.518   1.544 -0.3863  0.0781  0.1844
 1233WAT      O 5651   6.346   4.976   1.748  0.2143 -0.2166  0.4455
 1233WAT     H1 5652   6.409   4.919   1.769  0.2992 -0.3725 -0.2089
 1233WAT     H2 5653   6.273   4.938   1.776  0.4486  0.2090  1.7068
 1233WAT    EPW 5654   6.345   4.962   1.755  0.2615 -0.1768  0.5351
 1234WAT      O 5655   6.658   6.415   0.593 -0.0240 -0.4347  0.0839
 1234WAT     H1 5656   6.624   6.422   0.513  0.6058  0.9003 -0.0931
 1234WAT     H2 5657   6.636   6.334   0.618 -2.5171  0.0243 -0.3866
 1234WAT    EPW 5658   6.650   6.404   0.585 -0.2993 -0.1696 -0.0118
 1235WAT      O 5659   4.765   5.179   1.228  0.2234  0.7144  0.2212
 1235WAT     H1 5660   4.724   5.138   1.163 -0.2293 -0.7331  1.3682
 1235WAT     H2 5661   4.848   5.154   1.218  0.3697  1.4327 -0.4659
 1235WAT    EPW 5662   4.771   5.169   1.217  0.1781  0.6067  0.2891
 1236WAT      O 5663   4.970   5.020   0.622  0.3091  0.4194 -0.5693
 1236WAT     H1 5664   4.917   5.037   0.690 -0.8181 -2.0522 -0.7116
 1236WAT     H2 5665   4.918   5.030   0.553  0.3916 -0.5948 -0.7985
 1236WAT    EPW 5666   4.954   5.024   0.622  0.1547 -0.0955 -0.6241
 1237WAT      O 5667   6.625   5.961   1.769  0.6589  0.4332 -0.2271
 1237WAT     H1 5668   6.571   5.927   1.828  0.5954  0.0376 -0.5116
 1237WAT     H2 5669   6.575   6.018   1.726  0.3734 -0.1661 -0.7046
 1237WAT    EPW 5670   6.610   5.964   1.772  0.6073  0.2863 -0.3397
 1238WAT      O 5671   6.000   7.544   0.658 -0.2495  0.1762  0.1630
 1238WAT     H1 5672   5.960   7.619   0.640 -1.1939 -0.3427  0.0126
 1238WAT     H2 5673   5.977   7.528   0.740 -1.0821 -0.5591 -0.2004
 1238WAT    EPW 5674   5.991   7.553   0.667 -0.5120 -0.0091  0.0871
 1239WAT      O 5675   6.830   5.232   7.723  0.5733 -0.1532  0.0139
 1239WAT     H1 5676   6.765   5.252   7.778  0.9203  0.3963  0.2436
 1239WAT     H2 5677   6.898   5.222   7.776  1.1385  1.3660 -0.3715
 1239WAT    EPW 5678   6.830   5.234   7.739  0.7080  0.1524 -0.0091
 1240WAT      O 5679   6.054   6.428   0.900  0.3072 -0.1631 -0.0498
 1240WAT     H1 5680   6.125   6.377   0.897  0.5671  0.2223 -0.6512
 1240WAT     H2 5681   5.997   6.388   0.847  0.1081 -0.4290  0.3677
 1240WAT    EPW 5682   6.056   6.415   0.892  0.3162 -0.1455 -0.0770
 1241WAT      O 5683   7.080   4.185   0.096  0.4134 -0.0283  0.1791
 1241WAT     H1 5684   7.103   4.249   0.151 -1.5466  0.5573  0.4171
 1241WAT     H2 5685   7.103   4.113   0.139 -1.0083  0.4149  1.8384
 1241WAT    EPW 5686   7.087   4.184   0.110 -0.0862  0.1237  0.4594
 1242WAT      O 5687   7.086   6.391   0.646  0.7485 -0.7370 -0.3273
 1242WAT     H1 5688   7.078   6.476   0.631  5.4426  0.0316 -0.2103
 1242WAT     H2 5689   7.038   6.378   0.718  1.1376  2.2835  0.6359
 1242WAT    EPW 5690   7.078   6.401   0.655  1.4994 -0.1773 -0.1677
 1243WAT      O 5691   6.444   5.376   2.369 -0.0146 -0.1229  0.1485
 1243WAT     H1 5692   6.360   5.370   2.390 -0.0712  0.3620  0.0715
 1243WAT     H2 5693   6.444   5.366   2.282 -0.4154  3.3640 -0.3896
 1243WAT    EPW 5694   6.432   5.373   2.359 -0.0822  0.4638  0.0577
 1244WAT      O 5695   5.181   4.703   1.949 -0.3045 -0.0833  0.1828
 1244WAT     H1 5696   5.193   4.640   1.890  1.2455 -0.1088  0.4893
 1244WAT     H2 5697   5.236   4.681   2.014  0.1691  1.5019  0.3465
 1244WAT    EPW 5698   5.191   4.690   1.950 -0.0056  0.1471  0.2523
 1245WAT      O 5699   5.230   5.782   0.919  0.6126 -0.2690 -0.0382
 1245WAT     H1 5700   5.211   5.848   0.974  0.1293 -1.0744  0.7930
 1245WAT     H2 5701   5.184   5.801   0.848 -1.2455 -0.7666  0.9570
 1245WAT    EPW 5702   5.221   5.795   0.917  0.2667 -0.4615  0.2316
 1246WAT      O 5703   6.387   5.509   7.389  0.0098  0.5919  0.1059
 1246WAT     H1 5704   6.381   5.480   7.307  1.3798 -0.7970  0.4616
 1246WAT     H2 5705   6.316   5.476   7.428  0.7892 -1.1666  0.1359
 1246WAT    EPW 5706   6.375   5.500   7.383  0.3273  0.1270  0.1629
 1247WAT      O 5707   6.746   0.396   0.159 -0.2538  0.2035 -0.0294
 1247WAT     H1 5708   6.677   0.445   0.177 -0.2582  0.3207 -0.3559
 1247WAT     H2 5709   6.722   0.316   0.183  0.1908  0.5248  1.6788
 1247WAT    EPW 5710   6.732   0.392   0.165 -0.1888  0.2683  0.1747
 1248WAT      O 5711   6.514   6.168   1.639  0.4430 -0.4131 -0.2292
 1248WAT     H1 5712   6.434   6.139   1.622 -0.2244  0.0853  1.7678
 1248WAT     H2 5713   6.509   6.253   1.623  0.2004 -0.1798  0.9684
 1248WAT    EPW 5714   6.501   6.176   1.634  0.3086 -0.3050  0.2427
 1249WAT      O 5715   5.818   0.144   1.797 -0.3372 -0.4561 -0.5652
 1249WAT     H1 5716   5.881   0.191   1.760  0.5884 -1.7956 -0.7236
 1249WAT     H2 5717   5.746   0.171   1.755  0.4002 -0.3823 -1.8291
 1249WAT    EPW 5718   5.816   0.155   1.785 -0.0915 -0.6431 -0.7753
 1250WAT      O 5719   7.276   6.028   7.713 -0.0694  0.4493 -0.0950
 1250WAT     H1 5720   7.292   6.094   7.768  1.2901 -0.0599  0.1742
 1250WAT     H2 5721   7.243   5.966   7.765  0.0352  0.4024 -0.0852
 1250WAT    EPW 5722   7.273   6.029   7.729  0.1469  0.3672 -0.0538
 1251WAT      O 5723   3.577   6.080   2.309  0.0381  0.3161  0.2125
 1251WAT     H1 5724   3.591   6.129   2.238  0.3587 -0.5584 -0.3463
 1251WAT     H2 5725   3.503   6.113   2.342  1.3548  2.6021  1.1164
 1251WAT    EPW 5726   3.568   6.092   2.303  0.2799  0.5246  0.2635
 1252WAT      O 5727   4.794   6.276   2.419  0.1292 -0.3348  0.0232
 1252WAT     H1 5728   4.782   6.195   2.450  1.1060 -0.5604 -0.1472
 1252WAT     H2 5729   4.870   6.301   2.455  1.4198 -0.6828 -2.2532
 1252WAT    EPW 5730   4.803   6.268   2.429  0.4642 -0.4195 -0.3382
 1253WAT      O 5731   6.311   7.208   1.222 -0.5138  0.5926 -0.9334
 1253WAT     H1 5732   6.381   7.252   1.195 -0.8057  0.7285 -1.4971
 1253WAT     H2 5733   6.336   7.124   1.217 -0.1803  0.6658 -0.5051
 1253WAT    EPW 5734   6.325   7.202   1.217 -0.5077  0.6235 -0.9534
 1254WAT      O 5735   6.679   6.817   1.033  0.2929  0.1430 -0.1368
 1254WAT     H1 5736   6.637   6.878   0.986  0.8672  1.9364  1.5076
 1254WAT     H2 5737   6.615   6.766   1.064 -0.7491  2.3365  1.6675
 1254WAT    EPW 5738   6.663   6.819   1.031  0.2238  0.7319  0.3727
 1255WAT      O 5739   6.957   6.688   0.297  0.3757  0.4014  0.2922
 1255WAT     H1 5740   6.887   6.741   0.296  0.4950  0.6096  1.6145
 1255WAT     H2 5741   6.928   6.617   0.256 -0.1247  1.0734 -0.5566
 1255WAT    EPW 5742   6.942   6.685   0.291  0.3194  0.5314  0.3622
 1256WAT      O 5743   5.640   6.332   0.925  0.3849 -0.0588  0.1922
 1256WAT     H1 5744   5.713   6.291   0.900 -0.3337 -0.4781 -1.3725
 1256WAT     H2 5745   5.647   6.336   1.012  1.6027 -1.3615  0.1913
 1256WAT    EPW 5746   5.652   6.326   0.934  0.4587 -0.3132 -0.0391
 1257WAT      O 5747   4.266   5.789   0.119 -0.3932  0.0581 -0.5692
 1257WAT     H1 5748   4.300   5.818   0.195 -1.7885  0.7716 -0.1868
 1257WAT     H2 5749   4.282   5.703   0.121  0.0515  0.1490  0.2946
 1257WAT    EPW 5750   4.274   5.780   0.131 -0.5336  0.1769 -0.3851
 1258WAT      O 5751   6.248   6.097   1.253  0.0368 -0.3768  0.1040
 1258WAT     H1 5752   6.276   6.082   1.335 -0.7697  1.1536  0.6913
 1258WAT     H2 5753   6.295   6.166   1.228 -0.2017 -0.4201 -0.4655
 1258WAT    EPW 5754   6.259   6.105   1.261 -0.1176 -0.1571  0.1066
 1259WAT      O 5755   5.484   6.039   0.625  0.2895 -0.1744  0.2769
 1259WAT     H1 5756   5.460   5.955   0.621  0.7846 -0.3032 -0.1024
 1259WAT     H2 5757   5.409   6.081   0.641 -0.3097 -0.5025 -1.4694
 1259WAT    EPW 5758   5.469   6.033   0.627  0.2741 -0.2419 -0.0371
 1260WAT      O 5759   5.227   6.700   2.639  0.3268  0.2032 -0.0629
 1260WAT     H1 5760   5.204   6.690   2.556 -0.7697 -0.2281  0.2793
 1260WAT     H2 5761   5.261   6.781   2.641  0.1127  0.3186 -0.8623
 1260WAT    EPW 5762   5.229   6.711   2.627  0.1332  0.1565 -0.1304
 1261WAT      O 5763   5.741   4.807   0.952  0.2732 -0.8499 -0.0624
 1261WAT     H1 5764   5.823   4.778   0.953  0.8901  0.7914  1.6966
 1261WAT     H2 5765   5.740   4.868   0.890  0.3088 -1.0374 -0.2477
 1261WAT    EPW 5766   5.753   4.811   0.943  0.3696 -0.6351  0.1700
 1262WAT      O 5767   6.450   4.507   1.141  0.0691  0.1689  0.0030
 1262WAT     H1 5768   6.419   4.439   1.187 -0.2867 -0.3420 -0.9621
 1262WAT     H2 5769   6.536   4.501   1.151  0.3597 -2.4159 -2.6472
 1262WAT    EPW 5770   6.458   4.496   1.149  0.0595 -0.2884 -0.5311
 1263WAT      O 5771   6.339   6.325   1.874  0.5668  0.3003 -0.1325
 1263WAT     H1 5772   6.424   6.344   1.880  0.8690 -0.9305 -0.4194
 1263WAT     H2 5773   6.333   6.244   1.906 -0.4232  0.1900 -0.5540
 1263WAT    EPW 5774   6.351   6.316   1.880  0.4652  0.1022 -0.2371
 1264WAT      O 5775   5.849   4.842   2.116  0.5253 -0.4389  0.2221
 1264WAT     H1 5776   5.932   4.817   2.102  0.2775 -0.0933 -2.3803
 1264WAT     H2 5777   5.857   4.922   2.150  1.2679 -0.4628  0.1132
 1264WAT    EPW 5778   5.863   4.850   2.119  0.5984 -0.3914 -0.1784
 1265WAT      O 5779   6.078   5.456   0.496  0.3477 -0.1439  0.3501
 1265WAT     H1 5780   6.141   5.398   0.512  0.4575 -0.1478 -0.0815
 1265WAT     H2 5781   6.105   5.495   0.422  0.3064  0.4915  0.6642
 1265WAT    EPW 5782   6.091   5.453   0.487  0.3578 -0.0506  0.3327
 1266WAT      O 5783   6.822   4.384   0.245  0.1968 -0.6398  0.4112
 1266WAT     H1 5784   6.808   4.340   0.171 -0.7623  0.1067  0.1304
 1266WAT     H2 5785   6.909   4.388   0.251  0.3410 -2.8806  0.6435
 1266WAT    EPW 5786   6.833   4.378   0.235  0.0765 -0.8605  0.4040
 1267WAT      O 5787   4.956   4.303   0.370  0.2573  0.4552  0.3382
 1267WAT     H1 5788   4.899   4.334   0.312 -0.2975  0.3072  0.7974
 1267WAT     H2 5789   5.033   4.318   0.333  0.0058  2.1980  0.4685
 1267WAT    EPW 5790   4.959   4.310   0.356  0.1382  0.6908  0.4253
 1268WAT      O 5791   6.305   5.314   0.557 -0.1267 -0.0250 -0.0709
 1268WAT     H1 5792   6.355   5.367   0.606 -0.2205 -0.6556  0.7368
 1268WAT     H2 5793   6.280   5.253   0.614 -0.4569 -0.6351 -0.8651
 1268WAT    EPW 5794   6.309   5.313   0.573 -0.1893 -0.2083 -0.0689
 1269WAT      O 5795   6.907   6.616   1.555  0.2801  0.0172 -0.0291
 1269WAT     H1 5796   6.829   6.625   1.516 -0.3659  0.6712  1.3487
 1269WAT     H2 5797   6.907   6.678   1.616  1.4667 -0.6200  0.6548
 1269WAT    EPW 5798   6.895   6.626   1.558  0.3599  0.0197  0.2755
 1270WAT      O 5799   5.795   5.461   7.448  0.3089 -0.4737 -0.2112
 1270WAT     H1 5800   5.860   5.518   7.461  0.8025 -1.2131  0.6487
 1270WAT     H2 5801   5.826   5.386   7.478 -0.4162 -1.1732 -1.1263
 1270WAT    EPW 5802   5.809   5.458   7.454  0.2747 -0.6863 -0.2194
 1271WAT      O 5803   4.528   5.691   0.303 -1.4592 -0.8400  0.4410
 1271WAT     H1 5804   4.562   5.770   0.317 -0.7453 -1.2726  1.2293
 1271WAT     H2 5805   4.589   5.637   0.333 -1.8041 -1.7074 -0.3777
 1271WAT    EPW 5806   4.542   5.695   0.310 -1.4047 -1.0320  0.4365
 1272WAT      O 5807   6.718   4.110   0.756 -0.9685 -0.0813 -0.0121
 1272WAT     H1 5808   6.661   4.060   0.799 -0.5563 -1.2520 -0.7534
 1272WAT     H2 5809   6.771   4.051   0.717 -0.1396  0.9488 -0.4922
 1272WAT    EPW 5810   6.718   4.094   0.756 -0.7852 -0.1021 -0.1925
 1273WAT      O 5811   6.112   4.184   0.850 -0.2123  0.2792 -0.3774
 1273WAT     H1 5812   6.109   4.267   0.877 -1.1904  0.0830  0.1475
 1273WAT     H2 5813   6.047   4.179   0.793 -0.1411 -0.1322 -0.4207
 1273WAT    EPW 5814   6.102   4.196   0.846 -0.3463  0.1895 -0.3063
 1274WAT      O 5815   5.604   4.433   2.041 -0.0577  0.0934 -0.0047
 1274WAT     H1 5816   5.549   4.487   2.083 -2.4153 -0.7407 -1.7579
 1274WAT     H2 5817   5.565   4.355   2.048  1.0668 -0.6018 -1.1047
 1274WAT    EPW 5818   5.590   4.430   2.048 -0.2399 -0.1325 -0.4262
 1275WAT      O 5819   6.732   3.858   4.084  0.2370 -0.3269  0.2619
 1275WAT     H1 5820   6.758   3.775   4.074 -0.1695 -0.3163 -1.0576
 1275WAT     H2 5821   6.765   3.899   4.014  2.2600  1.1488  1.9571
 1275WAT    EPW 5822   6.741   3.851   4.072  0.4758 -0.1074  0.3174
 1276WAT      O 5823   6.928   6.283   0.852  0.0419 -0.3986  0.0426
 1276WAT     H1 5824   6.970   6.212   0.882 -0.2598 -0.2634  0.8120
 1276WAT     H2 5825   6.880   6.308   0.920 -0.4303  0.1083 -0.4702
 1276WAT    EPW 5826   6.927   6.276   0.866 -0.0724 -0.3037  0.0805
 1277WAT      O 5827   6.841   4.896   2.936 -0.3163  0.4346  0.3415
 1277WAT     H1 5828   6.877   4.817   2.930  0.3978  0.4836  2.7756
 1277WAT     H2 5829   6.903   4.943   2.976 -1.6140  1.5741  1.1162
 1277WAT    EPW 5830   6.856   4.891   2.941 -0.4025  0.6101  0.8155
 1278WAT      O 5831   4.934   6.581   3.250 -0.3464  0.3789 -0.3936
 1278WAT     H1 5832   4.952   6.507   3.206 -0.8769 -0.1922  0.3185
 1278WAT     H2 5833   5.011   6.603   3.285 -0.1495  0.2520 -0.7416
 1278WAT    EPW 5834   4.948   6.573   3.248 -0.3957  0.2758 -0.3398
 1279WAT      O 5835   6.116   5.666   1.561 -0.1185  0.3668 -0.4246
 1279WAT     H1 5836   6.066   5.606   1.522 -1.8134 -0.0835  2.1401
 1279WAT     H2 5837   6.075   5.741   1.544  1.5849  0.8355 -2.9990
 1279WAT    EPW 5838   6.102   5.669   1.553 -0.1173  0.3695 -0.4261
 1280WAT      O 5839   4.574   4.970   1.550  0.5191  0.2121  0.4382
 1280WAT     H1 5840   4.645   4.989   1.596  1.6324 -0.6393 -0.8542
 1280WAT     H2 5841   4.554   5.046   1.512  0.1372  0.6873  1.5387
 1280WAT    EPW 5842   4.581   4.984   1.551  0.6271  0.1565  0.4099
 1281WAT      O 5843   6.358   3.504   1.394  0.2474  0.5539  0.3080
 1281WAT     H1 5844   6.383   3.509   1.478 -2.1056  2.0732  0.9916
 1281WAT     H2 5845   6.296   3.443   1.395 -0.6044  1.4009 -0.1040
 1281WAT    EPW 5846   6.353   3.495   1.407 -0.2260  0.9034  0.3481
 1282WAT      O 5847   5.514   6.723   0.864  0.1091  0.1288 -0.2355
 1282WAT     H1 5848   5.544   6.716   0.945 -0.3839  0.3061 -0.0345
 1282WAT     H2 5849   5.524   6.643   0.831 -0.4992 -0.1698  0.2842
 1282WAT    EPW 5850   5.520   6.710   0.871 -0.0536  0.1109 -0.1290
 1283WAT      O 5851   6.596   5.332   0.972  0.2169 -0.7143  0.0099
 1283WAT     H1 5852   6.543   5.275   1.012  1.2447  0.8935  4.2251
 1283WAT     H2 5853   6.671   5.289   0.965  0.0516 -0.9852 -0.1185
 1283WAT    EPW 5854   6.599   5.317   0.977  0.3443 -0.5168  0.6136
 1284WAT      O 5855   5.762   5.296   1.368 -0.0290  0.7036 -0.4730
 1284WAT     H1 5856   5.789   5.239   1.307  0.1625  1.5278 -1.1684
 1284WAT     H2 5857   5.718   5.355   1.323  0.3012  1.4420  0.1566
 1284WAT    EPW 5858   5.760   5.296   1.353  0.0481  0.9344 -0.4827
 1285WAT      O 5859   4.621   5.583   1.179 -0.5674  0.6299  0.1874
 1285WAT     H1 5860   4.619   5.538   1.254  0.7559  0.9142  0.4188
 1285WAT     H2 5861   4.538   5.606   1.166 -0.8449  0.3918  1.4563
 1285WAT    EPW 5862   4.609   5.580   1.188 -0.4129  0.6368  0.4091
 1286WAT      O 5863   5.758   4.893   0.005 -0.0240  0.0092 -0.2560
 1286WAT     H1 5864   5.672   4.886  -0.009  0.0214 -0.5272 -0.2904
 1286WAT     H2 5865   5.771   4.979   0.008 -0.8648  0.1141  1.5815
 1286WAT    EPW 5866   5.747   4.905   0.003 -0.1415 -0.0545  0.0103
 1287WAT      O 5867   6.599   6.559   6.879  0.1800 -0.4898 -0.3760
 1287WAT     H1 5868   6.541   6.566   6.945 -0.7345  0.5185 -1.2443
 1287WAT     H2 5869   6.645   6.633   6.885  0.3787 -0.5953 -0.6055
 1287WAT    EPW 5870   6.597   6.571   6.890  0.0743 -0.3564 -0.5382
 1288WAT      O 5871   6.756   7.301   6.383 -0.0278 -0.2432 -1.1929
 1288WAT     H1 5872   6.765   7.279   6.299 -0.2179 -0.5693 -1.1302
 1288WAT     H2 5873   6.789   7.233   6.425  1.7288  0.6882 -1.0105
 1288WAT    EPW 5874   6.762   7.288   6.377  0.2036 -0.1538 -1.1567
 1289WAT      O 5875   6.044   5.630   7.414  0.5037 -0.0760 -0.0895
 1289WAT     H1 5876   6.036   5.636   7.327  0.0654 -0.3782 -0.0732
 1289WAT     H2 5877   6.111   5.575   7.425  0.1372 -0.5663 -0.2432
 1289WAT    EPW 5878   6.053   5.623   7.403  0.3848 -0.1931 -0.1098
 1290WAT      O 5879   6.770   4.963   2.643  0.0682  0.1303  0.0008
 1290WAT     H1 5880   6.802   4.952   2.723 -0.9337  0.2274  0.4362
 1290WAT     H2 5881   6.781   4.886   2.605  2.2956  0.5979 -0.4556
 1290WAT    EPW 5882   6.776   4.950   2.649  0.2493  0.2137 -0.0023
 1291WAT      O 5883   6.500   4.987   0.215  0.5881 -0.0156 -0.0729
 1291WAT     H1 5884   6.481   4.980   0.130 -0.6012 -0.2572  0.2075
 1291WAT     H2 5885   6.432   5.031   0.248 -0.7770 -2.9259  1.3805
 1291WAT    EPW 5886   6.487   4.993   0.207  0.2108 -0.4812  0.1832
 1292WAT      O 5887   6.388   6.287   2.362 -0.1988  0.0030 -0.2987
 1292WAT     H1 5888   6.359   6.226   2.416  0.8953 -0.3615 -0.1026
 1292WAT     H2 5889   6.315   6.318   2.325 -0.9041 -0.1599  0.9180
 1292WAT    EPW 5890   6.373   6.283   2.364 -0.1414 -0.0749 -0.0900
 1293WAT      O 5891   6.671   5.069   1.525 -0.0875  0.4249  0.6153
 1293WAT     H1 5892   6.720   5.051   1.595 -2.2885  0.3760  2.2702
 1293WAT     H2 5893   6.631   4.993   1.508 -0.0476  0.6015 -0.3415
 1293WAT    EPW 5894   6.672   5.055   1.533 -0.4067  0.4437  0.7184
 1294WAT      O 5895   5.517   5.767   0.366  0.0899  0.8765 -0.0476
 1294WAT     H1 5896   5.575   5.714   0.327 -1.4568 -0.2514 -0.9249
 1294WAT     H2 5897   5.523   5.744   0.450  0.5673  0.4263 -0.1958
 1294WAT    EPW 5898   5.526   5.756   0.373 -0.0680  0.6434 -0.1991
 1295WAT      O 5899   7.055   6.165   2.287  0.1613 -0.4511  0.5207
 1295WAT     H1 5900   7.028   6.241   2.320 -0.4169  0.1189 -1.1705
 1295WAT     H2 5901   7.078   6.119   2.358  0.3622  1.2186  1.6008
 1295WAT    EPW 5902   7.055   6.170   2.303  0.1055 -0.1202  0.4304
 1296WAT      O 5903   6.977   4.923   7.828  0.5941 -0.0924  0.1370
 1296WAT     H1 5904   6.946   4.940   7.748  2.1758  0.2759 -0.4338
 1296WAT     H2 5905   6.950   4.992   7.875 -0.1558 -0.1975 -0.1287
 1296WAT    EPW 5906   6.968   4.936   7.823  0.7170 -0.0535  0.0135
 1297WAT      O 5907   6.684   5.656   1.186 -0.0725 -0.2425 -0.3588
 1297WAT     H1 5908   6.736   5.589   1.205  1.9940  0.7657 -2.0331
 1297WAT     H2 5909   6.708   5.717   1.243 -0.2139 -0.1422 -0.4065
 1297WAT    EPW 5910   6.695   5.655   1.197  0.2118 -0.0788 -0.6131
 1298WAT      O 5911   4.073   7.273   2.832 -0.4575 -0.0225  0.5502
 1298WAT     H1 5912   4.150   7.279   2.872 -0.5551  1.5776  0.5956
 1298WAT     H2 5913   4.016   7.288   2.896 -0.7037  0.6183  0.1905
 1298WAT    EPW 5914   4.076   7.276   2.847 -0.5083  0.3085  0.5037
 1299WAT      O 5915   7.104   1.379   6.769  0.4165 -0.1857  0.4139
 1299WAT     H1 5916   7.076   1.342   6.843 -0.4684  0.6067  0.5006
 1299WAT     H2 5917   7.096   1.316   6.709 -2.1078  0.1173  0.3342
 1299WAT    EPW 5918   7.099   1.364   6.771 -0.0871 -0.0239  0.4149
 1300WAT      O 5919   7.081   4.450   0.860 -0.0305 -0.1351  0.0547
 1300WAT     H1 5920   7.006   4.414   0.886 -0.4248  0.7663  0.2270
 1300WAT     H2 5921   7.124   4.385   0.822 -1.2064 -0.5111 -0.6794
 1300WAT    EPW 5922   7.076   4.435   0.858 -0.2624 -0.0575 -0.0283
 1301WAT      O 5923   5.966   4.737   6.063  0.7002 -0.1060 -0.1480
 1301WAT     H1 5924   5.908   4.742   6.128  0.5429  0.7922 -0.3587
 1301WAT     H2 5925   6.025   4.680   6.094 -0.5909 -1.5342 -0.1916
 1301WAT    EPW 5926   5.966   4.729   6.077  0.4862 -0.1843 -0.1856
 1302WAT      O 5927   6.006   5.328   7.169 -0.2516  0.0564 -0.0109
 1302WAT     H1 5928   5.935   5.293   7.206 -1.5218  1.5343 -0.9333
 1302WAT     H2 5929   6.072   5.283   7.204 -1.6855 -2.1520 -0.0007
 1302WAT    EPW 5930   6.006   5.316   7.180 -0.6510 -0.0515 -0.1456
 1303WAT      O 5931   4.210   4.204   6.371  0.5506  0.0189  0.5938
 1303WAT     H1 5932   4.172   4.138   6.329 -0.5071  0.7045  0.4285
 1303WAT     H2 5933   4.276   4.166   6.415  0.8927 -0.8945 -0.6646
 1303WAT    EPW 5934   4.214   4.189   6.371  0.4449 -0.0148  0.3835
 1304WAT      O 5935   5.831   3.359   5.982 -0.5012  0.0798 -0.2303
 1304WAT     H1 5936   5.757   3.404   5.985 -0.6571 -0.1717 -0.2719
 1304WAT     H2 5937   5.860   3.361   6.064 -0.4197  0.4009 -0.2672
 1304WAT    EPW 5938   5.824   3.366   5.994 -0.5122  0.0900 -0.2419
 1305WAT      O 5939   6.692   4.090   6.775 -0.3702  0.1294 -0.0088
 1305WAT     H1 5940   6.690   4.177   6.784  0.4298 -0.0248  2.3175
 1305WAT     H2 5941   6.610   4.070   6.753 -1.2389  1.2899  1.9220
 1305WAT    EPW 5942   6.679   4.100   6.773 -0.3804  0.2781  0.6201
 1306WAT      O 5943   6.623   4.215   4.713 -0.0767  0.3018  0.1501
 1306WAT     H1 5944   6.638   4.239   4.796  1.4429 -0.5007  0.1469
 1306WAT     H2 5945   6.642   4.129   4.713  1.0815  0.5218 -1.2713
 1306WAT    EPW 5946   6.628   4.206   4.726  0.3189  0.2158 -0.0604
 1307WAT      O 5947   5.531   3.776   6.057 -0.2345  0.2089 -0.3871
 1307WAT     H1 5948   5.566   3.791   6.136 -0.7194  3.1599 -0.6135
 1307WAT     H2 5949   5.445   3.787   6.071 -0.4927 -0.9177 -1.0225
 1307WAT    EPW 5950   5.523   3.780   6.071 -0.3443  0.4784 -0.5144
 1308WAT      O 5951   6.383   3.805   4.715  0.7331 -0.5078  0.6702
 1308WAT     H1 5952   6.324   3.743   4.729  0.7644 -0.7006 -0.0557
 1308WAT     H2 5953   6.434   3.772   4.652  1.9971 -0.6151  1.6967
 1308WAT    EPW 5954   6.382   3.791   4.708  0.9244 -0.5521  0.7146
 1309WAT      O 5955   4.283   4.656   6.330  0.0396  0.8137 -0.2472
 1309WAT     H1 5956   4.360   4.677   6.367  0.4142 -0.6566 -0.1031
 1309WAT     H2 5957   4.275   4.712   6.264  1.5669  0.5714 -0.6647
 1309WAT    EPW 5958   4.293   4.667   6.326  0.3206  0.5608 -0.2876
 1310WAT      O 5959   6.951   3.297   7.697  0.0782 -0.3363  0.2255
 1310WAT     H1 5960   7.030   3.326   7.719  0.5942 -0.3248 -1.5474
 1310WAT     H2 5961   6.915   3.275   7.774  0.8261  2.0152  1.3209
 1310WAT    EPW 5962   6.957   3.298   7.712  0.2649  0.0128  0.1254
 1311WAT      O 5963   4.025   5.180   6.646  0.0838  0.1936 -0.2653
 1311WAT     H1 5964   4.026   5.122   6.711  0.0619  0.2488 -0.2157
 1311WAT     H2 5965   4.003   5.131   6.577  3.0287 -0.4929 -0.8590
 1311WAT    EPW 5966   4.022   5.164   6.645  0.5156  0.1003 -0.3456
 1312WAT      O 5967   5.485   4.335   7.091  0.4506 -0.4415  0.3062
 1312WAT     H1 5968   5.506   4.415   7.063  0.0369  0.1744  1.6984
 1312WAT     H2 5969   5.409   4.346   7.131  1.0177 -1.2594  1.7001
 1312WAT    EPW 5970   5.477   4.349   7.093  0.4733 -0.4713  0.7178
 1313WAT      O 5971   5.608   3.813   7.425 -0.0285  0.1581 -0.2401
 1313WAT     H1 5972   5.552   3.746   7.430 -0.1375  0.0956 -1.7585
 1313WAT     H2 5973   5.675   3.788   7.476  0.5890 -1.7911 -1.8780
 1313WAT    EPW 5974   5.610   3.799   7.433  0.0467 -0.1391 -0.7064
 1314WAT      O 5975   5.420   2.312   7.229 -0.7812  0.0884  0.3885
 1314WAT     H1 5976   5.399   2.395   7.243  1.6325  0.5952  1.3709
 1314WAT     H2 5977   5.387   2.270   7.298 -1.2081  0.3708  0.3578
 1314WAT    EPW 5978   5.412   2.318   7.241 -0.4877  0.2050  0.5291
 1315WAT      O 5979   6.310   2.825   5.851  0.1001  0.3446 -0.5569
 1315WAT     H1 5980   6.359   2.760   5.818  0.7495  0.4141  0.2408
 1315WAT     H2 5981   6.311   2.809   5.937  1.9727  2.5317 -0.0823
 1315WAT    EPW 5982   6.317   2.813   5.858  0.4726  0.6779 -0.3689
 1316WAT      O 5983   7.067   1.944   6.724  0.2775 -0.1204  0.0131
 1316WAT     H1 5984   7.057   1.998   6.656  1.3795 -0.8037 -0.7187
 1316WAT     H2 5985   7.063   1.997   6.793 -0.9431  0.5744 -0.5599
 1316WAT    EPW 5986   7.065   1.960   6.724  0.2600 -0.1187 -0.1796
 1317WAT      O 5987   6.515   3.539   7.811  0.0511 -0.2383  0.2580
 1317WAT     H1 5988   6.547   3.572   7.737 -2.0135  2.1627  0.2922
 1317WAT     H2 5989   6.531   3.601   7.870 -0.0981 -1.2380  1.3847
 1317WAT    EPW 5990   6.522   3.553   7.809 -0.2759 -0.0313  0.4295
 1318WAT      O 5991   6.562   2.635   6.995 -0.5117  0.3703 -0.6447
 1318WAT     H1 5992   6.513   2.654   7.065 -0.9321  0.1253 -0.8653
 1318WAT     H2 5993   6.610   2.567   7.022 -0.1290  0.7470 -0.3573
 1318WAT    EPW 5994   6.562   2.628   7.009 -0.5173  0.3897 -0.6348
 1319WAT      O 5995   7.250   1.064   0.485 -0.4756  0.6821 -0.0112
 1319WAT     H1 5996   7.253   1.024   0.562 -0.2633  0.7151 -0.0015
 1319WAT     H2 5997   7.271   1.002   0.428 -1.4307  0.4483 -0.1270
 1319WAT    EPW 5998   7.253   1.049   0.488 -0.5853  0.6524 -0.0269
 1320WAT      O 5999   6.005   2.663   0.183 -0.3285 -0.8578 -0.7395
 1320WAT     H1 6000   5.973   2.590   0.147 -1.9267  0.3303 -1.8985
 1320WAT     H2 6001   5.991   2.652   0.268 -2.1790 -1.2086 -1.0503
 1320WAT    EPW 6002   5.998   2.651   0.190 -0.8379 -0.7341 -0.9566
 1321WAT      O 6003   6.639   0.975   6.624  0.2833 -0.6387  0.3939
 1321WAT     H1 6004   6.631   0.899   6.582  1.7733 -1.4906  1.5325
 1321WAT     H2 6005   6.567   0.980   6.673 -0.7877 -0.3081 -1.1497
 1321WAT    EPW 6006   6.627   0.965   6.625  0.3452 -0.7157  0.3341
 1322WAT      O 6007   6.053   4.086   6.899  0.0127 -0.1802  0.1809
 1322WAT     H1 6008   6.129   4.119   6.927 -0.4367 -0.6754  2.0987
 1322WAT     H2 6009   6.052   4.108   6.814  0.8585  2.5502  0.7680
 1322WAT    EPW 6010   6.064   4.094   6.891  0.0712  0.1500  0.5510
 1323WAT      O 6011   4.886   4.712   5.920 -0.1162 -0.2454  0.1795
 1323WAT     H1 6012   4.945   4.650   5.905  0.4059  0.2971 -0.0487
 1323WAT     H2 6013   4.890   4.762   5.848  0.0884  0.5349  0.7241
 1323WAT    EPW 6014   4.895   4.710   5.907 -0.0089 -0.0500  0.2262
 1324WAT      O 6015   7.291   2.969   7.159  0.2255  0.4608  0.3842
 1324WAT     H1 6016   7.330   2.997   7.232 -1.1627  0.1920  1.2643
 1324WAT     H2 6017   7.353   2.923   7.119  0.7179 -0.2845  1.9331
 1324WAT    EPW 6018   7.306   2.967   7.164  0.0932  0.3110  0.7430
 1325WAT      O 6019   5.998   4.602   6.939  0.1483  0.1171 -0.6374
 1325WAT     H1 6020   6.040   4.609   7.015 -0.1075  1.1868 -0.5800
 1325WAT     H2 6021   5.961   4.680   6.928  2.4859  1.0147 -3.2149
 1325WAT    EPW 6022   5.999   4.614   6.949  0.4558  0.4077 -1.0096
 1326WAT      O 6023   7.119   4.369   7.322 -0.4433  0.3653 -0.1290
 1326WAT     H1 6024   7.083   4.336   7.250 -2.3797 -0.1302  0.9717
 1326WAT     H2 6025   7.136   4.299   7.371 -1.5183  0.7729  0.8883
 1326WAT    EPW 6026   7.116   4.354   7.319 -0.8882  0.3523  0.1839
 1327WAT      O 6027   6.768   3.547   5.941 -0.4069 -1.0014  0.0266
 1327WAT     H1 6028   6.689   3.565   5.974 -0.0485 -1.0816  0.9569
 1327WAT     H2 6029   6.752   3.487   5.879 -1.2951  0.4039 -1.1864
 1327WAT    EPW 6030   6.754   3.541   5.936 -0.4852 -0.8057 -0.0152
 1328WAT      O 6031   4.789   4.730   5.402 -0.4958  0.1435 -0.0392
 1328WAT     H1 6032   4.835   4.657   5.412 -0.6419  0.1495  0.7173
 1328WAT     H2 6033   4.707   4.703   5.397 -0.5372  0.2461  0.0875
 1328WAT    EPW 6034   4.784   4.716   5.402 -0.5235  0.1596  0.0913
 1329WAT      O 6035   7.016   2.107   6.504 -0.2492 -0.5010 -0.3772
 1329WAT     H1 6036   7.044   2.117   6.422 -1.4260  0.8609 -0.6475
 1329WAT     H2 6037   6.948   2.053   6.496 -0.1666 -0.6202 -0.2650
 1329WAT    EPW 6038   7.010   2.101   6.490 -0.4108 -0.3174 -0.4005
 1330WAT      O 6039   6.226   4.502   6.638 -0.0507  0.1435 -0.1370
 1330WAT     H1 6040   6.145   4.531   6.646 -1.1954 -2.8696  0.3890
 1330WAT     H2 6041   6.266   4.534   6.708 -1.4087 -0.0712  0.7708
 1330WAT    EPW 6042   6.220   4.511   6.649 -0.4204 -0.3333  0.0748
 1331WAT      O 6043   6.213   0.752   7.820  0.1556  0.7679  0.4759
 1331WAT     H1 6044   6.200   0.717   7.899 -1.5357  0.5329  0.1351
 1331WAT     H2 6045   6.246   0.686   7.774  1.4117  0.9847  1.0399
 1331WAT    EPW 6046   6.216   0.737   7.825  0.0913  0.7652  0.5089
 1332WAT      O 6047   6.846   3.716   6.253  0.1170 -0.5096  0.4558
 1332WAT     H1 6048   6.776   3.698   6.302 -0.0217  0.6352  0.7038
 1332WAT     H2 6049   6.889   3.775   6.301  0.4233 -0.0048 -0.4278
 1332WAT    EPW 6050   6.842   3.722   6.268  0.1418 -0.2659  0.3619
 1333WAT      O 6051   3.581   5.629   1.169  0.1191 -0.5336 -0.3054
 1333WAT     H1 6052   3.665   5.619   1.148 -0.3338 -2.5936 -1.3507
 1333WAT     H2 6053   3.577   5.602   1.252  0.3759 -1.0873 -0.4702
 1333WAT    EPW 6054   3.593   5.624   1.178  0.0901 -0.9197 -0.4841
 1334WAT      O 6055   4.939   2.933   7.689 -0.2691  0.0947 -0.2082
 1334WAT     H1 6056   4.917   2.852   7.714 -0.4705  0.4827  0.9288
 1334WAT     H2 6057   4.862   2.971   7.672 -0.2454  0.3287  0.1855
 1334WAT    EPW 6058   4.924   2.927   7.690 -0.2953  0.1866  0.0179
 1335WAT      O 6059   6.074   3.402   7.670  0.3759  0.0748 -0.2971
 1335WAT     H1 6060   6.039   3.363   7.600  2.9682  0.9735 -2.2727
 1335WAT     H2 6061   6.156   3.420   7.644  1.7693 -0.2893  3.2893
 1335WAT    EPW 6062   6.081   3.399   7.656  0.9647  0.1538 -0.0592
 1336WAT      O 6063   6.525   3.009   5.855 -0.5594  0.2253 -0.2351
 1336WAT     H1 6064   6.454   2.960   5.844 -0.2462 -0.1879 -0.4299
 1336WAT     H2 6065   6.493   3.086   5.881 -1.1256  0.3191 -1.1664
 1336WAT    EPW 6066   6.510   3.013   5.858 -0.5968  0.1781 -0.4014
 1337WAT      O 6067   5.054   4.159   6.309  0.5654 -0.2236 -0.2215
 1337WAT     H1 6068   5.081   4.222   6.363  1.0372  0.1739 -0.9075
 1337WAT     H2 6069   5.005   4.108   6.360 -1.2614  1.5999 -0.0444
 1337WAT    EPW 6070   5.051   4.161   6.325  0.3653  0.1045 -0.2967
 1338WAT      O 6071   4.963   5.228   6.011  0.2514  0.2879 -0.4611
 1338WAT     H1 6072   5.046   5.232   6.038 -0.1824 -0.8769  1.1881
 1338WAT     H2 6073   4.959   5.152   5.969 -0.0904  0.1147 -0.1182
 1338WAT    EPW 6074   4.975   5.218   6.009  0.1368  0.0903 -0.1668
 1339WAT      O 6075   6.119   1.748   6.995 -1.2290 -0.6406  0.3172
 1339WAT     H1 6076   6.185   1.693   7.010  0.1083  1.1260  1.2766
 1339WAT     H2 6077   6.060   1.727   7.055 -0.7962 -1.1220  0.5815
 1339WAT    EPW 6078   6.120   1.737   7.006 -0.9675 -0.4507  0.4980
 1340WAT      O 6079   5.773   3.514   7.365 -0.0088  0.1139 -0.0641
 1340WAT     H1 6080   5.728   3.444   7.338  0.2668  0.3126 -1.0696
 1340WAT     H2 6081   5.789   3.558   7.291  1.3207  0.3583  0.3451
 1340WAT    EPW 6082   5.769   3.510   7.350  0.2283  0.1794 -0.1522
 1341WAT      O 6083   5.652   4.726   5.943 -0.4936  0.4056 -0.6386
 1341WAT     H1 6084   5.647   4.771   5.868 -3.4953 -0.5881 -1.1836
 1341WAT     H2 6085   5.682   4.648   5.918 -0.9605  0.2509 -0.7228
 1341WAT    EPW 6086   5.656   4.721   5.928 -1.0060  0.2359 -0.7315
 1342WAT      O 6087   7.231   1.583   5.877  0.1688  0.0417  0.1146
 1342WAT     H1 6088   7.206   1.513   5.923  1.7714  0.3969  1.6447
 1342WAT     H2 6089   7.312   1.598   5.905 -0.0128  2.3303 -0.3897
 1342WAT    EPW 6090   7.239   1.575   5.888  0.3787  0.4322  0.2661
 1343WAT      O 6091   5.076   5.000   5.839  0.2521  0.2297 -0.0629
 1343WAT     H1 6092   5.090   4.929   5.789 -2.3217  0.4181 -1.1916
 1343WAT     H2 6093   5.025   5.050   5.789  0.6065  2.1294  1.3952
 1343WAT    EPW 6094   5.071   4.997   5.824 -0.0757  0.5382 -0.0142
 1344WAT      O 6095   5.198   5.097   0.153 -0.3006  0.1279  0.3767
 1344WAT     H1 6096   5.207   5.057   0.230  0.1886  2.2073  1.4879
 1344WAT     H2 6097   5.215   5.181   0.172 -1.5049  0.9192 -1.7322
 1344WAT    EPW 6098   5.202   5.104   0.168 -0.4062  0.5519  0.2293
 1345WAT      O 6099   6.784   4.084   4.963  0.4363  0.3498 -0.1882
 1345WAT     H1 6100   6.808   4.025   5.022  0.1945  0.2917 -0.1445
 1345WAT     H2 6101   6.740   4.037   4.904 -0.7805  0.6509  0.4426
 1345WAT    EPW 6102   6.781   4.069   4.963  0.2208  0.3857 -0.0885
 1346WAT      O 6103   4.809   4.976   7.087  0.0040  0.0770  0.4350
 1346WAT     H1 6104   4.768   4.915   7.041 -0.4371  0.2087  0.6444
 1346WAT     H2 6105   4.802   4.949   7.169 -2.5625  1.6703  0.8693
 1346WAT    EPW 6106   4.802   4.963   7.092 -0.4403  0.3318  0.5301
 1347WAT      O 6107   5.889   2.584   6.285 -0.0828  0.3005 -0.1311
 1347WAT     H1 6108   5.950   2.567   6.344 -0.8561 -0.6882  0.4007
 1347WAT     H2 6109   5.935   2.601   6.212  0.8218 -0.5706  0.2183
 1347WAT    EPW 6110   5.904   2.584   6.283 -0.0634  0.0258 -0.0010
 1348WAT      O 6111   5.115   4.828   6.300  0.2800 -0.1327  0.6777
 1348WAT     H1 6112   5.096   4.913   6.309  0.6909 -0.0843  1.1503
 1348WAT     H2 6113   5.175   4.828   6.237 -1.2340 -0.2863 -0.8125
 1348WAT    EPW 6114   5.121   4.841   6.292  0.1170 -0.1483  0.5274
 1349WAT      O 6115   6.590   3.668   0.844 -0.0979  0.0676  0.4833
 1349WAT     H1 6116   6.662   3.661   0.893  0.3844 -0.4015 -0.2721
 1349WAT     H2 6117   6.617   3.648   0.764 -0.8629  0.9059 -0.0013
 1349WAT    EPW 6118   6.604   3.664   0.840 -0.1397  0.1221  0.3001
 1350WAT      O 6119   6.608   4.654   7.765  0.0620  0.2950 -0.8521
 1350WAT     H1 6120   6.569   4.682   7.838  0.0593  0.0176 -0.7436
 1350WAT     H2 6121   6.543   4.619   7.719  0.2888 -0.8095 -0.3565
 1350WAT    EPW 6122   6.592   4.653   7.769  0.0951  0.0908 -0.7629
 1351WAT      O 6123   4.229   5.017   0.582  0.2941  0.0625  0.0709
 1351WAT     H1 6124   4.273   5.002   0.508  1.2152  0.0148  0.6117
 1351WAT     H2 6125   4.292   5.034   0.640 -0.3431 -0.9091  1.0929
 1351WAT    EPW 6126   4.245   5.017   0.579  0.3360 -0.0880  0.3018
 1352WAT      O 6127   5.905   1.748   6.765 -0.9613 -0.4166  0.3641
 1352WAT     H1 6128   5.970   1.737   6.822 -1.6518 -0.2781  1.1917
 1352WAT     H2 6129   5.913   1.679   6.712 -1.8089 -1.9491  2.1164
 1352WAT    EPW 6130   5.916   1.736   6.765 -1.1885 -0.6225  0.7452
 1353WAT      O 6131   6.656   2.072   7.269 -0.2396 -0.4856 -0.4142
 1353WAT     H1 6132   6.624   2.027   7.337  1.9750  0.7095  1.5931
 1353WAT     H2 6133   6.730   2.029   7.249 -0.2763 -0.1495 -1.3140
 1353WAT    EPW 6134   6.663   2.059   7.276  0.0821 -0.2594 -0.2506
 1354WAT      O 6135   6.254   1.333   7.356  0.1647  0.3704 -0.2930
 1354WAT     H1 6136   6.333   1.302   7.374  0.2131 -0.6561 -2.0383
 1354WAT     H2 6137   6.215   1.339   7.434  0.6732 -2.7194  0.3241
 1354WAT    EPW 6138   6.260   1.330   7.370  0.2470 -0.2377 -0.4597
 1355WAT      O 6139   5.353   3.142   0.700 -0.2169  0.1921  0.0601
 1355WAT     H1 6140   5.416   3.118   0.756  0.8303  2.7433  0.0883
 1355WAT     H2 6141   5.392   3.133   0.622 -0.3796  0.2950 -0.0329
 1355WAT    EPW 6142   5.368   3.137   0.697 -0.0863  0.5842  0.0505
 1356WAT      O 6143   5.219   4.396   0.670 -0.2854  0.2691  0.0243
 1356WAT     H1 6144   5.137   4.423   0.658 -0.7216 -0.3440  1.4012
 1356WAT     H2 6145   5.221   4.318   0.631 -0.3525  0.3047 -0.0506
 1356WAT    EPW 6146   5.207   4.388   0.663 -0.3597  0.1838  0.2166
 1357WAT      O 6147   5.508   2.659   6.373 -0.1209  0.0149  0.9043
 1357WAT     H1 6148   5.551   2.687   6.443  1.1960 -0.4363  0.3145
 1357WAT     H2 6149   5.548   2.699   6.306  1.1432 -2.3280  0.1279
 1357WAT    EPW 6150   5.520   2.669   6.373  0.2604 -0.3979  0.7025
 1358WAT      O 6151   7.112   2.149   6.240  0.0771 -0.1641 -0.3751
 1358WAT     H1 6152   7.066   2.121   6.172 -1.4078 -0.7576  0.8230
 1358WAT     H2 6153   7.120   2.234   6.226 -2.1335  0.1252 -0.2477
 1358WAT    EPW 6154   7.107   2.157   6.228 -0.4688 -0.2090 -0.1793
 1359WAT      O 6155   5.572   3.695   6.369  0.4288  0.1403 -0.1694
 1359WAT     H1 6156   5.599   3.757   6.424 -0.5033  1.5296 -1.1793
 1359WAT     H2 6157   5.509   3.654   6.414  1.5467 -0.5965  0.7772
 1359WAT    EPW 6158   5.566   3.698   6.384  0.4562  0.2367 -0.1787
 1360WAT      O 6159   6.972   3.800   5.149 -0.0767 -0.5865  0.4001
 1360WAT     H1 6160   6.917   3.808   5.216  0.7563  0.8463  0.9377
 1360WAT     H2 6161   7.008   3.721   5.161 -1.4353 -1.2416  0.4382
 1360WAT    EPW 6162   6.969   3.789   5.160 -0.1543 -0.4716  0.4852
 1361WAT      O 6163   5.300   2.997   6.264 -0.2638  0.6006 -0.0382
 1361WAT     H1 6164   5.276   3.013   6.346 -0.6336 -0.7619  0.1461
 1361WAT     H2 6165   5.231   3.024   6.217  0.0576  1.6295  0.0637
 1361WAT    EPW 6166   5.286   3.003   6.269 -0.2710  0.5513  0.0041
 1362WAT      O 6167   5.316   3.277   6.367  0.5279 -0.0029 -0.4030
 1362WAT     H1 6168   5.323   3.282   6.281  0.7868 -1.5658 -0.5009
 1362WAT     H2 6169   5.379   3.221   6.390 -0.2682 -0.5046  0.6578
 1362WAT    EPW 6170   5.326   3.269   6.358  0.4486 -0.3079 -0.2608
 1363WAT      O 6171   3.625   3.400   0.881 -0.4093  0.0964 -0.3507
 1363WAT     H1 6172   3.668   3.338   0.838 -0.3631  0.0837 -0.2865
 1363WAT     H2 6173   3.615   3.463   0.822 -0.6677 -0.0703 -0.4866
 1363WAT    EPW 6174   3.630   3.400   0.866 -0.4406  0.0699 -0.3613
 1364WAT      O 6175   7.101   3.465   7.863 -0.4591  0.0670 -0.0570
 1364WAT     H1 6176   7.131   3.518   7.801  0.0231  0.1953  0.2749
 1364WAT     H2 6177   7.151   3.394   7.855  0.4201  0.5499  0.9438
 1364WAT    EPW 6178   7.113   3.462   7.853 -0.2580  0.1573  0.1398
 1365WAT      O 6179   6.047   3.295   0.116 -0.3689  0.0718 -0.1897
 1365WAT     H1 6180   6.066   3.339   0.044  1.2002 -0.7134 -0.2867
 1365WAT     H2 6181   6.047   3.357   0.178 -2.9840  0.9900 -0.9377
 1365WAT    EPW 6182   6.050   3.311   0.115 -0.5234  0.0915 -0.3145
 1366WAT      O 6183   6.960   4.032   6.709  0.1734 -0.4541  0.8012
 1366WAT     H1 6184   7.012   4.099   6.730  0.1146  0.6348 -1.9782
 1366WAT     H2 6185   6.882   4.055   6.740  0.6963 -0.5976  2.2682
 1366WAT    EPW 6186   6.956   4.045   6.717  0.2420 -0.3145  0.6074
 1367WAT      O 6187   5.001   5.610   5.073  0.6881 -0.7707  0.2026
 1367WAT     H1 6188   4.962   5.609   5.151  1.2166  0.2801  0.5058
 1367WAT     H2 6189   5.068   5.664   5.085  0.8961 -0.7579 -0.9318
 1367WAT    EPW 6190   5.005   5.618   5.086  0.7969 -0.6136  0.0798
 1368WAT      O 6191   6.372   2.066   6.518 -0.0557 -0.5860  0.1424
 1368WAT     H1 6192   6.331   2.143   6.509 -1.0578 -1.1750 -0.5033
 1368WAT     H2 6193   6.391   2.044   6.436  0.9674 -0.6519  0.3857
 1368WAT    EPW 6194   6.369   2.074   6.504 -0.0526 -0.6828  0.0830
 1369WAT      O 6195   5.787   3.641   7.113  0.0432 -0.2645 -0.4355
 1369WAT     H1 6196   5.745   3.718   7.117 -2.8671 -1.7452  1.0664
 1369WAT     H2 6197   5.750   3.601   7.045  0.6284 -0.8105 -0.4342
 1369WAT    EPW 6198   5.775   3.647   7.104 -0.3003 -0.5639 -0.2134
 1370WAT      O 6199   6.756   4.727   6.972  0.4101  0.2828  0.0631
 1370WAT     H1 6200   6.713   4.712   6.897  0.3615  0.3151  0.0843
 1370WAT     H2 6201   6.711   4.681   7.031  1.3650 -1.0317 -0.1825
 1370WAT    EPW 6202   6.743   4.718   6.969  0.5440  0.0934  0.0300
 1371WAT      O 6203   5.186   4.026   1.087  0.3304  0.6728  0.4034
 1371WAT     H1 6204   5.234   4.033   1.015  3.3522  0.2481  2.1882
 1371WAT     H2 6205   5.209   4.096   1.134 -2.7417  1.7989  0.4482
 1371WAT    EPW 6206   5.196   4.037   1.083  0.3230  0.7764  0.6737
 1372WAT      O 6207   6.243   2.932   7.234 -0.3280  0.1331  0.5532
 1372WAT     H1 6208   6.250   3.011   7.199 -0.9499  0.1850  0.5187
 1372WAT     H2 6209   6.158   2.913   7.224 -0.4253 -0.0523  1.5794
 1372WAT    EPW 6210   6.231   2.941   7.228 -0.4342  0.1134  0.6997
 1373WAT      O 6211   4.953   3.276   7.300 -0.2971 -0.3948 -0.4505
 1373WAT     H1 6212   4.876   3.298   7.266  0.1946  1.2058 -0.6298
 1373WAT     H2 6213   5.010   3.300   7.238  0.3998 -0.8088  0.0120
 1373WAT    EPW 6214   4.950   3.283   7.285 -0.1215 -0.2195 -0.4087
 1374WAT      O 6215   5.518   4.472   0.302  0.3059 -0.0136  0.2027
 1374WAT     H1 6216   5.512   4.480   0.389  0.4290  1.1950  0.1157
 1374WAT     H2 6217   5.598   4.440   0.290  0.1315 -0.5983  0.5477
 1374WAT    EPW 6218   5.529   4.468   0.313  0.2983  0.0786  0.2408
 1375WAT      O 6219   6.178   3.412   6.704 -0.2209 -0.8038  0.2658
 1375WAT     H1 6220   6.166   3.367   6.630  0.2396  0.5694 -0.6757
 1375WAT     H2 6221   6.119   3.475   6.700  0.6315  0.0228  0.4495
 1375WAT    EPW 6222   6.168   3.415   6.692 -0.0269 -0.4788  0.1538
 1376WAT      O 6223   6.038   3.617   0.733  0.7708  0.8312  0.5343
 1376WAT     H1 6224   6.106   3.569   0.708  1.1134  1.2158  0.7318
 1376WAT     H2 6225   6.068   3.662   0.802  0.6996  1.9436 -0.1417
 1376WAT    EPW 6226   6.052   3.616   0.740  0.8109  1.0523  0.4636
 1377WAT      O 6227   7.121   4.230   6.800 -0.2781 -0.2679 -0.4910
 1377WAT     H1 6228   7.194   4.252   6.757  1.0849 -1.2840  1.1434
 1377WAT     H2 6229   7.085   4.307   6.820  0.3300  0.2581 -1.3477
 1377WAT    EPW 6230   7.127   4.245   6.797  0.0130 -0.3403 -0.3761
 1378WAT      O 6231   4.456   4.950   6.485 -0.2185 -0.2231 -0.3184
 1378WAT     H1 6232   4.489   4.881   6.443  1.4160  0.3197 -0.0012
 1378WAT     H2 6233   4.397   4.915   6.539 -0.1922 -1.2348 -0.9153
 1378WAT    EPW 6234   4.452   4.935   6.487  0.0268 -0.2923 -0.3597
 1379WAT      O 6235   6.903   3.870   6.483  0.4845  0.3361  0.3239
 1379WAT     H1 6236   6.927   3.919   6.550 -0.8077  1.2979  0.1245
 1379WAT     H2 6237   6.879   3.795   6.520  1.4745  0.2073  0.7372
 1379WAT    EPW 6238   6.903   3.866   6.498  0.4399  0.4591  0.3555
 1380WAT      O 6239   4.963   3.155   6.693  0.2340  0.5758  0.1733
 1380WAT     H1 6240   4.925   3.217   6.741  0.3886  1.5055 -0.8626
 1380WAT     H2 6241   4.896   3.114   6.655 -0.0630 -1.6658  2.8251
 1380WAT    EPW 6242   4.948   3.159   6.695  0.2130  0.3820  0.4120
 1381WAT      O 6243   5.748   4.263   0.025 -0.1234  0.4828 -0.2640
 1381WAT     H1 6244   5.722   4.182   0.007 -0.5350  0.4713  0.3276
 1381WAT     H2 6245   5.706   4.281   0.100 -0.9733  1.6731 -0.9953
 1381WAT    EPW 6246   5.738   4.254   0.034 -0.3097  0.6569 -0.2847
 1382WAT      O 6247   6.945   3.376   6.632 -0.6640 -0.1730  0.4007
 1382WAT     H1 6248   6.865   3.352   6.608  0.8217 -3.0410 -2.3112
 1382WAT     H2 6249   6.969   3.432   6.570 -0.5029  0.6878  1.2078
 1382WAT    EPW 6250   6.936   3.381   6.620 -0.4207 -0.4695  0.1194
 1383WAT      O 6251   4.966   4.065   0.494  0.1394 -0.0053  0.7843
 1383WAT     H1 6252   4.990   4.141   0.459 -0.3502 -0.6734 -1.1344
 1383WAT     H2 6253   5.006   4.006   0.444 -1.8728 -1.0407  0.3061
 1383WAT    EPW 6254   4.975   4.068   0.481 -0.2302 -0.2569  0.4302
 1384WAT      O 6255   6.434   3.378   7.088  0.1804  0.6134  0.1126
 1384WAT     H1 6256   6.420   3.444   7.143  0.7493 -0.7430  1.9984
 1384WAT     H2 6257   6.494   3.329   7.129 -0.0538 -0.9703 -1.2964
 1384WAT    EPW 6258   6.441   3.380   7.102  0.2299  0.1791  0.1830
 1385WAT      O 6259   7.197   0.244   0.305 -0.6872 -0.2322 -0.1726
 1385WAT     H1 6260   7.174   0.253   0.388  0.4656 -1.3292  0.2901
 1385WAT     H2 6261   7.198   0.326   0.275  0.6377  0.3754  1.3857
 1385WAT    EPW 6262   7.193   0.258   0.313 -0.3212 -0.3045  0.1259
 1386WAT      O 6263   5.977   3.042   0.673  0.8224  0.1751  0.0754
 1386WAT     H1 6264   6.021   3.075   0.605 -2.4319  0.8746 -1.9427
 1386WAT     H2 6265   5.950   3.112   0.716  0.3708 -0.1474  0.3259
 1386WAT    EPW 6266   5.979   3.057   0.669  0.2749  0.2308 -0.1857
 1387WAT      O 6267   6.470   3.578   7.248  0.6052 -0.2163  0.0073
 1387WAT     H1 6268   6.445   3.627   7.315  0.3452  2.4960 -1.9073
 1387WAT     H2 6269   6.553   3.558   7.266  1.2226  2.2432  0.2492
 1387WAT    EPW 6270   6.478   3.582   7.260  0.6580  0.5477 -0.2398
 1388WAT      O 6271   6.785   3.754   1.283 -0.3073 -0.3223 -0.0532
 1388WAT     H1 6272   6.712   3.793   1.311 -0.0463  0.0186  0.1574
 1388WAT     H2 6273   6.807   3.702   1.349 -1.2100 -1.6167 -0.7222
 1388WAT    EPW 6274   6.777   3.752   1.297 -0.4021 -0.4631 -0.1209
 1389WAT      O 6275   6.325   3.523   7.536  0.6051  0.2116 -0.4467
 1389WAT     H1 6276   6.367   3.586   7.580 -2.3941  1.5239  0.8406
 1389WAT     H2 6277   6.383   3.458   7.533  2.1747  1.2472  2.6519
 1389WAT    EPW 6278   6.340   3.523   7.542  0.3939  0.5584  0.2012
 1390WAT      O 6279   6.954   3.498   6.380  0.0206 -0.5025  0.1238
 1390WAT     H1 6280   6.996   3.441   6.328  0.1170 -0.4182  0.1088
 1390WAT     H2 6281   6.921   3.556   6.325  0.4457 -0.2020  0.1823
 1390WAT    EPW 6282   6.955   3.498   6.364  0.0976 -0.4457  0.1303
 1391WAT      O 6283   5.936   3.805   6.486 -0.3197  0.0434 -0.0341
 1391WAT     H1 6284   5.858   3.836   6.461 -0.8223 -0.7636  0.5005
 1391WAT     H2 6285   5.991   3.844   6.430 -1.2969 -0.8606 -1.7242
 1391WAT    EPW 6286   5.933   3.816   6.474 -0.5383 -0.2093 -0.2048
 1392WAT      O 6287   6.073   4.934   7.178  0.0760  0.0064  0.3546
 1392WAT     H1 6288   6.012   4.977   7.132  1.1178 -0.3031 -1.4181
 1392WAT     H2 6289   6.114   4.997   7.221  2.5425  1.2254 -3.3184
 1392WAT    EPW 6290   6.070   4.950   7.177  0.5943  0.1408 -0.4498
 1393WAT      O 6291   7.107   3.466   5.925 -0.5953  0.4770 -0.3867
 1393WAT     H1 6292   7.125   3.406   5.985 -0.8305  1.4138  0.6537
 1393WAT     H2 6293   7.021   3.455   5.910 -0.5615  0.3234 -0.4765
 1393WAT    EPW 6294   7.097   3.455   5.932 -0.6250  0.5927 -0.2463
 1394WAT      O 6295   5.763   4.675   6.563  0.4606  0.2877  1.0639
 1394WAT     H1 6296   5.776   4.683   6.477 -1.0148  0.9593  0.8646
 1394WAT     H2 6297   5.776   4.756   6.594 -0.0525  0.2849  1.3006
 1394WAT    EPW 6298   5.767   4.688   6.555  0.1669  0.3865  1.0694
 1395WAT      O 6299   6.427   3.250   5.968  0.2801  0.0489  0.2601
 1395WAT     H1 6300   6.353   3.252   5.922  0.1674  1.4517  0.4829
 1395WAT     H2 6301   6.482   3.299   5.922  0.6147  0.2585  0.8786
 1395WAT    EPW 6302   6.424   3.257   5.954  0.3129  0.2871  0.3844
 1396WAT      O 6303   6.181   3.344   5.553 -0.2663  0.0846 -0.6761
 1396WAT     H1 6304   6.161   3.413   5.504  1.7819  1.6976  0.6203
 1396WAT     H2 6305   6.123   3.348   5.619 -0.7164  0.0145 -1.0621
 1396WAT    EPW 6306   6.169   3.355   5.556 -0.0303  0.3125 -0.5416
 1397WAT      O 6307   6.060   4.231   6.644  0.1658  0.1478 -0.0941
 1397WAT     H1 6308   5.983   4.200   6.617 -0.5143  0.2132  1.6267
 1397WAT     H2 6309   6.044   4.314   6.662  1.0762  0.5984 -1.2037
 1397WAT    EPW 6310   6.046   4.239   6.643  0.1998  0.2240 -0.0038
 1398WAT      O 6311   6.299   3.840   6.696  0.6180  0.3060  0.3049
 1398WAT     H1 6312   6.224   3.855   6.736  1.1498  2.5690  0.5565
 1398WAT     H2 6313   6.349   3.908   6.718  2.8971 -1.2963  0.4702
 1398WAT    EPW 6314   6.296   3.852   6.705  1.0332  0.4036  0.3665
 1399WAT      O 6315   6.522   3.688   6.788  0.5676 -0.8622 -0.3883
 1399WAT     H1 6316   6.511   3.602   6.793 -0.1484 -0.7318  0.4777
 1399WAT     H2 6317   6.446   3.717   6.756  0.4371 -0.4648  0.2631
 1399WAT    EPW 6318   6.509   3.680   6.784  0.4426 -0.7842 -0.1641
 1400WAT      O 6319   6.905   3.756   7.301 -0.5847  0.4754 -0.8658
 1400WAT     H1 6320   6.938   3.794   7.229  1.4587  2.8320  1.1297
 1400WAT     H2 6321   6.962   3.778   7.363 -2.1368 -1.6531  1.4797
 1400WAT    EPW 6322   6.918   3.765   7.299 -0.5121  0.5091 -0.2246
 1401WAT      O 6323   5.304   2.590   6.021 -0.2254  0.4554  0.4237
 1401WAT     H1 6324   5.308   2.614   5.937 -1.9726  0.4996  0.3119
 1401WAT     H2 6325   5.247   2.524   6.020 -0.3808  0.5621  1.5866
 1401WAT    EPW 6326   5.296   2.584   6.008 -0.5064  0.4777  0.5790
 1402WAT      O 6327   6.826   3.768   0.007 -0.4674  0.6811  0.7239
 1402WAT     H1 6328   6.790   3.741  -0.068  0.2425 -0.0330  0.6247
 1402WAT     H2 6329   6.869   3.841  -0.016  1.0349 -0.3754  0.0826
 1402WAT    EPW 6330   6.827   3.775  -0.008 -0.1406  0.4195  0.6145
 1403WAT      O 6331   5.301   5.102   4.462  0.7860  0.0872  0.1348
 1403WAT     H1 6332   5.284   5.166   4.519  0.5313  0.5872 -0.4910
 1403WAT     H2 6333   5.347   5.142   4.400 -0.1345 -0.1341 -0.7100
 1403WAT    EPW 6334   5.305   5.117   4.461  0.6124  0.1283 -0.0824
 1404WAT      O 6335   6.357   2.770   6.773  0.4504 -0.0982 -0.5095
 1404WAT     H1 6336   6.383   2.776   6.689  1.4896  0.3061 -0.1762
 1404WAT     H2 6337   6.422   2.727   6.811  1.4588  2.2602  0.6578
 1404WAT    EPW 6338   6.371   2.765   6.766  0.7529  0.3099 -0.2878
 1405WAT      O 6339   6.411   4.425   7.084 -0.4930  0.2018 -0.2054
 1405WAT     H1 6340   6.481   4.471   7.109  0.3498 -1.0625 -0.1445
 1405WAT     H2 6341   6.344   4.473   7.112  0.2265  2.6407 -2.3111
 1405WAT    EPW 6342   6.411   4.439   7.092 -0.2622  0.3753 -0.5075
 1406WAT      O 6343   5.306   4.685   6.749 -0.1945 -0.2326 -0.1906
 1406WAT     H1 6344   5.245   4.736   6.713 -0.5619 -0.2326  0.4183
 1406WAT     H2 6345   5.345   4.738   6.807  1.7431  0.3840 -1.9229
 1406WAT    EPW 6346   5.302   4.700   6.753  0.0374 -0.1415 -0.3565
 1407WAT      O 6347   4.934   3.295   0.703  0.3217 -0.2793 -0.0997
 1407WAT     H1 6348   5.016   3.323   0.690  1.1478 -0.5711  3.3698
 1407WAT     H2 6349   4.927   3.226   0.649  2.4779 -0.4058 -0.3070
 1407WAT    EPW 6350   4.945   3.289   0.693  0.7623 -0.3411  0.3822
 1408WAT      O 6351   4.945   4.082   6.580 -0.3751  0.2445  0.4029
 1408WAT     H1 6352   4.918   4.000   6.590  1.5165 -0.7609 -1.7189
 1408WAT     H2 6353   5.001   4.094   6.645 -0.8543 -0.0333  0.8697
 1408WAT    EPW 6354   4.949   4.072   6.591 -0.1664  0.0550  0.1585
 1409WAT      O 6355   5.797   3.997   6.110  0.4350  0.4118 -1.0055
 1409WAT     H1 6356   5.743   4.060   6.138  1.0330  0.7187 -0.4966
 1409WAT     H2 6357   5.798   4.007   6.024  0.4717  1.0676 -0.9353
 1409WAT    EPW 6358   5.789   4.008   6.102  0.5287  0.5540 -0.9200
 1410WAT      O 6359   6.684   3.894   7.454  0.7382 -0.3165  0.4420
 1410WAT     H1 6360   6.742   3.957   7.475  1.6057 -0.1476 -2.1225
 1410WAT     H2 6361   6.728   3.844   7.398 -1.1395 -1.0743 -0.4226
 1410WAT    EPW 6362   6.699   3.896   7.449  0.5890 -0.4035 -0.0646
 1411WAT      O 6363   6.301   2.678   5.551 -0.1554 -0.9049 -0.3094
 1411WAT     H1 6364   6.253   2.619   5.594 -0.5055 -0.1533  0.3480
 1411WAT     H2 6365   6.366   2.695   5.607  0.4897 -1.3855 -0.9011
 1411WAT    EPW 6366   6.303   2.672   5.566 -0.1118 -0.8649 -0.2997
 1412WAT      O 6367   6.977   3.955   7.092  0.0181  0.3064 -0.1763
 1412WAT     H1 6368   7.032   3.911   7.040  0.2912  0.4541 -0.0163
 1412WAT     H2 6369   6.901   3.954   7.048  0.3332  0.7424 -0.7450
 1412WAT    EPW 6370   6.974   3.948   7.078  0.1050  0.3926 -0.2367
 1413WAT      O 6371   7.119   3.361   5.647  0.2583  0.0619 -0.4509
 1413WAT     H1 6372   7.154   3.388   5.722 -0.2432 -0.7717  0.1034
 1413WAT     H2 6373   7.081   3.285   5.668  1.2371 -0.8683 -1.8183
 1413WAT    EPW 6374   7.119   3.354   5.661  0.3288 -0.1987 -0.5710
 1414WAT      O 6375   4.717   3.799   1.308  0.1855 -0.4641 -0.1957
 1414WAT     H1 6376   4.775   3.863   1.314 -0.8555  0.6927 -1.7619
 1414WAT     H2 6377   4.723   3.758   1.385  1.5843  0.8841  0.4500
 1414WAT    EPW 6378   4.726   3.802   1.320  0.2384 -0.0940 -0.3317
 1415WAT      O 6379   6.438   1.391   5.114 -0.4992  0.3715 -0.1619
 1415WAT     H1 6380   6.353   1.376   5.126 -0.0638 -0.9719  1.8802
 1415WAT     H2 6381   6.447   1.400   5.028 -2.6506  0.2782 -0.4301
 1415WAT    EPW 6382   6.427   1.390   5.103 -0.7527  0.1593  0.1002
 1416WAT      O 6383   6.385   3.275   0.520 -0.2728  0.1519 -0.2073
 1416WAT     H1 6384   6.417   3.211   0.570  1.7794  0.4472 -1.0508
 1416WAT     H2 6385   6.455   3.304   0.476 -1.5105  1.6682 -1.2932
 1416WAT    EPW 6386   6.400   3.270   0.521 -0.1525  0.4195 -0.4923
 1417WAT      O 6387   5.633   5.331   7.010 -0.4191 -0.3919  0.1292
 1417WAT     H1 6388   5.674   5.377   6.949  1.7863 -0.0569  1.7290
 1417WAT     H2 6389   5.628   5.386   7.077 -1.7573 -1.1041  0.6638
 1417WAT    EPW 6390   5.638   5.346   7.011 -0.2910 -0.4476  0.4445
 1418WAT      O 6391   6.788   3.945   5.839  0.5792 -0.2317  0.7635
 1418WAT     H1 6392   6.753   3.935   5.918  0.5415 -0.1542  0.7557
 1418WAT     H2 6393   6.767   3.871   5.798 -0.2606  0.1470  0.4890
 1418WAT    EPW 6394   6.780   3.932   5.845  0.4496 -0.1643  0.7218
 1419WAT      O 6395   6.628   4.155   5.313 -0.4850  0.5516  0.3007
 1419WAT     H1 6396   6.713   4.171   5.329 -0.3478  0.7718 -0.6072
 1419WAT     H2 6397   6.612   4.085   5.362  0.7561 -0.6937 -0.9565
 1419WAT    EPW 6398   6.638   4.147   5.323 -0.2814  0.4002 -0.0191
 1420WAT      O 6399   6.758   5.252   7.276  0.5430  0.0158  0.6491
 1420WAT     H1 6400   6.805   5.179   7.289 -1.3413 -1.1654  1.2472
 1420WAT     H2 6401   6.781   5.304   7.342  0.7614 -0.6623  1.1156
 1420WAT    EPW 6402   6.768   5.249   7.287  0.2969 -0.2589  0.8064
 1421WAT      O 6403   5.574   5.125   0.942  0.8076 -0.4740  0.1361
 1421WAT     H1 6404   5.512   5.064   0.947  0.7840 -0.5809 -1.2233
 1421WAT     H2 6405   5.620   5.103   0.872  2.1041 -0.1195  0.8378
 1421WAT    EPW 6406   5.572   5.113   0.933  0.9956 -0.4374  0.0389
 1422WAT      O 6407   6.457   3.396   6.802 -0.0755  0.3925 -0.4967
 1422WAT     H1 6408   6.376   3.388   6.772 -0.3866  0.5819  0.2733
 1422WAT     H2 6409   6.447   3.402   6.888  0.6637  1.6768 -0.4741
 1422WAT    EPW 6410   6.444   3.396   6.810 -0.0123  0.6102 -0.3796
 1423WAT      O 6411   6.786   2.533   6.428  0.2356  0.6452  0.5657
 1423WAT     H1 6412   6.816   2.464   6.473  2.3960  1.0394 -0.1258
 1423WAT     H2 6413   6.712   2.554   6.469 -1.5050 -3.1045 -0.2164
 1423WAT    EPW 6414   6.780   2.526   6.441  0.2976  0.1495  0.3480
 1424WAT      O 6415   7.142   4.071   5.756 -0.3330 -0.0655 -0.2193
 1424WAT     H1 6416   7.215   4.024   5.744 -0.8971 -0.7325 -1.2067
 1424WAT     H2 6417   7.100   4.027   5.819 -2.1431 -2.6282 -2.9527
 1424WAT    EPW 6418   7.147   4.057   5.764 -0.6837 -0.5426 -0.7689
 1425WAT      O 6419   6.983   3.579   6.814  0.5052  0.3229  0.3105
 1425WAT     H1 6420   6.981   3.549   6.896  2.5695 -0.1062  0.2512
 1425WAT     H2 6421   6.970   3.507   6.766 -0.2306  0.4960  0.2416
 1425WAT    EPW 6422   6.981   3.564   6.819  0.7014  0.2851  0.2916
 1426WAT      O 6423   5.292   4.403   6.787 -0.7689  0.4715 -0.0545
 1426WAT     H1 6424   5.374   4.383   6.766 -0.7159 -0.1133  0.6461
 1426WAT     H2 6425   5.292   4.490   6.791  0.3192  0.4435  1.7910
 1426WAT    EPW 6426   5.304   4.413   6.785 -0.6003  0.3810  0.3216
 1427WAT      O 6427   6.758   3.501   7.291 -0.8031  0.0907  0.2528
 1427WAT     H1 6428   6.791   3.581   7.292  2.5000 -1.0217 -2.1916
 1427WAT     H2 6429   6.770   3.472   7.372  2.9825  0.4305 -0.0068
 1427WAT    EPW 6430   6.764   3.508   7.303  0.2440 -0.0234 -0.1467
 1428WAT      O 6431   6.175   2.972   7.511 -0.6006  0.0351 -0.1388
 1428WAT     H1 6432   6.130   2.905   7.547  1.7931 -1.0343  1.0962
 1428WAT     H2 6433   6.171   2.956   7.426 -1.7929 -0.5208  0.0001
 1428WAT    EPW 6434   6.168   2.960   7.504 -0.4232 -0.2049  0.0642
 1429WAT      O 6435   6.059   3.334   7.236  0.2895 -0.5693  0.5087
 1429WAT     H1 6436   6.126   3.283   7.215  1.5807  1.1424  0.2550
 1429WAT     H2 6437   6.030   3.300   7.311  2.0878 -0.7662  1.1631
 1429WAT    EPW 6438   6.064   3.321   7.244  0.7459 -0.3455  0.5679
 1430WAT      O 6439   6.511   3.282   0.032 -0.0046 -0.4165 -0.5169
 1430WAT     H1 6440   6.450   3.247  -0.020 -0.9272 -0.7926  0.7756
 1430WAT     H2 6441   6.509   3.367   0.012 -0.7977 -0.4643 -0.6480
 1430WAT    EPW 6442   6.502   3.289   0.021 -0.2580 -0.4791 -0.3453
 1431WAT      O 6443   6.250   4.008   1.027 -0.1842 -0.0356  0.1750
 1431WAT     H1 6444   6.327   3.987   0.992  0.0886 -1.1744  1.3816
 1431WAT     H2 6445   6.214   4.060   0.967  2.1933  1.9181  0.2645
 1431WAT    EPW 6446   6.256   4.013   1.013  0.2073  0.0848  0.3665
 1432WAT      O 6447   6.751   3.852   5.357 -0.4594 -0.6700  0.1202
 1432WAT     H1 6448   6.782   3.918   5.406  0.4579  1.3393 -2.8705
 1432WAT     H2 6449   6.665   3.866   5.357 -0.2714  0.6534 -0.5411
 1432WAT    EPW 6450   6.743   3.864   5.364 -0.2961 -0.1777 -0.4193
 1433WAT      O 6451   5.298   5.257   5.824 -0.6482 -0.0170 -0.7822
 1433WAT     H1 6452   5.311   5.238   5.740  0.9711  0.0294 -0.5720
 1433WAT     H2 6453   5.217   5.228   5.839  0.0957 -2.8848 -1.6065
 1433WAT    EPW 6454   5.288   5.250   5.814 -0.2991 -0.4338 -0.8729
 1434WAT      O 6455   6.966   2.918   0.112 -0.2465 -0.2082 -0.0044
 1434WAT     H1 6456   7.046   2.951   0.107  0.5124 -1.9323 -0.0246
 1434WAT     H2 6457   6.965   2.878   0.190 -0.7818 -0.9068 -0.3548
 1434WAT    EPW 6458   6.977   2.917   0.123 -0.2135 -0.5661 -0.0591
 1435WAT      O 6459   6.021   3.220   7.486  0.1822  0.1532  0.4661
 1435WAT     H1 6460   5.956   3.162   7.492  0.7065 -0.5776 -0.6617
 1435WAT     H2 6461   6.090   3.178   7.517  0.7618 -0.1880 -1.1969
 1435WAT    EPW 6462   6.021   3.205   7.491  0.3453 -0.0052  0.0538
 1436WAT      O 6463   7.118   4.089   7.415 -0.2147 -0.1431 -0.0946
 1436WAT     H1 6464   7.111   4.092   7.502 -1.9858  0.8057 -0.2135
 1436WAT     H2 6465   7.035   4.082   7.388  0.2859 -0.2351 -1.7144
 1436WAT    EPW 6466   7.105   4.088   7.424 -0.4024 -0.0166 -0.3514
 1437WAT      O 6467   5.309   3.783   0.436 -0.3110 -0.0141 -0.1703
 1437WAT     H1 6468   5.330   3.714   0.387  0.6776 -0.6806  1.1200
 1437WAT     H2 6469   5.270   3.748   0.505  4.4929 -0.0460  3.0249
 1437WAT    EPW 6470   5.306   3.768   0.439  0.5446 -0.1172  0.4923
 1438WAT      O 6471   7.103   2.789   6.635  0.5617 -0.3135  0.0063
 1438WAT     H1 6472   7.156   2.843   6.678 -0.4420 -0.1674  1.1127
 1438WAT     H2 6473   7.050   2.758   6.697 -3.2461  2.5029 -1.3807
 1438WAT    EPW 6474   7.103   2.792   6.651 -0.1491  0.1241 -0.0351
 1439WAT      O 6475   5.176   2.615   6.776 -0.9472  0.0144 -0.6290
 1439WAT     H1 6476   5.262   2.622   6.783 -1.0430  0.0011  0.7727
 1439WAT     H2 6477   5.163   2.529   6.770 -0.8720  0.0245 -1.0161
 1439WAT    EPW 6478   5.187   2.603   6.776 -0.9502  0.0139 -0.4791
 1440WAT      O 6479   6.893   2.325   6.613  0.4171  0.2794  0.0777
 1440WAT     H1 6480   6.942   2.271   6.565 -0.0886  0.0918 -0.2347
 1440WAT     H2 6481   6.813   2.291   6.607  0.3929  0.0861  1.3009
 1440WAT    EPW 6482   6.888   2.312   6.605  0.3389  0.2231  0.2123
 1441WAT      O 6483   6.508   4.275   7.375  0.1087  0.9941 -0.2501
 1441WAT     H1 6484   6.559   4.237   7.316  0.2285 -0.0923  0.5145
 1441WAT     H2 6485   6.430   4.279   7.335  0.1234  0.0222 -0.4144
 1441WAT    EPW 6486   6.504   4.270   7.360  0.1285  0.6900 -0.1614
 1442WAT      O 6487   6.335   4.002   7.206  0.3459 -0.2458  0.1618
 1442WAT     H1 6488   6.358   3.935   7.157 -2.0162 -0.9797 -0.0815
 1442WAT     H2 6489   6.361   3.980   7.286  0.6459 -0.9123 -0.1185
 1442WAT    EPW 6490   6.342   3.989   7.211  0.0412 -0.4527  0.0844
 1443WAT      O 6491   5.494   0.509   7.189  0.0198 -0.6230  0.1715
 1443WAT     H1 6492   5.409   0.494   7.177 -0.1017  0.5781 -0.6655
 1443WAT     H2 6493   5.528   0.493   7.110  0.2061  1.1125 -0.1324
 1443WAT    EPW 6494   5.486   0.504   7.176  0.0294 -0.1892  0.0030
 1444WAT      O 6495   6.321   4.907   5.859 -0.2305  0.3105  0.6384
 1444WAT     H1 6496   6.407   4.894   5.864  0.4379  3.9885  2.0399
 1444WAT     H2 6497   6.306   4.914   5.773  1.4162  2.1541  0.4522
 1444WAT    EPW 6498   6.331   4.906   5.847  0.1115  1.1261  0.8179
 1445WAT      O 6499   7.190   2.295   7.278  0.1878  0.2934  0.4711
 1445WAT     H1 6500   7.270   2.330   7.280 -0.1693  1.1844 -0.1011
 1445WAT     H2 6501   7.194   2.240   7.211  0.7944 -0.9006  1.4585
 1445WAT    EPW 6502   7.203   2.292   7.268  0.2246  0.2486  0.5324
 1446WAT      O 6503   6.211   5.174   7.310 -0.0614 -0.3084 -0.6886
 1446WAT     H1 6504   6.219   5.184   7.396 -1.5375  0.1622 -0.5777
 1446WAT     H2 6505   6.293   5.165   7.282  0.4645  0.0067  0.7051
 1446WAT    EPW 6506   6.224   5.174   7.319 -0.2018 -0.1923 -0.4664
 1447WAT      O 6507   7.124   3.580   5.231 -0.1596 -0.2175 -0.3531
 1447WAT     H1 6508   7.152   3.651   5.274 -1.8034  0.4666 -0.3314
 1447WAT     H2 6509   7.090   3.530   5.293 -1.0531  0.0273 -0.6283
 1447WAT    EPW 6510   7.123   3.583   5.246 -0.5344 -0.0803 -0.3905
 1448WAT      O 6511   5.958   3.848   7.448 -0.4207  0.4080  0.0262
 1448WAT     H1 6512   5.960   3.769   7.485 -0.1767  0.1848 -0.4537
 1448WAT     H2 6513   5.984   3.833   7.366 -1.4473  0.8078 -0.3993
 1448WAT    EPW 6514   5.962   3.834   7.441 -0.5363  0.4341 -0.1075
 1449WAT      O 6515   6.702   3.695   7.640 -0.1016 -0.6561  0.4276
 1449WAT     H1 6516   6.726   3.624   7.597  0.2217  0.4321 -1.2889
 1449WAT     H2 6517   6.716   3.760   7.583 -1.2586  0.6932  1.5819
 1449WAT    EPW 6518   6.708   3.694   7.625 -0.2247 -0.2960  0.3446
 1450WAT      O 6519   5.214   5.240   6.134 -0.1029 -0.3291 -0.3050
 1450WAT     H1 6520   5.261   5.167   6.138 -2.2284 -1.7660 -0.3041
 1450WAT     H2 6521   5.274   5.303   6.147  1.9884 -1.9425 -1.3979
 1450WAT    EPW 6522   5.230   5.239   6.137 -0.1079 -0.7797 -0.4663
 1451WAT      O 6523   6.475   2.306   7.687 -0.0452 -0.0608  0.0017
 1451WAT     H1 6524   6.405   2.322   7.637 -0.9889 -0.0958  1.2494
 1451WAT     H2 6525   6.476   2.373   7.744  0.4347 -0.4962  0.5241
 1451WAT    EPW 6526   6.465   2.318   7.688 -0.1137 -0.1303  0.2632
 1452WAT      O 6527   6.565   4.884   7.124 -0.0813 -0.7990 -0.6043
 1452WAT     H1 6528   6.552   4.850   7.203  1.4032  1.1405  0.5646
 1452WAT     H2 6529   6.634   4.841   7.094  1.6720  0.8266  0.7893
 1452WAT    EPW 6530   6.573   4.873   7.131  0.3970 -0.2724 -0.2257
 1453WAT      O 6531   7.160   3.754   7.411  1.0793  0.0437  0.2583
 1453WAT     H1 6532   7.182   3.834   7.385 -0.3096  0.5249  0.4537
 1453WAT     H2 6533   7.175   3.704   7.341 -1.1074  1.0454 -1.0253
 1453WAT    EPW 6534   7.165   3.758   7.397  0.5511  0.2628  0.0975
 1454WAT      O 6535   6.960   3.976   1.321 -0.2996  0.7472  0.1220
 1454WAT     H1 6536   6.903   4.040   1.306 -0.9910  0.0858 -0.1282
 1454WAT     H2 6537   6.914   3.903   1.305  1.1612  0.2125 -2.1082
 1454WAT    EPW 6538   6.945   3.975   1.317 -0.1859  0.5705 -0.2444
 1455WAT      O 6539   7.175   4.898   0.539 -0.1524  0.5339 -0.2509
 1455WAT     H1 6540   7.229   4.933   0.598 -1.9942  1.4479  0.9988
 1455WAT     H2 6541   7.117   4.855   0.588 -0.2719 -0.8818 -1.5722
 1455WAT    EPW 6542   7.174   4.897   0.555 -0.4422  0.4598 -0.2615
 1456WAT      O 6543   7.378   2.070   6.238 -0.2731  0.1587  0.1676
 1456WAT     H1 6544   7.430   2.133   6.269  0.0371  0.5406 -1.0750
 1456WAT     H2 6545   7.298   2.104   6.245 -0.2164  0.2219  0.5636
 1456WAT    EPW 6546   7.374   2.084   6.244 -0.2189  0.2245  0.0425
 1457WAT      O 6547   5.916   4.163   0.368  0.5277 -0.0286  0.2665
 1457WAT     H1 6548   5.848   4.114   0.345  0.3412 -0.0968  0.9369
 1457WAT     H2 6549   5.891   4.244   0.344 -0.6961  0.2783  2.3189
 1457WAT    EPW 6550   5.902   4.168   0.361  0.3193  0.0067  0.6687
 1458WAT      O 6551   5.811   4.283   6.863  0.1824 -0.3079  0.6944
 1458WAT     H1 6552   5.850   4.280   6.941  1.0155 -1.3395  0.2718
 1458WAT     H2 6553   5.863   4.336   6.817 -0.7849  0.9900  1.0745
 1458WAT    EPW 6554   5.825   4.290   6.867  0.1626 -0.2686  0.6881
 1459WAT      O 6555   7.055   5.259   0.019 -0.5080  0.1407 -0.3594
 1459WAT     H1 6556   7.084   5.334  -0.015 -0.7432 -0.1678 -1.2615
 1459WAT     H2 6557   7.018   5.284   0.094  0.0709  0.8259 -0.2905
 1459WAT    EPW 6558   7.054   5.274   0.025 -0.4572  0.1964 -0.4825
 1460WAT      O 6559   5.153   3.669   0.688 -0.4128  0.5611 -0.0465
 1460WAT     H1 6560   5.219   3.636   0.736  0.3310  1.6419 -0.2801
 1460WAT     H2 6561   5.096   3.603   0.684  1.2588 -0.9337 -1.0045
 1460WAT    EPW 6562   5.155   3.654   0.695 -0.0560  0.4999 -0.2225
 1461WAT      O 6563   4.157   3.704   5.918 -0.2795  0.0326  0.1871
 1461WAT     H1 6564   4.167   3.635   5.865 -1.5557  0.6163 -0.8480
 1461WAT     H2 6565   4.107   3.673   5.983  1.3209 -0.6957  1.1466
 1461WAT    EPW 6566   4.151   3.689   5.920 -0.2316  0.0113  0.1759
 1462WAT      O 6567   5.701   3.322   0.095 -0.5551 -0.1534  0.1129
 1462WAT     H1 6568   5.676   3.238   0.102 -0.4999 -0.3398 -1.4622
 1462WAT     H2 6569   5.787   3.317   0.083 -0.5197  0.1364  0.2402
 1462WAT    EPW 6570   5.710   3.309   0.094 -0.5417 -0.1381 -0.1010
 1463WAT      O 6571   5.754   2.732   5.933  0.1735 -0.3477 -0.2277
 1463WAT     H1 6572   5.790   2.808   5.910  0.2407 -0.6536 -1.1876
 1463WAT     H2 6573   5.687   2.723   5.877 -1.2661  0.0681  1.3113
 1463WAT    EPW 6574   5.749   2.742   5.921 -0.0292 -0.3315 -0.1422
 1464WAT      O 6575   6.364   4.096   6.081  0.6707 -0.0405  0.0769
 1464WAT     H1 6576   6.306   4.032   6.076  0.1944  0.3181  0.9183
 1464WAT     H2 6577   6.438   4.055   6.104  0.8283 -0.5285 -1.2260
 1464WAT    EPW 6578   6.366   4.081   6.084  0.6236 -0.0596  0.0088
 1465WAT      O 6579   6.760   2.949   5.992 -0.1696  0.2460 -0.2035
 1465WAT     H1 6580   6.688   2.964   5.945 -1.4656 -0.3463  1.4925
 1465WAT     H2 6581   6.775   3.025   6.032 -0.1497  0.2141 -0.1502
 1465WAT    EPW 6582   6.752   2.963   5.991 -0.3581  0.1538  0.0549
 1466WAT      O 6583   6.870   4.350   7.583 -0.1127  0.0038  0.3341
 1466WAT     H1 6584   6.946   4.321   7.615  0.2642  2.4435  1.8741
 1466WAT     H2 6585   6.833   4.390   7.650 -0.8942  2.3849 -1.3759
 1466WAT    EPW 6586   6.876   4.352   7.597 -0.1725  0.7160  0.3090
 1467WAT      O 6587   6.877   2.739   6.272 -0.6248  0.1760  0.4314
 1467WAT     H1 6588   6.800   2.779   6.260 -1.4463 -1.7754 -1.3465
 1467WAT     H2 6589   6.855   2.664   6.312  0.1922 -0.8415 -0.9623
 1467WAT    EPW 6590   6.862   2.734   6.276 -0.6255 -0.2625 -0.0371
 1468WAT      O 6591   5.758   2.798   7.255  0.1940 -0.2097  0.0887
 1468WAT     H1 6592   5.680   2.838   7.262 -0.1350 -1.1095  2.5329
 1468WAT     H2 6593   5.754   2.736   7.316  2.5220 -0.8711 -0.3526
 1468WAT    EPW 6594   5.746   2.794   7.265  0.4893 -0.4403  0.3846
 1469WAT      O 6595   6.674   4.384   6.112  0.4012 -0.2199  0.1001
 1469WAT     H1 6596   6.709   4.431   6.177 -0.9248  1.2401 -0.1776
 1469WAT     H2 6597   6.720   4.310   6.113  1.0117  0.1265  2.1136
 1469WAT    EPW 6598   6.686   4.380   6.122  0.2955  0.0469  0.3565
 1470WAT      O 6599   5.923   4.520   4.763 -0.0870  0.2109 -0.1072
 1470WAT     H1 6600   5.962   4.534   4.686 -0.7527 -0.2500 -0.5403
 1470WAT     H2 6601   5.924   4.433   4.771  0.1718  0.2676  0.5111
 1470WAT    EPW 6602   5.929   4.509   4.753 -0.1471  0.1512 -0.0798
 1471WAT      O 6603   6.018   3.805   6.905 -0.0219  0.2021 -0.0570
 1471WAT     H1 6604   6.007   3.775   6.986 -0.6936 -0.9019 -0.5389
 1471WAT     H2 6605   6.029   3.891   6.916 -1.1740  0.2229  1.1314
 1471WAT    EPW 6606   6.018   3.813   6.919 -0.2913  0.0421  0.0473
 1472WAT      O 6607   6.876   1.875   6.462  0.2629  0.1791  0.0379
 1472WAT     H1 6608   6.870   1.830   6.387 -0.2299  1.5852 -0.8026
 1472WAT     H2 6609   6.812   1.841   6.511 -1.5074  1.3483 -1.3730
 1472WAT    EPW 6610   6.866   1.863   6.458 -0.0714  0.5596 -0.2947
 1473WAT      O 6611   6.873   4.044   0.415  0.3397  0.0949 -0.5039
 1473WAT     H1 6612   6.952   4.008   0.428 -0.1867 -0.5376  1.2083
 1473WAT     H2 6613   6.833   3.986   0.364  0.7507  0.0674 -0.7965
 1473WAT    EPW 6614   6.879   4.030   0.410  0.3227 -0.0026 -0.2942
 1474WAT      O 6615   6.646   4.552   7.150  0.1480  0.2253  0.5437
 1474WAT     H1 6616   6.708   4.501   7.115 -0.5458 -0.7953  0.7817
 1474WAT     H2 6617   6.679   4.572   7.229  0.0707 -0.5276  0.7742
 1474WAT    EPW 6618   6.660   4.548   7.156  0.0341 -0.0367  0.6129
 1475WAT      O 6619   6.804   2.895   7.256 -0.3643  0.0273 -0.3922
 1475WAT     H1 6620   6.816   2.979   7.277  1.7484  0.2791 -2.2934
 1475WAT     H2 6621   6.885   2.866   7.239 -0.8878 -2.7344  1.2337
 1475WAT    EPW 6622   6.818   2.903   7.257 -0.1296 -0.3434 -0.4329
 1476WAT      O 6623   6.724   0.390   6.908  1.1068 -0.4641  0.2382
 1476WAT     H1 6624   6.748   0.352   6.833 -0.5546 -2.4089  0.6191
 1476WAT     H2 6625   6.792   0.376   6.961  1.2199 -1.4443 -0.1446
 1476WAT    EPW 6626   6.738   0.383   6.905  0.8781 -0.8962  0.2379
 1477WAT      O 6627   6.742   4.572   7.410  0.3973  0.0541  0.3915
 1477WAT     H1 6628   6.763   4.504   7.460 -0.6053 -0.8102 -0.3341
 1477WAT     H2 6629   6.811   4.624   7.416  1.7103 -1.5777  0.0037
 1477WAT    EPW 6630   6.755   4.570   7.418  0.4432 -0.3146  0.2270
 1478WAT      O 6631   6.668   4.592   0.195 -0.0159  0.3806 -0.0335
 1478WAT     H1 6632   6.710   4.520   0.221  0.7683  1.3222  1.3917
 1478WAT     H2 6633   6.731   4.644   0.166 -0.1755  1.6424  1.7250
 1478WAT    EPW 6634   6.683   4.589   0.195  0.0763  0.7061  0.4368
 1479WAT      O 6635   6.104   4.921   0.075  0.5276  0.6940 -0.2122
 1479WAT     H1 6636   6.035   4.923   0.127  0.4986 -0.3347 -0.1944
 1479WAT     H2 6637   6.080   4.969   0.006  0.5983  2.1473  0.7117
 1479WAT    EPW 6638   6.090   4.929   0.072  0.5337  0.7568 -0.0731
 1480WAT      O 6639   6.827   4.363   7.047 -0.7018  0.1449 -0.3647
 1480WAT     H1 6640   6.809   4.358   6.962 -2.3523 -0.3722 -0.0347
 1480WAT     H2 6641   6.887   4.301   7.060  0.1009  0.7117 -1.2507
 1480WAT    EPW 6642   6.833   4.353   7.036 -0.8270  0.1523 -0.4469
 1481WAT      O 6643   6.626   3.932   6.059  0.1258  0.0550  0.1204
 1481WAT     H1 6644   6.583   3.861   6.034  2.7236 -1.1221 -1.3665
 1481WAT     H2 6645   6.671   3.905   6.128  0.5216  0.4742  0.0288
 1481WAT    EPW 6646   6.626   3.918   6.065  0.5680 -0.0569 -0.1127
 1482WAT      O 6647   5.447   4.720   6.487  0.2714 -0.4727  0.0008
 1482WAT     H1 6648   5.533   4.723   6.500  0.4285 -0.3513 -0.9547
 1482WAT     H2 6649   5.414   4.714   6.567  1.0634  1.7250  0.5729
 1482WAT    EPW 6650   5.455   4.719   6.501  0.4116 -0.1301 -0.0559
 1483WAT      O 6651   6.746   3.598   5.465 -0.0822  0.3136  0.2978
 1483WAT     H1 6652   6.753   3.679   5.432  0.4415 -0.5364 -1.8244
 1483WAT     H2 6653   6.828   3.568   5.462 -0.3793 -0.5157  0.4802
 1483WAT    EPW 6654   6.759   3.606   5.460 -0.0487  0.0655  0.0112
 1484WAT      O 6655   5.696   4.613   7.168  0.2936 -0.6438  0.0462
 1484WAT     H1 6656   5.776   4.580   7.176  0.5408 -0.4440 -1.3281
 1484WAT     H2 6657   5.680   4.610   7.082  0.3670  2.7677 -0.2592
 1484WAT    EPW 6658   5.705   4.608   7.156  0.3410 -0.1103 -0.2019
 1485WAT      O 6659   5.432   4.072   0.415  0.7885 -0.1654  0.1908
 1485WAT     H1 6660   5.425   3.987   0.434 -0.5131 -0.1786 -0.2682
 1485WAT     H2 6661   5.483   4.104   0.478  0.8181 -1.1725  0.6844
 1485WAT    EPW 6662   5.439   4.064   0.427  0.6006 -0.3161  0.1959
 1486WAT      O 6663   6.839   4.124   7.421 -0.0335 -0.6358 -0.4068
 1486WAT     H1 6664   6.837   4.194   7.474 -0.4651 -0.3141 -0.8372
 1486WAT     H2 6665   6.783   4.145   7.358 -0.5236 -1.5614 -0.3012
 1486WAT    EPW 6666   6.830   4.137   7.420 -0.1697 -0.7250 -0.4548
 1487WAT      O 6667   4.709   3.756   5.944 -0.2829 -0.2956  0.0761
 1487WAT     H1 6668   4.635   3.800   5.952 -0.0901  0.3418 -1.2489
 1487WAT     H2 6669   4.751   3.799   5.881  0.4195 -1.6918 -0.4573
 1487WAT    EPW 6670   4.704   3.769   5.936 -0.1507 -0.4077 -0.1985
 1488WAT      O 6671   6.966   3.468   7.102 -0.1961  0.4410  0.1760
 1488WAT     H1 6672   7.005   3.390   7.099 -0.7515  0.1920 -1.5570
 1488WAT     H2 6673   6.900   3.456   7.158 -0.1457 -0.2727  0.0834
 1488WAT    EPW 6674   6.962   3.455   7.110 -0.2707  0.2988 -0.0936
 1489WAT      O 6675   6.783   3.576   4.559 -0.1551  0.0420 -0.3905
 1489WAT     H1 6676   6.830   3.549   4.490 -0.5029  0.1393 -0.6713
 1489WAT     H2 6677   6.833   3.556   4.627  0.1902 -0.0701 -0.6731
 1489WAT    EPW 6678   6.797   3.569   4.559 -0.1555  0.0398 -0.4737
 1490WAT      O 6679   5.779   4.980   7.521 -0.0679  0.0796  0.2920
 1490WAT     H1 6680   5.698   4.975   7.552 -0.0935  2.3645  0.7789
 1490WAT     H2 6681   5.829   4.959   7.589 -0.2101 -0.6398  0.1852
 1490WAT    EPW 6682   5.775   4.976   7.535 -0.0927  0.3109  0.3481
 1491WAT      O 6683   6.352   5.571   6.105 -0.2259  0.0025 -0.6473
 1491WAT     H1 6684   6.271   5.571   6.139  0.2865  0.4339  0.6156
 1491WAT     H2 6685   6.368   5.656   6.090 -0.6655 -0.2212 -2.5714
 1491WAT    EPW 6686   6.342   5.584   6.108 -0.2152  0.0332 -0.7450
 1492WAT      O 6687   6.801   2.422   0.774  0.1375 -0.1021 -0.2934
 1492WAT     H1 6688   6.751   2.490   0.797  0.3534  0.0117 -0.1551
 1492WAT     H2 6689   6.830   2.391   0.851  0.3962 -0.0768 -0.3809
 1492WAT    EPW 6690   6.797   2.428   0.789  0.2076 -0.0815 -0.2859
 1493WAT      O 6691   6.072   3.759   0.984  0.0776  0.5209  0.1225
 1493WAT     H1 6692   6.119   3.826   1.014 -1.1741  1.2858  0.4552
 1493WAT     H2 6693   6.003   3.798   0.948  0.3898 -0.5018 -1.6626
 1493WAT    EPW 6694   6.069   3.775   0.983 -0.0612  0.4828 -0.0921
 1494WAT      O 6695   5.790   2.215   7.581 -0.1208  0.1188 -0.1339
 1494WAT     H1 6696   5.714   2.231   7.621 -0.2370 -1.1130  0.1610
 1494WAT     H2 6697   5.840   2.182   7.644  0.8385  1.3346 -0.2089
 1494WAT    EPW 6698   5.786   2.212   7.596  0.0037  0.1164 -0.1014
 1495WAT      O 6699   6.177   3.248   1.993 -0.2539  0.1904 -0.0633
 1495WAT     H1 6700   6.242   3.287   2.038 -2.2431  1.8345  1.6555
 1495WAT     H2 6701   6.218   3.194   1.939  2.5133  0.8738  1.1810
 1495WAT    EPW 6702   6.193   3.246   1.992 -0.1390  0.5342  0.3744
 1496WAT      O 6703   5.671   4.256   7.288 -0.3357 -0.1045 -0.1642
 1496WAT     H1 6704   5.615   4.274   7.223  0.2754 -0.9330 -0.9389
 1496WAT     H2 6705   5.742   4.301   7.267 -0.5693  0.6787  0.6482
 1496WAT    EPW 6706   5.673   4.265   7.275 -0.2799 -0.1112 -0.1586
 1497WAT      O 6707   6.580   2.903   4.971  0.2099  0.1259 -0.5471
 1497WAT     H1 6708   6.584   2.820   4.944  2.5163  0.5910 -1.9627
 1497WAT     H2 6709   6.540   2.897   5.048 -1.2988 -2.0515 -1.3956
 1497WAT    EPW 6710   6.575   2.890   4.978  0.3277 -0.1271 -0.8816
 1498WAT      O 6711   4.642   5.483   0.884  0.0829  0.2540 -0.4855
 1498WAT     H1 6712   4.634   5.468   0.969 -0.9325  0.4760 -0.5303
 1498WAT     H2 6713   4.685   5.413   0.855  0.6976  0.3169  0.2485
 1498WAT    EPW 6714   4.647   5.470   0.892  0.0237  0.2961 -0.3837
 1499WAT      O 6715   6.391   2.833   4.091  0.0610 -0.2981  0.0595
 1499WAT     H1 6716   6.446   2.886   4.049 -1.1228  1.0137  0.0914
 1499WAT     H2 6717   6.319   2.881   4.101 -0.7570 -1.6146  0.9065
 1499WAT    EPW 6718   6.388   2.848   4.086 -0.2347 -0.2988  0.1893
 1500WAT      O 6719   5.914   3.843   4.772  0.0411  0.9174 -0.2840
 1500WAT     H1 6720   5.987   3.875   4.736 -0.2575  1.1881 -0.6593
 1500WAT     H2 6721   5.892   3.904   4.830  1.3354 -0.1958  1.4701
 1500WAT    EPW 6722   5.922   3.857   4.775  0.1882  0.7930 -0.0803
 1501WAT      O 6723   4.911   3.920   4.382  0.1530 -0.2101 -0.0656
 1501WAT     H1 6724   4.829   3.901   4.361 -0.3534  1.6622  0.0329
 1501WAT     H2 6725   4.952   3.927   4.305  0.0171 -0.3624 -0.1502
 1501WAT    EPW 6726   4.905   3.918   4.367  0.0581  0.0440 -0.0635
 1502WAT      O 6727   6.647   5.413   4.677  0.3253 -0.6285 -0.4901
 1502WAT     H1 6728   6.610   5.483   4.714 -1.7149 -0.9889 -1.6646
 1502WAT     H2 6729   6.696   5.380   4.741  1.6511  2.0248 -0.0121
 1502WAT    EPW 6730   6.649   5.419   4.692  0.2197 -0.2898 -0.5930
 1503WAT      O 6731   4.690   4.312   4.610  0.1194  0.4043 -0.4972
 1503WAT     H1 6732   4.712   4.330   4.528 -0.8550  0.4884 -0.7502
 1503WAT     H2 6733   4.714   4.228   4.619  0.3406  0.4290 -0.8311
 1503WAT    EPW 6734   4.696   4.302   4.599  0.0081  0.4204 -0.5839
 1504WAT      O 6735   5.283   4.085   3.755 -0.4370  0.2858  0.2069
 1504WAT     H1 6736   5.367   4.111   3.749 -0.3515 -0.1340 -0.5177
 1504WAT     H2 6737   5.287   3.999   3.739 -0.7199 -0.2480  2.5885
 1504WAT    EPW 6738   5.296   4.076   3.752 -0.4662  0.1449  0.4517
 1505WAT      O 6739   5.616   2.013   4.709  0.1405 -0.3576  0.6999
 1505WAT     H1 6740   5.619   1.926   4.703  1.7492 -0.2688 -0.6420
 1505WAT     H2 6741   5.640   2.029   4.792  1.0153 -1.1850  0.6274
 1505WAT    EPW 6742   5.620   2.003   4.720  0.5074 -0.4667  0.4909
 1506WAT      O 6743   4.338   5.062   4.690 -0.3535  0.3238  0.2413
 1506WAT     H1 6744   4.404   5.019   4.653 -0.7052  0.8561 -1.0856
 1506WAT     H2 6745   4.303   5.004   4.745  1.3337  0.1138  1.1452
 1506WAT    EPW 6746   4.342   5.047   4.693 -0.1562  0.3714  0.1788
 1507WAT      O 6747   6.925   1.678   6.249 -0.3593 -0.1439 -0.0005
 1507WAT     H1 6748   6.995   1.645   6.288 -0.1403  1.0507  0.6866
 1507WAT     H2 6749   6.933   1.652   6.166  1.3840  0.6734 -0.1458
 1507WAT    EPW 6750   6.936   1.670   6.242 -0.0694  0.1533  0.0796
 1508WAT      O 6751   6.122   3.802   2.028 -0.0244  0.3344  0.6745
 1508WAT     H1 6752   6.100   3.882   2.054 -0.3460  0.9875 -1.4042
 1508WAT     H2 6753   6.208   3.799   2.039 -0.0463  0.8764  1.0032
 1508WAT    EPW 6754   6.131   3.813   2.033 -0.0751  0.5110  0.4160
 1509WAT      O 6755   6.314   4.171   6.523  0.0895 -0.4219 -0.2359
 1509WAT     H1 6756   6.317   4.223   6.453  0.6716  0.2839  0.2941
 1509WAT     H2 6757   6.249   4.206   6.571  0.8486  0.1841  0.3815
 1509WAT    EPW 6758   6.305   4.184   6.520  0.2876 -0.2281 -0.0664
 1510WAT      O 6759   4.772   2.962   5.908 -0.7154  0.0405 -0.0158
 1510WAT     H1 6760   4.750   2.948   5.824  0.6276 -0.8672 -0.2561
 1510WAT     H2 6761   4.807   3.042   5.906  0.5320 -0.4789 -0.6340
 1510WAT    EPW 6762   4.774   2.972   5.895 -0.3328 -0.1703 -0.1426
 1511WAT      O 6763   6.491   4.364   5.179  0.2748 -0.2575  0.2420
 1511WAT     H1 6764   6.407   4.342   5.191 -0.1812  1.3674  0.2455
 1511WAT     H2 6765   6.535   4.297   5.215 -1.0105 -0.8958  0.6867
 1511WAT    EPW 6766   6.485   4.351   5.186  0.0176 -0.1117  0.3082
 1512WAT      O 6767   6.173   2.863   3.858  0.2896 -0.0013  0.4616
 1512WAT     H1 6768   6.179   2.902   3.935 -1.9919 -1.8343  1.6705
 1512WAT     H2 6769   6.101   2.896   3.823 -0.1837 -1.1109  0.3358
 1512WAT    EPW 6770   6.163   2.873   3.864 -0.1173 -0.4360  0.6216
 1513WAT      O 6771   6.978   5.582   7.134 -0.1112  0.2158 -0.0630
 1513WAT     H1 6772   6.991   5.504   7.098  1.3018  0.0250  0.7833
 1513WAT     H2 6773   7.046   5.592   7.188 -0.0791  2.1582 -0.3760
 1513WAT    EPW 6774   6.990   5.572   7.137  0.1023  0.4745  0.0158
 1514WAT      O 6775   5.779   2.822   3.549  0.4837 -0.5415 -0.7629
 1514WAT     H1 6776   5.722   2.857   3.605  0.5302  0.2371 -1.1883
 1514WAT     H2 6777   5.835   2.888   3.533  2.0419 -1.5230  0.3165
 1514WAT    EPW 6778   5.779   2.837   3.555  0.7208 -0.5715 -0.6663
 1515WAT      O 6779   5.994   4.306   5.978  0.3902  0.5238 -0.1073
 1515WAT     H1 6780   5.926   4.332   5.930 -0.8277 -1.0753  0.6590
 1515WAT     H2 6781   6.053   4.282   5.918 -0.5108  0.0241 -0.8303
 1515WAT    EPW 6782   5.992   4.306   5.962  0.0772  0.2137 -0.1009
 1516WAT      O 6783   6.711   5.066   4.654  0.4106 -0.1651 -0.0243
 1516WAT     H1 6784   6.745   5.102   4.726 -0.9460  0.4830  0.3164
 1516WAT     H2 6785   6.723   4.981   4.666 -0.1625 -0.0900  1.1626
 1516WAT    EPW 6786   6.718   5.059   4.666  0.1255 -0.0583  0.2014
 1517WAT      O 6787   6.813   2.503   5.917  0.0954 -0.2239  0.5827
 1517WAT     H1 6788   6.847   2.472   5.843 -0.2916  1.9955 -0.6341
 1517WAT     H2 6789   6.883   2.514   5.968  0.2620 -2.6882  0.9813
 1517WAT    EPW 6790   6.829   2.500   5.913  0.0628 -0.2601  0.4618
 1518WAT      O 6791   5.165   3.294   5.003 -0.1536 -0.6695 -0.6282
 1518WAT     H1 6792   5.226   3.352   5.027  0.4496 -1.1157 -1.0431
 1518WAT     H2 6793   5.090   3.336   5.015  0.2523 -0.0075 -0.3809
 1518WAT    EPW 6794   5.163   3.308   5.009 -0.0045 -0.6376 -0.6529
 1519WAT      O 6795   6.705   2.716   5.197  0.2128  0.1492  0.2561
 1519WAT     H1 6796   6.705   2.665   5.127  1.7898 -1.6819  1.4811
 1519WAT     H2 6797   6.789   2.737   5.207 -0.1163  1.1976  1.0513
 1519WAT    EPW 6798   6.718   2.712   5.188  0.3972  0.0336  0.5545
 1520WAT      O 6799   5.849   3.146   5.563  0.1065 -0.3601 -0.1341
 1520WAT     H1 6800   5.863   3.163   5.479  1.5907 -0.7724 -0.0125
 1520WAT     H2 6801   5.911   3.192   5.604 -0.0015 -0.8910  0.6588
 1520WAT    EPW 6802   5.860   3.155   5.557  0.3098 -0.4994  0.0010
 1521WAT      O 6803   5.679   4.653   3.982 -0.2633 -0.4096  0.5003
 1521WAT     H1 6804   5.742   4.713   3.987 -0.3643 -0.3777  1.6036
 1521WAT     H2 6805   5.610   4.693   4.016 -0.7009 -0.6951 -0.0322
 1521WAT    EPW 6806   5.678   4.668   3.988 -0.3429 -0.4471  0.5846
 1522WAT      O 6807   5.041   2.984   5.675 -0.0242 -0.2459 -0.4077
 1522WAT     H1 6808   5.117   3.028   5.676  0.8311 -1.6419 -0.6507
 1522WAT     H2 6809   5.057   2.918   5.620 -1.9132  0.2269 -1.6180
 1522WAT    EPW 6810   5.055   2.980   5.667 -0.1769 -0.3822 -0.6224
 1523WAT      O 6811   6.706   4.724   4.228 -0.3490  0.5351  0.0434
 1523WAT     H1 6812   6.682   4.716   4.312  0.5909 -0.2855  0.2506
 1523WAT     H2 6813   6.641   4.770   4.193 -1.0361  0.4178  1.1042
 1523WAT    EPW 6814   6.693   4.729   4.236 -0.3117  0.3966  0.2307
 1524WAT      O 6815   5.632   3.733   4.320 -0.4320  0.0770 -0.0434
 1524WAT     H1 6816   5.635   3.816   4.346  0.0830  0.3322 -0.8857
 1524WAT     H2 6817   5.705   3.724   4.273 -1.3023 -0.3713 -1.3678
 1524WAT    EPW 6818   5.644   3.744   4.317 -0.4845  0.0484 -0.3635
 1525WAT      O 6819   6.671   4.427   4.547  0.0166 -0.3551 -0.2860
 1525WAT     H1 6820   6.656   4.346   4.576  0.5928 -0.4127 -0.1427
 1525WAT     H2 6821   6.700   4.414   4.466 -0.7398 -0.2408 -0.5805
 1525WAT    EPW 6822   6.673   4.413   4.539 -0.0100 -0.3468 -0.3083
 1526WAT      O 6823   6.420   4.315   3.895 -0.0819 -0.3511  0.1805
 1526WAT     H1 6824   6.451   4.275   3.966 -1.0227  1.7524  1.8867
 1526WAT     H2 6825   6.347   4.270   3.876  0.4837 -1.2858  0.1427
 1526WAT    EPW 6826   6.414   4.302   3.903 -0.1373 -0.1785  0.4270
 1527WAT      O 6827   5.161   3.248   5.397  0.0337 -0.6578 -0.3299
 1527WAT     H1 6828   5.092   3.230   5.447  1.2087 -0.7436  1.3567
 1527WAT     H2 6829   5.178   3.332   5.413 -0.6815 -0.1285 -2.0841
 1527WAT    EPW 6830   5.154   3.257   5.407  0.1016 -0.5923 -0.3399
 1528WAT      O 6831   6.984   2.417   6.852 -0.5683  0.5380  0.5864
 1528WAT     H1 6832   6.959   2.403   6.769  0.0199  1.2277  0.2804
 1528WAT     H2 6833   6.909   2.419   6.895 -0.8159 -1.4265  0.3509
 1528WAT    EPW 6834   6.969   2.415   6.846 -0.5180  0.3497  0.5064
 1529WAT      O 6835   5.855   4.241   3.840 -0.2148 -0.1159 -0.1472
 1529WAT     H1 6836   5.804   4.273   3.776  0.5530  0.2743 -0.5748
 1529WAT     H2 6837   5.864   4.309   3.894 -0.9972 -0.4930  0.4803
 1529WAT    EPW 6838   5.849   4.256   3.838 -0.2170 -0.1140 -0.1176
 1530WAT      O 6839   6.186   3.544   4.421  0.3787  0.2390  0.4685
 1530WAT     H1 6840   6.200   3.457   4.420  0.7087  0.2833  0.7691
 1530WAT     H2 6841   6.103   3.551   4.446 -0.5157 -0.0693 -2.1110
 1530WAT    EPW 6842   6.176   3.532   4.424  0.2954  0.2000  0.1319
 1531WAT      O 6843   6.470   4.681   5.121  0.2054 -0.5454  0.1696
 1531WAT     H1 6844   6.396   4.716   5.153 -1.1248 -0.3083 -2.8856
 1531WAT     H2 6845   6.468   4.599   5.153 -0.2576  0.0459  1.7808
 1531WAT    EPW 6846   6.459   4.674   5.131 -0.0595 -0.4230 -0.0437
 1532WAT      O 6847   7.063   1.497   6.419 -0.3650  0.0987  0.0021
 1532WAT     H1 6848   7.002   1.473   6.477  1.7581 -0.5405  2.1239
 1532WAT     H2 6849   7.101   1.566   6.457  0.8396 -0.0975 -0.8052
 1532WAT    EPW 6850   7.059   1.504   6.433  0.1266 -0.0247  0.1963
 1533WAT      O 6851   5.913   3.514   5.261  0.0330  0.0716 -0.0428
 1533WAT     H1 6852   5.892   3.483   5.182  0.1809  2.7357 -1.2357
 1533WAT     H2 6853   5.838   3.509   5.305 -0.7883  0.9652 -1.2669
 1533WAT    EPW 6854   5.899   3.509   5.256 -0.0665  0.5971 -0.3998
 1534WAT      O 6855   6.483   6.300   4.769  0.2701  0.1906  0.1226
 1534WAT     H1 6856   6.417   6.244   4.763  1.8785 -1.7275 -0.5925
 1534WAT     H2 6857   6.535   6.279   4.703  2.8895 -0.1713  2.1513
 1534WAT    EPW 6858   6.481   6.289   4.759  0.8947 -0.1462  0.3167
 1535WAT      O 6859   5.884   2.999   5.891 -0.3655 -0.1800  0.4759
 1535WAT     H1 6860   5.909   3.025   5.971  0.5956  0.4454 -0.0090
 1535WAT     H2 6861   5.955   3.013   5.842 -1.3271  0.6425 -0.7522
 1535WAT    EPW 6862   5.898   3.005   5.896 -0.3656  0.0339  0.2229
 1536WAT      O 6863   5.494   4.863   3.995  0.0484 -0.0398 -0.5006
 1536WAT     H1 6864   5.458   4.925   4.045  0.9007  0.1114 -0.0514
 1536WAT     H2 6865   5.451   4.871   3.919 -0.4965  0.4748 -0.1528
 1536WAT    EPW 6866   5.483   4.874   3.991  0.0938  0.0586 -0.3829
 1537WAT      O 6867   6.167   4.121   2.651  0.0721  0.6171  0.5361
 1537WAT     H1 6868   6.092   4.162   2.637 -1.5203 -1.4162  2.2398
 1537WAT     H2 6869   6.226   4.167   2.606 -2.6010  0.6022 -3.4617
 1537WAT    EPW 6870   6.165   4.134   2.643 -0.5580  0.3145  0.1972
 1538WAT      O 6871   6.445   5.897   5.051 -0.1545 -0.1363  0.1982
 1538WAT     H1 6872   6.361   5.875   5.059  0.1745 -0.6708  3.8694
 1538WAT     H2 6873   6.487   5.821   5.063  0.8672  0.5407  1.0215
 1538WAT    EPW 6874   6.439   5.882   5.054  0.0450 -0.1152  0.8622
 1539WAT      O 6875   5.612   5.271   5.556 -0.2723  0.2725  0.3392
 1539WAT     H1 6876   5.652   5.237   5.627  0.8700  1.1397  0.1351
 1539WAT     H2 6877   5.536   5.227   5.553  0.5697 -1.3288  0.8512
 1539WAT    EPW 6878   5.607   5.259   5.566  0.0208  0.1640  0.3847
 1540WAT      O 6879   4.684   3.967   6.329 -0.2026  0.3837  0.3311
 1540WAT     H1 6880   4.708   3.937   6.407  1.3523  1.1034  0.1751
 1540WAT     H2 6881   4.748   3.939   6.276 -0.3239  1.3552 -0.3513
 1540WAT    EPW 6882   4.697   3.958   6.332  0.0092  0.6335  0.2073
 1541WAT      O 6883   6.173   3.847   5.455 -0.5931  0.0800  0.1395
 1541WAT     H1 6884   6.238   3.873   5.404 -1.2051  1.3463 -0.0304
 1541WAT     H2 6885   6.153   3.918   5.502 -2.1214 -0.1335 -0.1162
 1541WAT    EPW 6886   6.180   3.861   5.454 -0.9093  0.2355  0.0766
 1542WAT      O 6887   6.678   3.732   3.339 -0.3018  0.3464 -0.3644
 1542WAT     H1 6888   6.724   3.782   3.284  1.1016 -0.5996 -0.1010
 1542WAT     H2 6889   6.681   3.653   3.302 -2.1481  0.3292 -0.5678
 1542WAT    EPW 6890   6.685   3.728   3.325 -0.3672  0.2041 -0.3556
 1543WAT      O 6891   6.509   2.619   2.632 -0.2599  0.0275  0.2940
 1543WAT     H1 6892   6.471   2.542   2.649  0.4879 -0.3765  0.2218
 1543WAT     H2 6893   6.443   2.673   2.620 -0.8175 -0.7765 -0.3833
 1543WAT    EPW 6894   6.494   2.615   2.633 -0.2318 -0.1509  0.1833
 1544WAT      O 6895   5.388   2.567   3.918 -0.0825 -0.2985 -0.4850
 1544WAT     H1 6896   5.344   2.495   3.943 -1.1420  0.6344  0.4455
 1544WAT     H2 6897   5.444   2.580   3.984 -1.6020  1.0973  0.6282
 1544WAT    EPW 6898   5.390   2.558   3.932 -0.4635  0.0455 -0.1831
 1545WAT      O 6899   6.256   4.281   4.265  0.4479  0.2569 -0.6463
 1545WAT     H1 6900   6.335   4.286   4.229  0.9521 -2.2203 -0.0900
 1545WAT     H2 6901   6.222   4.209   4.229 -0.9982  0.5071  0.1562
 1545WAT    EPW 6902   6.262   4.271   4.254  0.3088 -0.0721 -0.4456
 1546WAT      O 6903   4.639   4.710   3.570  0.4299  0.5564  0.1567
 1546WAT     H1 6904   4.562   4.749   3.581  0.0921 -0.1804  0.4591
 1546WAT     H2 6905   4.644   4.700   3.483  0.3430  0.9102  0.1087
 1546WAT    EPW 6906   4.629   4.714   3.559  0.3672  0.4998  0.1942
 1547WAT      O 6907   7.007   2.614   6.079 -0.4482 -0.0265 -0.0645
 1547WAT     H1 6908   6.982   2.670   6.016  2.7293  1.6726 -0.0264
 1547WAT     H2 6909   6.980   2.653   6.152 -1.6549 -0.5801 -0.1899
 1547WAT    EPW 6910   6.999   2.628   6.081 -0.1570  0.1427 -0.0774
 1548WAT      O 6911   5.904   3.487   3.635 -0.4196  0.3653 -0.4105
 1548WAT     H1 6912   5.851   3.523   3.576  0.2005  1.0565 -0.5544
 1548WAT     H2 6913   5.977   3.534   3.629 -0.0808 -0.0407  0.3768
 1548WAT    EPW 6914   5.907   3.499   3.625 -0.2780  0.4075 -0.3154
 1549WAT      O 6915   6.157   2.951   5.128  0.3380 -0.1594 -0.5470
 1549WAT     H1 6916   6.151   2.987   5.049  0.0571 -0.2644 -0.5736
 1549WAT     H2 6917   6.243   2.947   5.142  0.3863  1.6170 -0.0580
 1549WAT    EPW 6918   6.169   2.956   5.119  0.3036  0.0875 -0.4787
 1550WAT      O 6919   7.069   2.141   5.505 -0.5557  0.1733 -0.4515
 1550WAT     H1 6920   7.109   2.218   5.506 -0.0604 -0.0520  1.1782
 1550WAT     H2 6921   6.984   2.162   5.510 -0.4223  0.6295  0.0491
 1550WAT    EPW 6922   7.063   2.155   5.506 -0.4628  0.2074 -0.1368
 1551WAT      O 6923   6.887   5.017   5.619 -0.1093 -0.6038  0.1718
 1551WAT     H1 6924   6.897   5.073   5.685  0.4933 -1.4896  0.8520
 1551WAT     H2 6925   6.817   4.970   5.643 -0.2831 -0.5035 -0.1349
 1551WAT    EPW 6926   6.878   5.018   5.632 -0.0460 -0.7198  0.2270
 1552WAT      O 6927   6.700   4.775   6.379  0.3984  0.3270 -0.1748
 1552WAT     H1 6928   6.772   4.824   6.380  1.2215 -0.8033 -1.1889
 1552WAT     H2 6929   6.648   4.814   6.437  1.0902  2.2486 -0.7622
 1552WAT    EPW 6930   6.703   4.788   6.387  0.6222  0.4439 -0.4113
 1553WAT      O 6931   4.626   3.793   3.688  0.0325 -0.0903 -0.4558
 1553WAT     H1 6932   4.626   3.707   3.701 -1.7447  0.1125  1.4357
 1553WAT     H2 6933   4.628   3.801   3.601 -0.9128 -2.0732 -0.7006
 1553WAT    EPW 6934   4.626   3.782   3.677 -0.3697 -0.3532 -0.2125
 1554WAT      O 6935   6.021   3.433   3.946 -0.5944  0.3240 -0.0198
 1554WAT     H1 6936   5.975   3.507   3.949 -0.8568  0.3571 -2.5896
 1554WAT     H2 6937   5.960   3.371   3.932 -0.4468 -0.5310  2.6225
 1554WAT    EPW 6938   6.005   3.434   3.944 -0.6113  0.2026 -0.0091
 1555WAT      O 6939   5.249   1.904   4.894  0.1346  0.3825  0.2098
 1555WAT     H1 6940   5.181   1.880   4.942 -0.2259  1.2337  0.1427
 1555WAT     H2 6941   5.229   1.876   4.814 -0.7407  1.6921 -0.0711
 1555WAT    EPW 6942   5.236   1.896   4.889 -0.0480  0.7017  0.1584
 1556WAT      O 6943   6.166   3.274   5.188  1.0260 -0.2689 -0.0506
 1556WAT     H1 6944   6.202   3.215   5.241 -0.3950 -0.3059  0.9170
 1556WAT     H2 6945   6.083   3.249   5.182  0.7738  0.7105 -0.9238
 1556WAT    EPW 6946   6.159   3.262   5.195  0.7788 -0.1297 -0.0366
 1557WAT      O 6947   6.086   3.587   5.474  0.3686 -0.0302  0.3429
 1557WAT     H1 6948   6.103   3.672   5.468  0.5622  0.0023  1.2782
 1557WAT     H2 6949   6.035   3.572   5.405  0.1858  0.8761  0.2699
 1557WAT    EPW 6950   6.081   3.597   5.463  0.3702  0.1085  0.4703
 1558WAT      O 6951   6.507   3.354   4.397 -0.3009 -0.3632  0.0332
 1558WAT     H1 6952   6.427   3.319   4.401 -1.3475  1.6301 -1.8550
 1558WAT     H2 6953   6.505   3.418   4.456 -0.3027  0.0305 -0.3867
 1558WAT    EPW 6954   6.495   3.358   4.406 -0.4558 -0.0106 -0.3078
 1559WAT      O 6955   5.131   5.367   4.260 -0.3949 -0.8754  0.0040
 1559WAT     H1 6956   5.175   5.415   4.317 -0.7145 -0.8590  0.2371
 1559WAT     H2 6957   5.109   5.423   4.197  0.0632 -0.9194 -0.1996
 1559WAT    EPW 6958   5.134   5.382   4.259 -0.3745 -0.8795  0.0083
 1560WAT      O 6959   6.650   2.700   2.844 -0.1074 -0.4964  0.2609
 1560WAT     H1 6960   6.598   2.689   2.776  2.2313  1.0825 -1.9979
 1560WAT     H2 6961   6.642   2.785   2.863  1.2512 -0.2917  0.0881
 1560WAT    EPW 6962   6.641   2.711   2.837  0.4388 -0.2329 -0.0983
 1561WAT      O 6963   5.131   4.385   4.433 -0.6688 -0.0136 -0.3362
 1561WAT     H1 6964   5.089   4.325   4.480 -2.9756  1.4460 -0.3660
 1561WAT     H2 6965   5.075   4.404   4.369  0.0164  2.0274 -0.4125
 1561WAT    EPW 6966   5.116   4.379   4.431 -0.9084  0.5035 -0.3519
 1562WAT      O 6967   6.379   5.175   4.129  0.1642 -0.2882  0.3161
 1562WAT     H1 6968   6.441   5.210   4.078 -0.4542  1.1817  0.5276
 1562WAT     H2 6969   6.407   5.191   4.209 -0.7659  0.9398  0.4157
 1562WAT    EPW 6970   6.392   5.182   4.133 -0.0646  0.1103  0.3621
 1563WAT      O 6971   5.652   2.949   4.995 -0.1482 -0.0705  0.7940
 1563WAT     H1 6972   5.738   2.937   5.002 -0.0857 -0.7176 -0.7773
 1563WAT     H2 6973   5.623   2.940   5.077  1.2747  0.2266  1.3515
 1563WAT    EPW 6974   5.660   2.946   5.008  0.0712 -0.1222  0.6442
 1564WAT      O 6975   6.313   4.325   4.693 -0.2312 -0.0139 -0.2467
 1564WAT     H1 6976   6.372   4.313   4.630 -1.1080  3.0478 -1.8729
 1564WAT     H2 6977   6.348   4.386   4.744 -1.5783  1.3711 -0.8648
 1564WAT    EPW 6978   6.327   4.332   4.691 -0.5597  0.6430 -0.5782
 1565WAT      O 6979   5.083   4.270   5.131  0.3137  0.2996  0.1941
 1565WAT     H1 6980   5.148   4.324   5.154  1.0371  0.0322 -1.1252
 1565WAT     H2 6981   5.098   4.199   5.180  1.5126 -0.0625 -0.6600
 1565WAT    EPW 6982   5.095   4.268   5.142  0.5977  0.2066 -0.1269
 1566WAT      O 6983   5.443   4.939   4.642 -0.0294 -0.1968  0.5716
 1566WAT     H1 6984   5.407   4.979   4.573 -0.6620 -1.6385  0.0345
 1566WAT     H2 6985   5.526   4.929   4.618  0.8797  3.0677  1.7824
 1566WAT    EPW 6986   5.450   4.944   4.628  0.0115  0.0725  0.6711
 1567WAT      O 6987   6.471   4.106   5.809  0.5333 -0.2532 -0.0191
 1567WAT     H1 6988   6.514   4.182   5.800 -1.8995  1.1300 -1.3988
 1567WAT     H2 6989   6.461   4.098   5.895  1.3648  0.6812  0.1845
 1567WAT    EPW 6990   6.476   4.116   5.820  0.2968  0.0891 -0.1929
 1568WAT      O 6991   4.706   4.830   4.200 -0.3534  0.2952  0.3486
 1568WAT     H1 6992   4.721   4.795   4.279  1.2866  1.4799  0.5997
 1568WAT     H2 6993   4.686   4.760   4.151 -0.2482 -0.5990  1.5307
 1568WAT    EPW 6994   4.705   4.814   4.205 -0.0956  0.3381  0.5603
 1569WAT      O 6995   5.284   3.338   4.225 -0.0712  0.3480 -0.2036
 1569WAT     H1 6996   5.236   3.327   4.152 -1.0666 -0.4044  0.5375
 1569WAT     H2 6997   5.302   3.423   4.225 -0.6974  0.4933 -0.9461
 1569WAT    EPW 6998   5.279   3.349   4.214 -0.3107  0.2584 -0.2038
 1570WAT      O 6999   5.751   3.916   4.496 -0.0107 -0.1696 -0.1002
 1570WAT     H1 7000   5.769   3.847   4.546  0.3669  0.8233  1.1912
 1570WAT     H2 7001   5.822   3.966   4.503 -0.7188  0.8682 -0.0733
 1570WAT    EPW 7002   5.764   3.913   4.505 -0.0596  0.1304  0.0946
 1571WAT      O 7003   5.853   3.774   4.140  0.1879 -0.0082  0.5294
 1571WAT     H1 7004   5.836   3.858   4.151 -1.3768 -0.3559  1.0972
 1571WAT     H2 7005   5.938   3.767   4.157  0.6251  1.6207 -0.7017
 1571WAT    EPW 7006   5.863   3.785   4.144  0.0213  0.1811  0.4314
 1572WAT      O 7007   6.827   6.052   4.728 -0.0620  0.3168  0.0771
 1572WAT     H1 7008   6.741   6.063   4.739 -0.1374  1.7066 -1.4588
 1572WAT     H2 7009   6.844   6.096   4.654  2.1240  0.8030  0.7919
 1572WAT    EPW 7010   6.817   6.060   4.718  0.2498  0.5940 -0.0442
 1573WAT      O 7011   6.155   4.094   5.157  0.1649  0.0929 -0.0106
 1573WAT     H1 7012   6.181   4.120   5.078 -1.7415  0.9107 -0.4265
 1573WAT     H2 7013   6.196   4.018   5.169  0.7796  0.1354 -1.6218
 1573WAT    EPW 7014   6.165   4.087   5.147 -0.0259  0.2200 -0.3101
 1574WAT      O 7015   6.150   4.897   5.186 -0.0083 -0.2531 -0.1839
 1574WAT     H1 7016   6.175   4.826   5.230  0.2648 -0.7974 -1.1969
 1574WAT     H2 7017   6.101   4.940   5.244  1.1168 -0.4650  0.9749
 1574WAT    EPW 7018   6.146   4.893   5.201  0.1983 -0.3648 -0.1624
 1575WAT      O 7019   6.966   1.759   5.369 -0.5287  0.0367 -0.4705
 1575WAT     H1 7020   7.018   1.744   5.437  0.3663  1.6799 -0.7222
 1575WAT     H2 7021   6.959   1.682   5.330  0.8220 -0.4524  0.2028
 1575WAT    EPW 7022   6.973   1.746   5.373 -0.1970  0.2072 -0.4082
 1576WAT      O 7023   5.163   5.065   3.622 -0.3321 -0.5797  0.2647
 1576WAT     H1 7024   5.173   5.029   3.544 -1.1473 -0.9467  0.3245
 1576WAT     H2 7025   5.237   5.045   3.664  0.6922  0.7107 -0.8172
 1576WAT    EPW 7026   5.176   5.057   3.617 -0.3012 -0.4433  0.1137
 1577WAT      O 7027   3.994   3.153   5.692 -0.2038 -0.2934  0.0800
 1577WAT     H1 7028   4.006   3.147   5.606 -0.3426  0.2268  0.0179
 1577WAT     H2 7029   4.002   3.071   5.720 -0.7634 -0.5620 -0.5089
 1577WAT    EPW 7030   3.997   3.140   5.683 -0.3070 -0.2562 -0.0162
 1578WAT      O 7031   6.687   5.127   4.368 -0.2767  0.2438 -0.1194
 1578WAT     H1 7032   6.606   5.098   4.360  0.0178 -0.8901  0.7448
 1578WAT     H2 7033   6.705   5.117   4.453  0.1941  2.0790  0.0382
 1578WAT    EPW 7034   6.678   5.121   4.379 -0.1637  0.3474  0.0315
 1579WAT      O 7035   5.896   3.161   5.261 -0.6691  0.4942 -0.4031
 1579WAT     H1 7036   5.864   3.230   5.218  0.3192  0.2574 -1.5988
 1579WAT     H2 7037   5.889   3.096   5.203 -1.0473 -0.2903  0.4983
 1579WAT    EPW 7038   5.890   3.162   5.246 -0.5790  0.3433 -0.4466
 1580WAT      O 7039   5.891   4.788   4.054  0.1536 -0.1855  0.0965
 1580WAT     H1 7040   5.907   4.873   4.037  2.0243 -0.4664  0.1920
 1580WAT     H2 7041   5.885   4.785   4.140 -1.1276  0.0081  0.0305
 1580WAT    EPW 7042   5.893   4.800   4.064  0.2407 -0.1984  0.1009
 1581WAT      O 7043   4.553   4.666   6.371  0.4030  0.7167  0.4785
 1581WAT     H1 7044   4.606   4.700   6.312 -1.0130 -1.0183 -1.9783
 1581WAT     H2 7045   4.565   4.580   6.363 -0.4270  0.3759  2.1786
 1581WAT    EPW 7046   4.562   4.658   6.361  0.0712  0.4101  0.3667
 1582WAT      O 7047   4.324   4.836   3.339 -0.8633  0.0755  0.3611
 1582WAT     H1 7048   4.366   4.847   3.415  2.1643 -3.6620 -0.4325
 1582WAT     H2 7049   4.266   4.773   3.356 -0.2842 -0.6692 -0.3207
 1582WAT    EPW 7050   4.322   4.828   3.353 -0.3305 -0.5866  0.1431
 1583WAT      O 7051   6.412   3.345   6.266 -1.0346  0.0809  0.1916
 1583WAT     H1 7052   6.418   3.271   6.219 -0.8382 -1.2057  2.1369
 1583WAT     H2 7053   6.495   3.368   6.277 -1.0493  0.0416  0.3908
 1583WAT    EPW 7054   6.425   3.337   6.261 -1.0078 -0.1149  0.5084
 1584WAT      O 7055   5.547   5.863   6.150  0.2650 -0.2691  0.0298
 1584WAT     H1 7056   5.581   5.784   6.166  0.5676  0.3075  2.6870
 1584WAT     H2 7057   5.494   5.876   6.218  0.9578  2.1952  0.1718
 1584WAT    EPW 7058   5.544   5.853   6.163  0.4120  0.1801  0.4433
 1585WAT      O 7059   5.922   2.762   5.359 -0.5231 -0.1411 -0.4511
 1585WAT     H1 7060   5.904   2.738   5.441  0.0628 -1.1378 -0.5954
 1585WAT     H2 7061   5.958   2.690   5.324 -0.0804  0.5015 -1.3597
 1585WAT    EPW 7062   5.925   2.747   5.366 -0.3712 -0.1934 -0.6067
 1586WAT      O 7063   5.838   4.207   4.474 -0.4796  0.3114  0.6413
 1586WAT     H1 7064   5.919   4.214   4.506 -0.5895  0.2034  0.9533
 1586WAT     H2 7065   5.788   4.223   4.544 -0.7416  2.1245  0.0829
 1586WAT    EPW 7066   5.843   4.210   4.489 -0.5345  0.5633  0.6049
 1587WAT      O 7067   7.143   3.039   5.215 -0.3947 -0.5041  0.1407
 1587WAT     H1 7068   7.124   2.954   5.220  0.0941 -0.7480 -1.6047
 1587WAT     H2 7069   7.144   3.065   5.299 -2.4547 -1.7648  0.6224
 1587WAT    EPW 7070   7.140   3.030   5.228 -0.6268 -0.7263 -0.0460
 1588WAT      O 7071   6.891   3.295   3.938  0.1589  0.3625  0.4338
 1588WAT     H1 7072   6.880   3.255   3.861 -1.1943 -0.0920  0.8273
 1588WAT     H2 7073   6.902   3.379   3.917 -0.6897  0.3122 -0.2414
 1588WAT    EPW 7074   6.891   3.301   3.924 -0.1663  0.2880  0.3922
 1589WAT      O 7075   4.830   3.923   5.758  0.1031  0.6206 -0.6177
 1589WAT     H1 7076   4.799   3.923   5.676  1.9670 -1.1730 -1.4275
 1589WAT     H2 7077   4.871   4.000   5.764 -0.1816  0.8382 -1.3069
 1589WAT    EPW 7078   4.831   3.935   5.747  0.3364  0.3878 -0.8391
 1590WAT      O 7079   7.125   2.419   6.242  0.4645  0.1191  0.2099
 1590WAT     H1 7080   7.134   2.479   6.305 -1.0470  1.8318 -1.0991
 1590WAT     H2 7081   7.103   2.467   6.171  0.8921 -1.8306 -1.3212
 1590WAT    EPW 7082   7.123   2.435   6.241  0.3044  0.0841 -0.2097
 1591WAT      O 7083   6.546   3.456   4.141  0.2876 -0.3453 -0.2644
 1591WAT     H1 7084   6.543   3.428   4.224  0.1527 -1.1931 -0.5437
 1591WAT     H2 7085   6.491   3.524   4.141  1.6631  0.8561  0.7475
 1591WAT    EPW 7086   6.537   3.462   4.153  0.4709 -0.2931 -0.1562
 1592WAT      O 7087   6.188   2.137   4.768 -0.1283 -0.1148  0.1460
 1592WAT     H1 7088   6.175   2.090   4.696  0.7399  0.7048 -0.5834
 1592WAT     H2 7089   6.122   2.114   4.820 -0.4056 -1.2112 -0.6513
 1592WAT    EPW 7090   6.176   2.127   4.765 -0.0410 -0.1557 -0.0795
 1593WAT      O 7091   6.549   3.620   2.952  0.0382  0.2446  0.1306
 1593WAT     H1 7092   6.553   3.543   2.910 -4.1634  0.1280 -0.4667
 1593WAT     H2 7093   6.548   3.596   3.036  2.5889  0.0515  0.1790
 1593WAT    EPW 7094   6.550   3.605   2.959 -0.2056  0.1989  0.0495
 1594WAT      O 7095   6.250   4.011   2.928  0.4031  0.6782 -0.5240
 1594WAT     H1 7096   6.293   3.941   2.899  1.2086 -0.1540  2.3974
 1594WAT     H2 7097   6.206   4.038   2.857  2.0033 -1.2586 -2.4031
 1594WAT    EPW 7098   6.249   4.005   2.913  0.7584  0.2691 -0.3701
 1595WAT      O 7099   6.144   3.947   4.646 -0.2514 -0.0096 -0.2088
 1595WAT     H1 7100   6.211   3.915   4.691 -0.1133  0.4787 -0.0612
 1595WAT     H2 7101   6.179   3.968   4.569 -0.6455 -1.5626 -0.8502
 1595WAT    EPW 7102   6.159   3.945   4.641 -0.2892 -0.1669 -0.2818
 1596WAT      O 7103   6.220   2.165   5.251  0.0541  0.3181 -0.1477
 1596WAT     H1 7104   6.292   2.133   5.289 -1.2961 -1.6839  0.9114
 1596WAT     H2 7105   6.245   2.180   5.169  1.9939  0.9531  0.4883
 1596WAT    EPW 7106   6.235   2.163   5.244  0.1412  0.1162  0.1027
 1597WAT      O 7107   6.094   4.263   4.520  0.3102 -0.3935  0.3385
 1597WAT     H1 7108   6.142   4.253   4.448  2.3735  0.6195  1.4640
 1597WAT     H2 7109   6.154   4.260   4.584 -1.0331  1.5165  1.8043
 1597WAT    EPW 7110   6.110   4.261   4.519  0.4166  0.0383  0.7213
 1598WAT      O 7111   6.226   4.612   2.783  0.0946 -0.1200  0.4076
 1598WAT     H1 7112   6.174   4.576   2.721  1.9737 -1.8127 -0.2993
 1598WAT     H2 7113   6.268   4.675   2.740 -0.5109  0.4788  0.6797
 1598WAT    EPW 7114   6.224   4.616   2.767  0.2828 -0.2816  0.3434
 1599WAT      O 7115   6.177   4.314   3.512  0.0927  0.0137  0.0413
 1599WAT     H1 7116   6.145   4.292   3.590  0.9097 -0.7180  0.1786
 1599WAT     H2 7117   6.180   4.238   3.468  1.2761  0.1275 -0.0962
 1599WAT    EPW 7118   6.173   4.300   3.517  0.3882 -0.0776  0.0412
 1600WAT      O 7119   6.642   2.706   6.001 -0.1589 -0.2858 -0.5869
 1600WAT     H1 7120   6.696   2.772   6.019  0.1338 -0.6058 -0.2993
 1600WAT     H2 7121   6.695   2.638   5.989 -0.5717 -1.1169  1.8358
 1600WAT    EPW 7122   6.658   2.706   6.002 -0.1766 -0.4558 -0.1865
 1601WAT      O 7123   6.877   5.408   7.505 -0.2951 -0.6057  0.5116
 1601WAT     H1 7124   6.877   5.355   7.575  1.1840 -0.1026  0.9229
 1601WAT     H2 7125   6.815   5.466   7.524  1.6655  0.9844  2.6182
 1601WAT    EPW 7126   6.868   5.409   7.518  0.2130 -0.2965  0.8835
 1602WAT      O 7127   4.993   2.199   6.214  0.2548 -0.2619  0.3813
 1602WAT     H1 7128   5.008   2.124   6.172 -0.6395 -1.4365  2.0566
 1602WAT     H2 7129   5.012   2.260   6.154 -0.0198 -1.8191 -1.3746
 1602WAT    EPW 7130   4.998   2.197   6.199  0.0821 -0.6654  0.3694
 1603WAT      O 7131   5.176   4.057   3.358 -0.0242 -0.4950 -0.2571
 1603WAT     H1 7132   5.147   3.976   3.341 -0.9858 -0.3616  0.6257
 1603WAT     H2 7133   5.122   4.085   3.420 -2.1548  2.2378 -3.0418
 1603WAT    EPW 7134   5.164   4.049   3.365 -0.4810 -0.0716 -0.5381
 1604WAT      O 7135   5.561   3.676   5.061  0.2113 -0.1281 -0.1049
 1604WAT     H1 7136   5.579   3.667   4.976  0.2263  0.5735 -0.1839
 1604WAT     H2 7137   5.499   3.616   5.075  1.9879 -2.0452  0.0004
 1604WAT    EPW 7138   5.555   3.666   5.050  0.4760 -0.3076 -0.1010
 1605WAT      O 7139   5.456   4.140   5.635 -0.1166  0.2639  0.3997
 1605WAT     H1 7140   5.478   4.108   5.713  0.3468 -0.7520 -0.1295
 1605WAT     H2 7141   5.511   4.206   5.623  0.8188 -0.5143  0.2989
 1605WAT    EPW 7142   5.468   4.145   5.645  0.0901 -0.0011  0.3066
 1606WAT      O 7143   6.724   3.133   3.696  0.2199 -0.8386  0.2302
 1606WAT     H1 7144   6.670   3.200   3.679  1.2833 -0.3089 -1.3161
 1606WAT     H2 7145   6.709   3.077   3.630  1.2247 -0.8657 -0.0011
 1606WAT    EPW 7146   6.714   3.135   3.684  0.5255 -0.7644 -0.0324
 1607WAT      O 7147   6.036   6.850   4.775 -0.4015 -0.4288 -0.6427
 1607WAT     H1 7148   6.027   6.763   4.779 -0.2436 -0.5396 -1.9996
 1607WAT     H2 7149   6.122   6.862   4.774 -0.4148 -0.1861  0.4008
 1607WAT    EPW 7150   6.047   6.839   4.775 -0.3802 -0.4093 -0.6890
 1608WAT      O 7151   5.373   2.515   3.650 -0.1418 -0.3466 -0.6323
 1608WAT     H1 7152   5.359   2.588   3.604  0.6698 -0.1264 -0.5512
 1608WAT     H2 7153   5.366   2.542   3.733 -2.6809 -0.9573 -0.5642
 1608WAT    EPW 7154   5.370   2.530   3.655 -0.3970 -0.4043 -0.6102
 1609WAT      O 7155   5.381   4.542   5.645 -0.3911 -0.0440 -0.8105
 1609WAT     H1 7156   5.381   4.605   5.585 -2.4570 -0.2630 -1.1067
 1609WAT     H2 7157   5.401   4.584   5.719 -0.4895  0.7123 -1.2093
 1609WAT    EPW 7158   5.384   4.557   5.647 -0.7108  0.0354 -0.9131
 1610WAT      O 7159   5.440   4.667   3.554 -0.3304  0.3683  0.0317
 1610WAT     H1 7160   5.489   4.674   3.482 -1.6408  1.0669 -0.8404
 1610WAT     H2 7161   5.486   4.614   3.605  1.0048  0.4668 -1.0128
 1610WAT    EPW 7162   5.454   4.660   3.551 -0.3268  0.4861 -0.2514
 1611WAT      O 7163   7.208   3.076   0.142  0.3622 -0.0975  0.5955
 1611WAT     H1 7164   7.287   3.063   0.175 -0.3486  0.0502  2.4742
 1611WAT     H2 7165   7.171   3.132   0.198 -1.3804 -0.8702  0.2948
 1611WAT    EPW 7166   7.214   3.082   0.155 -0.0002 -0.1898  0.8286
 1612WAT      O 7167   5.838   3.265   3.830 -0.4393  0.6072  0.3104
 1612WAT     H1 7168   5.753   3.253   3.815  0.1357  0.0162 -3.1780
 1612WAT     H2 7169   5.866   3.306   3.759  2.2951  0.5309  1.2416
 1612WAT    EPW 7170   5.829   3.269   3.817  0.0496  0.5086 -0.0673
 1613WAT      O 7171   6.381   4.388   6.128 -0.5231  0.4829 -0.0504
 1613WAT     H1 7172   6.467   4.403   6.131 -0.6176  0.9596  0.4016
 1613WAT     H2 7173   6.376   4.301   6.125  0.0045  0.4732 -1.4927
 1613WAT    EPW 7174   6.393   4.377   6.128 -0.4591  0.5519 -0.1967
 1614WAT      O 7175   7.007   4.774   3.749  0.4223  0.0143  0.0917
 1614WAT     H1 7176   7.080   4.753   3.794  0.2714 -0.0556  0.3081
 1614WAT     H2 7177   6.990   4.701   3.704 -0.2441 -0.4345  1.0374
 1614WAT    EPW 7178   7.015   4.760   3.749  0.3015 -0.0624  0.2634
 1615WAT      O 7179   4.203   5.857   4.783 -0.2844 -0.3961 -0.6975
 1615WAT     H1 7180   4.140   5.798   4.795 -0.6167 -0.4334 -2.4184
 1615WAT     H2 7181   4.266   5.813   4.741  0.2727  0.0034 -0.3000
 1615WAT    EPW 7182   4.203   5.842   4.778 -0.2512 -0.3426 -0.8930
 1616WAT      O 7183   6.143   3.068   4.629  0.0039  0.8138  0.2039
 1616WAT     H1 7184   6.060   3.064   4.657 -0.1265  0.5321 -0.2222
 1616WAT     H2 7185   6.189   3.056   4.702 -0.3333 -0.8951  0.1828
 1616WAT    EPW 7186   6.137   3.066   4.644 -0.0652  0.5197  0.1378
 1617WAT      O 7187   6.797   1.293   6.851 -0.0935  0.5201 -0.6696
 1617WAT     H1 7188   6.710   1.299   6.849 -0.2809 -0.9942  0.4549
 1617WAT     H2 7189   6.817   1.316   6.933  0.3142 -1.0953 -0.2695
 1617WAT    EPW 7190   6.787   1.297   6.863 -0.0610  0.0578 -0.4444
 1618WAT      O 7191   4.951   4.153   5.810  0.2714  0.4744  0.2700
 1618WAT     H1 7192   5.030   4.150   5.772  0.5240  1.3768  0.6929
 1618WAT     H2 7193   4.968   4.133   5.893 -0.1114 -0.3642  0.1545
 1618WAT    EPW 7194   4.965   4.150   5.817  0.2521  0.4838  0.3154
 1619WAT      O 7195   5.293   4.082   4.920 -0.5866 -0.0975 -0.7925
 1619WAT     H1 7196   5.216   4.046   4.899 -1.5559  0.8073  0.9606
 1619WAT     H2 7197   5.351   4.026   4.887 -1.9913 -2.5016  0.5151
 1619WAT    EPW 7198   5.290   4.068   4.912 -0.9373 -0.3190 -0.3403
 1620WAT      O 7199   6.727   1.900   6.165 -0.1316 -0.6379 -0.4055
 1620WAT     H1 7200   6.704   1.957   6.226  0.5669 -0.4638 -0.2923
 1620WAT     H2 7201   6.672   1.918   6.099  1.0980  1.3300 -1.0164
 1620WAT    EPW 7202   6.716   1.911   6.164  0.1532 -0.3215 -0.4790
 1621WAT      O 7203   5.604   3.161   3.215 -0.3096 -0.3258  0.0852
 1621WAT     H1 7204   5.533   3.204   3.188  0.8775  1.6488 -0.1285
 1621WAT     H2 7205   5.629   3.115   3.145 -0.1932  0.6562 -0.5365
 1621WAT    EPW 7206   5.597   3.161   3.201 -0.1171  0.1110 -0.0382
 1622WAT      O 7207   6.265   3.007   6.310 -0.3674 -0.3554  0.0882
 1622WAT     H1 7208   6.315   3.036   6.244  0.5257 -0.0410  0.8831
 1622WAT     H2 7209   6.221   3.078   6.336  1.1248  0.1473  1.4202
 1622WAT    EPW 7210   6.266   3.022   6.304 -0.0150 -0.2347  0.4024
 1623WAT      O 7211   5.878   3.961   5.043 -0.1432 -0.2699  0.3013
 1623WAT     H1 7212   5.948   4.013   5.046 -0.8188  0.6276  1.6750
 1623WAT     H2 7213   5.898   3.898   5.100 -0.8934  0.6712  1.7001
 1623WAT    EPW 7214   5.891   3.960   5.052 -0.3538  0.0017  0.7109
 1624WAT      O 7215   6.291   4.181   6.986  0.6334 -0.4350 -0.1578
 1624WAT     H1 7216   6.307   4.138   7.060  1.4329  1.2697  0.6930
 1624WAT     H2 7217   6.341   4.252   6.991 -0.9564  0.8549 -1.3179
 1624WAT    EPW 7218   6.301   4.185   6.997  0.5167  0.0074 -0.2035
 1625WAT      O 7219   5.942   4.505   6.685 -0.5324 -0.8667  0.7649
 1625WAT     H1 7220   5.881   4.552   6.644 -0.0202 -0.6338  0.2596
 1625WAT     H2 7221   5.941   4.537   6.766 -0.6143 -0.4017  0.5821
 1625WAT    EPW 7222   5.933   4.517   6.691 -0.4688 -0.7636  0.6632
 1626WAT      O 7223   6.669   2.753   5.551 -0.2487 -0.3594 -0.7787
 1626WAT     H1 7224   6.661   2.833   5.519  1.1389  0.0810 -0.1020
 1626WAT     H2 7225   6.676   2.703   5.480 -1.3868  0.0612 -1.2046
 1626WAT    EPW 7226   6.669   2.757   5.536 -0.2118 -0.2322 -0.7417
 1627WAT      O 7227   5.753   4.006   5.839 -0.0225  0.0692 -0.0486
 1627WAT     H1 7228   5.669   3.984   5.846  0.0567 -0.0903  0.4475
 1627WAT     H2 7229   5.764   4.017   5.753 -0.3233 -0.8129 -0.2139
 1627WAT    EPW 7230   5.742   4.004   5.827 -0.0552 -0.0847  0.0002
 1628WAT      O 7231   6.730   1.694   5.145 -0.1765  0.4816  0.4508
 1628WAT     H1 7232   6.779   1.644   5.197 -0.5113 -0.2418  0.0775
 1628WAT     H2 7233   6.730   1.651   5.069 -1.0726  0.6666  0.3331
 1628WAT    EPW 7234   6.737   1.680   5.141 -0.3583  0.4020  0.3783
 1629WAT      O 7235   7.011   4.914   5.283 -0.3749  0.2837  0.4133
 1629WAT     H1 7236   6.955   4.935   5.218 -2.2973  0.3736  2.0014
 1629WAT     H2 7237   7.046   4.990   5.305  2.2969 -0.0564 -2.1342
 1629WAT    EPW 7238   7.008   4.928   5.276 -0.2642  0.2467  0.2716
 1630WAT      O 7239   6.897   1.505   5.266  0.1239  0.2578  0.4368
 1630WAT     H1 7240   6.894   1.449   5.199 -1.8392  0.9301 -0.0988
 1630WAT     H2 7241   6.868   1.458   5.333  0.2876  0.1141  0.4086
 1630WAT    EPW 7242   6.892   1.489   5.266 -0.1419  0.3359  0.3535
 1631WAT      O 7243   4.993   4.271   4.651  0.1089  0.1027  0.0258
 1631WAT     H1 7244   5.030   4.195   4.629 -3.1057 -1.8036  0.6097
 1631WAT     H2 7245   4.963   4.257   4.732 -0.2414  2.1729  0.3097
 1631WAT    EPW 7246   4.994   4.257   4.660 -0.4177  0.1269  0.1540
 1632WAT      O 7247   6.574   6.320   5.032  0.1133 -0.0572 -0.1309
 1632WAT     H1 7248   6.658   6.299   5.019  0.1824  0.1099  0.0408
 1632WAT     H2 7249   6.536   6.300   4.957  0.3351  0.0045 -0.2607
 1632WAT    EPW 7250   6.581   6.314   5.019  0.1563 -0.0234 -0.1247
 1633WAT      O 7251   4.231   4.798   6.074  0.2938 -0.2675 -0.2045
 1633WAT     H1 7252   4.281   4.868   6.088 -0.5824  0.5155 -0.8553
 1633WAT     H2 7253   4.281   4.747   6.024  1.3135 -0.5698  1.0854
 1633WAT    EPW 7254   4.246   4.801   6.068  0.3150 -0.1965 -0.1101
 1634WAT      O 7255   6.937   4.730   6.015 -0.0064 -0.2265 -0.1221
 1634WAT     H1 7256   6.985   4.798   5.990  0.2616 -0.4542 -0.2258
 1634WAT     H2 7257   6.954   4.669   5.956 -0.1410 -0.4312  0.0485
 1634WAT    EPW 7258   6.947   4.731   6.003  0.0133 -0.2904 -0.1122
 1635WAT      O 7259   6.669   4.030   4.299 -0.5077  0.4115 -0.2755
 1635WAT     H1 7260   6.701   3.979   4.237 -0.0655  0.1223  0.1898
 1635WAT     H2 7261   6.636   3.974   4.357  1.2951  0.5590  0.9717
 1635WAT    EPW 7262   6.669   4.014   4.298 -0.1761  0.3906 -0.0225
 1636WAT      O 7263   6.863   2.783   4.676  0.5814  0.1739 -0.1579
 1636WAT     H1 7264   6.779   2.789   4.651  0.4559 -1.0761 -0.1162
 1636WAT     H2 7265   6.887   2.705   4.647  2.2614  1.1862 -1.6250
 1636WAT    EPW 7266   6.854   2.773   4.668  0.8110  0.1388 -0.3685
 1637WAT      O 7267   6.858   3.241   5.796  0.0050  0.0060  0.0089
 1637WAT     H1 7268   6.819   3.185   5.742  1.0739 -0.5494 -0.2263
 1637WAT     H2 7269   6.820   3.226   5.873 -1.8781  1.1432 -0.6361
 1637WAT    EPW 7270   6.847   3.231   5.800 -0.1152  0.0919 -0.1211
 1638WAT      O 7271   6.417   1.810   6.901 -0.3961 -0.1874  0.5503
 1638WAT     H1 7272   6.501   1.825   6.881 -0.6188  0.0184 -0.2370
 1638WAT     H2 7273   6.373   1.851   6.838 -1.0866 -0.6478  0.7280
 1638WAT    EPW 7274   6.423   1.818   6.889 -0.5310 -0.2250  0.4602
 1639WAT      O 7275   6.752   1.756   7.317 -0.0665  0.2292  0.2135
 1639WAT     H1 7276   6.796   1.811   7.367 -1.3027  1.7815 -0.3273
 1639WAT     H2 7277   6.803   1.745   7.248  0.9387 -0.6801  1.0642
 1639WAT    EPW 7278   6.766   1.762   7.314 -0.1006  0.3242  0.2593
 1640WAT      O 7279   5.923   4.966   5.665 -0.2783 -0.8760  0.3525
 1640WAT     H1 7280   5.977   4.916   5.713  2.1013  0.4627 -0.7814
 1640WAT     H2 7281   5.899   5.029   5.721  1.3836 -0.0881  0.2243
 1640WAT    EPW 7282   5.927   4.968   5.681  0.3187 -0.5619  0.1660
 1641WAT      O 7283   5.918   3.555   4.574 -0.1504  0.4142  0.7165
 1641WAT     H1 7284   5.850   3.544   4.520 -0.1321  2.3641  0.2339
 1641WAT     H2 7285   5.882   3.551   4.653 -0.8291  1.3141  0.4655
 1641WAT    EPW 7286   5.903   3.553   4.577 -0.2480  0.8352  0.6082
 1642WAT      O 7287   6.225   2.352   4.054 -0.1183  0.0816  0.8510
 1642WAT     H1 7288   6.217   2.360   3.968  1.0506 -0.3263  0.6877
 1642WAT     H2 7289   6.191   2.274   4.071  0.0978 -0.0451  0.6958
 1642WAT    EPW 7290   6.219   2.342   4.044  0.0863  0.0026  0.8039
 1643WAT      O 7291   6.277   1.351   3.340 -0.2082  0.0421  0.3569
 1643WAT     H1 7292   6.325   1.424   3.331 -0.2272  0.0847  0.5969
 1643WAT     H2 7293   6.275   1.318   3.260  1.2134 -0.5794  0.5523
 1643WAT    EPW 7294   6.284   1.357   3.327 -0.0010 -0.0434  0.4212
 1644WAT      O 7295   6.508   3.429   4.837  0.1194 -0.7365  0.2820
 1644WAT     H1 7296   6.439   3.436   4.889 -0.7563 -0.8153 -0.8266
 1644WAT     H2 7297   6.523   3.343   4.835  0.7555 -0.6607  1.1295
 1644WAT    EPW 7298   6.500   3.417   4.844  0.0840 -0.7369  0.2435
 1645WAT      O 7299   6.708   3.931   4.746 -0.2993  0.0723 -0.2917
 1645WAT     H1 7300   6.765   3.879   4.786  0.0028  0.6698  0.0736
 1645WAT     H2 7301   6.631   3.908   4.781 -0.1133  0.1717  0.1962
 1645WAT    EPW 7302   6.705   3.920   4.757 -0.2272  0.1752 -0.1656
 1646WAT      O 7303   5.779   2.872   5.609  0.4430  0.4596  0.8621
 1646WAT     H1 7304   5.822   2.801   5.635  0.1624  0.3001  0.8933
 1646WAT     H2 7305   5.824   2.937   5.646  0.3693  0.2680  1.2952
 1646WAT    EPW 7306   5.792   2.871   5.618  0.3907  0.4077  0.9307
 1647WAT      O 7307   4.921   5.044   5.309  0.6229 -0.1121 -0.0906
 1647WAT     H1 7308   4.857   5.046   5.368  1.0969  1.6847  0.4430
 1647WAT     H2 7309   4.903   5.111   5.256  2.2363  0.7155  0.3263
 1647WAT    EPW 7310   4.909   5.054   5.310  0.9312  0.2755  0.0498
 1648WAT      O 7311   4.900   3.245   3.977  0.8298 -0.1788 -1.1346
 1648WAT     H1 7312   4.884   3.329   3.994  1.0792 -0.2752 -0.3884
 1648WAT     H2 7313   4.861   3.232   3.900 -2.2155 -0.2485  0.2649
 1648WAT    EPW 7314   4.892   3.255   3.968  0.4168 -0.2033 -0.8177
 1649WAT      O 7315   6.297   3.977   4.392 -0.5594  0.1390 -0.2182
 1649WAT     H1 7316   6.256   3.999   4.318 -0.5828  1.6116  0.2075
 1649WAT     H2 7317   6.320   3.894   4.378 -2.5824 -0.3595 -0.9699
 1649WAT    EPW 7318   6.294   3.968   4.379 -0.8617  0.2829 -0.2663
 1650WAT      O 7319   5.674   3.748   5.314 -0.3575  0.3989  0.5517
 1650WAT     H1 7320   5.639   3.727   5.236  0.7681  0.2410  0.0673
 1650WAT     H2 7321   5.615   3.800   5.349 -0.1950  1.8079 -1.1215
 1650WAT    EPW 7322   5.660   3.752   5.307 -0.1672  0.5837  0.2330
 1651WAT      O 7323   6.710   3.032   6.821  0.1865  0.5072  0.3180
 1651WAT     H1 7324   6.734   2.949   6.808 -0.1752  0.6275 -1.3778
 1651WAT     H2 7325   6.670   3.029   6.898 -1.1004 -1.2057 -0.3406
 1651WAT    EPW 7326   6.708   3.019   6.831 -0.0570  0.2719 -0.0298
 1652WAT      O 7327   6.842   4.463   5.517  0.0577  1.1508  0.8487
 1652WAT     H1 7328   6.853   4.519   5.452  1.6400  1.1913  1.0968
 1652WAT     H2 7329   6.764   4.428   5.503  0.2269  1.4105 -0.8658
 1652WAT    EPW 7330   6.832   4.466   5.506  0.3164  1.1952  0.6321
 1653WAT      O 7331   4.774   3.769   5.112 -0.2932  0.3019 -0.0276
 1653WAT     H1 7332   4.688   3.755   5.105 -0.3514  0.5398  0.2062
 1653WAT     H2 7333   4.803   3.757   5.031 -0.8285  2.1652 -0.5486
 1653WAT    EPW 7334   4.766   3.765   5.099 -0.3809  0.6123 -0.0700
 1654WAT      O 7335   6.097   4.059   5.650  0.3851 -0.3258  0.0043
 1654WAT     H1 7336   6.087   3.991   5.704 -0.7386 -0.8316 -0.8019
 1654WAT     H2 7337   6.167   4.101   5.682  1.5278 -2.2187  0.1168
 1654WAT    EPW 7338   6.106   4.055   5.663  0.3879 -0.6801 -0.0982
 1655WAT      O 7339   6.668   4.163   7.195  0.2477  0.6029 -0.4958
 1655WAT     H1 7340   6.723   4.220   7.158  0.2267  0.5144 -0.6609
 1655WAT     H2 7341   6.672   4.093   7.143  1.7651 -0.2901  0.7582
 1655WAT    EPW 7342   6.677   4.161   7.182  0.4687  0.4579 -0.3349
 1656WAT      O 7343   6.612   2.307   6.001 -0.5413  0.2226  0.7480
 1656WAT     H1 7344   6.595   2.368   6.061  1.0013  0.1151  1.3294
 1656WAT     H2 7345   6.687   2.333   5.965 -0.7501 -0.4318 -0.2003
 1656WAT    EPW 7346   6.620   2.320   6.004 -0.3443  0.1101  0.6938
 1657WAT      O 7347   6.445   3.333   3.928  0.2987 -0.4002 -0.0299
 1657WAT     H1 7348   6.384   3.378   3.885  0.9686  0.2154 -0.3633
 1657WAT     H2 7349   6.464   3.384   3.996  1.6986  0.2912 -0.8918
 1657WAT    EPW 7350   6.439   3.347   3.932  0.6044 -0.2072 -0.2065
 1658WAT      O 7351   5.556   2.614   5.337 -0.0904  0.2614 -0.1382
 1658WAT     H1 7352   5.629   2.567   5.343  0.6642  1.0100 -2.3146
 1658WAT     H2 7353   5.515   2.599   5.412  0.4853 -3.2216 -0.3530
 1658WAT    EPW 7354   5.560   2.605   5.349  0.1061 -0.1426 -0.4914
 1659WAT      O 7355   6.481   3.267   5.579  0.4788  0.2344 -0.1089
 1659WAT     H1 7356   6.496   3.314   5.507  2.0731  2.7168  1.6560
 1659WAT     H2 7357   6.396   3.250   5.575  0.5198  0.1953 -2.5706
 1659WAT    EPW 7358   6.471   3.271   5.568  0.7203  0.5953 -0.2118
 1660WAT      O 7359   5.780   2.777   3.921 -0.2195 -0.6075 -0.0409
 1660WAT     H1 7360   5.787   2.691   3.931  0.8082 -0.4515  0.8130
 1660WAT     H2 7361   5.765   2.806   4.002  3.4746  0.3108  0.5073
 1660WAT    EPW 7362   5.779   2.769   3.934  0.4780 -0.4488  0.1663
 1661WAT      O 7363   7.057   2.578   6.457  0.1332 -0.4398 -0.3128
 1661WAT     H1 7364   7.074   2.651   6.501 -0.1647  0.1017 -1.0685
 1661WAT     H2 7365   6.973   2.562   6.475  0.5312 -1.3219  0.8651
 1661WAT    EPW 7366   7.047   2.587   6.466  0.1480 -0.4901 -0.2504
 1662WAT      O 7367   6.126   4.572   5.603  0.3358  0.5668 -0.1527
 1662WAT     H1 7368   6.126   4.630   5.668 -0.1868 -0.9091  1.2395
 1662WAT     H2 7369   6.186   4.514   5.628  1.3884  0.8565 -1.8750
 1662WAT    EPW 7370   6.135   4.572   5.617  0.4141  0.3915 -0.2015
 1663WAT      O 7371   6.233   4.418   6.380 -1.0235  0.0984 -0.6809
 1663WAT     H1 7372   6.284   4.444   6.314 -0.9009  0.2064 -0.5433
 1663WAT     H2 7373   6.258   4.467   6.447 -1.3351  0.1787 -0.6200
 1663WAT    EPW 7374   6.244   4.429   6.380 -1.0514  0.1262 -0.6516
 1664WAT      O 7375   4.110   3.495   5.729  0.0990  0.2817 -0.7346
 1664WAT     H1 7376   4.155   3.538   5.667 -0.7344 -0.7001 -2.0837
 1664WAT     H2 7377   4.147   3.416   5.730  1.3877  0.8288  1.4722
 1664WAT    EPW 7378   4.122   3.490   5.720  0.1663  0.2175 -0.6079
 1665WAT      O 7379   5.105   4.050   4.534  0.3859 -0.0613  0.2666
 1665WAT     H1 7380   5.030   4.011   4.509 -0.5313  0.7305  1.6590
 1665WAT     H2 7381   5.166   3.994   4.508 -0.8060 -1.8278  1.0448
 1665WAT    EPW 7382   5.103   4.036   4.526  0.0744 -0.2053  0.5873
 1666WAT      O 7383   5.790   2.445   5.116  0.3288 -0.2587 -0.0890
 1666WAT     H1 7384   5.735   2.506   5.087 -0.3462  0.3105  2.1715
 1666WAT     H2 7385   5.795   2.388   5.050 -1.6578  0.5311 -0.9911
 1666WAT    EPW 7386   5.783   2.446   5.102 -0.0644 -0.0580  0.1116
 1667WAT      O 7387   5.191   3.735   4.236 -0.0144  0.4211  0.3995
 1667WAT     H1 7388   5.227   3.772   4.306  1.4086  1.4025 -0.7796
 1667WAT     H2 7389   5.257   3.688   4.202 -0.7085 -0.1253 -0.2253
 1667WAT    EPW 7390   5.206   3.733   4.241  0.0933  0.4854  0.1330
 1668WAT      O 7391   5.771   4.085   5.318  0.2136 -0.4936  0.6811
 1668WAT     H1 7392   5.732   4.113   5.245  0.3452 -0.0551  0.7781
 1668WAT     H2 7393   5.816   4.014   5.291  0.0881 -0.4590  0.3836
 1668WAT    EPW 7394   5.772   4.078   5.303  0.2145 -0.4237  0.6515
 1669WAT      O 7395   6.633   2.566   4.934 -0.6897 -0.5153  0.1254
 1669WAT     H1 7396   6.554   2.549   4.903 -0.2988  1.1849 -2.0721
 1669WAT     H2 7397   6.686   2.519   4.882 -0.0059  2.4962 -2.2005
 1669WAT    EPW 7398   6.629   2.557   4.922 -0.5309  0.1807 -0.5428
 1670WAT      O 7399   6.546   3.041   5.379 -0.0946 -0.1607 -0.1736
 1670WAT     H1 7400   6.468   3.080   5.376 -0.7116 -1.3905 -0.5483
 1670WAT     H2 7401   6.593   3.084   5.320 -0.9222 -0.2951 -0.9543
 1670WAT    EPW 7402   6.542   3.053   5.370 -0.3080 -0.3622 -0.3443
 1671WAT      O 7403   6.768   3.654   6.674  0.2875 -0.1725 -0.0607
 1671WAT     H1 7404   6.835   3.640   6.729 -0.0030  0.0122  0.3454
 1671WAT     H2 7405   6.708   3.692   6.724 -0.4107 -1.0029 -0.2489
 1671WAT    EPW 7406   6.769   3.658   6.690  0.1415 -0.2679 -0.0285
 1672WAT      O 7407   6.457   3.741   3.475  0.0576  0.2650 -0.5145
 1672WAT     H1 7408   6.399   3.697   3.426  1.5249 -2.0224 -0.3396
 1672WAT     H2 7409   6.532   3.729   3.432  0.7489  1.5258  0.2889
 1672WAT    EPW 7410   6.460   3.733   3.461  0.3764  0.1133 -0.3700
 1673WAT      O 7411   6.164   4.534   4.932 -0.3168  0.0167  0.3850
 1673WAT     H1 7412   6.153   4.615   4.960 -1.1095 -0.1356  0.5369
 1673WAT     H2 7413   6.119   4.532   4.857 -0.4609 -0.3392  0.4809
 1673WAT    EPW 7414   6.156   4.545   4.925 -0.4551 -0.0584  0.4216
 1674WAT      O 7415   6.794   4.333   4.316 -0.3503 -0.4619  0.1334
 1674WAT     H1 7416   6.792   4.247   4.300  0.4759 -0.3434 -0.6929
 1674WAT     H2 7417   6.776   4.368   4.238 -1.0856  0.1224  0.5545
 1674WAT    EPW 7418   6.791   4.325   4.302 -0.3369 -0.3581  0.0736
 1675WAT      O 7419   5.500   4.039   4.578  0.1392  0.2902  0.0153
 1675WAT     H1 7420   5.577   4.026   4.539 -0.5542  0.0269 -1.3136
 1675WAT     H2 7421   5.478   4.120   4.552 -0.0795  0.3254  0.3105
 1675WAT    EPW 7422   5.508   4.049   4.568  0.0045  0.2565 -0.1374
 1676WAT      O 7423   6.127   4.207   3.758 -0.1338 -0.0457 -0.5343
 1676WAT     H1 7424   6.147   4.152   3.823  0.8585  2.5563  1.5224
 1676WAT     H2 7425   6.047   4.235   3.778 -0.0422  0.3702 -0.7359
 1676WAT    EPW 7426   6.118   4.203   3.771  0.0263  0.4001 -0.2603
 1677WAT      O 7427   5.239   5.489   5.367  0.0748  0.2826  0.4144
 1677WAT     H1 7428   5.268   5.569   5.389 -1.5622  0.9274  0.3162
 1677WAT     H2 7429   5.249   5.488   5.280  1.0116 -0.0115  0.5152
 1677WAT    EPW 7430   5.245   5.501   5.357 -0.0286  0.3344  0.4147
 1678WAT      O 7431   5.801   4.474   4.328  0.3207  0.0275 -0.1985
 1678WAT     H1 7432   5.767   4.439   4.255  0.5977 -0.2691 -0.1874
 1678WAT     H2 7433   5.837   4.406   4.369  1.0602  0.3524 -0.2860
 1678WAT    EPW 7434   5.802   4.459   4.323  0.4709  0.0317 -0.2098
 1679WAT      O 7435   6.555   4.077   3.783 -0.1964 -0.2190 -0.1826
 1679WAT     H1 7436   6.525   4.001   3.753 -1.4481 -0.3763  1.3290
 1679WAT     H2 7437   6.629   4.056   3.823 -0.2993 -0.5706 -0.1734
 1679WAT    EPW 7438   6.561   4.063   3.784 -0.3965 -0.2942  0.0420
 1680WAT      O 7439   6.502   1.933   3.291  0.3497 -0.3014 -0.4124
 1680WAT     H1 7440   6.469   1.994   3.343 -0.1936  0.4048 -1.5532
 1680WAT     H2 7441   6.432   1.886   3.268  0.4463 -0.0505 -1.2206
 1680WAT    EPW 7442   6.487   1.935   3.296  0.2837 -0.1600 -0.7003
 1681WAT      O 7443   6.657   5.015   5.296 -0.3547  0.0997  0.0021
 1681WAT     H1 7444   6.676   4.959   5.360 -0.1555  1.3813  1.1155
 1681WAT     H2 7445   6.700   5.088   5.318 -2.2400  1.3836 -0.2273
 1681WAT    EPW 7446   6.666   5.018   5.309 -0.6038  0.4787  0.1327
 1682WAT      O 7447   6.827   4.993   5.074 -0.4375  0.0104 -0.2415
 1682WAT     H1 7448   6.772   5.014   5.138  0.0237  0.0692  0.1412
 1682WAT     H2 7449   6.795   4.919   5.042 -0.4570 -0.2179  0.3089
 1682WAT    EPW 7450   6.814   4.985   5.079 -0.3722 -0.0147 -0.1037
 1683WAT      O 7451   6.282   3.448   4.996 -0.6656  0.4591  0.3366
 1683WAT     H1 7452   6.243   3.384   5.040 -0.7900  0.2664 -0.0490
 1683WAT     H2 7453   6.291   3.511   5.055 -0.5485  0.0869  0.7151
 1683WAT    EPW 7454   6.277   3.448   5.011 -0.6667  0.3756  0.3355
 1684WAT      O 7455   6.913   2.439   5.663 -0.3108 -0.1178  0.1797
 1684WAT     H1 7456   6.950   2.381   5.718  2.3370 -0.2484 -1.5556
 1684WAT     H2 7457   6.977   2.497   5.649 -1.4463  0.7897 -1.5346
 1684WAT    EPW 7458   6.928   2.439   5.669 -0.0874 -0.0030 -0.3299
 1685WAT      O 7459   6.944   2.506   5.025  0.2260  0.2675  0.0864
 1685WAT     H1 7460   6.958   2.477   4.944 -1.6200 -0.6158  0.0270
 1685WAT     H2 7461   7.006   2.466   5.072 -0.1580 -1.1314 -0.5418
 1685WAT    EPW 7462   6.955   2.496   5.020 -0.1034 -0.0696 -0.0151
 1686WAT      O 7463   4.971   4.598   6.861 -0.3220 -0.2250 -0.5068
 1686WAT     H1 7464   5.053   4.627   6.870 -0.5838  0.3831 -0.0571
 1686WAT     H2 7465   4.967   4.574   6.777 -0.3059  1.7179 -1.0943
 1686WAT    EPW 7466   4.983   4.599   6.850 -0.3583  0.1518 -0.5272
 1687WAT      O 7467   6.507   3.565   4.598 -0.4467  0.1290 -0.1506
 1687WAT     H1 7468   6.593   3.575   4.590 -0.5743  0.2137 -1.6246
 1687WAT     H2 7469   6.499   3.523   4.674  0.7136  2.3560  1.3218
 1687WAT    EPW 7470   6.519   3.560   4.608 -0.2941  0.4705 -0.1508
 1688WAT      O 7471   5.822   3.312   5.025 -0.1110 -0.3048 -0.2817
 1688WAT     H1 7472   5.735   3.312   5.026 -0.1143 -0.0872 -0.4816
 1688WAT     H2 7473   5.841   3.277   4.948 -0.0206 -0.5236 -0.1587
 1688WAT    EPW 7474   5.812   3.307   5.014 -0.0981 -0.3050 -0.2930
 1689WAT      O 7475   6.886   3.166   7.300  0.3563  0.1851  0.2611
 1689WAT     H1 7476   6.945   3.151   7.363  0.7661  0.6052 -0.0122
 1689WAT     H2 7477   6.935   3.186   7.231 -0.1077  0.9138  0.1245
 1689WAT    EPW 7478   6.902   3.167   7.299  0.3483  0.3548  0.2005
 1690WAT      O 7479   6.379   2.527   4.885  0.1939  0.2878  0.1440
 1690WAT     H1 7480   6.336   2.495   4.816  0.0637 -1.2301  0.9082
 1690WAT     H2 7481   6.316   2.562   4.934 -0.0693 -1.0344  0.7742
 1690WAT    EPW 7482   6.363   2.528   4.882  0.1358 -0.1317  0.3499
 1691WAT      O 7483   6.782   4.915   3.636  0.2689 -0.2288  0.3531
 1691WAT     H1 7484   6.756   4.976   3.694  1.4033 -0.0115  0.6465
 1691WAT     H2 7485   6.846   4.874   3.677  0.1678 -0.9835 -0.2386
 1691WAT    EPW 7486   6.788   4.918   3.650  0.4216 -0.3082  0.3090
 1692WAT      O 7487   5.332   4.670   5.088  0.2737 -0.0655 -0.3861
 1692WAT     H1 7488   5.406   4.714   5.101  0.3197  0.7149 -2.8050
 1692WAT     H2 7489   5.336   4.647   5.004 -2.2721  0.1155 -0.6429
 1692WAT    EPW 7490   5.343   4.673   5.078 -0.0956  0.0765 -0.7814
 1693WAT      O 7491   6.986   3.466   2.873 -0.0005 -0.0455  0.7207
 1693WAT     H1 7492   7.069   3.489   2.866  0.3383 -0.2381  3.2090
 1693WAT     H2 7493   6.943   3.542   2.876 -0.0465  0.0547 -1.1523
 1693WAT    EPW 7494   6.992   3.480   2.873  0.0427 -0.0591  0.8116
 1694WAT      O 7495   6.709   3.704   5.710  0.1173  0.4819  0.0178
 1694WAT     H1 7496   6.712   3.645   5.774  0.4303  1.1928  0.6711
 1694WAT     H2 7497   6.709   3.656   5.637  0.1322 -0.3231  0.5437
 1694WAT    EPW 7498   6.709   3.688   5.708  0.1658  0.4680  0.1920
 1695WAT      O 7499   7.013   3.988   5.973 -0.1144  0.1535 -0.1390
 1695WAT     H1 7500   7.032   3.905   5.994 -1.6826 -0.1446  0.2724
 1695WAT     H2 7501   6.943   3.980   5.922  0.1289  1.2063 -0.6613
 1695WAT    EPW 7502   7.005   3.975   5.969 -0.3101  0.2650 -0.1554
 1696WAT      O 7503   6.910   3.153   5.084 -0.1604 -0.4975  0.0924
 1696WAT     H1 7504   6.894   3.076   5.047 -2.2844 -1.4541  2.6199
 1696WAT     H2 7505   6.979   3.137   5.136  1.3423  0.2160 -1.5889
 1696WAT    EPW 7506   6.918   3.139   5.086 -0.2522 -0.5334  0.2174
 1697WAT      O 7507   6.125   2.016   6.837 -0.1628 -0.3624 -0.4585
 1697WAT     H1 7508   6.152   1.968   6.769 -1.9472 -1.0400 -0.7323
 1697WAT     H2 7509   6.156   1.973   6.906 -0.3212 -0.9696 -0.7643
 1697WAT    EPW 7510   6.134   2.003   6.837 -0.4498 -0.5522 -0.5441
 1698WAT      O 7511   5.744   2.369   6.144  0.5830  0.1606  0.3652
 1698WAT     H1 7512   5.802   2.417   6.189 -0.0175 -0.3185  1.6815
 1698WAT     H2 7513   5.699   2.429   6.099  1.9240  0.5541 -0.4928
 1698WAT    EPW 7514   5.746   2.385   6.144  0.6924  0.1480  0.4329
 1699WAT      O 7515   6.877   3.735   4.873 -0.7362 -0.1275  0.0359
 1699WAT     H1 7516   6.899   3.656   4.844 -0.7860 -0.0754 -0.1431
 1699WAT     H2 7517   6.897   3.732   4.958 -1.2476 -0.5097  0.1417
 1699WAT    EPW 7518   6.883   3.723   4.882 -0.8191 -0.1762  0.0251
 1700WAT      O 7519   6.875   4.593   6.623  0.4673 -0.4283  0.2686
 1700WAT     H1 7520   6.911   4.569   6.699  1.8742 -0.4001 -0.3692
 1700WAT     H2 7521   6.792   4.609   6.645  1.0875  0.7250  2.0741
 1700WAT    EPW 7522   6.868   4.592   6.638  0.7668 -0.2538  0.4411
 1701WAT      O 7523   5.390   3.550   3.318  0.1556 -0.7282 -0.1831
 1701WAT     H1 7524   5.463   3.552   3.271  0.0145 -0.1991 -0.3809
 1701WAT     H2 7525   5.330   3.586   3.266  0.0378  0.0315  0.4529
 1701WAT    EPW 7526   5.392   3.556   3.304  0.1174 -0.5378 -0.1184
 1702WAT      O 7527   5.978   4.917   4.488  0.4872 -0.3483 -0.2183
 1702WAT     H1 7528   5.911   4.910   4.543 -0.1483 -0.1487 -0.9425
 1702WAT     H2 7529   6.044   4.877   4.530  0.1049  0.0533  0.7936
 1702WAT    EPW 7530   5.978   4.910   4.502  0.3368 -0.2595 -0.1758
 1703WAT      O 7531   5.532   1.680   1.028  0.3323  0.1286  0.0387
 1703WAT     H1 7532   5.568   1.631   1.091  1.1007 -0.1072 -0.5717
 1703WAT     H2 7533   5.563   1.760   1.044  1.5458 -0.1543 -0.7558
 1703WAT    EPW 7534   5.542   1.685   1.040  0.6251  0.0520 -0.1688
 1704WAT      O 7535   6.373   3.900   2.601  0.2765  0.3849 -0.0787
 1704WAT     H1 7536   6.352   3.849   2.669 -1.3659 -0.0389 -0.8541
 1704WAT     H2 7537   6.307   3.956   2.597  0.4274  0.4939 -1.2444
 1704WAT    EPW 7538   6.360   3.901   2.611  0.0562  0.3384 -0.3654
 1705WAT      O 7539   5.500   4.076   2.509  0.0600  0.3453 -0.1821
 1705WAT     H1 7540   5.436   4.063   2.567 -1.5042  1.1882 -1.6391
 1705WAT     H2 7541   5.558   4.015   2.529 -2.5142 -2.4610 -0.5969
 1705WAT    EPW 7542   5.499   4.065   2.521 -0.5513  0.0552 -0.4586
 1706WAT      O 7543   6.294   4.373   2.936  0.0986  0.1266 -0.0030
 1706WAT     H1 7544   6.227   4.350   2.987 -0.5316 -0.0461 -0.8660
 1706WAT     H2 7545   6.260   4.438   2.888  0.6813  0.3144 -0.1633
 1706WAT    EPW 7546   6.279   4.379   2.936  0.0916  0.1289 -0.1542
 1707WAT      O 7547   5.803   4.065   2.749 -0.1594 -0.2022 -0.0014
 1707WAT     H1 7548   5.733   4.028   2.786  0.3925  0.8426  2.2179
 1707WAT     H2 7549   5.869   4.014   2.772 -0.1087 -1.2668 -2.2095
 1707WAT    EPW 7550   5.802   4.052   2.758 -0.0704 -0.2051  0.0003
 1708WAT      O 7551   6.949   4.640   2.952  0.0945  0.4102 -0.2608
 1708WAT     H1 7552   6.953   4.582   2.887  0.9037  0.3726 -0.1804
 1708WAT     H2 7553   6.923   4.592   3.020  1.4967 -0.0354 -0.0114
 1708WAT    EPW 7554   6.945   4.625   2.953  0.4212  0.3388 -0.2121
 1709WAT      O 7555   6.104   3.102   2.403  0.3786  0.0918 -0.5162
 1709WAT     H1 7556   6.176   3.151   2.395  0.2821  0.4025  0.3484
 1709WAT     H2 7557   6.132   3.032   2.447  0.1345  0.2878 -0.0375
 1709WAT    EPW 7558   6.119   3.099   2.408  0.3283  0.1667 -0.3178
 1710WAT      O 7559   5.818   3.613   3.401 -0.3847 -0.3584 -0.2120
 1710WAT     H1 7560   5.753   3.621   3.344  0.2277  0.0210 -0.8788
 1710WAT     H2 7561   5.890   3.615   3.351  0.1498 -0.6636  0.5099
 1710WAT    EPW 7562   5.819   3.614   3.385 -0.2153 -0.3474 -0.2039
 1711WAT      O 7563   6.662   3.220   2.117 -0.1690  0.1758  0.5636
 1711WAT     H1 7564   6.638   3.286   2.169 -0.7267  1.0437 -0.7595
 1711WAT     H2 7565   6.717   3.257   2.060 -1.8012 -0.0515 -1.2619
 1711WAT    EPW 7566   6.666   3.235   2.116 -0.4925  0.2704  0.0985
 1712WAT      O 7567   5.167   4.739   2.460 -0.2648  0.5020  0.2446
 1712WAT     H1 7568   5.111   4.798   2.493 -0.6192  0.1415  0.2849
 1712WAT     H2 7569   5.116   4.684   2.416 -0.0042 -0.1043  0.6787
 1712WAT    EPW 7570   5.151   4.740   2.458 -0.2786  0.3592  0.3147
 1713WAT      O 7571   5.255   4.170   4.025 -0.0182 -0.7784 -0.2351
 1713WAT     H1 7572   5.198   4.112   4.058 -0.5545 -1.3616 -2.0287
 1713WAT     H2 7573   5.269   4.140   3.944 -1.0647  2.0952 -1.6071
 1713WAT    EPW 7574   5.248   4.157   4.018 -0.2520 -0.4400 -0.7027
 1714WAT      O 7575   6.581   3.409   3.679  0.4470  0.0040 -0.0192
 1714WAT     H1 7576   6.531   3.399   3.608 -0.7936  2.1341  0.4603
 1714WAT     H2 7577   6.530   3.378   3.743  0.5228  0.4063  0.2375
 1714WAT    EPW 7578   6.566   3.403   3.678  0.2750  0.3781  0.0895
 1715WAT      O 7579   4.776   4.107   3.640  0.1293 -0.6347 -0.2149
 1715WAT     H1 7580   4.728   4.177   3.619 -0.5184 -0.9086  0.2947
 1715WAT     H2 7581   4.736   4.042   3.598 -0.0688 -0.8921  0.3635
 1715WAT    EPW 7582   4.763   4.108   3.631  0.0044 -0.7132 -0.0542
 1716WAT      O 7583   6.493   1.942   3.877  0.6065  0.0069  0.4072
 1716WAT     H1 7584   6.428   1.903   3.834  2.1457 -1.7928 -0.4176
 1716WAT     H2 7585   6.514   2.010   3.826 -0.7996  0.8281  0.8642
 1716WAT    EPW 7586   6.487   1.946   3.863  0.6262 -0.1377  0.3528
 1717WAT      O 7587   6.852   5.570   4.197  0.2640  0.1046 -0.6326
 1717WAT     H1 7588   6.835   5.525   4.269  0.6807  0.9831  0.0360
 1717WAT     H2 7589   6.860   5.509   4.135  0.2424 -0.6809  0.1321
 1717WAT    EPW 7590   6.851   5.555   4.198  0.3223  0.1184 -0.4208
 1718WAT      O 7591   6.511   4.409   0.888  0.1137 -0.4558 -0.0668
 1718WAT     H1 7592   6.592   4.438   0.871  0.1255  0.3917  1.2543
 1718WAT     H2 7593   6.485   4.459   0.955 -2.1869  0.4618 -1.5285
 1718WAT    EPW 7594   6.519   4.420   0.895 -0.2244 -0.1951 -0.0876
 1719WAT      O 7595   6.911   4.954   3.329 -0.0741 -0.6905  0.3454
 1719WAT     H1 7596   6.908   5.004   3.401  0.5863 -0.9961  0.5953
 1719WAT     H2 7597   6.860   4.886   3.350 -1.9513  0.4094 -0.4417
 1719WAT    EPW 7598   6.903   4.951   3.343 -0.2538 -0.5732  0.2660
 1720WAT      O 7599   5.468   4.948   1.427  0.1589  0.3245 -0.0382
 1720WAT     H1 7600   5.498   4.932   1.347  0.0849 -0.2938  0.0577
 1720WAT     H2 7601   5.397   4.898   1.434 -1.1206  2.0037 -0.3755
 1720WAT    EPW 7602   5.462   4.938   1.416 -0.0410  0.4812 -0.0738
 1721WAT      O 7603   5.350   3.268   3.120 -0.0022 -0.2837  0.1834
 1721WAT     H1 7604   5.316   3.339   3.083  1.3965  0.4589  0.2345
 1721WAT     H2 7605   5.343   3.207   3.059 -1.3043 -0.1345  0.1709
 1721WAT    EPW 7606   5.344   3.269   3.106  0.0120 -0.1519  0.1891
 1722WAT      O 7607   6.834   3.560   2.562  0.5160 -0.4851 -0.6828
 1722WAT     H1 7608   6.879   3.618   2.514  0.2665 -0.0914 -0.4422
 1722WAT     H2 7609   6.852   3.584   2.644 -0.3730 -0.1444 -0.5864
 1722WAT    EPW 7610   6.844   3.572   2.567  0.3478 -0.3766 -0.6330
 1723WAT      O 7611   6.903   3.014   2.669 -0.2019  0.3056 -0.3618
 1723WAT     H1 7612   6.985   3.030   2.644 -0.6741  2.6840 -0.5726
 1723WAT     H2 7613   6.869   2.971   2.601  0.2014  1.4875 -1.3491
 1723WAT    EPW 7614   6.910   3.010   2.655 -0.2121  0.8315 -0.5388
 1724WAT      O 7615   4.822   3.578   3.063  0.7208 -0.2705 -0.2777
 1724WAT     H1 7616   4.776   3.608   2.995  0.8140  0.0234 -0.2136
 1724WAT     H2 7617   4.837   3.650   3.110 -0.8927 -0.7063  0.9903
 1724WAT    EPW 7618   4.817   3.593   3.060  0.4963 -0.2915 -0.0809
 1725WAT      O 7619   5.567   2.758   1.743  0.9192  0.0223 -0.6629
 1725WAT     H1 7620   5.564   2.845   1.739  3.5614  0.1954 -0.5511
 1725WAT     H2 7621   5.600   2.742   1.823 -0.2002 -1.1523 -0.3918
 1725WAT    EPW 7622   5.572   2.768   1.755  1.1442 -0.1257 -0.6063
 1726WAT      O 7623   6.238   4.035   1.302  0.3246 -0.2782  0.5758
 1726WAT     H1 7624   6.252   4.004   1.221  0.2647 -0.0588  0.4822
 1726WAT     H2 7625   6.242   3.963   1.352 -0.8126 -0.6044  0.2465
 1726WAT    EPW 7626   6.240   4.020   1.297  0.1478 -0.2940  0.5133
 1727WAT      O 7627   5.309   4.388   2.654 -0.2412 -0.1109 -0.0573
 1727WAT     H1 7628   5.279   4.418   2.578 -2.1674  2.7734  1.6509
 1727WAT     H2 7629   5.393   4.410   2.653 -0.6808  1.7298 -0.6186
 1727WAT    EPW 7630   5.317   4.396   2.643 -0.5907  0.5871  0.1121
 1728WAT      O 7631   5.630   5.370   3.251 -0.2731 -0.0311  0.0778
 1728WAT     H1 7632   5.594   5.381   3.173 -2.0995 -0.4622  0.8054
 1728WAT     H2 7633   5.654   5.450   3.275  0.7945  0.0298 -1.1200
 1728WAT    EPW 7634   5.628   5.383   3.243 -0.3852 -0.0858  0.0084
 1729WAT      O 7635   7.104   5.487   1.715  0.2947 -0.3962  0.2841
 1729WAT     H1 7636   7.152   5.516   1.648 -1.8356  0.5000 -0.9337
 1729WAT     H2 7637   7.076   5.560   1.753 -1.9426 -0.8089 -0.4390
 1729WAT    EPW 7638   7.107   5.502   1.711 -0.3505 -0.3248 -0.0026
 1730WAT      O 7639   6.911   5.096   1.354  0.5420  0.5098  0.0137
 1730WAT     H1 7640   6.824   5.092   1.367  0.7189  0.6137  1.2923
 1730WAT     H2 7641   6.932   5.176   1.380  1.2162  0.0469  0.9309
 1730WAT    EPW 7642   6.901   5.107   1.360  0.6678  0.4568  0.3381
 1731WAT      O 7643   4.951   3.587   3.655 -0.4748  0.3168  0.1192
 1731WAT     H1 7644   4.882   3.601   3.603  0.6880  0.0023 -1.5694
 1731WAT     H2 7645   4.984   3.512   3.627  0.3219  0.2346  1.2042
 1731WAT    EPW 7646   4.945   3.578   3.643 -0.1853  0.2582  0.0300
 1732WAT      O 7647   5.601   4.465   2.684 -0.4441  0.1350  0.5040
 1732WAT     H1 7648   5.624   4.457   2.600 -2.4793 -1.1642  0.0024
 1732WAT     H2 7649   5.669   4.507   2.720  1.2276 -0.7637 -1.4253
 1732WAT    EPW 7650   5.614   4.470   2.677 -0.4978 -0.1897  0.1449
 1733WAT      O 7651   6.525   1.675   3.992  0.6836 -0.0021  0.0765
 1733WAT     H1 7652   6.516   1.751   3.951 -0.7089 -0.3810 -0.3844
 1733WAT     H2 7653   6.455   1.671   4.044  0.6859 -0.9953  0.0255
 1733WAT    EPW 7654   6.513   1.686   3.994  0.4782 -0.2048  0.0008
 1734WAT      O 7655   6.415   4.641   3.011  0.0000 -0.4506  0.0453
 1734WAT     H1 7656   6.337   4.624   2.978  0.3009  0.2427 -1.0673
 1734WAT     H2 7657   6.405   4.623   3.096 -1.6311  0.4713  0.1029
 1734WAT    EPW 7658   6.402   4.636   3.019 -0.1965 -0.2120 -0.1106
 1735WAT      O 7659   5.933   3.042   3.517  0.2901  0.1008  0.4827
 1735WAT     H1 7660   5.965   3.033   3.598  0.4034  0.1730  0.4459
 1735WAT     H2 7661   5.964   3.119   3.491  0.9424 -0.2986  0.0564
 1735WAT    EPW 7662   5.942   3.052   3.525  0.4032  0.0525  0.4143
 1736WAT      O 7663   5.530   2.571   2.869  0.0210 -0.0176  0.0265
 1736WAT     H1 7664   5.480   2.564   2.940 -2.2462 -1.9238 -1.6172
 1736WAT     H2 7665   5.549   2.656   2.865 -1.3952  0.4334  1.8619
 1736WAT    EPW 7666   5.525   2.582   2.879 -0.5231 -0.2325  0.0548
 1737WAT      O 7667   6.040   4.713   2.369  0.1600  0.6399 -0.0329
 1737WAT     H1 7668   6.004   4.666   2.306 -1.2128 -0.1378  1.2572
 1737WAT     H2 7669   5.983   4.778   2.382 -0.0586  0.2746  0.9810
 1737WAT    EPW 7670   6.026   4.716   2.362 -0.0751  0.4710  0.3075
 1738WAT      O 7671   5.759   3.621   3.949  0.3205  0.5624 -0.5931
 1738WAT     H1 7672   5.788   3.675   4.010 -1.3685  1.3109 -0.4068
 1738WAT     H2 7673   5.773   3.664   3.874 -0.4234  1.0068 -0.4892
 1738WAT    EPW 7674   5.765   3.635   3.947 -0.0389  0.7386 -0.5502
 1739WAT      O 7675   5.754   3.238   1.943  0.7733  0.5768  0.1626
 1739WAT     H1 7676   5.775   3.198   1.869  1.9347  0.6961  0.3990
 1739WAT     H2 7677   5.735   3.173   1.998 -0.3129  0.4988 -0.2890
 1739WAT    EPW 7678   5.754   3.222   1.940  0.7844  0.5829  0.1308
 1740WAT      O 7679   5.422   4.209   2.097  0.2832  0.1667 -0.3506
 1740WAT     H1 7680   5.346   4.168   2.089  0.8975 -0.9624 -0.7374
 1740WAT     H2 7681   5.473   4.169   2.038  0.4110  2.8207 -2.2090
 1740WAT    EPW 7682   5.418   4.197   2.087  0.3928  0.3920 -0.6823
 1741WAT      O 7683   6.247   4.535   3.902  0.7080 -0.1854  0.5585
 1741WAT     H1 7684   6.188   4.530   3.967  0.6320  0.1386  0.5182
 1741WAT     H2 7685   6.292   4.461   3.909  0.6774 -0.1705  0.9625
 1741WAT    EPW 7686   6.245   4.524   3.913  0.6922 -0.1353  0.6122
 1742WAT      O 7687   5.508   5.566   4.154 -0.4231  0.2639 -0.7217
 1742WAT     H1 7688   5.560   5.608   4.210 -0.1954 -2.2973  1.1676
 1742WAT     H2 7689   5.526   5.482   4.169 -4.3463 -0.7576 -0.6674
 1742WAT    EPW 7690   5.519   5.560   4.165 -0.9690 -0.2653 -0.4346
 1743WAT      O 7691   5.475   3.681   3.727 -0.0695  0.6401  0.4222
 1743WAT     H1 7692   5.435   3.719   3.794  3.0385 -0.9688  3.5119
 1743WAT     H2 7693   5.435   3.604   3.720  0.6243  0.1422  1.6492
 1743WAT    EPW 7694   5.463   3.675   3.736  0.4921  0.3289  1.0598
 1744WAT      O 7695   6.930   4.284   3.558  0.1356  0.5180  0.0764
 1744WAT     H1 7696   6.869   4.228   3.531  2.0016 -1.0588 -1.1079
 1744WAT     H2 7697   6.921   4.352   3.504 -1.4778  0.9944  0.8754
 1744WAT    EPW 7698   6.920   4.286   3.546  0.1729  0.3554  0.0195
 1745WAT      O 7699   6.489   5.281   1.594 -0.5078  0.0531 -0.2449
 1745WAT     H1 7700   6.538   5.337   1.548 -0.7911 -0.2382 -0.9034
 1745WAT     H2 7701   6.517   5.203   1.569 -1.8797 -0.1464 -1.2966
 1745WAT    EPW 7702   6.500   5.278   1.584 -0.7523 -0.0194 -0.4976
 1746WAT      O 7703   6.368   3.045   3.404 -0.4868 -0.3060 -0.4017
 1746WAT     H1 7704   6.431   3.019   3.458 -0.1962 -2.6159 -1.7048
 1746WAT     H2 7705   6.309   2.980   3.409 -1.6117  0.6197 -1.0471
 1746WAT    EPW 7706   6.368   3.031   3.413 -0.6100 -0.5105 -0.6895
 1747WAT      O 7707   5.669   3.051   2.383  0.8626  0.1316  0.1827
 1747WAT     H1 7708   5.665   3.076   2.300 -0.2008  1.4345  0.5929
 1747WAT     H2 7709   5.642   2.968   2.381  1.2914  0.0030 -0.8164
 1747WAT    EPW 7710   5.665   3.042   2.371  0.7689  0.3051  0.0957
 1748WAT      O 7711   5.741   4.334   3.582 -0.0586 -0.4918 -1.1134
 1748WAT     H1 7712   5.658   4.324   3.559 -0.5638  0.1159  0.3119
 1748WAT     H2 7713   5.785   4.293   3.519 -1.4154 -0.6469 -2.0072
 1748WAT    EPW 7714   5.735   4.327   3.569 -0.3336 -0.4250 -1.0349
 1749WAT      O 7715   6.644   5.201   2.722  0.2941  0.1908  0.3242
 1749WAT     H1 7716   6.690   5.152   2.666 -0.6399  1.0499 -1.2660
 1749WAT     H2 7717   6.565   5.163   2.722  0.4806 -0.2380  1.6673
 1749WAT    EPW 7718   6.639   5.188   2.713  0.1837  0.2544  0.2877
 1750WAT      O 7719   6.126   3.654   3.596 -0.0102 -0.7160  0.0140
 1750WAT     H1 7720   6.121   3.737   3.622 -1.0571 -1.0819  1.0301
 1750WAT     H2 7721   6.166   3.660   3.518 -0.1875  0.7414  0.0027
 1750WAT    EPW 7722   6.131   3.668   3.588 -0.1910 -0.5548  0.1624
 1751WAT      O 7723   5.721   2.460   0.753  0.1975  0.0346  0.8855
 1751WAT     H1 7724   5.733   2.491   0.672 -1.4610  1.9096  1.2713
 1751WAT     H2 7725   5.765   2.384   0.753 -1.9857 -1.4669 -2.6519
 1751WAT    EPW 7726   5.730   2.453   0.741 -0.3700  0.0898  0.4199
 1752WAT      O 7727   6.612   4.124   2.496  0.4388  0.4804  1.0194
 1752WAT     H1 7728   6.581   4.189   2.447  0.5779 -0.9450 -1.0797
 1752WAT     H2 7729   6.586   4.145   2.577 -0.6220  2.4513  0.2304
 1752WAT    EPW 7730   6.604   4.137   2.501  0.3026  0.5610  0.5928
 1753WAT      O 7731   6.060   3.830   2.546  0.2881 -0.2177 -0.0911
 1753WAT     H1 7732   6.063   3.756   2.500 -0.6637  0.2788 -0.9968
 1753WAT     H2 7733   6.037   3.890   2.487 -1.2661  0.3859  1.0425
 1753WAT    EPW 7734   6.057   3.828   2.531 -0.0821 -0.0552 -0.0574
 1754WAT      O 7735   7.332   3.368   0.768 -0.3831 -0.4221 -0.5103
 1754WAT     H1 7736   7.395   3.418   0.800 -0.5960 -0.3637 -0.1649
 1754WAT     H2 7737   7.324   3.305   0.827 -0.8392 -0.2703 -0.3999
 1754WAT    EPW 7738   7.340   3.366   0.781 -0.4819 -0.3910 -0.4429
 1755WAT      O 7739   7.136   5.229   3.022 -0.0843 -0.3215 -0.0897
 1755WAT     H1 7740   7.107   5.243   2.941 -0.7683 -0.0557  0.1933
 1755WAT     H2 7741   7.123   5.144   3.034  2.1116 -0.8700 -1.0497
 1755WAT    EPW 7742   7.130   5.219   3.012  0.1390 -0.3632 -0.1897
 1756WAT      O 7743   6.780   2.884   2.460  0.2002 -0.0690  0.0253
 1756WAT     H1 7744   6.695   2.900   2.450  0.2599  0.0754 -0.2691
 1756WAT     H2 7745   6.786   2.797   2.449  0.1885  0.0147 -0.7308
 1756WAT    EPW 7746   6.769   2.873   2.457  0.2073 -0.0353 -0.1299
 1757WAT      O 7747   5.582   3.391   4.016  0.4756 -0.0064  0.2774
 1757WAT     H1 7748   5.555   3.370   3.935 -1.3886 -0.2250  0.9064
 1757WAT     H2 7749   5.646   3.449   4.002 -0.3658  0.5922 -1.3469
 1757WAT    EPW 7750   5.587   3.396   4.002  0.0759  0.0497  0.1304
 1758WAT      O 7751   6.786   3.580   4.070  0.5880 -0.0969 -0.2874
 1758WAT     H1 7752   6.719   3.529   4.094  0.1293  0.4909 -0.3078
 1758WAT     H2 7753   6.784   3.576   3.983  1.3360 -1.0411 -0.2797
 1758WAT    EPW 7754   6.776   3.572   4.061  0.6308 -0.1495 -0.2893
 1759WAT      O 7755   6.444   4.036   3.439 -0.8351  0.1839  0.3411
 1759WAT     H1 7756   6.457   4.013   3.356  0.7824 -1.5065  0.9980
 1759WAT     H2 7757   6.418   3.962   3.477  1.3741  0.1177  1.9026
 1759WAT    EPW 7758   6.442   4.022   3.433 -0.2698 -0.0756  0.6688
 1760WAT      O 7759   6.812   4.479   3.373  0.0267  0.3754 -0.7977
 1760WAT     H1 7760   6.809   4.564   3.389  0.5012  0.0445  1.4979
 1760WAT     H2 7761   6.737   4.449   3.407  0.1639 -0.1989 -0.9897
 1760WAT    EPW 7762   6.801   4.487   3.380  0.1171  0.2417 -0.4869
 1761WAT      O 7763   6.899   2.139   0.901  0.6452 -0.4857 -0.4729
 1761WAT     H1 7764   6.818   2.109   0.911  1.1280 -1.7313 -0.1231
 1761WAT     H2 7765   6.904   2.206   0.956  0.3866 -1.4936  0.8082
 1761WAT    EPW 7766   6.888   2.144   0.910  0.6783 -0.8186 -0.2320
 1762WAT      O 7767   5.165   3.721   2.589  0.0048  0.6162  0.1440
 1762WAT     H1 7768   5.123   3.789   2.553  2.3711  2.2025  0.1250
 1762WAT     H2 7769   5.128   3.652   2.551 -2.0530  1.8828 -0.3668
 1762WAT    EPW 7770   5.153   3.721   2.578  0.0504  1.0376  0.0658
 1763WAT      O 7771   5.934   3.461   3.035  0.0136  0.0488 -0.5184
 1763WAT     H1 7772   5.916   3.398   3.093 -2.4542 -0.4341 -1.6323
 1763WAT     H2 7773   5.869   3.453   2.977  2.2763  0.4915 -3.3623
 1763WAT    EPW 7774   5.921   3.450   3.035 -0.0167  0.0428 -1.1030
 1764WAT      O 7775   5.381   2.850   2.217  0.3258 -0.4989 -0.2483
 1764WAT     H1 7776   5.326   2.905   2.176 -0.1551 -0.1019  0.9079
 1764WAT     H2 7777   5.350   2.771   2.197  0.9635 -0.3815 -1.8492
 1764WAT    EPW 7778   5.368   2.847   2.208  0.3490 -0.4229 -0.3140
 1765WAT      O 7779   7.061   3.043   0.894 -0.4725  1.0522  0.2048
 1765WAT     H1 7780   7.035   3.126   0.906  0.0507  0.9992  1.8976
 1765WAT     H2 7781   7.000   2.996   0.935 -0.7562  0.5821 -0.7360
 1765WAT    EPW 7782   7.048   3.048   0.902 -0.4371  0.9749  0.3159
 1766WAT      O 7783   5.057   3.923   4.061 -0.0874 -0.4252 -0.2616
 1766WAT     H1 7784   5.063   3.929   3.974  0.3202 -0.0652 -0.2134
 1766WAT     H2 7785   5.095   3.847   4.079 -0.5913 -0.7232 -0.4361
 1766WAT    EPW 7786   5.064   3.913   4.050 -0.1016 -0.4160 -0.2803
 1767WAT      O 7787   6.575   5.028   2.239 -0.5756  0.3862  0.1444
 1767WAT     H1 7788   6.552   4.999   2.317  1.8870 -0.4427  0.6388
 1767WAT     H2 7789   6.645   5.078   2.255  0.7667 -0.7984 -1.5861
 1767WAT    EPW 7790   6.582   5.031   2.253 -0.0136  0.0887 -0.0382
 1768WAT      O 7791   5.856   3.630   2.437  0.1464  0.0139 -0.1123
 1768WAT     H1 7792   5.870   3.568   2.497 -2.6260  1.2281  2.0024
 1768WAT     H2 7793   5.785   3.602   2.394 -0.3825  1.0917  0.0258
 1768WAT    EPW 7794   5.848   3.616   2.440 -0.3413  0.3525  0.2205
 1769WAT      O 7795   7.023   3.429   1.403 -0.3368  0.2816  0.4377
 1769WAT     H1 7796   6.943   3.397   1.395  0.4096 -1.2960 -1.1622
 1769WAT     H2 7797   7.075   3.360   1.393  1.2929  1.6395 -1.2623
 1769WAT    EPW 7798   7.019   3.414   1.400  0.0142  0.2492 -0.0498
 1770WAT      O 7799   5.438   4.102   3.260  0.2412  0.4530 -0.0894
 1770WAT     H1 7800   5.362   4.063   3.277  0.1288  0.4910 -0.4985
 1770WAT     H2 7801   5.497   4.041   3.281  0.1188  0.5959  0.6835
 1770WAT    EPW 7802   5.435   4.087   3.265  0.2065  0.4797 -0.0357
 1771WAT      O 7803   5.513   5.193   2.565  0.2410 -0.3275  0.0697
 1771WAT     H1 7804   5.516   5.142   2.495 -0.7700 -0.2502 -0.0502
 1771WAT     H2 7805   5.431   5.181   2.595  0.4601  0.1141  0.8653
 1771WAT    EPW 7806   5.501   5.184   2.559  0.1241 -0.2509  0.1695
 1772WAT      O 7807   6.525   4.914   2.967  0.3930 -0.1352  0.7651
 1772WAT     H1 7808   6.490   4.836   2.981  0.5593 -0.1703  0.9972
 1772WAT     H2 7809   6.611   4.900   2.978  0.5558 -0.2124 -0.5171
 1772WAT    EPW 7810   6.533   4.901   2.971  0.4416 -0.1518  0.6100
 1773WAT      O 7811   6.933   5.011   1.102 -0.1221 -0.3996 -0.1704
 1773WAT     H1 7812   6.914   4.926   1.103  3.3141 -1.3130 -0.7616
 1773WAT     H2 7813   6.936   5.033   1.187 -0.8657 -0.8705 -0.0155
 1773WAT    EPW 7814   6.930   5.002   1.115  0.2757 -0.6041 -0.2349
 1774WAT      O 7815   6.744   3.655   1.815  0.4227  0.2030  0.5512
 1774WAT     H1 7816   6.746   3.735   1.850 -1.0393  0.0921  0.9760
 1774WAT     H2 7817   6.800   3.660   1.748  0.9195  1.3460  1.0272
 1774WAT    EPW 7818   6.752   3.667   1.810  0.2801  0.3555  0.6842
 1775WAT      O 7819   7.144   3.224   1.282  0.7860  0.4261 -0.2417
 1775WAT     H1 7820   7.086   3.158   1.276  1.2564  0.1004 -1.6233
 1775WAT     H2 7821   7.177   3.229   1.201 -0.0568  3.1296 -0.4983
 1775WAT    EPW 7822   7.140   3.215   1.269  0.7310  0.7774 -0.4837
 1776WAT      O 7823   5.371   5.541   2.648 -0.7019 -0.4611  0.0673
 1776WAT     H1 7824   5.359   5.495   2.574 -1.3141  2.0262 -1.4847
 1776WAT     H2 7825   5.307   5.512   2.700 -0.6500 -1.8329 -0.5834
 1776WAT    EPW 7826   5.360   5.530   2.645 -0.7847 -0.2963 -0.2581
 1777WAT      O 7827   5.277   3.511   3.605  0.1473  0.7199 -0.7232
 1777WAT     H1 7828   5.276   3.424   3.616  1.0073  0.8897  1.0615
 1777WAT     H2 7829   5.307   3.521   3.523 -0.3775 -0.6455 -1.1131
 1777WAT    EPW 7830   5.281   3.499   3.594  0.1968  0.5433 -0.5172
 1778WAT      O 7831   6.371   2.673   4.321 -0.0521  0.0037  0.2652
 1778WAT     H1 7832   6.330   2.733   4.368 -1.2241 -0.6197  0.0833
 1778WAT     H2 7833   6.370   2.706   4.240 -0.4471 -0.1215  0.2149
 1778WAT    EPW 7834   6.365   2.687   4.316 -0.2836 -0.1069  0.2309
 1779WAT      O 7835   5.261   4.019   2.633 -0.4340 -0.4466  0.5655
 1779WAT     H1 7836   5.213   4.081   2.672 -2.1732 -0.7214 -0.9870
 1779WAT     H2 7837   5.274   3.960   2.696 -1.1157  0.2044  1.3354
 1779WAT    EPW 7838   5.256   4.020   2.648 -0.7916 -0.3910  0.4499
 1780WAT      O 7839   6.254   1.648   2.989 -0.6852  0.2684  0.0289
 1780WAT     H1 7840   6.305   1.714   2.963 -0.4152  0.7768  1.7355
 1780WAT     H2 7841   6.189   1.688   3.033 -0.0317 -0.6002  1.8961
 1780WAT    EPW 7842   6.252   1.664   2.992 -0.5487  0.2152  0.5569
 1781WAT      O 7843   5.097   2.679   2.436 -0.6300 -0.0839 -0.2628
 1781WAT     H1 7844   5.106   2.676   2.349 -0.2738  0.1990 -0.2396
 1781WAT     H2 7845   5.064   2.601   2.456  0.2181 -0.5290 -0.5452
 1781WAT    EPW 7846   5.094   2.667   2.426 -0.4521 -0.1079 -0.3011
 1782WAT      O 7847   6.487   3.820   3.767 -0.1260  0.1787 -0.3197
 1782WAT     H1 7848   6.460   3.773   3.699 -2.7055 -0.8486  1.2781
 1782WAT     H2 7849   6.541   3.766   3.809 -1.5832 -0.7315  0.4728
 1782WAT    EPW 7850   6.491   3.805   3.763 -0.7223 -0.1075  0.0334
 1783WAT      O 7851   6.024   4.067   2.367  0.2514  0.2318  0.4716
 1783WAT     H1 7852   6.101   4.108   2.360 -0.0389  0.8534  0.8561
 1783WAT     H2 7853   5.981   4.115   2.426 -0.6753  0.2636 -0.2168
 1783WAT    EPW 7854   6.029   4.080   2.375  0.0716  0.3283  0.4267
 1784WAT      O 7855   5.567   3.222   3.789 -0.5135 -0.1240  0.3946
 1784WAT     H1 7856   5.510   3.169   3.829  1.2622 -2.2418  0.3027
 1784WAT     H2 7857   5.527   3.241   3.714 -0.9235 -2.0841  0.0498
 1784WAT    EPW 7858   5.553   3.217   3.784 -0.3118 -0.7264  0.3301
 1785WAT      O 7859   5.704   4.407   2.434  0.4639  0.4323 -0.2092
 1785WAT     H1 7860   5.733   4.460   2.370  0.6365 -0.3008 -0.7656
 1785WAT     H2 7861   5.633   4.370   2.399  1.2186 -0.8629 -0.4778
 1785WAT    EPW 7862   5.698   4.409   2.419  0.6009  0.1327 -0.3311
 1786WAT      O 7863   6.912   4.218   2.524  0.0012 -0.1263  0.2660
 1786WAT     H1 7864   6.951   4.232   2.447  0.8466 -1.1378  0.4804
 1786WAT     H2 7865   6.829   4.236   2.508  0.1456 -0.3881 -0.9199
 1786WAT    EPW 7866   6.906   4.222   2.510  0.1474 -0.3144  0.1225
 1787WAT      O 7867   5.183   2.618   3.238  0.1727  0.5146 -0.1850
 1787WAT     H1 7868   5.115   2.668   3.261 -0.3455 -0.1763 -0.1672
 1787WAT     H2 7869   5.162   2.540   3.270  0.7348  0.1744 -0.6289
 1787WAT    EPW 7870   5.170   2.614   3.246  0.1792  0.3623 -0.2480
 1788WAT      O 7871   6.767   5.115   4.104  0.2331  0.5653  0.0664
 1788WAT     H1 7872   6.808   5.041   4.084  0.1537  0.4091  0.4882
 1788WAT     H2 7873   6.737   5.101   4.185 -0.1146  0.9093 -0.0005
 1788WAT    EPW 7874   6.769   5.102   4.113  0.1700  0.5930  0.1189
 1789WAT      O 7875   5.931   4.252   2.578  0.3309  0.0750 -0.0172
 1789WAT     H1 7876   5.862   4.277   2.531  1.4131 -0.8156 -2.2512
 1789WAT     H2 7877   5.896   4.202   2.640 -1.0902  0.2132 -0.6622
 1789WAT    EPW 7878   5.916   4.248   2.580  0.2809 -0.0361 -0.4425
 1790WAT      O 7879   6.272   4.010   3.901 -0.0384 -0.6609 -0.1115
 1790WAT     H1 7880   6.359   4.010   3.898  0.0367  1.7732 -0.1537
 1790WAT     H2 7881   6.254   4.006   3.987  0.0481 -2.0455 -0.1368
 1790WAT    EPW 7882   6.282   4.010   3.914 -0.0146 -0.5059 -0.1215
 1791WAT      O 7883   5.622   2.672   2.009  0.0066 -0.8230  0.6064
 1791WAT     H1 7884   5.690   2.715   2.043 -0.0719 -0.9019  0.8639
 1791WAT     H2 7885   5.584   2.635   2.078 -1.3960  0.7455  0.7685
 1791WAT    EPW 7886   5.626   2.673   2.024 -0.2122 -0.6030  0.6684
 1792WAT      O 7887   5.005   3.049   3.094 -0.1362  0.3282 -0.0470
 1792WAT     H1 7888   5.021   3.131   3.072 -0.8492  0.2842 -0.7803
 1792WAT     H2 7889   4.918   3.047   3.104 -0.0878 -0.2505  0.3249
 1792WAT    EPW 7890   4.995   3.061   3.093 -0.2344  0.2362 -0.1004
 1793WAT      O 7891   6.881   1.452   4.201  0.7240  0.7171  0.2455
 1793WAT     H1 7892   6.848   1.417   4.129  4.3116 -0.7296 -0.8877
 1793WAT     H2 7893   6.890   1.537   4.181  1.2516  0.4094 -0.8879
 1793WAT    EPW 7894   6.878   1.460   4.187  1.3319  0.4579 -0.0893
 1794WAT      O 7895   4.850   6.197   3.272  0.4142 -0.3971  0.0555
 1794WAT     H1 7896   4.843   6.215   3.357 -2.3442 -0.9300  0.0348
 1794WAT     H2 7897   4.838   6.110   3.269 -2.2841 -0.0737 -0.9967
 1794WAT    EPW 7898   4.848   6.187   3.284 -0.3919 -0.4280 -0.1030
 1795WAT      O 7899   5.643   2.825   2.807  0.7172 -0.9128 -0.1614
 1795WAT     H1 7900   5.679   2.857   2.879  0.9514 -3.3633  0.9131
 1795WAT     H2 7901   5.711   2.795   2.761  0.5098 -0.0087 -1.0826
 1795WAT    EPW 7902   5.658   2.825   2.811  0.7211 -1.1412 -0.1388
 1796WAT      O 7903   6.592   3.439   2.261 -0.3034 -0.0462 -0.0256
 1796WAT     H1 7904   6.620   3.516   2.230 -2.5081  1.5861  1.6964
 1796WAT     H2 7905   6.597   3.449   2.348 -0.3338 -2.0062  0.2406
 1796WAT    EPW 7906   6.597   3.452   2.269 -0.6336 -0.0946  0.2681
 1797WAT      O 7907   7.251   4.739   1.876  0.3869 -0.3223  0.3552
 1797WAT     H1 7908   7.262   4.733   1.789  0.4757 -0.3512  0.3692
 1797WAT     H2 7909   7.220   4.820   1.886 -0.5591 -0.6459  0.1972
 1797WAT    EPW 7910   7.248   4.750   1.865  0.2603 -0.3744  0.3340
 1798WAT      O 7911   6.822   5.132   2.346 -0.1872  0.1324  0.4700
 1798WAT     H1 7912   6.842   5.198   2.398  0.1584 -0.4518  1.0881
 1798WAT     H2 7913   6.835   5.061   2.395 -1.8409 -0.3538  0.2557
 1798WAT    EPW 7914   6.827   5.131   2.361 -0.3804 -0.0258  0.5297
 1799WAT      O 7915   6.727   4.154   1.292 -0.5322 -0.4121 -0.7764
 1799WAT     H1 7916   6.667   4.127   1.350 -0.8951  2.5113  0.3683
 1799WAT     H2 7917   6.684   4.155   1.216 -1.2718 -0.4423 -0.3661
 1799WAT    EPW 7918   6.712   4.150   1.289 -0.6951  0.0153 -0.5467
 1800WAT      O 7919   5.571   5.157   2.963  0.1924 -0.2505 -0.2763
 1800WAT     H1 7920   5.527   5.083   2.977  1.7765 -1.2228 -0.2477
 1800WAT     H2 7921   5.653   5.138   2.987  1.0452  0.9383 -2.0005
 1800WAT    EPW 7922   5.577   5.144   2.969  0.5524 -0.2185 -0.5268
 1801WAT      O 7923   6.749   5.480   0.693  0.5558 -0.2019 -0.1933
 1801WAT     H1 7924   6.804   5.420   0.663 -0.0097 -1.0656  0.4570
 1801WAT     H2 7925   6.671   5.443   0.684  0.3908 -1.0090  3.2514
 1801WAT    EPW 7926   6.746   5.466   0.687  0.4479 -0.4487  0.4116
 1802WAT      O 7927   7.212   4.725   1.582 -0.4569 -0.1046 -0.0676
 1802WAT     H1 7928   7.254   4.725   1.506 -0.7014 -0.1436 -0.2036
 1802WAT     H2 7929   7.173   4.803   1.585 -1.2277 -0.4634 -0.4204
 1802WAT    EPW 7930   7.212   4.736   1.571 -0.6068 -0.1634 -0.1398
 1803WAT      O 7931   6.213   3.263   4.426 -0.6140 -0.0711  0.2833
 1803WAT     H1 7932   6.169   3.218   4.365 -0.0292  0.5293 -0.5992
 1803WAT     H2 7933   6.184   3.228   4.501 -2.4246  0.1645 -0.2560
 1803WAT    EPW 7934   6.202   3.251   4.428 -0.7951  0.0524  0.0733
 1804WAT      O 7935   6.521   4.247   4.141 -0.0716  0.0706  0.2420
 1804WAT     H1 7936   6.556   4.178   4.182  1.2233  0.7665  0.3771
 1804WAT     H2 7937   6.584   4.308   4.147  0.2652  0.1902 -2.8557
 1804WAT    EPW 7938   6.536   4.246   4.148  0.1695  0.1911 -0.1956
 1805WAT      O 7939   6.621   2.734   3.149  0.4567  0.0974  0.2386
 1805WAT     H1 7940   6.651   2.719   3.069  0.4591  0.9442  0.0716
 1805WAT     H2 7941   6.535   2.741   3.139  0.2642 -1.3401  0.5679
 1805WAT    EPW 7942   6.613   2.733   3.136  0.4286  0.0102  0.2626
 1806WAT      O 7943   6.201   1.953   2.263  0.0403  0.2398  0.4188
 1806WAT     H1 7944   6.245   2.024   2.287  1.2041  0.1851 -1.3549
 1806WAT     H2 7945   6.210   1.951   2.176 -1.2544 -1.2437  0.2637
 1806WAT    EPW 7946   6.209   1.963   2.253  0.0210  0.0125  0.1339
 1807WAT      O 7947   6.959   3.742   2.140  0.1847 -0.2017  0.1918
 1807WAT     H1 7948   7.042   3.720   2.157 -0.2036 -1.2741  0.8003
 1807WAT     H2 7949   6.921   3.738   2.219 -0.7296 -0.9886 -0.2770
 1807WAT    EPW 7950   6.966   3.738   2.154 -0.0077 -0.4764  0.2124
 1808WAT      O 7951   5.972   2.634   3.248 -0.0493 -0.6279  0.0653
 1808WAT     H1 7952   6.030   2.649   3.184  2.1940 -2.5796  1.4939
 1808WAT     H2 7953   6.021   2.632   3.320 -2.2443 -0.3144  1.6521
 1808WAT    EPW 7954   5.988   2.636   3.249 -0.0422 -0.8699  0.5107
 1809WAT      O 7955   5.659   3.049   2.103  0.0462  0.2344 -0.0717
 1809WAT     H1 7956   5.578   3.022   2.084 -0.1416 -0.1137  1.1008
 1809WAT     H2 7957   5.703   2.975   2.116  0.0885  0.4325  1.0183
 1809WAT    EPW 7958   5.653   3.034   2.102  0.0247  0.2122  0.2625
 1810WAT      O 7959   5.927   5.313   3.286 -0.1250  0.2824  0.7018
 1810WAT     H1 7960   5.991   5.325   3.227 -2.2830 -0.1325 -1.9246
 1810WAT     H2 7961   5.905   5.394   3.309 -0.3526  0.5429 -0.3788
 1810WAT    EPW 7962   5.933   5.327   3.281 -0.4774  0.2596  0.1542
 1811WAT      O 7963   4.981   2.428   2.493 -0.1667  0.7304  0.3752
 1811WAT     H1 7964   4.895   2.418   2.487 -0.1604  1.0509 -0.3285
 1811WAT     H2 7965   5.012   2.347   2.487 -0.3599  0.7202 -0.5666
 1811WAT    EPW 7966   4.973   2.415   2.492 -0.1943  0.7763  0.1322
 1812WAT      O 7967   6.413   3.013   3.106 -0.1833 -0.2541  0.0495
 1812WAT     H1 7968   6.435   3.009   3.190 -0.5679 -0.8703  0.1259
 1812WAT     H2 7969   6.345   3.068   3.105 -0.7692 -0.9543  0.2797
 1812WAT    EPW 7970   6.406   3.021   3.118 -0.3267 -0.4485  0.0948
 1813WAT      O 7971   5.756   6.076   1.669 -0.2902 -0.1623 -0.0263
 1813WAT     H1 7972   5.705   6.145   1.656  1.1966  1.0901  0.4499
 1813WAT     H2 7973   5.717   6.012   1.624 -1.6486  1.0013 -0.5600
 1813WAT    EPW 7974   5.743   6.077   1.660 -0.2712  0.1946 -0.0348
 1814WAT      O 7975   6.558   4.358   3.681 -0.1206  0.1922 -0.2995
 1814WAT     H1 7976   6.514   4.343   3.754  0.6398  1.7396  0.5257
 1814WAT     H2 7977   6.602   4.284   3.668  0.7797  0.3222  1.6037
 1814WAT    EPW 7978   6.558   4.345   3.690  0.1247  0.4400  0.1035
 1815WAT      O 7979   4.132   2.492   0.863  0.3346  0.0408 -0.0909
 1815WAT     H1 7980   4.044   2.494   0.862  0.2340 -1.9949 -0.3069
 1815WAT     H2 7981   4.154   2.566   0.903 -1.4374  1.1212 -0.9969
 1815WAT    EPW 7982   4.122   2.503   0.869  0.0580 -0.1003 -0.2566
 1816WAT      O 7983   5.558   4.527   1.782  0.1834  0.3991  0.2678
 1816WAT     H1 7984   5.598   4.603   1.796 -0.1850  0.2877  2.2064
 1816WAT     H2 7985   5.577   4.480   1.854 -1.4978 -0.4899  0.1803
 1816WAT    EPW 7986   5.567   4.531   1.795 -0.1193  0.2513  0.5412
 1817WAT      O 7987   6.783   4.432   3.100 -0.5678  0.1013  0.1445
 1817WAT     H1 7988   6.697   4.415   3.096 -0.2439 -1.5601 -1.0730
 1817WAT     H2 7989   6.796   4.455   3.183 -2.5941  3.0030 -0.1822
 1817WAT    EPW 7990   6.772   4.433   3.111 -0.8193  0.2846 -0.0836
 1818WAT      O 7991   5.837   4.536   1.343 -0.1272  0.1216  0.6968
 1818WAT     H1 7992   5.898   4.594   1.367 -1.0172  1.2631  0.2936
 1818WAT     H2 7993   5.820   4.492   1.416  3.1580 -2.2375  0.2863
 1818WAT    EPW 7994   5.844   4.538   1.357  0.2266 -0.0583  0.5766
 1819WAT      O 7995   6.376   3.978   2.197 -0.2414 -0.1124  0.0005
 1819WAT     H1 7996   6.427   3.992   2.128 -0.6190  1.0753 -0.0688
 1819WAT     H2 7997   6.427   3.936   2.254  0.4514  0.0359 -0.5103
 1819WAT    EPW 7998   6.391   3.974   2.195 -0.1948  0.0850 -0.0852
 1820WAT      O 7999   3.556   1.997   1.366 -0.4034  0.5453  0.0620
 1820WAT     H1 8000   3.505   1.944   1.318  2.4083 -1.6860 -0.7332
 1820WAT     H2 8001   3.631   1.999   1.322  0.1473  4.2067  0.8370
 1820WAT    EPW 8002   3.559   1.989   1.352  0.0933  0.7566  0.0590
 1821WAT      O 8003   6.292   3.160   3.688 -0.1174 -0.2186  0.2351
 1821WAT     H1 8004   6.244   3.090   3.667  0.8306 -1.0164  0.6440
 1821WAT     H2 8005   6.335   3.134   3.760 -2.0772  1.8672  2.3330
 1821WAT    EPW 8006   6.291   3.146   3.696 -0.2669 -0.0284  0.6054
 1822WAT      O 8007   5.200   2.673   2.767  0.2840 -0.5561 -0.8119
 1822WAT     H1 8008   5.172   2.706   2.843 -0.9944  0.1307 -1.5376
 1822WAT     H2 8009   5.138   2.698   2.710  0.9491 -1.4790 -1.9889
 1822WAT    EPW 8010   5.187   2.681   2.770  0.1934 -0.5910 -1.0930
 1823WAT      O 8011   5.815   4.046   4.204 -1.4572  0.1078  0.2444
 1823WAT     H1 8012   5.782   4.102   4.146  1.2921 -0.5058 -2.1303
 1823WAT     H2 8013   5.829   4.095   4.275 -0.1789  2.2435 -1.3549
 1823WAT    EPW 8014   5.812   4.061   4.206 -0.8622  0.3326 -0.3427
 1824WAT      O 8015   6.165   3.005   4.095  0.1128 -0.0135  0.4729
 1824WAT     H1 8016   6.149   3.090   4.107 -0.4617 -0.1099  0.4236
 1824WAT     H2 8017   6.089   2.967   4.113 -0.2469 -0.3346 -1.4716
 1824WAT    EPW 8018   6.152   3.012   4.099 -0.0252 -0.0751  0.1784
 1825WAT      O 8019   6.762   4.464   1.903  0.1295 -0.8105 -0.0203
 1825WAT     H1 8020   6.825   4.516   1.873  0.3981 -0.9224  0.3516
 1825WAT     H2 8021   6.689   4.502   1.873  0.3286 -0.3086  0.1204
 1825WAT    EPW 8022   6.760   4.477   1.894  0.1986 -0.7529  0.0554
 1826WAT      O 8023   6.709   4.504   2.564  0.4014  0.0993  0.2111
 1826WAT     H1 8024   6.659   4.504   2.636  0.0424  3.0914  0.0918
 1826WAT     H2 8025   6.652   4.485   2.500 -0.0712  0.8595  0.3826
 1826WAT    EPW 8026   6.693   4.502   2.565  0.2786  0.6536  0.2188
 1827WAT      O 8027   4.966   2.401   1.389  0.1388 -0.4138 -0.1676
 1827WAT     H1 8028   5.045   2.429   1.367 -0.7265  0.9701 -1.6621
 1827WAT     H2 8029   4.951   2.441   1.465  0.4261  0.1886 -0.4225
 1827WAT    EPW 8030   4.976   2.411   1.397  0.0534 -0.1204 -0.4260
 1828WAT      O 8031   6.865   3.999   2.882  0.1531 -0.4038 -0.6400
 1828WAT     H1 8032   6.781   3.975   2.873 -0.2088  1.4835 -3.0433
 1828WAT     H2 8033   6.864   4.085   2.868  2.5378 -0.3584 -0.9169
 1828WAT    EPW 8034   6.853   4.008   2.879  0.4519 -0.1183 -1.0359
 1829WAT      O 8035   6.035   4.935   3.421  0.6400  0.3916 -0.2140
 1829WAT     H1 8036   6.070   4.884   3.483  1.3494 -0.0313 -0.9442
 1829WAT     H2 8037   5.957   4.956   3.454  0.2748 -1.2691  0.0680
 1829WAT    EPW 8038   6.029   4.930   3.435  0.6908  0.0838 -0.2802
 1830WAT      O 8039   6.343   3.758   2.832 -0.0280 -0.7276 -0.1946
 1830WAT     H1 8040   6.275   3.705   2.847 -0.4976 -0.1090 -0.0648
 1830WAT     H2 8041   6.411   3.716   2.867 -0.8345  0.0132  2.5454
 1830WAT    EPW 8042   6.343   3.744   2.840 -0.2165 -0.5268  0.2293
 1831WAT      O 8043   6.530   4.323   3.055 -0.1504 -0.3164 -0.2591
 1831WAT     H1 8044   6.456   4.332   3.010 -0.6630 -0.5848  0.5184
 1831WAT     H2 8045   6.510   4.350   3.135  1.1793  1.6671 -0.5222
 1831WAT    EPW 8046   6.516   4.328   3.060 -0.0297 -0.0630 -0.1831
 1832WAT      O 8047   5.481   3.428   4.684 -0.3309 -0.4831  0.1865
 1832WAT     H1 8048   5.536   3.400   4.622  0.6046 -0.6117  1.0326
 1832WAT     H2 8049   5.440   3.355   4.709 -0.7786 -0.4148 -0.3406
 1832WAT    EPW 8050   5.483   3.413   4.679 -0.2588 -0.4920  0.2336
 1833WAT      O 8051   6.999   5.804   1.244 -0.4429  0.1772  0.5252
 1833WAT     H1 8052   7.008   5.837   1.325  3.1786  1.1789 -0.0821
 1833WAT     H2 8053   6.986   5.719   1.258 -0.6184  0.4350  2.1710
 1833WAT    EPW 8054   6.998   5.796   1.258  0.0662  0.3633  0.6786
 1834WAT      O 8055   6.010   1.575   2.363 -0.3303 -0.4286  0.0315
 1834WAT     H1 8056   6.059   1.601   2.295  2.5943 -3.2838  0.7932
 1834WAT     H2 8057   5.942   1.536   2.325 -1.0895  1.7949 -1.0912
 1834WAT    EPW 8058   6.007   1.573   2.347 -0.0104 -0.5219 -0.0219
 1835WAT      O 8059   6.579   3.866   2.414  0.1840  0.2251  0.7283
 1835WAT     H1 8060   6.508   3.867   2.465  0.2537  1.1534  0.8283
 1835WAT     H2 8061   6.622   3.938   2.437  0.6390  0.2218 -0.0548
 1835WAT    EPW 8062   6.574   3.877   2.425  0.2615  0.3618  0.6274
 1836WAT      O 8063   5.812   3.909   3.065 -0.0718  0.5293  0.1811
 1836WAT     H1 8064   5.848   3.870   2.995 -0.5862  0.0805  0.1554
 1836WAT     H2 8065   5.758   3.848   3.097 -1.0048  1.2573  0.0590
 1836WAT    EPW 8066   5.809   3.894   3.059 -0.2856  0.5705  0.1593
 1837WAT      O 8067   7.070   4.992   3.109 -0.1136  0.0654 -0.4237
 1837WAT     H1 8068   7.141   4.942   3.112 -0.2738 -0.1264  0.2476
 1837WAT     H2 8069   7.025   4.970   3.180 -0.1124  1.2774 -0.0251
 1837WAT    EPW 8070   7.074   4.982   3.120 -0.1371  0.2161 -0.2656
 1838WAT      O 8071   6.611   5.345   3.677  0.2774  0.1472  0.1921
 1838WAT     H1 8072   6.663   5.289   3.719  0.2196 -0.4134 -0.4648
 1838WAT     H2 8073   6.605   5.311   3.597  0.2305  1.0926 -0.2169
 1838WAT    EPW 8074   6.618   5.332   3.671  0.2619  0.2041  0.0346
 1839WAT      O 8075   7.051   2.776   5.145 -0.5781 -0.0953 -0.1142
 1839WAT     H1 8076   7.066   2.698   5.109 -0.2618  0.3991 -1.0916
 1839WAT     H2 8077   7.014   2.822   5.080 -1.2567  0.4107  0.6061
 1839WAT    EPW 8078   7.047   2.772   5.130 -0.6316  0.0525 -0.1522
 1840WAT      O 8079   5.217   4.959   1.851  0.0123 -0.7290  0.6302
 1840WAT     H1 8080   5.182   4.881   1.873 -1.2186  0.0916  1.7786
 1840WAT     H2 8081   5.303   4.945   1.856 -0.1922 -1.9309  1.2025
 1840WAT    EPW 8082   5.224   4.945   1.855 -0.1997 -0.7853  0.8844
 1841WAT      O 8083   5.838   4.191   3.096  0.2606  0.1122 -0.2290
 1841WAT     H1 8084   5.810   4.108   3.096 -0.7301  0.3790  1.7785
 1841WAT     H2 8085   5.789   4.230   3.035  0.2445 -0.6244 -0.6938
 1841WAT    EPW 8086   5.827   4.185   3.087  0.1118  0.0428 -0.0011
 1842WAT      O 8087   6.063   3.268   4.157 -0.0962 -0.0016 -0.4002
 1842WAT     H1 8088   6.061   3.321   4.088 -1.0048  0.2051 -0.2172
 1842WAT     H2 8089   5.985   3.279   4.194  0.4518  0.0477  0.7790
 1842WAT    EPW 8090   6.052   3.277   4.152 -0.1494  0.0362 -0.1990
 1843WAT      O 8091   5.865   2.774   2.147  0.7486  0.5825 -0.0623
 1843WAT     H1 8092   5.855   2.745   2.228 -0.8791  0.2252 -0.3476
 1843WAT     H2 8093   5.905   2.851   2.157  1.3849  0.1289  0.9992
 1843WAT    EPW 8094   5.869   2.781   2.160  0.6021  0.4627  0.0523
 1844WAT      O 8095   6.573   3.901   1.994 -0.1055 -0.3887 -0.4753
 1844WAT     H1 8096   6.626   3.964   1.964 -2.0353  0.9894 -1.1533
 1844WAT     H2 8097   6.522   3.883   1.926 -0.7700 -1.3919  0.2717
 1844WAT    EPW 8098   6.574   3.908   1.980 -0.4887 -0.3333 -0.4651
 1845WAT      O 8099   5.364   3.388   2.567  0.1686 -0.2780 -0.1131
 1845WAT     H1 8100   5.384   3.303   2.576 -0.2429 -0.4198 -0.4665
 1845WAT     H2 8101   5.281   3.391   2.594 -0.7889 -0.5255 -2.7001
 1845WAT    EPW 8102   5.354   3.376   2.572 -0.0337 -0.3355 -0.5475
 1846WAT      O 8103   5.983   2.045   4.149  0.3325  0.3616 -0.4328
 1846WAT     H1 8104   5.963   2.088   4.223  0.8268 -0.3065  0.1060
 1846WAT     H2 8105   5.913   2.059   4.098  0.8628  2.6000 -0.6700
 1846WAT    EPW 8106   5.969   2.054   4.153  0.4838  0.5936 -0.3883
 1847WAT      O 8107   5.859   1.787   2.463  0.2619  0.1149 -0.1236
 1847WAT     H1 8108   5.901   1.713   2.443 -0.2178 -0.3323  0.4949
 1847WAT     H2 8109   5.875   1.839   2.395  0.5525 -0.5798 -0.5930
 1847WAT    EPW 8110   5.868   1.784   2.450  0.2340 -0.0538 -0.1016
 1848WAT      O 8111   6.666   3.112   3.345 -0.5281  0.0848 -0.7410
 1848WAT     H1 8112   6.720   3.126   3.278  1.2413  0.2671  0.6330
 1848WAT     H2 8113   6.701   3.043   3.385 -0.9982  0.5343  0.4972
 1848WAT    EPW 8114   6.679   3.104   3.341 -0.3362  0.1782 -0.3551
 1849WAT      O 8115   6.339   4.851   4.486 -0.0854 -0.7481 -0.0015
 1849WAT     H1 8116   6.293   4.852   4.560  1.0615  0.3984  0.7412
 1849WAT     H2 8117   6.408   4.802   4.505 -1.1059 -2.8621 -1.2593
 1849WAT    EPW 8118   6.342   4.844   4.500 -0.0667 -0.8910 -0.0776
 1850WAT      O 8119   5.932   2.037   4.869 -0.0773  0.0277  0.0454
 1850WAT     H1 8120   5.936   2.010   4.952 -2.6691  2.6029  1.1934
 1850WAT     H2 8121   5.894   1.970   4.828 -0.7725 -0.4596  1.4225
 1850WAT    EPW 8122   5.927   2.023   4.875 -0.5629  0.3361  0.4184
 1851WAT      O 8123   5.571   3.920   2.806 -0.1308 -0.0655  0.1977
 1851WAT     H1 8124   5.518   3.967   2.857 -0.5761 -0.5581  0.1920
 1851WAT     H2 8125   5.574   3.842   2.844 -0.1206 -0.3085 -0.2897
 1851WAT    EPW 8126   5.563   3.916   2.819 -0.1951 -0.1742  0.1248
 1852WAT      O 8127   6.803   2.968   2.190  0.2181 -0.7214  0.9770
 1852WAT     H1 8128   6.739   3.027   2.188  0.2806 -0.6705  0.3258
 1852WAT     H2 8129   6.814   2.953   2.275  0.3951  0.4149  1.1631
 1852WAT    EPW 8130   6.795   2.974   2.202  0.2535 -0.5460  0.9083
 1853WAT      O 8131   6.544   4.602   1.813 -0.0656 -0.3074 -0.7810
 1853WAT     H1 8132   6.490   4.603   1.745 -0.6430 -0.6968 -0.3373
 1853WAT     H2 8133   6.491   4.613   1.881  0.6429  1.4356 -0.4645
 1853WAT    EPW 8134   6.528   4.604   1.813 -0.0462 -0.1075 -0.6687
 1854WAT      O 8135   5.903   2.474   2.544 -0.4274 -0.2548 -0.1042
 1854WAT     H1 8136   5.987   2.476   2.518 -0.1195  0.0860  0.8717
 1854WAT     H2 8137   5.866   2.537   2.496  0.3279  0.9874  0.8658
 1854WAT    EPW 8138   5.910   2.484   2.533 -0.2703 -0.0210  0.1832
 1855WAT      O 8139   5.648   5.048   3.849  0.2071  0.3595  0.1076
 1855WAT     H1 8140   5.601   5.007   3.911  0.6122  0.7358  0.6804
 1855WAT     H2 8141   5.683   5.115   3.892 -1.8852  2.4096 -1.1987
 1855WAT    EPW 8142   5.646   5.052   3.865 -0.0421  0.7180 -0.0008
 1856WAT      O 8143   6.409   5.008   3.504 -0.3486 -0.1670  0.0495
 1856WAT     H1 8144   6.395   5.032   3.587 -2.6965 -0.9926 -0.0482
 1856WAT     H2 8145   6.347   5.051   3.460  0.4675 -0.2516 -1.2214
 1856WAT    EPW 8146   6.398   5.018   3.510 -0.5749 -0.3015 -0.1527
 1857WAT      O 8147   4.968   6.622   3.864 -0.4104 -0.1977  0.1609
 1857WAT     H1 8148   4.883   6.622   3.883 -1.0352 -0.9554 -2.2801
 1857WAT     H2 8149   4.994   6.542   3.889 -0.1049  0.4204  1.9372
 1857WAT    EPW 8150   4.959   6.610   3.871 -0.4575 -0.2183  0.0627
 1858WAT      O 8151   6.311   3.010   4.886  0.1298 -0.5736  0.6485
 1858WAT     H1 8152   6.351   2.937   4.859  1.2800  0.2008  0.1759
 1858WAT     H2 8153   6.376   3.058   4.918 -0.8959 -0.5913  2.9611
 1858WAT    EPW 8154   6.327   3.006   4.887  0.1482 -0.4618  0.9203
 1859WAT      O 8155   6.081   4.349   3.112  0.0917  0.3714  0.0102
 1859WAT     H1 8156   6.066   4.393   3.186  1.7193 -0.7707  1.0986
 1859WAT     H2 8157   6.017   4.289   3.112 -0.1425  0.6135  0.2948
 1859WAT    EPW 8158   6.069   4.346   3.123  0.2975  0.2385  0.2130
 1860WAT      O 8159   6.849   4.745   2.487 -0.2852  0.1750 -0.2650
 1860WAT     H1 8160   6.873   4.730   2.404 -0.6064 -1.0898 -0.1583
 1860WAT     H2 8161   6.819   4.667   2.513  1.0339  0.1910  1.4682
 1860WAT    EPW 8162   6.848   4.731   2.479 -0.1378 -0.0095  0.0068
 1861WAT      O 8163   6.638   2.660   4.346 -0.2289  0.7682 -0.6854
 1861WAT     H1 8164   6.552   2.669   4.339 -0.5299  0.2166  1.4209
 1861WAT     H2 8165   6.656   2.591   4.296 -0.7061  1.8475 -2.4351
 1861WAT    EPW 8166   6.628   2.651   4.338 -0.3438  0.8462 -0.6327
 1862WAT      O 8167   4.808   3.304   2.849  0.0621 -0.2489  0.1635
 1862WAT     H1 8168   4.879   3.326   2.895  0.4454  0.0413 -0.5455
 1862WAT     H2 8169   4.742   3.330   2.899  0.4704  0.0425  0.5563
 1862WAT    EPW 8170   4.809   3.311   2.863  0.1791 -0.1630  0.1168
 1863WAT      O 8171   6.345   1.349   2.758 -0.6828 -0.3892 -0.8899
 1863WAT     H1 8172   6.270   1.387   2.737 -0.9199  0.2052  0.8792
 1863WAT     H2 8173   6.406   1.402   2.725 -1.0201 -0.2523 -1.2993
 1863WAT    EPW 8174   6.343   1.362   2.750 -0.7677 -0.2812 -0.6891
 1864WAT      O 8175   5.717   3.465   2.817  0.2235  0.1462 -0.0008
 1864WAT     H1 8176   5.649   3.521   2.817  0.7496  0.8498  1.9122
 1864WAT     H2 8177   5.678   3.386   2.816 -0.6540  0.5341  1.1945
 1864WAT    EPW 8178   5.701   3.461   2.817  0.1716  0.3075  0.4584
 1865WAT      O 8179   6.921   2.274   4.124 -0.5700 -0.2677  0.0883
 1865WAT     H1 8180   6.875   2.348   4.130 -1.9126 -0.9915 -0.7913
 1865WAT     H2 8181   6.924   2.260   4.038 -0.3096 -1.2266  0.2477
 1865WAT    EPW 8182   6.915   2.283   4.112 -0.7299 -0.5163 -0.0181
 1866WAT      O 8183   5.969   4.490   5.388  0.1399 -0.8009 -0.1367
 1866WAT     H1 8184   6.026   4.526   5.445 -0.1552 -1.0750  0.3388
 1866WAT     H2 8185   5.992   4.406   5.386 -0.5778 -1.0175  0.4635
 1866WAT    EPW 8186   5.981   4.483   5.396 -0.0097 -0.8734  0.0222
 1867WAT      O 8187   5.651   4.049   3.845  0.1413  0.4530 -0.0736
 1867WAT     H1 8188   5.685   3.973   3.818  1.1378  0.7227  0.3736
 1867WAT     H2 8189   5.721   4.101   3.855 -0.5742  1.6656 -1.0597
 1867WAT    EPW 8190   5.667   4.046   3.842  0.1828  0.6720 -0.1532
 1868WAT      O 8191   5.276   3.102   2.865 -0.5043 -0.2772  0.1429
 1868WAT     H1 8192   5.361   3.104   2.845 -1.0452  2.4317 -2.6464
 1868WAT     H2 8193   5.261   3.018   2.884  2.5188 -1.0688 -0.4939
 1868WAT    EPW 8194   5.286   3.090   2.865 -0.1376  0.0061 -0.3632
 1869WAT      O 8195   5.977   5.326   1.729 -0.0119 -0.0835 -0.4310
 1869WAT     H1 8196   6.052   5.368   1.721 -0.0555 -0.1313 -1.0855
 1869WAT     H2 8197   5.982   5.261   1.671  0.5430 -1.7319  1.3297
 1869WAT    EPW 8198   5.989   5.322   1.720  0.0636 -0.3340 -0.2676
 1870WAT      O 8199   5.512   4.302   3.892  0.0702  0.0689 -0.3427
 1870WAT     H1 8200   5.537   4.221   3.912 -0.2183  0.4429  1.6953
 1870WAT     H2 8201   5.434   4.309   3.930 -0.4816  0.9107 -1.5593
 1870WAT    EPW 8202   5.504   4.291   3.900 -0.0539  0.2485 -0.2214
 1871WAT      O 8203   6.724   3.974   3.182  0.4481  0.5386  0.4394
 1871WAT     H1 8204   6.771   3.974   3.109 -0.8800  0.1115 -0.4629
 1871WAT     H2 8205   6.643   3.988   3.154 -0.7552 -3.3454  1.2975
 1871WAT    EPW 8206   6.719   3.976   3.167  0.0742 -0.0982  0.4329
 1872WAT      O 8207   6.574   4.405   1.439 -0.3917  0.2549 -0.1258
 1872WAT     H1 8208   6.639   4.373   1.489 -0.5724  0.5660  0.3056
 1872WAT     H2 8209   6.615   4.427   1.365  0.4444  2.5474  0.9287
 1872WAT    EPW 8210   6.590   4.403   1.435 -0.2949  0.6395  0.0937
 1873WAT      O 8211   6.455   3.046   2.689  0.4357 -0.4182 -0.0069
 1873WAT     H1 8212   6.402   2.985   2.657 -1.9651  1.0963  0.8258
 1873WAT     H2 8213   6.504   3.068   2.620 -2.5943  0.7142 -2.0151
 1873WAT    EPW 8214   6.455   3.041   2.674 -0.3666 -0.0272 -0.1805
 1874WAT      O 8215   5.588   4.531   4.534  0.0638  0.0386  0.0642
 1874WAT     H1 8216   5.627   4.550   4.609  1.7533 -2.2565 -0.1325
 1874WAT     H2 8217   5.651   4.542   4.475 -1.4641  2.6838 -1.2719
 1874WAT    EPW 8218   5.603   4.535   4.536  0.0877  0.0903 -0.1622
 1875WAT      O 8219   5.843   3.876   2.191  0.1634  0.8037  0.1056
 1875WAT     H1 8220   5.865   3.904   2.270 -1.3224  0.3894  0.7055
 1875WAT     H2 8221   5.756   3.883   2.190  0.2183  1.8555 -1.9104
 1875WAT    EPW 8222   5.834   3.881   2.203 -0.0479  0.8979 -0.1036
 1876WAT      O 8223   6.931   4.436   2.705  0.2942  0.3812 -0.1944
 1876WAT     H1 8224   6.853   4.460   2.673 -0.9206 -0.5172  1.8957
 1876WAT     H2 8225   6.958   4.375   2.649 -0.9178  0.1032 -0.4998
 1876WAT    EPW 8226   6.923   4.430   2.692 -0.0643  0.2074  0.0692
 1877WAT      O 8227   5.877   4.463   4.013 -0.8259 -0.3612  0.2469
 1877WAT     H1 8228   5.922   4.479   4.086 -0.4209  1.1296 -0.2960
 1877WAT     H2 8229   5.828   4.535   4.003  1.1072  0.7668 -2.3734
 1877WAT    EPW 8230   5.876   4.476   4.022 -0.4805  0.0256 -0.2204
 1878WAT      O 8231   6.347   3.250   2.843 -0.3575  0.6697 -0.0720
 1878WAT     H1 8232   6.299   3.305   2.795 -2.1676 -0.1335  0.7242
 1878WAT     H2 8233   6.376   3.192   2.785  1.4505  2.2795 -0.9025
 1878WAT    EPW 8234   6.344   3.250   2.827 -0.3578  0.7888 -0.0770
 1879WAT      O 8235   5.686   4.091   4.925  0.2214 -0.1988 -0.3440
 1879WAT     H1 8236   5.622   4.041   4.893 -1.1939  0.2795  1.5791
 1879WAT     H2 8237   5.750   4.035   4.942 -0.1582 -0.8803 -1.0916
 1879WAT    EPW 8238   5.686   4.076   4.923 -0.0437 -0.2288 -0.1703
 1880WAT      O 8239   5.856   3.200   2.513  0.0095 -0.1232  0.3342
 1880WAT     H1 8240   5.918   3.173   2.458 -0.1787  1.5373 -0.7350
 1880WAT     H2 8241   5.783   3.168   2.478 -0.2268  1.7379 -1.0013
 1880WAT    EPW 8242   5.854   3.191   2.500 -0.0532  0.3970 -0.0211
 1881WAT      O 8243   5.743   3.916   2.494  0.2341  0.3871  0.2039
 1881WAT     H1 8244   5.740   3.829   2.493  0.6852  0.3634 -0.5735
 1881WAT     H2 8245   5.762   3.936   2.576 -0.6966 -0.2098  0.5752
 1881WAT    EPW 8246   5.745   3.907   2.506  0.1633  0.2954  0.1439
 1882WAT      O 8247   6.216   3.432   2.643  0.3059 -0.3870 -0.3709
 1882WAT     H1 8248   6.140   3.439   2.601  0.4615  1.4775 -0.4075
 1882WAT     H2 8249   6.272   3.473   2.591  0.7388  0.9092  1.0463
 1882WAT    EPW 8250   6.213   3.439   2.629  0.3929  0.0799 -0.1670
 1883WAT      O 8251   6.423   2.767   2.092  0.0159 -0.3520 -0.1840
 1883WAT     H1 8252   6.471   2.730   2.154  0.1019  0.6622  0.3836
 1883WAT     H2 8253   6.409   2.848   2.122 -1.4053 -0.3779 -0.6951
 1883WAT    EPW 8254   6.428   2.774   2.106 -0.1813 -0.2060 -0.1756
 1884WAT      O 8255   6.512   3.355   3.405 -0.1404 -0.2252  0.2089
 1884WAT     H1 8256   6.432   3.335   3.376 -0.2461  0.0087  0.3277
 1884WAT     H2 8257   6.557   3.281   3.396  0.5129  0.3789 -2.7878
 1884WAT    EPW 8258   6.507   3.341   3.399 -0.0595 -0.1014 -0.2163
 1885WAT      O 8259   6.040   3.669   3.217 -0.1604 -0.3767  0.0478
 1885WAT     H1 8260   6.023   3.618   3.148 -1.0518 -0.0628  0.0237
 1885WAT     H2 8261   6.056   3.747   3.182 -0.1285 -0.3303  0.1653
 1885WAT    EPW 8262   6.040   3.673   3.202 -0.2873 -0.3235  0.0616
 1886WAT      O 8263   6.171   4.044   3.396  0.1455  0.0232  0.4663
 1886WAT     H1 8264   6.151   4.024   3.313 -3.9544  1.3486  0.9168
 1886WAT     H2 8265   6.257   4.057   3.393  0.0304  1.5281 -3.9952
 1886WAT    EPW 8266   6.181   4.043   3.383 -0.4771  0.4413 -0.1262
 1887WAT      O 8267   6.750   3.615   3.803  0.2751 -0.0857  0.0087
 1887WAT     H1 8268   6.714   3.553   3.753  2.1625 -0.0543 -1.5095
 1887WAT     H2 8269   6.787   3.669   3.745  4.1464 -0.9607  1.3639
 1887WAT    EPW 8270   6.750   3.614   3.787  1.1258 -0.2103 -0.0154
 1888WAT      O 8271   5.321   3.294   2.108  0.1630  0.0835 -0.0385
 1888WAT     H1 8272   5.249   3.323   2.068 -1.0934  0.1273  2.0818
 1888WAT     H2 8273   5.293   3.224   2.152  0.9683  0.9589  2.0355
 1888WAT    EPW 8274   5.306   3.288   2.109  0.0964  0.2193  0.5811
 1889WAT      O 8275   6.203   4.096   1.698 -0.3402  0.2502  0.4483
 1889WAT     H1 8276   6.283   4.066   1.713 -0.0372  1.3667  1.2194
 1889WAT     H2 8277   6.189   4.150   1.765 -1.6393  0.2745  0.1878
 1889WAT    EPW 8278   6.213   4.100   1.710 -0.4873  0.4187  0.5237
 1890WAT      O 8279   5.796   3.714   5.643 -0.0144 -0.2278  0.0705
 1890WAT     H1 8280   5.861   3.670   5.606 -0.9208 -0.6773 -1.0779
 1890WAT     H2 8281   5.785   3.782   5.589 -0.1966  0.0928  0.5059
 1890WAT    EPW 8282   5.804   3.718   5.629 -0.1752 -0.2469 -0.0348
 1891WAT      O 8283   6.403   3.879   1.775  0.1092 -0.6023  0.7866
 1891WAT     H1 8284   6.323   3.852   1.756 -0.1892 -0.1722  1.4166
 1891WAT     H2 8285   6.454   3.835   1.719 -0.7110  0.3803 -0.7978
 1891WAT    EPW 8286   6.399   3.868   1.764 -0.0561 -0.3936  0.6456
 1892WAT      O 8287   4.558   3.317   1.354 -0.5009 -0.0720 -0.0010
 1892WAT     H1 8288   4.608   3.336   1.285 -0.7462  2.8353  0.4850
 1892WAT     H2 8289   4.478   3.310   1.320 -0.4012 -0.1987 -0.2095
 1892WAT    EPW 8290   4.554   3.319   1.339 -0.5224  0.3387  0.0400
 1893WAT      O 8291   4.756   4.001   4.642  0.1762 -0.0680  0.3706
 1893WAT     H1 8292   4.674   3.975   4.627 -0.2129  1.2388  0.0199
 1893WAT     H2 8293   4.802   3.928   4.638 -0.4684 -0.4774 -3.0823
 1893WAT    EPW 8294   4.750   3.987   4.639  0.0235  0.0646 -0.1913
 1894WAT      O 8295   6.840   1.964   1.189 -0.1878 -0.2577  0.2813
 1894WAT     H1 8296   6.830   1.895   1.242  0.2765 -0.4312  0.1479
 1894WAT     H2 8297   6.925   1.963   1.171 -0.0071  0.9005  1.0243
 1894WAT    EPW 8298   6.851   1.953   1.194 -0.0925 -0.1122  0.3713
 1895WAT      O 8299   5.565   5.099   2.289  0.1816  0.3597  0.0381
 1895WAT     H1 8300   5.640   5.143   2.298  0.1653  0.1620  1.3442
 1895WAT     H2 8301   5.514   5.155   2.246  0.5612  1.1393  0.5742
 1895WAT    EPW 8302   5.568   5.114   2.284  0.2352  0.4457  0.3102
 1896WAT      O 8303   6.051   4.420   2.304 -0.2512 -0.3588  0.4424
 1896WAT     H1 8304   6.049   4.428   2.391  1.3393  0.2943  0.4600
 1896WAT     H2 8305   6.097   4.347   2.292 -0.7110 -0.6037  0.1346
 1896WAT    EPW 8306   6.058   4.410   2.315 -0.0841 -0.2985  0.3995
 1897WAT      O 8307   6.708   5.881   2.098  0.0775  0.2997 -0.2399
 1897WAT     H1 8308   6.698   5.877   2.012 -0.2198 -0.0595 -0.1890
 1897WAT     H2 8309   6.793   5.868   2.110 -0.1330 -1.3239 -0.3744
 1897WAT    EPW 8310   6.719   5.879   2.087  0.0025  0.0068 -0.2523
 1898WAT      O 8311   6.817   3.155   4.716 -0.1151  0.0526 -0.6519
 1898WAT     H1 8312   6.889   3.105   4.708  0.0228 -0.1682  1.4223
 1898WAT     H2 8313   6.769   3.132   4.647  1.2544 -0.7239 -1.3972
 1898WAT    EPW 8314   6.821   3.144   4.704  0.1076 -0.0947 -0.4556
 1899WAT      O 8315   6.880   4.246   0.935 -0.3012 -0.7796  0.5511
 1899WAT     H1 8316   6.895   4.172   0.978  0.7176 -1.9596 -1.6489
 1899WAT     H2 8317   6.825   4.222   0.872 -1.4808  0.8034  0.9106
 1899WAT    EPW 8318   6.875   4.231   0.932 -0.3249 -0.7201  0.2792
 1900WAT      O 8319   6.509   2.956   2.400  0.0389 -0.0831  0.4169
 1900WAT     H1 8320   6.446   2.915   2.445 -0.3639  0.7149  0.5958
 1900WAT     H2 8321   6.476   2.963   2.319 -0.4339  1.0043  0.6889
 1900WAT    EPW 8322   6.495   2.951   2.395 -0.0905  0.1954  0.4835
 1901WAT      O 8323   6.162   3.633   4.757 -0.2779 -0.4456  0.0756
 1901WAT     H1 8324   6.120   3.589   4.694  1.2230 -2.1019  0.1758
 1901WAT     H2 8325   6.169   3.575   4.822  0.7679  0.2905  0.6530
 1901WAT    EPW 8326   6.157   3.618   4.757  0.0983 -0.5816  0.1757
 1902WAT      O 8327   6.018   3.278   3.461 -0.1986 -0.5099  0.3044
 1902WAT     H1 8328   5.952   3.298   3.407  0.7155  1.8800 -0.0593
 1902WAT     H2 8329   6.006   3.331   3.529 -0.2297 -2.1248  1.6261
 1902WAT    EPW 8330   6.006   3.289   3.463 -0.0682 -0.3954  0.4459
 1903WAT      O 8331   6.500   2.394   5.169 -0.2855  0.1975 -0.0480
 1903WAT     H1 8332   6.532   2.435   5.099  2.0493  0.4224  1.0564
 1903WAT     H2 8333   6.439   2.341   5.136 -1.6716  2.6902 -1.8225
 1903WAT    EPW 8334   6.496   2.393   5.154 -0.1454  0.5989 -0.1470
 1904WAT      O 8335   6.058   4.525   2.566 -0.0216  0.8666  0.4544
 1904WAT     H1 8336   5.986   4.500   2.609  0.3367  0.2932  0.7373
 1904WAT     H2 8337   6.031   4.592   2.517 -1.0152 -0.0334 -0.2847
 1904WAT    EPW 8338   6.043   4.531   2.565 -0.1155  0.6490  0.3870
 1905WAT      O 8339   6.314   3.356   2.241 -0.4448  0.1074 -0.9999
 1905WAT     H1 8340   6.393   3.385   2.261 -0.3597 -1.3315  1.1488
 1905WAT     H2 8341   6.266   3.428   2.233  0.2694  1.0018  1.6787
 1905WAT    EPW 8342   6.319   3.371   2.243 -0.3267  0.0270 -0.2868
 1906WAT      O 8343   5.421   3.685   3.012  0.5877  0.8461  0.5560
 1906WAT     H1 8344   5.339   3.700   3.039  0.1545  0.7258 -0.6325
 1906WAT     H2 8345   5.411   3.631   2.944  1.6993  0.4031  0.7263
 1906WAT    EPW 8346   5.408   3.680   3.006  0.6879  0.7629  0.4056
 1907WAT      O 8347   6.176   4.409   7.657  0.0390  0.0699  0.4207
 1907WAT     H1 8348   6.134   4.352   7.708  0.0491  0.3648  0.7627
 1907WAT     H2 8349   6.167   4.485   7.700 -2.0547  0.8205 -1.2076
 1907WAT    EPW 8350   6.169   4.412   7.671 -0.2688  0.2244  0.2307
 1908WAT      O 8351   6.871   2.919   1.087 -0.1639  0.4753  0.8273
 1908WAT     H1 8352   6.816   2.861   1.120 -0.4816  0.9271  1.1009
 1908WAT     H2 8353   6.894   2.968   1.156 -1.0984  1.6405  0.3422
 1908WAT    EPW 8354   6.866   2.918   1.102 -0.3489  0.7141  0.7961
 1909WAT      O 8355   5.307   4.103   7.369 -0.0207  0.2197  0.2963
 1909WAT     H1 8356   5.385   4.089   7.405  0.3806 -0.2191 -0.7272
 1909WAT     H2 8357   5.318   4.082   7.285 -1.1588  0.4378  0.0708
 1909WAT    EPW 8358   5.320   4.098   7.362 -0.1296  0.1871  0.1118
 1910WAT      O 8359   7.001   4.627   1.905 -0.0260 -0.7140  0.0879
 1910WAT     H1 8360   7.076   4.672   1.898 -1.4502  1.7529 -0.3042
 1910WAT     H2 8361   6.983   4.630   1.991  0.1591 -1.0900  0.1451
 1910WAT    EPW 8362   7.010   4.634   1.917 -0.2090 -0.4051  0.0384
 1911WAT      O 8363   7.143   4.148   0.707  0.0926  0.0733 -0.0135
 1911WAT     H1 8364   7.152   4.063   0.689  1.2618  0.0897  0.3839
 1911WAT     H2 8365   7.087   4.177   0.647 -2.9112 -1.5988  1.7401
 1911WAT    EPW 8366   7.136   4.140   0.696 -0.1784 -0.1713  0.3043
 1912WAT      O 8367   6.220   5.444   1.680 -0.4361  0.4125  0.2536
 1912WAT     H1 8368   6.174   5.512   1.652 -0.6525  0.1589 -0.0092
 1912WAT     H2 8369   6.257   5.413   1.608  1.2630  1.4251  0.6269
 1912WAT    EPW 8370   6.219   5.449   1.665 -0.2171  0.5246  0.2699
 1913WAT      O 8371   5.742   3.804   0.111  0.0670 -0.0781  0.1641
 1913WAT     H1 8372   5.724   3.734   0.061 -0.2143 -0.7703  1.2080
 1913WAT     H2 8373   5.757   3.769   0.189  0.2876  1.0132  0.6146
 1913WAT    EPW 8374   5.741   3.788   0.115  0.0581 -0.0192  0.3849
 1914WAT      O 8375   5.493   3.306   7.454 -0.1287  0.2710  0.3087
 1914WAT     H1 8376   5.532   3.271   7.525 -1.5557 -0.3041  0.8617
 1914WAT     H2 8377   5.449   3.374   7.487 -1.6083 -0.5834  0.2080
 1914WAT    EPW 8378   5.492   3.311   7.470 -0.5581  0.0598  0.3755
 1915WAT      O 8379   6.458   0.884   7.282 -0.0236 -0.4489 -0.2263
 1915WAT     H1 8380   6.454   0.806   7.321 -0.1022 -0.0051  0.6746
 1915WAT     H2 8381   6.433   0.867   7.200 -0.8274 -1.2402  0.1587
 1915WAT    EPW 8382   6.454   0.870   7.276 -0.1539 -0.5002 -0.0363
 1916WAT      O 8383   6.180   4.902   6.269 -0.1372  0.1061 -0.4547
 1916WAT     H1 8384   6.178   4.974   6.220  1.1904 -0.3772 -1.2679
 1916WAT     H2 8385   6.158   4.839   6.213  1.9931 -0.5391 -0.6285
 1916WAT    EPW 8386   6.176   4.903   6.253  0.3736 -0.0606 -0.6005
 1917WAT      O 8387   4.915   5.383   1.844  0.3717  0.8119  0.0009
 1917WAT     H1 8388   4.946   5.400   1.924  0.6495 -0.6289  0.2235
 1917WAT     H2 8389   4.904   5.462   1.810  0.0650  1.4697  1.5295
 1917WAT    EPW 8390   4.918   5.397   1.851  0.3674  0.6963  0.2596
 1918WAT      O 8391   7.028   3.990   0.921 -0.5465 -0.9623 -0.0586
 1918WAT     H1 8392   7.052   4.057   0.870 -1.8644  0.0263  0.5884
 1918WAT     H2 8393   6.963   3.952   0.876 -0.1422 -1.5261 -0.1849
 1918WAT    EPW 8394   7.022   3.994   0.907 -0.6815 -0.8996  0.0183
 1919WAT      O 8395   5.009   5.850   0.307  0.1528  0.6077  1.2726
 1919WAT     H1 8396   5.004   5.803   0.380  1.6702  0.3185  1.2114
 1919WAT     H2 8397   5.012   5.789   0.244  2.7564  0.6810  1.2259
 1919WAT    EPW 8398   5.009   5.834   0.308  0.7616  0.5758  1.2567
 1920WAT      O 8399   7.064   4.655   0.634 -0.9329 -0.4723 -0.0378
 1920WAT     H1 8400   6.979   4.636   0.623 -0.9487 -0.4210 -0.0005
 1920WAT     H2 8401   7.086   4.607   0.703 -1.0283 -0.1824  0.1941
 1920WAT    EPW 8402   7.054   4.645   0.642 -0.9493 -0.4219  0.0020
 1921WAT      O 8403   6.660   3.708   2.203 -0.0011 -0.0615  0.2386
 1921WAT     H1 8404   6.632   3.748   2.275 -1.6369  0.4662 -0.6521
 1921WAT     H2 8405   6.672   3.773   2.147 -2.1246 -0.6841 -1.0450
 1921WAT    EPW 8406   6.658   3.723   2.206 -0.5564 -0.0755 -0.0826
 1922WAT      O 8407   6.188   4.381   1.670 -0.9568  0.1487  0.3261
 1922WAT     H1 8408   6.131   4.445   1.686 -2.1962 -0.4748 -1.2857
 1922WAT     H2 8409   6.162   4.317   1.724  0.0043  0.7806  1.6076
 1922WAT    EPW 8410   6.176   4.381   1.680 -0.9979  0.1499  0.2773
 1923WAT      O 8411   6.620   5.739   1.579 -0.0750 -0.5493 -0.2135
 1923WAT     H1 8412   6.664   5.768   1.648  1.3257 -2.1288 -0.3740
 1923WAT     H2 8413   6.625   5.804   1.522  1.2089 -0.3066  0.1534
 1923WAT    EPW 8414   6.627   5.753   1.581  0.3216 -0.7468 -0.1830
 1924WAT      O 8415   6.162   4.457   0.985 -0.9157 -0.1037  0.4694
 1924WAT     H1 8416   6.131   4.433   1.063 -1.2605  0.1784  0.4204
 1924WAT     H2 8417   6.247   4.469   1.000 -0.8465 -0.7370  0.6384
 1924WAT    EPW 8418   6.170   4.455   0.999 -0.9564 -0.1556  0.4871
 1925WAT      O 8419   6.687   2.739   1.189 -0.2307  0.4283 -0.0663
 1925WAT     H1 8420   6.603   2.736   1.164 -0.4805  2.7097  0.2411
 1925WAT     H2 8421   6.706   2.656   1.207 -2.7995 -0.0260  1.0270
 1925WAT    EPW 8422   6.677   2.726   1.188 -0.6471  0.6982  0.1406
 1926WAT      O 8423   5.219   3.228   1.038  0.0652  0.0393 -0.1855
 1926WAT     H1 8424   5.286   3.176   1.016  0.3145  0.2874 -0.0221
 1926WAT     H2 8425   5.193   3.197   1.115 -1.1230 -1.1381 -1.0310
 1926WAT    EPW 8426   5.225   3.216   1.046 -0.0735 -0.0980 -0.2862
 1927WAT      O 8427   4.427   3.770   1.398 -0.2462  0.2517 -0.2570
 1927WAT     H1 8428   4.509   3.758   1.424 -0.4960 -0.8759  0.0668
 1927WAT     H2 8429   4.434   3.828   1.333  0.7319  0.6268  0.1666
 1927WAT    EPW 8430   4.440   3.777   1.392 -0.1386  0.1405 -0.1466
 1928WAT      O 8431   6.857   5.052   1.751  0.1651 -0.3178 -0.2061
 1928WAT     H1 8432   6.794   4.994   1.767  1.0301 -1.3338 -0.3439
 1928WAT     H2 8433   6.849   5.109   1.816 -0.9915 -0.3294 -0.3131
 1928WAT    EPW 8434   6.847   5.052   1.763  0.1220 -0.4696 -0.2422
 1929WAT      O 8435   4.997   2.589   0.865  0.3690 -0.4473  0.0400
 1929WAT     H1 8436   4.929   2.643   0.861  0.6060  0.1964  2.6028
 1929WAT     H2 8437   5.062   2.634   0.828 -0.0885 -0.1647 -0.4309
 1929WAT    EPW 8438   4.996   2.603   0.859  0.3365 -0.3105  0.3490
 1930WAT      O 8439   5.430   4.831   2.615  0.0271  0.2548 -0.3990
 1930WAT     H1 8440   5.367   4.823   2.556 -0.4446 -0.0372  0.1355
 1930WAT     H2 8441   5.409   4.772   2.676 -0.0655  1.2348  0.5509
 1930WAT    EPW 8442   5.417   4.821   2.616 -0.0562  0.3564 -0.1797
 1931WAT      O 8443   4.166   4.208   0.051 -0.3951  0.1237 -0.4720
 1931WAT     H1 8444   4.205   4.153   0.107  0.3984 -0.4064 -1.4963
 1931WAT     H2 8445   4.083   4.180   0.050 -0.2832 -0.2425 -0.0194
 1931WAT    EPW 8446   4.160   4.195   0.059 -0.2614 -0.0087 -0.5565
 1932WAT      O 8447   6.869   4.994   7.589 -0.0943  0.3075  0.1022
 1932WAT     H1 8448   6.787   4.964   7.589 -0.3056  0.8419  1.0105
 1932WAT     H2 8449   6.860   5.079   7.609  0.5374  0.8595 -1.7473
 1932WAT    EPW 8450   6.856   5.002   7.592 -0.0322  0.4680 -0.0368
 1933WAT      O 8451   4.298   4.430   0.618 -0.1975 -0.6136 -0.7144
 1933WAT     H1 8452   4.352   4.365   0.595  0.0509 -0.9946  0.8128
 1933WAT     H2 8453   4.221   4.407   0.585  0.2557 -0.7703 -1.7072
 1933WAT    EPW 8454   4.295   4.417   0.610 -0.0939 -0.6931 -0.6354
 1934WAT      O 8455   5.937   3.445   2.629  0.5860 -0.5444  0.2371
 1934WAT     H1 8456   5.906   3.374   2.589 -0.7351  0.0909  0.0854
 1934WAT     H2 8457   5.876   3.464   2.689  0.2828  1.1611 -0.5510
 1934WAT    EPW 8458   5.924   3.437   2.632  0.3461 -0.1986  0.0983
 1935WAT      O 8459   6.567   3.362   1.258  0.0529 -0.0620 -0.3043
 1935WAT     H1 8460   6.513   3.425   1.285 -0.1543  0.2166 -1.3083
 1935WAT     H2 8461   6.523   3.288   1.273 -0.6140  0.1614 -1.0947
 1935WAT    EPW 8462   6.553   3.361   1.264 -0.0762  0.0121 -0.5693
 1936WAT      O 8463   3.964   4.561   1.137  0.2182  0.0366  0.0107
 1936WAT     H1 8464   3.975   4.588   1.055  1.5319 -0.7811 -0.1037
 1936WAT     H2 8465   3.958   4.635   1.182  1.5626  0.5342 -0.5705
 1936WAT    EPW 8466   3.965   4.576   1.131  0.6108 -0.0107 -0.0921
 1937WAT      O 8467   6.110   3.159   0.458  0.0586  0.1864  0.9404
 1937WAT     H1 8468   6.190   3.147   0.490  0.2368  0.7172  0.6995
 1937WAT     H2 8469   6.116   3.130   0.376  0.7483  2.6413  0.0405
 1937WAT    EPW 8470   6.122   3.153   0.451  0.1868  0.6275  0.7719
 1938WAT      O 8471   7.059   5.954   2.551  0.5013 -0.2089  0.3398
 1938WAT     H1 8472   7.103   5.879   2.544 -0.4384 -0.6971 -0.7158
 1938WAT     H2 8473   6.976   5.930   2.538  0.1657  0.9946  0.1562
 1938WAT    EPW 8474   7.053   5.939   2.548  0.3129 -0.1032  0.1568
 1939WAT      O 8475   5.750   1.313   0.718  0.4884  0.2269 -0.2283
 1939WAT     H1 8476   5.718   1.391   0.696 -0.7893 -0.3616 -0.5020
 1939WAT     H2 8477   5.777   1.279   0.643 -0.6657 -0.3424 -0.4046
 1939WAT    EPW 8478   5.749   1.320   0.704  0.1292  0.0558 -0.2948
 1940WAT      O 8479   5.319   4.703   1.514 -0.1130 -0.2390 -0.0854
 1940WAT     H1 8480   5.328   4.645   1.450  1.6201  0.2613 -0.3617
 1940WAT     H2 8481   5.333   4.656   1.586 -0.1337 -0.4397 -0.2112
 1940WAT    EPW 8482   5.323   4.687   1.515  0.1399 -0.1947 -0.1448
 1941WAT      O 8483   5.992   5.232   1.180 -0.6496 -0.4569  0.6730
 1941WAT     H1 8484   6.029   5.224   1.259 -1.4578 -1.3518  0.9671
 1941WAT     H2 8485   6.014   5.314   1.157  1.1652 -0.7880  1.0033
 1941WAT    EPW 8486   6.001   5.243   1.188 -0.5009 -0.6380  0.7652
 1942WAT      O 8487   5.327   3.483   2.322  0.3426 -0.0883  0.3884
 1942WAT     H1 8488   5.338   3.457   2.404  1.7251  1.1055  0.6214
 1942WAT     H2 8489   5.315   3.409   2.278  0.2745 -0.7892  1.5626
 1942WAT    EPW 8490   5.327   3.468   2.328  0.5368 -0.0155  0.5963
 1943WAT      O 8491   5.848   3.585   7.605 -0.7591 -0.4367 -0.4085
 1943WAT     H1 8492   5.918   3.539   7.629 -0.5440 -0.1057 -0.3916
 1943WAT     H2 8493   5.834   3.562   7.522 -0.2838 -0.0830 -0.5932
 1943WAT    EPW 8494   5.856   3.575   7.596 -0.6571 -0.3355 -0.4333
 1944WAT      O 8495   4.627   4.646   0.211 -0.0383  0.9164  0.2753
 1944WAT     H1 8496   4.550   4.643   0.171  1.1794  1.2328 -2.3252
 1944WAT     H2 8497   4.676   4.695   0.157  1.9869  0.7061  1.8007
 1944WAT    EPW 8498   4.623   4.653   0.197  0.4408  0.9321  0.1165
 1945WAT      O 8499   7.092   5.967   6.969  0.6045 -0.4190  0.3094
 1945WAT     H1 8500   7.148   6.000   6.911  0.2983  0.2462  0.3774
 1945WAT     H2 8501   7.066   5.892   6.933  1.6983 -0.8489  0.3834
 1945WAT    EPW 8502   7.096   5.961   6.955  0.7209 -0.3842  0.3304
 1946WAT      O 8503   5.974   4.839   2.712  0.2014  0.2656 -0.3199
 1946WAT     H1 8504   6.059   4.852   2.698 -0.0921  1.2579 -1.3438
 1946WAT     H2 8505   5.958   4.881   2.787  0.9438 -1.4790  0.8914
 1946WAT    EPW 8506   5.984   4.847   2.721  0.2677  0.1544 -0.2922
 1947WAT      O 8507   6.364   1.482   1.109  0.0367 -0.2897  0.7775
 1947WAT     H1 8508   6.373   1.396   1.096  0.0602 -0.2088  0.2439
 1947WAT     H2 8509   6.280   1.490   1.131 -0.6972 -0.1617 -1.7534
 1947WAT    EPW 8510   6.353   1.470   1.110 -0.0683 -0.2588  0.3249
 1948WAT      O 8511   6.527   4.826   2.572 -0.1361 -0.0558  0.2220
 1948WAT     H1 8512   6.585   4.883   2.603 -0.0328  1.1624 -1.9981
 1948WAT     H2 8513   6.450   4.865   2.585 -0.0924  0.4589 -0.9678
 1948WAT    EPW 8514   6.524   4.840   2.578 -0.1144  0.2002 -0.2817
 1949WAT      O 8515   6.221   4.906   0.412  0.4460  0.1813  0.4094
 1949WAT     H1 8516   6.149   4.856   0.401  0.1664  0.7912 -0.6733
 1949WAT     H2 8517   6.275   4.853   0.456 -0.2547 -0.6886  0.2718
 1949WAT    EPW 8518   6.218   4.891   0.417  0.3012  0.1429  0.2291
 1950WAT      O 8519   5.894   3.991   7.802  0.1805  0.5643 -0.6622
 1950WAT     H1 8520   5.819   3.984   7.758 -0.5318  0.0225  0.5934
 1950WAT     H2 8521   5.901   3.914   7.842 -0.5292  1.8785  2.2184
 1950WAT    EPW 8522   5.884   3.978   7.801 -0.0296  0.6784 -0.0512
 1951WAT      O 8523   5.896   3.201   1.168 -0.2432 -0.6883 -0.0377
 1951WAT     H1 8524   5.911   3.274   1.121  0.9810  0.0508  1.3937
 1951WAT     H2 8525   5.867   3.232   1.244 -0.1206 -1.7220  0.4411
 1951WAT    EPW 8526   5.894   3.217   1.172 -0.0443 -0.7319  0.2445
 1952WAT      O 8527   4.183   6.150   2.586  0.5103  0.5251  0.2082
 1952WAT     H1 8528   4.190   6.063   2.579  2.6973  0.6395  0.1287
 1952WAT     H2 8529   4.097   6.164   2.587  0.1002 -1.6342  0.2285
 1952WAT    EPW 8530   4.172   6.139   2.585  0.7728  0.2230  0.1994
 1953WAT      O 8531   6.340   4.099   7.761  0.0694  0.4027 -0.0656
 1953WAT     H1 8532   6.256   4.101   7.737  0.3900 -1.8472 -1.7027
 1953WAT     H2 8533   6.340   4.139   7.839 -2.4036  0.9941 -0.2940
 1953WAT    EPW 8534   6.328   4.105   7.769 -0.2485  0.1577 -0.3411
 1954WAT      O 8535   6.652   4.793   0.969 -0.5804  0.4781  0.3669
 1954WAT     H1 8536   6.649   4.852   0.905  1.8624 -0.9263 -1.2522
 1954WAT     H2 8537   6.733   4.801   1.000 -1.0048 -0.3784  1.7777
 1954WAT    EPW 8538   6.664   4.803   0.964 -0.2822  0.1441  0.3361
 1955WAT      O 8539   5.968   2.955   7.242  0.1492  0.1338 -0.1133
 1955WAT     H1 8540   5.908   2.892   7.242 -0.6973  0.9084 -1.2478
 1955WAT     H2 8541   5.927   3.023   7.208  1.9503  0.4227 -1.9079
 1955WAT    EPW 8542   5.953   2.956   7.237  0.2902  0.2909 -0.5460
 1956WAT      O 8543   6.739   4.908   0.378  0.0394 -0.2427 -0.2265
 1956WAT     H1 8544   6.670   4.958   0.356  0.1891 -0.2630 -0.7473
 1956WAT     H2 8545   6.769   4.880   0.301 -0.3032 -1.4977  0.0786
 1956WAT    EPW 8546   6.733   4.912   0.364  0.0109 -0.4311 -0.2584
 1957WAT      O 8547   6.583   5.183   0.578 -0.0247 -0.1343  0.1603
 1957WAT     H1 8548   6.498   5.203   0.574  0.1393  0.8484  1.1163
 1957WAT     H2 8549   6.613   5.205   0.499 -0.4623  0.5252  0.1709
 1957WAT    EPW 8550   6.575   5.190   0.566 -0.0651  0.1083  0.3031
 1958WAT      O 8551   7.117   3.728   0.993 -0.0599 -0.1378  0.4137
 1958WAT     H1 8552   7.110   3.815   0.985  2.0779  0.0743  0.3528
 1958WAT     H2 8553   7.140   3.717   1.076  1.0700 -0.5068  0.0710
 1958WAT    EPW 8554   7.119   3.740   1.004  0.4228 -0.1610  0.3541
 1959WAT      O 8555   5.809   6.724   1.571  0.1065 -0.4919 -0.2314
 1959WAT     H1 8556   5.862   6.655   1.566 -0.7373 -1.1628 -0.3249
 1959WAT     H2 8557   5.794   6.744   1.488  2.5887  1.6591 -0.2831
 1959WAT    EPW 8558   5.814   6.717   1.558  0.3485 -0.2732 -0.2529
 1960WAT      O 8559   6.413   2.700   7.237  0.1343  0.4038 -0.3351
 1960WAT     H1 8560   6.362   2.770   7.233  0.3423  0.5294 -0.8430
 1960WAT     H2 8561   6.469   2.719   7.302 -0.2503  0.3987  0.0066
 1960WAT    EPW 8562   6.414   2.713   7.246  0.1082  0.4216 -0.3597
 1961WAT      O 8563   5.904   3.442   1.327 -0.3257  0.1151 -0.1748
 1961WAT     H1 8564   5.945   3.519   1.331  0.8092 -0.4881  0.3717
 1961WAT     H2 8565   5.826   3.462   1.295 -0.7481  1.7650  1.6813
 1961WAT    EPW 8566   5.899   3.456   1.323 -0.2204  0.2697  0.1801
 1962WAT      O 8567   7.006   3.058   0.538  0.0439 -0.1727  0.0550
 1962WAT     H1 8568   7.067   3.032   0.595 -0.0164  0.2067  0.2988
 1962WAT     H2 8569   7.032   3.138   0.516 -0.5282  0.1108  0.3936
 1962WAT    EPW 8570   7.019   3.066   0.543 -0.0495 -0.0747  0.1410
 1963WAT      O 8571   6.560   4.527   0.443 -0.9418  0.2501  0.3311
 1963WAT     H1 8572   6.596   4.544   0.366 -0.2323  1.5440  0.9158
 1963WAT     H2 8573   6.587   4.446   0.461  0.3079  0.5622 -0.0271
 1963WAT    EPW 8574   6.570   4.517   0.435 -0.6524  0.4873  0.3645
 1964WAT      O 8575   6.812   3.091   0.320  0.2627  0.5202  0.3803
 1964WAT     H1 8576   6.846   3.093   0.239 -0.8928 -2.4213 -0.3141
 1964WAT     H2 8577   6.868   3.040   0.363 -0.9258 -0.8378  0.3948
 1964WAT    EPW 8578   6.826   3.083   0.314 -0.0836 -0.1149  0.2798
 1965WAT      O 8579   5.441   2.406   0.739 -0.4080  0.3868  0.6952
 1965WAT     H1 8580   5.446   2.355   0.669  0.4710  0.6705  0.5377
 1965WAT     H2 8581   5.519   2.446   0.741 -0.7070  0.9610  1.3875
 1965WAT    EPW 8582   5.453   2.404   0.729 -0.3223  0.5135  0.7742
 1966WAT      O 8583   6.315   4.327   1.277  0.3514  0.0329 -0.6004
 1966WAT     H1 8584   6.313   4.240   1.269  1.1669  0.0258 -0.7920
 1966WAT     H2 8585   6.231   4.349   1.273 -0.3566 -1.0758  3.6533
 1966WAT    EPW 8586   6.302   4.317   1.275  0.3673 -0.1319 -0.0003
 1967WAT      O 8587   6.388   3.561   1.681  0.3612  0.4168  0.3819
 1967WAT     H1 8588   6.305   3.533   1.685  1.0104 -1.7749 -0.3820
 1967WAT     H2 8589   6.429   3.515   1.742  1.6591 -1.1660 -1.5527
 1967WAT    EPW 8590   6.382   3.550   1.690  0.6488 -0.1408 -0.0167
 1968WAT      O 8591   5.413   2.493   1.066 -0.1339  0.2475 -0.0423
 1968WAT     H1 8592   5.326   2.500   1.055 -0.2723  1.4809  1.4780
 1968WAT     H2 8593   5.422   2.488   1.153  1.2274 -1.9945 -0.2529
 1968WAT    EPW 8594   5.401   2.493   1.077  0.0468  0.0985  0.1512
 1969WAT      O 8595   6.953   2.792   0.392 -0.4523  0.1589 -0.6994
 1969WAT     H1 8596   6.974   2.829   0.468 -2.2719 -0.0336 -0.0413
 1969WAT     H2 8597   6.960   2.706   0.409  1.1711  0.1177 -1.4167
 1969WAT    EPW 8598   6.957   2.785   0.406 -0.4813  0.1244 -0.7081
 1970WAT      O 8599   6.760   4.407   2.180  0.1649  0.1910  0.1131
 1970WAT     H1 8600   6.772   4.417   2.095  3.1020  2.9106  0.6380
 1970WAT     H2 8601   6.828   4.358   2.205 -0.6768 -0.6029  0.9054
 1970WAT    EPW 8602   6.772   4.401   2.171  0.4744  0.4755  0.3077
 1971WAT      O 8603   5.954   6.063   1.296  0.8979 -0.4050  0.3579
 1971WAT     H1 8604   6.036   6.094   1.291  0.9848 -0.5680  0.7772
 1971WAT     H2 8605   5.910   6.129   1.333  0.7811 -0.2112 -0.1189
 1971WAT    EPW 8606   5.960   6.078   1.301  0.8934 -0.4005  0.3494
 1972WAT      O 8607   4.785   2.362   1.791  0.0979 -0.3645  0.0342
 1972WAT     H1 8608   4.848   2.412   1.757 -1.0237 -0.3822 -2.2846
 1972WAT     H2 8609   4.801   2.283   1.757  0.0254 -0.8635  1.1245
 1972WAT    EPW 8610   4.796   2.358   1.781 -0.0785 -0.4408 -0.1473
 1973WAT      O 8611   6.978   3.152   6.801 -0.1588 -0.1542 -0.1529
 1973WAT     H1 8612   6.993   3.214   6.742  1.3093 -0.9858 -0.7159
 1973WAT     H2 8613   6.892   3.139   6.797 -0.5452  2.0292  0.2127
 1973WAT    EPW 8614   6.967   3.159   6.792  0.0010  0.0455 -0.1820
 1974WAT      O 8615   4.283   3.272   7.404  0.0512  0.4799  0.3218
 1974WAT     H1 8616   4.342   3.209   7.393  1.9378  1.9509  1.3786
 1974WAT     H2 8617   4.259   3.293   7.323  0.7370 -0.3798 -0.1139
 1974WAT    EPW 8618   4.288   3.266   7.390  0.4312  0.5702  0.4136
 1975WAT      O 8619   4.889   4.401   2.038  0.4876 -0.6206  0.5411
 1975WAT     H1 8620   4.808   4.374   2.023  1.2914 -2.2487 -1.2358
 1975WAT     H2 8621   4.899   4.469   1.985  0.7923 -1.4619 -0.5033
 1975WAT    EPW 8622   4.879   4.407   2.028  0.6513 -0.9854  0.1244
 1976WAT      O 8623   5.888   3.107   1.706  0.6088 -0.4908 -0.3230
 1976WAT     H1 8624   5.834   3.109   1.638 -0.2295  1.6008  0.3261
 1976WAT     H2 8625   5.959   3.149   1.677  1.1270 -1.5037 -0.5559
 1976WAT    EPW 8626   5.891   3.114   1.692  0.5615 -0.3315 -0.2615
 1977WAT      O 8627   5.391   3.865   7.708 -0.2727  0.1237  0.1396
 1977WAT     H1 8628   5.326   3.839   7.760  1.0217 -3.8644  0.0887
 1977WAT     H2 8629   5.357   3.860   7.628 -0.6145  0.5530  0.2573
 1977WAT    EPW 8630   5.377   3.861   7.704 -0.1320 -0.4020  0.1495
 1978WAT      O 8631   5.856   1.638   1.047  0.2023  0.3158 -0.5115
 1978WAT     H1 8632   5.929   1.596   1.068 -0.0567  0.5001  0.8772
 1978WAT     H2 8633   5.793   1.587   1.080 -0.3323 -0.0310 -2.0108
 1978WAT    EPW 8634   5.857   1.624   1.055  0.0851  0.2918 -0.5279
 1979WAT      O 8635   6.955   5.063   0.466  0.3438  0.4183 -0.2576
 1979WAT     H1 8636   6.895   5.002   0.448 -1.6323  1.6845  1.4904
 1979WAT     H2 8637   7.030   5.018   0.469 -0.9762 -1.9261  0.8233
 1979WAT    EPW 8638   6.957   5.047   0.464 -0.1431  0.2590  0.1603
 1980WAT      O 8639   6.447   4.155   1.496 -0.0763 -0.3187  0.2519
 1980WAT     H1 8640   6.459   4.229   1.451  1.7203 -0.4239  0.5023
 1980WAT     H2 8641   6.360   4.150   1.504 -0.4002  0.3573 -2.1131
 1980WAT    EPW 8642   6.436   4.165   1.490  0.1413 -0.2344 -0.0605
 1981WAT      O 8643   7.078   4.953   1.555  0.7002 -0.6685 -0.1913
 1981WAT     H1 8644   7.074   4.992   1.633  1.9431 -1.1045  0.1219
 1981WAT     H2 8645   7.036   5.009   1.502  0.3787 -0.0646  0.6733
 1981WAT    EPW 8646   7.071   4.967   1.559  0.8363 -0.6437 -0.0173
 1982WAT      O 8647   5.632   3.561   7.802 -0.1633  0.0372  0.4510
 1982WAT     H1 8648   5.643   3.478   7.825 -0.6225 -0.3751 -0.7359
 1982WAT     H2 8649   5.693   3.573   7.741 -1.4419 -0.0854 -0.9006
 1982WAT    EPW 8650   5.643   3.550   7.797 -0.4200 -0.0418  0.0760
 1983WAT      O 8651   5.750   4.727   0.300 -0.3908 -0.1349 -0.0147
 1983WAT     H1 8652   5.746   4.691   0.221  0.8261 -1.1837  0.3714
 1983WAT     H2 8653   5.813   4.786   0.293  0.9769 -1.4427  0.5777
 1983WAT    EPW 8654   5.759   4.730   0.287 -0.0090 -0.4830  0.1299
 1984WAT      O 8655   5.071   4.039   0.750  0.9182 -0.2537  0.0287
 1984WAT     H1 8656   5.040   3.980   0.806 -0.7976  1.6092  1.1583
 1984WAT     H2 8657   5.034   4.017   0.674  2.1092 -1.9150 -0.1413
 1984WAT    EPW 8658   5.061   4.027   0.747  0.8406 -0.2239  0.1704
 1985WAT      O 8659   5.817   3.037   7.487  0.3503  0.3007 -0.5959
 1985WAT     H1 8660   5.806   3.045   7.401  3.8889 -0.2397 -1.2460
 1985WAT     H2 8661   5.862   2.963   7.496 -1.1459 -0.4108  1.9105
 1985WAT    EPW 8662   5.822   3.028   7.476  0.6520  0.1157 -0.3217
 1986WAT      O 8663   6.056   5.690   2.546  0.1202  0.3445  0.0336
 1986WAT     H1 8664   6.105   5.715   2.613 -0.3903 -1.9185  1.3361
 1986WAT     H2 8665   5.982   5.663   2.584 -0.8892  0.6684 -1.6093
 1986WAT    EPW 8666   6.052   5.690   2.561 -0.1043  0.0580 -0.0167
 1987WAT      O 8667   4.674   4.660   1.696  0.5218 -0.2039  0.6699
 1987WAT     H1 8668   4.591   4.643   1.712  0.2917  0.8664  0.6520
 1987WAT     H2 8669   4.674   4.688   1.613  0.9605 -0.5974  0.5278
 1987WAT    EPW 8670   4.662   4.662   1.686  0.5526 -0.1039  0.6463
 1988WAT      O 8671   5.546   3.929   2.215 -0.2906 -0.2153 -0.1174
 1988WAT     H1 8672   5.491   3.920   2.148 -1.0560  1.2167  0.2763
 1988WAT     H2 8673   5.506   3.987   2.267  0.8847 -0.3097  0.9420
 1988WAT    EPW 8674   5.532   3.936   2.213 -0.2300 -0.0177  0.0972
 1989WAT      O 8675   5.574   2.600   1.294 -0.4501  0.4489  0.1452
 1989WAT     H1 8676   5.647   2.626   1.253 -0.5160  0.5406  0.0865
 1989WAT     H2 8677   5.551   2.669   1.341 -1.0543  0.7668 -0.6057
 1989WAT    EPW 8678   5.581   2.614   1.295 -0.5491  0.5094  0.0256
 1990WAT      O 8679   6.705   4.135   1.878 -0.2962  0.3022 -0.4280
 1990WAT     H1 8680   6.751   4.209   1.878 -0.8727  0.7078  1.2750
 1990WAT     H2 8681   6.624   4.160   1.856 -0.4519  0.1557 -0.0276
 1990WAT    EPW 8682   6.700   4.150   1.875 -0.4044  0.3405 -0.1173
 1991WAT      O 8683   6.985   5.696   1.878 -0.0195 -0.4049 -0.2845
 1991WAT     H1 8684   6.900   5.678   1.887  0.1867 -1.4008 -0.2224
 1991WAT     H2 8685   6.986   5.781   1.861 -1.0212 -0.3457 -0.1022
 1991WAT    EPW 8686   6.973   5.706   1.877 -0.1370 -0.5433 -0.2484
 1992WAT      O 8687   5.942   2.093   0.173  0.4819 -0.1822 -0.1417
 1992WAT     H1 8688   6.023   2.117   0.194  0.5679 -1.2670  0.9163
 1992WAT     H2 8689   5.939   2.009   0.199 -1.4233  0.2418  1.1965
 1992WAT    EPW 8690   5.953   2.084   0.180  0.2131 -0.2798  0.2123
 1993WAT      O 8691   5.975   4.091   1.495 -0.4893 -0.4444  0.2107
 1993WAT     H1 8692   6.043   4.103   1.548 -0.3688  1.0259 -0.2458
 1993WAT     H2 8693   6.011   4.092   1.415 -1.2735  3.4648 -0.2827
 1993WAT    EPW 8694   5.990   4.093   1.491 -0.5874  0.3503  0.0704
 1994WAT      O 8695   6.784   3.222   0.043 -0.8709 -0.1309 -0.2228
 1994WAT     H1 8696   6.704   3.246   0.017 -0.6554 -0.3874 -1.1516
 1994WAT     H2 8697   6.807   3.285   0.098 -1.3693  0.4116 -0.6151
 1994WAT    EPW 8698   6.776   3.235   0.047 -0.9127 -0.0887 -0.4179
 1995WAT      O 8699   6.772   2.346   7.287 -0.7237  0.3747 -0.1651
 1995WAT     H1 8700   6.713   2.282   7.296  0.2225 -0.6481 -0.9634
 1995WAT     H2 8701   6.763   2.392   7.360 -2.1473 -0.0481 -0.0300
 1995WAT    EPW 8702   6.762   2.343   7.299 -0.7942  0.1612 -0.2631
 1996WAT      O 8703   7.116   5.613   7.574 -0.6622 -0.4485 -0.6237
 1996WAT     H1 8704   7.148   5.621   7.654  0.5750  2.8014 -1.2845
 1996WAT     H2 8705   7.039   5.574   7.586 -0.5468 -0.0131  2.1261
 1996WAT    EPW 8706   7.110   5.608   7.587 -0.4624  0.0959 -0.3151
 1997WAT      O 8707   7.081   3.684   1.284  0.6162  0.2699  0.3665
 1997WAT     H1 8708   7.135   3.726   1.338  0.4870 -0.2162  0.8811
 1997WAT     H2 8709   7.071   3.606   1.321  1.0841 -0.3343 -0.7152
 1997WAT    EPW 8710   7.088   3.679   1.297  0.6662  0.1088  0.2827
 1998WAT      O 8711   6.260   5.334   1.398  0.4021 -0.3316 -0.8887
 1998WAT     H1 8712   6.327   5.363   1.350  1.0805 -1.2985 -0.5368
 1998WAT     H2 8713   6.268   5.248   1.395  0.2962 -0.4266  0.7256
 1998WAT    EPW 8714   6.271   5.326   1.391  0.4866 -0.4884 -0.5983
 1999WAT      O 8715   7.050   2.363   0.668  0.1217  0.3634  0.8468
 1999WAT     H1 8716   7.037   2.277   0.660 -1.6763  0.4783  1.8016
 1999WAT     H2 8717   6.969   2.394   0.681  0.6632  2.2729 -0.0299
 1999WAT    EPW 8718   7.036   2.355   0.669 -0.0639  0.6624  0.8584
 2000WAT      O 8719   7.082   4.070   7.709 -0.2153 -0.4005 -0.2006
 2000WAT     H1 8720   6.998   4.047   7.710  0.1086 -1.6164  0.1818
 2000WAT     H2 8721   7.088   4.128   7.773 -1.0941  1.0317 -1.3392
 2000WAT    EPW 8722   7.070   4.075   7.718 -0.2973 -0.3685 -0.3123
 2001WAT      O 8723   7.326   3.182   0.973 -0.4283 -0.4082 -0.5448
 2001WAT     H1 8724   7.256   3.130   0.963 -0.0286 -0.8408 -1.0930
 2001WAT     H2 8725   7.385   3.130   1.011 -0.0503 -0.3426 -1.0364
 2001WAT    EPW 8726   7.324   3.167   0.977 -0.3134 -0.4624 -0.6984
 2002WAT      O 8727   6.772   4.506   0.897  0.4838  0.0227  0.3869
 2002WAT     H1 8728   6.769   4.586   0.931  0.9657 -0.6048  1.9993
 2002WAT     H2 8729   6.765   4.454   0.967 -0.8486 -1.3670 -0.7018
 2002WAT    EPW 8730   6.770   4.510   0.912  0.3581 -0.2753  0.4643
 2003WAT      O 8731   6.342   4.700   0.540 -0.6228 -0.3247 -0.0600
 2003WAT     H1 8732   6.295   4.639   0.581 -1.5997 -1.1098 -2.1894
 2003WAT     H2 8733   6.407   4.655   0.503 -0.6515  0.1098 -0.6496
 2003WAT    EPW 8734   6.345   4.685   0.541 -0.7713 -0.3765 -0.4617
 2004WAT      O 8735   6.230   4.689   7.798 -0.4749 -0.0003  0.3380
 2004WAT     H1 8736   6.300   4.696   7.850 -0.7619 -0.6040  0.8246
 2004WAT     H2 8737   6.180   4.756   7.822 -0.9565 -0.7035  1.4243
 2004WAT    EPW 8738   6.233   4.700   7.809 -0.5884 -0.1934  0.5703
 2005WAT      O 8739   5.541   3.543   0.855 -0.3035  0.6187 -0.4013
 2005WAT     H1 8740   5.564   3.483   0.796  0.7774  2.0137 -1.4505
 2005WAT     H2 8741   5.465   3.512   0.886  0.7159 -1.8511 -0.0744
 2005WAT    EPW 8742   5.533   3.529   0.851  0.0068  0.4599 -0.5080
 2006WAT      O 8743   5.389   4.712   0.248  0.1575  0.0164  0.3256
 2006WAT     H1 8744   5.333   4.664   0.201 -0.1103  1.9168 -1.4208
 2006WAT     H2 8745   5.449   4.654   0.273 -0.8944 -1.4923 -0.4713
 2006WAT    EPW 8746   5.389   4.696   0.245 -0.0374  0.0743 -0.0501
 2007WAT      O 8747   6.772   4.289   1.597  0.4723 -0.0410  0.3437
 2007WAT     H1 8748   6.858   4.276   1.587  0.7412  1.3350  0.6756
 2007WAT     H2 8749   6.765   4.324   1.676 -0.3008  0.5649  0.0293
 2007WAT    EPW 8750   6.784   4.293   1.607  0.3978  0.2518  0.3463
 2008WAT      O 8751   6.945   3.962   2.621 -0.1194 -0.0218 -0.1478
 2008WAT     H1 8752   6.921   3.960   2.704 -0.2019 -0.7435 -0.1821
 2008WAT     H2 8753   6.957   4.047   2.605 -2.8761  0.4454 -0.1928
 2008WAT    EPW 8754   6.943   3.974   2.631 -0.5388 -0.0594 -0.1595
 2009WAT      O 8755   6.580   3.763   1.584  0.2380 -0.7098  0.3051
 2009WAT     H1 8756   6.562   3.792   1.504  3.1425 -1.9310 -0.9277
 2009WAT     H2 8757   6.532   3.690   1.591 -0.2224 -0.4608 -0.2121
 2009WAT    EPW 8758   6.570   3.756   1.574  0.5991 -0.8534  0.0466
 2010WAT      O 8759   5.275   4.522   0.083 -0.1806 -0.3017  0.0430
 2010WAT     H1 8760   5.292   4.450   0.129  0.6407  0.2901  0.7002
 2010WAT     H2 8761   5.190   4.515   0.065  0.0086 -1.7088 -0.4154
 2010WAT    EPW 8762   5.265   4.511   0.087 -0.0313 -0.4221  0.0724
 2011WAT      O 8763   6.623   5.485   1.487  0.0894  0.1529 -0.1019
 2011WAT     H1 8764   6.641   5.570   1.498  1.8499 -0.0775 -0.8033
 2011WAT     H2 8765   6.585   5.482   1.409  1.1030  0.2152 -0.6254
 2011WAT    EPW 8766   6.620   5.497   1.477  0.4992  0.1281 -0.2828
 2012WAT      O 8767   5.782   2.018   7.389  0.1051  0.1873 -0.7976
 2012WAT     H1 8768   5.810   1.957   7.444  0.0013 -0.0929 -1.0528
 2012WAT     H2 8769   5.751   2.080   7.441  0.4215  0.1257 -0.5320
 2012WAT    EPW 8770   5.782   2.018   7.405  0.1365  0.1368 -0.7961
 2013WAT      O 8771   6.130   5.948   0.501 -0.6410  0.4592 -0.8067
 2013WAT     H1 8772   6.156   6.017   0.548  1.6757 -0.5540 -0.4932
 2013WAT     H2 8773   6.074   5.907   0.555  2.1172 -0.8014  1.3434
 2013WAT    EPW 8774   6.126   5.952   0.516  0.1087  0.1233 -0.4428
 2014WAT      O 8775   5.991   3.697   1.271 -0.2561 -0.2414  0.0973
 2014WAT     H1 8776   5.915   3.723   1.236  0.0084  0.5304  0.0785
 2014WAT     H2 8777   6.049   3.712   1.207  0.0413  0.0040  0.4209
 2014WAT    EPW 8778   5.988   3.703   1.256 -0.1731 -0.0911  0.1423
 2015WAT      O 8779   5.807   3.153   7.157 -0.1099 -0.7678  0.0942
 2015WAT     H1 8780   5.773   3.186   7.084 -1.5097  0.4650  1.2304
 2015WAT     H2 8781   5.880   3.199   7.168 -0.8982  0.4610  0.4619
 2015WAT    EPW 8782   5.812   3.165   7.148 -0.4331 -0.4041  0.3164
 2016WAT      O 8783   6.530   4.260   7.654 -0.3571 -0.3177 -0.2022
 2016WAT     H1 8784   6.499   4.272   7.574  1.2988 -1.4467 -1.0674
 2016WAT     H2 8785   6.476   4.201   7.689 -1.0146  0.0949 -0.5090
 2016WAT    EPW 8786   6.517   4.253   7.648 -0.2096 -0.4235 -0.3753
 2017WAT      O 8787   5.178   1.952   1.042  0.1552  0.0383  0.0141
 2017WAT     H1 8788   5.114   2.001   1.007 -0.4162  0.8758  2.0906
 2017WAT     H2 8789   5.247   1.971   0.992 -0.0070  3.1566  0.7387
 2017WAT    EPW 8790   5.179   1.962   1.029  0.0468  0.6226  0.4279
 2018WAT      O 8791   6.884   4.659   2.187 -0.2978 -0.5138 -0.2306
 2018WAT     H1 8792   6.812   4.701   2.162 -0.2944 -0.1410  0.3687
 2018WAT     H2 8793   6.857   4.576   2.197  0.0413 -1.0282 -2.9027
 2018WAT    EPW 8794   6.869   4.653   2.185 -0.2472 -0.5347 -0.5368
 2019WAT      O 8795   5.741   5.086   1.156 -0.6946  0.3115 -0.2630
 2019WAT     H1 8796   5.816   5.109   1.119 -1.5554  2.8980 -0.6421
 2019WAT     H2 8797   5.680   5.118   1.101 -2.0759 -1.2964  0.2521
 2019WAT    EPW 8798   5.743   5.094   1.142 -1.0258  0.4561 -0.2429
 2020WAT      O 8799   6.538   4.221   2.125  0.1999  0.4204  0.4634
 2020WAT     H1 8800   6.585   4.170   2.072  0.7052  1.2570  0.0740
 2020WAT     H2 8801   6.599   4.268   2.166 -0.2672  1.0547  0.4448
 2020WAT    EPW 8802   6.554   4.221   2.123  0.2055  0.6377  0.4031
 2021WAT      O 8803   5.097   5.072   1.608 -0.6043 -0.1410  0.6988
 2021WAT     H1 8804   5.145   5.029   1.666  0.1627 -0.4452 -0.1415
 2021WAT     H2 8805   5.139   5.148   1.598 -0.8935  0.0276  0.7614
 2021WAT    EPW 8806   5.110   5.077   1.615 -0.5338 -0.1610  0.5839
 2022WAT      O 8807   6.799   3.807   0.319 -0.2197  0.2943  0.4201
 2022WAT     H1 8808   6.735   3.766   0.362 -1.7265  1.2566 -0.7850
 2022WAT     H2 8809   6.786   3.784   0.236 -1.2986  3.2811 -0.3623
 2022WAT    EPW 8810   6.788   3.798   0.313 -0.6017  0.8777  0.1265
 2023WAT      O 8811   5.561   2.792   2.432  0.2683  0.0043  0.6442
 2023WAT     H1 8812   5.507   2.799   2.364  0.9739 -0.3986  0.0212
 2023WAT     H2 8813   5.508   2.785   2.500 -0.4532  0.9986  0.2025
 2023WAT    EPW 8814   5.545   2.792   2.432  0.2659  0.0917  0.4869
 2024WAT      O 8815   5.224   1.948   0.617  0.1609 -0.0184 -0.1000
 2024WAT     H1 8816   5.303   1.909   0.611 -0.3169 -0.7683 -2.7188
 2024WAT     H2 8817   5.173   1.884   0.647  0.2662  0.0510  0.2360
 2024WAT    EPW 8818   5.228   1.933   0.620  0.1059 -0.1189 -0.4372
 2025WAT      O 8819   5.173   3.853   1.828 -0.7329 -0.1342  0.0635
 2025WAT     H1 8820   5.092   3.821   1.839 -0.9557 -0.1347 -1.3758
 2025WAT     H2 8821   5.159   3.928   1.785 -0.0669  0.7939  1.3961
 2025WAT    EPW 8822   5.159   3.859   1.823 -0.6674  0.0029  0.0477
 2026WAT      O 8823   5.499   2.211   1.668 -0.0241  0.0030  0.7309
 2026WAT     H1 8824   5.436   2.202   1.608  0.7151 -0.3322 -0.0176
 2026WAT     H2 8825   5.534   2.289   1.649  0.5678 -0.3411  0.3552
 2026WAT    EPW 8826   5.495   2.222   1.656  0.1725 -0.0973  0.5648
 2027WAT      O 8827   6.126   4.005   0.204  0.2805 -0.1790  0.4384
 2027WAT     H1 8828   6.061   4.017   0.261 -0.4057 -1.7366  0.0385
 2027WAT     H2 8829   6.106   4.059   0.139 -1.5698 -1.7309 -0.4039
 2027WAT    EPW 8830   6.113   4.015   0.203 -0.0942 -0.6383  0.2549
 2028WAT      O 8831   5.381   3.971   1.382  0.1283  0.0261 -0.1288
 2028WAT     H1 8832   5.422   4.040   1.417  0.8839 -1.3163  1.7821
 2028WAT     H2 8833   5.298   3.999   1.372  0.3839  1.1545  0.7483
 2028WAT    EPW 8834   5.374   3.985   1.385  0.2776 -0.0055  0.2830
 2029WAT      O 8835   6.407   3.814   7.710 -0.2961  0.2046  0.2404
 2029WAT     H1 8836   6.463   3.819   7.777  1.3746  1.1985 -1.1367
 2029WAT     H2 8837   6.373   3.894   7.706  0.5415  0.5293 -0.8105
 2029WAT    EPW 8838   6.410   3.826   7.720  0.0745  0.3994 -0.1182
 2030WAT      O 8839   5.339   4.013   0.855  0.9443 -0.1328 -0.3628
 2030WAT     H1 8840   5.408   4.054   0.822  0.5539  0.3135 -0.6296
 2030WAT     H2 8841   5.297   3.983   0.785  1.6725 -1.7772 -0.1566
 2030WAT    EPW 8842   5.343   4.015   0.840  0.9942 -0.3098 -0.3718
 2031WAT      O 8843   6.402   4.880   0.755 -0.4554  0.1597 -0.6313
 2031WAT     H1 8844   6.409   4.811   0.702  0.7650  0.2812 -0.6400
 2031WAT     H2 8845   6.482   4.915   0.755  0.0254 -0.6602  2.4074
 2031WAT    EPW 8846   6.414   4.875   0.747 -0.2041  0.0565 -0.1837
 2032WAT      O 8847   5.876   4.118   0.699 -0.3507 -0.3939 -0.8633
 2032WAT     H1 8848   5.857   4.145   0.618 -0.5506  1.9554 -0.0986
 2032WAT     H2 8849   5.823   4.165   0.750  0.5351 -1.0039  0.7018
 2032WAT    EPW 8850   5.866   4.129   0.695 -0.2494 -0.1370 -0.5191
 2033WAT      O 8851   5.958   4.150   1.099  0.6579 -0.1729 -0.5606
 2033WAT     H1 8852   5.918   4.075   1.118  0.1362  0.0033 -0.9311
 2033WAT     H2 8853   6.018   4.127   1.040  0.8916 -0.3886 -0.2397
 2033WAT    EPW 8854   5.961   4.136   1.093  0.6154 -0.1787 -0.5679
 2034WAT      O 8855   5.448   3.710   1.463 -0.0796  0.3416  0.1945
 2034WAT     H1 8856   5.414   3.783   1.429  1.3436  0.4280 -1.1427
 2034WAT     H2 8857   5.453   3.656   1.394 -1.4260 -1.1972  1.2052
 2034WAT    EPW 8858   5.443   3.713   1.448 -0.0683  0.1270  0.1463
 2035WAT      O 8859   6.120   5.803   0.255 -0.2981 -0.2574  0.0209
 2035WAT     H1 8860   6.034   5.816   0.250 -0.2810 -0.6321 -2.9705
 2035WAT     H2 8861   6.145   5.854   0.322 -2.6391  0.9628  0.0536
 2035WAT    EPW 8862   6.111   5.812   0.264 -0.6414 -0.1325 -0.4161
 2036WAT      O 8863   6.282   4.646   1.328  0.2842  0.2589 -0.5321
 2036WAT     H1 8864   6.308   4.635   1.411 -0.2407 -0.7369 -0.4878
 2036WAT     H2 8865   6.343   4.603   1.282 -0.8946 -1.5575 -0.4673
 2036WAT    EPW 8866   6.295   4.638   1.334  0.0325 -0.1565 -0.5160
 2037WAT      O 8867   6.879   4.782   0.177 -0.0357 -0.1220  0.2732
 2037WAT     H1 8868   6.950   4.766   0.226 -0.2961 -1.5189  0.2285
 2037WAT     H2 8869   6.912   4.811   0.102  0.4272  0.4962  0.7039
 2037WAT    EPW 8870   6.894   4.784   0.173 -0.0058 -0.2370  0.3303
 2038WAT      O 8871   7.036   3.895   1.585 -0.5534 -0.3066 -0.2936
 2038WAT     H1 8872   6.962   3.913   1.628 -0.3552 -0.8775  0.2974
 2038WAT     H2 8873   7.018   3.920   1.503 -1.8938 -1.6865 -0.4665
 2038WAT    EPW 8874   7.022   3.901   1.579 -0.7221 -0.5948 -0.2318
 2039WAT      O 8875   4.878   3.948   1.739  0.1887 -0.0105  0.0074
 2039WAT     H1 8876   4.851   4.029   1.722 -1.6437 -1.0520 -2.8062
 2039WAT     H2 8877   4.804   3.902   1.743  1.2316 -1.8131 -0.2238
 2039WAT    EPW 8878   4.863   3.953   1.737  0.0721 -0.4307 -0.4424
 2040WAT      O 8879   6.894   3.402   0.686  0.4619  0.5205  0.1673
 2040WAT     H1 8880   6.919   3.389   0.603  0.1257 -1.0903  0.2834
 2040WAT     H2 8881   6.945   3.467   0.713  0.3217  1.3321 -1.4119
 2040WAT    EPW 8882   6.905   3.410   0.677  0.3915  0.4024 -0.0489
 2041WAT      O 8883   5.476   4.225   0.695 -0.7232  0.1318 -0.4893
 2041WAT     H1 8884   5.414   4.258   0.747 -0.4093  1.9147 -1.2014
 2041WAT     H2 8885   5.537   4.288   0.693  0.0680 -0.6383 -1.6276
 2041WAT    EPW 8886   5.476   4.239   0.703 -0.5600  0.2814 -0.7626
 2042WAT      O 8887   6.420   2.782   1.121  0.1964 -0.5251 -0.0202
 2042WAT     H1 8888   6.345   2.788   1.165  0.3472 -3.0203  0.7399
 2042WAT     H2 8889   6.406   2.831   1.049 -1.4864  0.4530  0.9116
 2042WAT    EPW 8890   6.406   2.790   1.117 -0.0299 -0.7492  0.2297
 2043WAT      O 8891   5.737   3.030   1.029 -0.2115 -0.0492  0.3392
 2043WAT     H1 8892   5.719   2.959   1.076 -0.8863 -0.6042 -0.7285
 2043WAT     H2 8893   5.797   3.071   1.077 -0.5750 -0.7971  1.4829
 2043WAT    EPW 8894   5.743   3.026   1.043 -0.3649 -0.2416  0.3504
 2044WAT      O 8895   7.004   2.689   6.925  0.4630  0.5583 -0.5959
 2044WAT     H1 8896   7.018   2.710   7.008 -2.3379  0.9645 -0.1495
 2044WAT     H2 8897   7.019   2.603   6.922  0.7038  0.5676  0.2570
 2044WAT    EPW 8898   7.009   2.680   6.937  0.0848  0.6197 -0.4040
 2045WAT      O 8899   6.135   4.800   2.092  0.2187  0.1827  1.0435
 2045WAT     H1 8900   6.186   4.734   2.117 -0.0029  0.2826  1.7702
 2045WAT     H2 8901   6.180   4.871   2.116  1.4879  0.4199 -1.6441
 2045WAT    EPW 8902   6.149   4.801   2.099  0.3735  0.2325  0.7538
 2046WAT      O 8903   7.202   5.365   7.342 -0.7015 -0.4021 -0.2023
 2046WAT     H1 8904   7.180   5.369   7.426  1.5412 -0.6313  0.4686
 2046WAT     H2 8905   7.246   5.439   7.329 -0.2713 -0.7783 -0.9342
 2046WAT    EPW 8906   7.205   5.376   7.353 -0.3067 -0.4915 -0.2113
 2047WAT      O 8907   4.958   1.729   2.244  0.1884 -0.0993 -0.5923
 2047WAT     H1 8908   4.999   1.706   2.171 -0.1125 -1.4254 -0.3905
 2047WAT     H2 8909   4.901   1.663   2.256  0.8650 -0.3927  1.3068
 2047WAT    EPW 8910   4.956   1.716   2.235  0.2439 -0.3385 -0.2819
 2048WAT      O 8911   7.179   4.000   0.348 -0.4187  0.1393  0.1748
 2048WAT     H1 8912   7.238   4.063   0.341  0.0402 -0.4089 -1.2753
 2048WAT     H2 8913   7.182   3.960   0.271  0.6229 -2.8201  1.5823
 2048WAT    EPW 8914   7.188   4.003   0.336 -0.1970 -0.3788  0.1685
 2049WAT      O 8915   6.677   3.146   1.646  0.3195 -0.0519 -0.2645
 2049WAT     H1 8916   6.720   3.075   1.617  0.8336 -0.3782  1.2093
 2049WAT     H2 8917   6.728   3.176   1.710  0.2279  1.8355 -1.0054
 2049WAT    EPW 8918   6.691   3.140   1.651  0.3819  0.1787 -0.1563
 2050WAT      O 8919   6.439   5.311   2.091 -0.1803  0.0547  0.3448
 2050WAT     H1 8920   6.457   5.226   2.102 -0.7971 -0.3087 -1.1914
 2050WAT     H2 8921   6.379   5.311   2.027  1.0329  1.7348 -0.8852
 2050WAT    EPW 8922   6.433   5.298   2.083 -0.0922  0.2492 -0.0638
 2051WAT      O 8923   3.407   1.982   1.629  0.0671 -0.3786  0.0057
 2051WAT     H1 8924   3.365   2.056   1.650 -1.4104 -1.3054  0.5037
 2051WAT     H2 8925   3.439   1.998   1.549  0.6623  1.1434  0.5228
 2051WAT    EPW 8926   3.406   1.995   1.620 -0.0632 -0.2907  0.1556
 2052WAT      O 8927   5.989   5.471   0.789 -0.2214 -0.7203 -0.1496
 2052WAT     H1 8928   6.064   5.461   0.833 -0.3040 -0.5243  0.0398
 2052WAT     H2 8929   6.008   5.531   0.728  0.0115 -1.3123 -0.6647
 2052WAT    EPW 8930   6.003   5.479   0.787 -0.1992 -0.7788 -0.1977
 2053WAT      O 8931   5.259   3.523   1.000  0.1868  0.1165  0.4617
 2053WAT     H1 8932   5.191   3.565   1.034 -0.7797 -2.1665  1.5774
 2053WAT     H2 8933   5.236   3.439   1.005  0.7828 -0.5761 -4.1297
 2053WAT    EPW 8934   5.246   3.516   1.006  0.1321 -0.3231 -0.0518
 2054WAT      O 8935   6.279   5.144   0.292  0.3944  0.0875 -0.3462
 2054WAT     H1 8936   6.318   5.184   0.359 -1.0296  0.9007  0.0258
 2054WAT     H2 8937   6.254   5.068   0.325  0.4799  0.1194 -0.2069
 2054WAT    EPW 8938   6.281   5.139   0.307  0.1967  0.2123 -0.2707
 2055WAT      O 8939   7.115   4.727   0.325  0.0180 -0.2413  0.0087
 2055WAT     H1 8940   7.180   4.731   0.267  1.3682 -4.3409  0.8813
 2055WAT     H2 8941   7.149   4.766   0.396  0.3797  0.2206 -0.4121
 2055WAT    EPW 8942   7.130   4.734   0.327  0.2709 -0.7787  0.0755
 2056WAT      O 8943   6.782   3.914   1.705 -0.5294 -0.4707 -0.4371
 2056WAT     H1 8944   6.749   3.984   1.747  0.3692 -1.9554  3.1330
 2056WAT     H2 8945   6.711   3.872   1.677 -1.5727 -0.9906  2.5856
 2056WAT    EPW 8946   6.767   3.918   1.707 -0.5508 -0.7668  0.5368
 2057WAT      O 8947   6.297   3.712   0.545 -0.0509 -0.6083 -0.4932
 2057WAT     H1 8948   6.283   3.657   0.611 -0.9987 -0.2205 -0.3474
 2057WAT     H2 8949   6.322   3.660   0.480 -1.9485 -1.3805 -0.6712
 2057WAT    EPW 8950   6.298   3.696   0.545 -0.4712 -0.6651 -0.4979
 2058WAT      O 8951   5.137   3.806   1.250  0.3590 -0.5273 -0.0848
 2058WAT     H1 8952   5.109   3.877   1.208 -1.1961 -2.3634 -2.4311
 2058WAT     H2 8953   5.113   3.820   1.333 -1.5175  0.9695 -0.7984
 2058WAT    EPW 8954   5.129   3.818   1.256 -0.1479 -0.5774 -0.5368
 2059WAT      O 8955   6.211   6.593   1.428 -0.0285 -0.3522  0.0119
 2059WAT     H1 8956   6.209   6.580   1.342 -1.8545  0.3614 -0.1003
 2059WAT     H2 8957   6.199   6.679   1.437 -0.4686 -0.4954  0.9819
 2059WAT    EPW 8958   6.209   6.604   1.417 -0.3632 -0.2680  0.1386
 2060WAT      O 8959   7.170   2.004   0.551 -0.1550  0.2516 -0.2576
 2060WAT     H1 8960   7.090   2.033   0.570 -0.8321  0.3820 -2.8567
 2060WAT     H2 8961   7.197   2.058   0.489  2.1404  0.3834  0.7657
 2060WAT    EPW 8962   7.162   2.016   0.545  0.0841  0.2903 -0.4903
 2061WAT      O 8963   6.684   4.992   0.743  0.5777  0.3824  0.5611
 2061WAT     H1 8964   6.701   4.928   0.685 -1.6371  0.2445 -0.0162
 2061WAT     H2 8965   6.661   5.059   0.694  0.0383  0.7106  1.2420
 2061WAT    EPW 8966   6.683   4.992   0.727  0.1708  0.4105  0.5764
 2062WAT      O 8967   6.235   5.440   0.923  0.4720  0.1353 -0.0848
 2062WAT     H1 8968   6.282   5.506   0.892 -0.3378  1.1501  0.7468
 2062WAT     H2 8969   6.247   5.445   1.009  0.1076 -0.5734  0.0170
 2062WAT    EPW 8970   6.244   5.450   0.931  0.2985  0.1805  0.0531
 2063WAT      O 8971   4.899   1.750   1.310  0.2231 -0.1955  0.8835
 2063WAT     H1 8972   4.976   1.738   1.271  0.5632  0.2642  1.4043
 2063WAT     H2 8973   4.862   1.671   1.308  0.8497 -0.4912  0.9253
 2063WAT    EPW 8974   4.905   1.737   1.304  0.3659 -0.1713  0.9666
 2064WAT      O 8975   6.745   4.746   1.331  0.0744  0.1133 -0.2224
 2064WAT     H1 8976   6.792   4.755   1.404  0.6300  0.3781 -0.6088
 2064WAT     H2 8977   6.667   4.778   1.352  0.5217  1.0921 -0.0421
 2064WAT    EPW 8978   6.741   4.752   1.345  0.2226  0.2970 -0.2529
 2065WAT      O 8979   6.371   4.297   0.680  0.6534  0.1015  0.2643
 2065WAT     H1 8980   6.319   4.239   0.719  0.1460 -0.1196 -0.6973
 2065WAT     H2 8981   6.410   4.338   0.746  0.1677 -0.5654  0.9806
 2065WAT    EPW 8982   6.369   4.295   0.696  0.5067 -0.0297  0.2280
 2066WAT      O 8983   6.953   4.291   0.532  0.0537  0.5097 -0.1483
 2066WAT     H1 8984   6.894   4.335   0.578  0.1437  0.4763  0.0024
 2066WAT     H2 8985   6.906   4.231   0.490 -0.2024  1.3964 -1.1676
 2066WAT    EPW 8986   6.937   4.288   0.533  0.0292  0.6357 -0.2766
 2067WAT      O 8987   6.406   6.317   1.175 -0.0954  0.0812 -0.7982
 2067WAT     H1 8988   6.447   6.323   1.098 -0.0790  0.9620 -0.7298
 2067WAT     H2 8989   6.365   6.393   1.182  0.0323  0.0730  0.1366
 2067WAT    EPW 8990   6.406   6.329   1.165 -0.0741  0.2101 -0.6500
 2068WAT      O 8991   6.919   5.276   0.637 -0.3711 -0.0111 -0.3908
 2068WAT     H1 8992   6.919   5.257   0.722 -1.8212 -0.2333 -0.4048
 2068WAT     H2 8993   6.919   5.198   0.598  1.1976  0.0867 -0.6405
 2068WAT    EPW 8994   6.919   5.262   0.644 -0.3536 -0.0295 -0.4297
 2069WAT      O 8995   7.212   3.218   1.948 -0.4074 -0.2984  0.6518
 2069WAT     H1 8996   7.267   3.177   1.894  0.3255  0.0165  1.1562
 2069WAT     H2 8997   7.138   3.172   1.941 -1.2438  1.2178 -2.6591
 2069WAT    EPW 8998   7.209   3.205   1.939 -0.4227 -0.0279  0.2372
 2070WAT      O 8999   4.806   3.398   1.175  0.0038  0.0340 -0.1887
 2070WAT     H1 9000   4.869   3.454   1.199 -0.3668 -0.2094  1.4121
 2070WAT     H2 9001   4.849   3.341   1.124  0.5905  1.1595 -1.0212
 2070WAT    EPW 9002   4.822   3.398   1.171  0.0357  0.1643 -0.0752
 2071WAT      O 9003   6.501   3.940   0.859  0.0968 -0.0820 -0.3603
 2071WAT     H1 9004   6.461   3.940   0.781 -0.1798  0.4610 -0.2181
 2071WAT     H2 9005   6.517   3.856   0.873 -0.8029 -0.2919 -0.5194
 2071WAT    EPW 9006   6.498   3.928   0.849 -0.0769 -0.0328 -0.3628
 2072WAT      O 9007   5.270   4.873   0.014  0.1231 -0.4284 -0.0253
 2072WAT     H1 9008   5.194   4.891   0.053 -0.7587  1.5513 -2.4210
 2072WAT     H2 9009   5.329   4.912   0.064 -0.5815 -0.6342  0.9997
 2072WAT    EPW 9010   5.267   4.881   0.027 -0.1112 -0.1664 -0.2278
 2073WAT      O 9011   6.201   3.051   0.867  0.3504  0.2509  0.7485
 2073WAT     H1 9012   6.264   3.071   0.810  0.1586 -1.0054  0.0507
 2073WAT     H2 9013   6.136   3.023   0.816 -0.6538  1.1529  1.4806
 2073WAT    EPW 9014   6.200   3.050   0.851  0.1737  0.1986  0.7536
 2074WAT      O 9015   6.471   4.373   0.086  0.0628  0.4807 -0.0188
 2074WAT     H1 9016   6.551   4.372   0.051 -0.4663 -2.3223 -1.3774
 2074WAT     H2 9017   6.473   4.307   0.142 -0.6840  1.8135  1.6852
 2074WAT    EPW 9018   6.483   4.363   0.089 -0.1256  0.2635  0.0322
 2075WAT      O 9019   4.635   3.401   1.592  0.1906  0.0099 -0.1685
 2075WAT     H1 9020   4.609   3.382   1.511  0.4749 -1.8425  0.1227
 2075WAT     H2 9021   4.563   3.390   1.640 -0.5993  3.3094 -0.3368
 2075WAT    EPW 9022   4.621   3.397   1.587  0.1159  0.2236 -0.1503
 2076WAT      O 9023   5.191   5.033   7.468  0.0336 -0.2259  0.6755
 2076WAT     H1 9024   5.270   5.004   7.448 -0.0545 -0.7001  1.0139
 2076WAT     H2 9025   5.179   5.100   7.412  1.2096  0.7356  1.5143
 2076WAT    EPW 9026   5.201   5.039   7.457  0.1943 -0.1539  0.8494
 2077WAT      O 9027   6.441   4.844   1.132  0.3123 -0.3154  0.0238
 2077WAT     H1 9028   6.371   4.823   1.085  0.0309 -0.8627  0.6879
 2077WAT     H2 9029   6.507   4.826   1.077 -0.0573  0.6508 -0.7787
 2077WAT    EPW 9030   6.441   4.839   1.117  0.2161 -0.2535  0.0034
 2078WAT      O 9031   6.242   4.524   0.186  0.1768 -0.0961 -0.1557
 2078WAT     H1 9032   6.267   4.606   0.176 -1.5256  0.5997  0.8816
 2078WAT     H2 9033   6.307   4.478   0.150  1.7707  1.6284  0.3809
 2078WAT    EPW 9034   6.255   4.529   0.179  0.1608  0.2614  0.0768
 2079WAT      O 9035   4.248   2.678   2.258  0.4058  0.1016 -0.6747
 2079WAT     H1 9036   4.226   2.607   2.212 -0.1898 -1.3355  1.6367
 2079WAT     H2 9037   4.172   2.720   2.267 -0.0789 -1.0468  1.1610
 2079WAT    EPW 9038   4.233   2.674   2.253  0.2462 -0.2804 -0.0621
 2080WAT      O 9039   6.925   3.339   0.414  0.2279  0.1680 -0.7490
 2080WAT     H1 9040   6.890   3.398   0.360  1.1213  1.6848  0.2476
 2080WAT     H2 9041   6.896   3.263   0.383 -0.9923  1.1197 -2.0786
 2080WAT    EPW 9042   6.915   3.336   0.402  0.1797  0.5326 -0.7982
 2081WAT      O 9043   6.764   5.180   2.009 -0.1547  0.0676  0.0356
 2081WAT     H1 9044   6.714   5.248   1.989  0.7995  0.5900 -0.6566
 2081WAT     H2 9045   6.824   5.213   2.062 -0.2850 -0.4677  0.5359
 2081WAT    EPW 9046   6.766   5.195   2.014 -0.0330  0.0657  0.0073
 2082WAT      O 9047   6.929   5.354   1.502  0.5642 -0.2446 -0.4591
 2082WAT     H1 9048   6.849   5.360   1.535  0.2667  0.4073 -1.2538
 2082WAT     H2 9049   6.980   5.346   1.572 -0.1504 -0.1557  0.0806
 2082WAT    EPW 9050   6.925   5.354   1.517  0.4147 -0.1351 -0.4967
 2083WAT      O 9051   6.336   6.117   2.110  0.9053  0.3400  0.5199
 2083WAT     H1 9052   6.271   6.061   2.127  0.9204  0.4863  1.0802
 2083WAT     H2 9053   6.315   6.188   2.156  0.7638  0.8888 -0.3793
 2083WAT    EPW 9054   6.324   6.119   2.120  0.8866  0.4427  0.4699
 2084WAT      O 9055   6.137   5.902   2.126  0.0943  0.3014  0.0365
 2084WAT     H1 9056   6.075   5.897   2.188 -0.7267  0.4079 -0.7624
 2084WAT     H2 9057   6.122   5.832   2.077  1.5111 -0.4575  0.6290
 2084WAT    EPW 9058   6.126   5.891   2.128  0.1823  0.2051  0.0060
 2085WAT      O 9059   6.717   5.629   1.897 -0.0149  0.0070 -0.4698
 2085WAT     H1 9060   6.684   5.560   1.856 -0.1173  1.0976 -2.3187
 2085WAT     H2 9061   6.686   5.621   1.978 -1.0268 -1.4472 -0.9631
 2085WAT    EPW 9062   6.708   5.617   1.903 -0.1795 -0.0467 -0.8158
 2086WAT      O 9063   6.020   5.853   1.007  0.3190  0.4104 -0.0681
 2086WAT     H1 9064   5.966   5.921   0.995 -0.4674 -0.0595  0.6290
 2086WAT     H2 9065   5.979   5.807   1.069  0.9161 -0.6103 -0.4249
 2086WAT    EPW 9066   6.006   5.856   1.015  0.2911  0.1902 -0.0179
 2087WAT      O 9067   6.897   4.759   1.086 -0.8898 -0.0833 -0.5856
 2087WAT     H1 9068   6.962   4.700   1.087 -0.0330  0.8320 -0.7735
 2087WAT     H2 9069   6.863   4.752   1.166 -1.0336 -1.0683 -0.7106
 2087WAT    EPW 9070   6.902   4.749   1.098 -0.7845 -0.0936 -0.6318
 2088WAT      O 9071   5.983   3.626   6.691 -0.1376 -0.2649  0.3797
 2088WAT     H1 9072   5.987   3.682   6.757 -2.6176 -0.1106  0.4810
 2088WAT     H2 9073   5.975   3.677   6.621  0.4668 -0.4747  0.1477
 2088WAT    EPW 9074   5.982   3.642   6.691 -0.4147 -0.2731  0.3604
 2089WAT      O 9075   6.239   5.070   2.178 -0.1012 -0.4753  0.0455
 2089WAT     H1 9076   6.236   5.130   2.242  2.6488 -0.9937  0.8174
 2089WAT     H2 9077   6.232   5.117   2.105  1.2441  0.7654  0.6499
 2089WAT    EPW 9078   6.238   5.086   2.177  0.5038 -0.3686  0.2488
 2090WAT      O 9079   6.388   4.573   1.585  0.2620 -0.0394  0.4359
 2090WAT     H1 9080   6.430   4.515   1.536 -0.9342 -0.1835 -0.4508
 2090WAT     H2 9081   6.319   4.529   1.614 -0.4158  0.7993  0.1245
 2090WAT    EPW 9082   6.384   4.558   1.582 -0.0149  0.0632  0.2589
 2091WAT      O 9083   6.171   3.797   1.464  0.0616  0.2257 -0.3976
 2091WAT     H1 9084   6.143   3.814   1.545  0.4621 -0.7443 -0.0356
 2091WAT     H2 9085   6.099   3.770   1.423 -0.0797  0.4055 -0.2715
 2091WAT    EPW 9086   6.156   3.795   1.470  0.0999  0.1090 -0.3255
 2092WAT      O 9087   6.208   6.020   0.761 -0.7294  0.2612  0.1183
 2092WAT     H1 9088   6.241   6.000   0.839 -0.9620 -0.7427 -0.0250
 2092WAT     H2 9089   6.262   5.980   0.705 -1.2414 -0.0161 -0.1812
 2092WAT    EPW 9090   6.221   6.011   0.764 -0.8394  0.0719  0.0529
 2093WAT      O 9091   6.209   4.819   0.956  0.1150 -0.3467 -0.0343
 2093WAT     H1 9092   6.148   4.769   0.917 -0.2573 -0.5623  0.8017
 2093WAT     H2 9093   6.254   4.852   0.889 -0.6613 -0.5156 -0.6577
 2093WAT    EPW 9094   6.207   4.816   0.940 -0.0546 -0.4035 -0.0029
 2094WAT      O 9095   4.132   2.702   1.952  0.2574 -0.0491 -0.3994
 2094WAT     H1 9096   4.158   2.761   2.011 -0.1295  1.1403 -1.3872
 2094WAT     H2 9097   4.062   2.739   1.916  0.1794 -0.9951 -1.2574
 2094WAT    EPW 9098   4.125   2.716   1.956  0.1887 -0.0131 -0.6721
 2095WAT      O 9099   6.298   3.738   1.187 -0.6400  0.5232 -0.2306
 2095WAT     H1 9100   6.338   3.687   1.130 -1.0155 -1.2824  1.0418
 2095WAT     H2 9101   6.296   3.690   1.260  1.4992  3.3903  1.9283
 2095WAT    EPW 9102   6.303   3.724   1.190 -0.3795  0.6800  0.2763
 2096WAT      O 9103   6.526   3.773   0.089  0.3152 -0.6470 -0.0763
 2096WAT     H1 9104   6.488   3.805   0.160 -1.8600  1.8648 -2.1589
 2096WAT     H2 9105   6.607   3.805   0.093 -0.1484  0.4718  0.6935
 2096WAT    EPW 9106   6.533   3.782   0.100 -0.0746 -0.1107 -0.2702
 2097WAT      O 9107   6.275   4.589   2.193 -0.1244  0.0389 -0.2197
 2097WAT     H1 9108   6.206   4.554   2.234  1.2394  0.0063  2.2754
 2097WAT     H2 9109   6.313   4.520   2.156 -0.1187 -0.3653  0.5106
 2097WAT    EPW 9110   6.271   4.574   2.194  0.0779 -0.0256  0.2568
 2098WAT      O 9111   5.818   5.394   0.312  0.4495 -0.5641  0.1745
 2098WAT     H1 9112   5.901   5.367   0.305  1.0783  0.6364  2.2031
 2098WAT     H2 9113   5.808   5.407   0.398 -1.9128 -0.8011 -0.0074
 2098WAT    EPW 9114   5.829   5.392   0.324  0.1934 -0.4218  0.4473
 2099WAT      O 9115   6.006   3.048   2.125 -0.1607  0.1579  0.1918
 2099WAT     H1 9116   6.037   3.050   2.207  1.6236 -0.2387 -0.4312
 2099WAT     H2 9117   6.041   3.120   2.089 -1.3834  0.6266 -0.0894
 2099WAT    EPW 9118   6.016   3.059   2.132 -0.0777  0.1685  0.0582
 2100WAT      O 9119   7.270   3.186   0.563 -0.6849  0.1514  0.3058
 2100WAT     H1 9120   7.289   3.118   0.613  2.1592 -0.2741 -1.1517
 2100WAT     H2 9121   7.285   3.255   0.615  0.9823 -0.2968  0.4618
 2100WAT    EPW 9122   7.275   3.186   0.578 -0.0185  0.0224  0.1136
 2101WAT      O 9123   4.838   2.500   1.151  0.1971  0.8619  0.2949
 2101WAT     H1 9124   4.765   2.547   1.157 -1.8705 -2.1064  0.3488
 2101WAT     H2 9125   4.858   2.483   1.234 -0.5626 -0.3754  0.2528
 2101WAT    EPW 9126   4.830   2.504   1.164 -0.2206  0.2406  0.2966
 2102WAT      O 9127   7.124   2.446   0.175  0.8946  0.2035 -0.2439
 2102WAT     H1 9128   7.076   2.493   0.119 -1.5983 -1.1566  0.6133
 2102WAT     H2 9129   7.117   2.364   0.145 -0.4369 -0.5547  1.9178
 2102WAT    EPW 9130   7.116   2.441   0.162  0.3297 -0.1094  0.2020
 2103WAT      O 9131   4.820   4.402   7.523  0.0622  0.5332 -0.0620
 2103WAT     H1 9132   4.754   4.348   7.535  0.7010 -0.5210 -1.0985
 2103WAT     H2 9133   4.866   4.396   7.597  0.4197 -0.7914 -0.3676
 2103WAT    EPW 9134   4.817   4.393   7.536  0.2094  0.1818 -0.2602
 2104WAT      O 9135   6.318   3.535   0.325  0.7012  0.3599  0.3318
 2104WAT     H1 9136   6.300   3.548   0.240  0.5965 -0.4739  0.2211
 2104WAT     H2 9137   6.247   3.495   0.355 -0.3605  2.8221  1.4210
 2104WAT    EPW 9138   6.305   3.531   0.317  0.5289  0.6004  0.4764
 2105WAT      O 9139   4.398   4.995   0.345 -0.0307  0.1715 -1.0786
 2105WAT     H1 9140   4.461   4.937   0.365 -1.8754 -1.2922  1.0521
 2105WAT     H2 9141   4.438   5.053   0.294  3.0440 -0.6319  0.2205
 2105WAT    EPW 9142   4.413   4.995   0.340  0.1510 -0.1634 -0.5720
 2106WAT      O 9143   6.356   0.014   5.369  0.0092 -0.0078  0.9529
 2106WAT     H1 9144   6.344   0.079   5.313 -0.9986 -0.6950  0.3490
 2106WAT     H2 9145   6.396  -0.048   5.321 -0.4223 -0.4143  1.1064
 2106WAT    EPW 9146   6.360   0.014   5.354 -0.2034 -0.1694  0.8863
 2107WAT      O 9147   6.389   0.547   5.966 -0.0450  0.2185  0.0161
 2107WAT     H1 9148   6.388   0.627   5.931  0.4272  0.2288  0.0253
 2107WAT     H2 9149   6.473   0.523   5.963 -0.1364 -0.1615  0.2803
 2107WAT    EPW 9150   6.401   0.555   5.960  0.0113  0.1639  0.0564
 2108WAT      O 9151   5.219   1.259   6.854  0.2871  0.1434  0.3083
 2108WAT     H1 9152   5.217   1.186   6.902  2.1311  0.6692  1.3092
 2108WAT     H2 9153   5.293   1.250   6.808  0.2636  1.1510  0.0631
 2108WAT    EPW 9154   5.230   1.247   6.854  0.5560  0.3699  0.4199
 2109WAT      O 9155   7.043   6.658   5.229  0.1050  0.6201  0.0239
 2109WAT     H1 9156   6.980   6.640   5.286 -1.0658 -1.0248 -1.6774
 2109WAT     H2 9157   7.022   6.737   5.199 -0.4194  0.6249  0.3925
 2109WAT    EPW 9158   7.031   6.667   5.233 -0.1454  0.3778 -0.1730
 2110WAT      O 9159   5.471   2.681   6.768  0.2781  0.1842 -0.3147
 2110WAT     H1 9160   5.475   2.745   6.709 -1.3493  0.9399  0.3217
 2110WAT     H2 9161   5.491   2.610   6.723  0.1542  0.8856 -1.5156
 2110WAT    EPW 9162   5.474   2.680   6.753  0.0194  0.3995 -0.3981
 2111WAT      O 9163   5.040   0.010   4.715 -0.0345 -0.1135  0.4439
 2111WAT     H1 9164   5.029  -0.075   4.731  0.4911 -0.1379  0.7172
 2111WAT     H2 9165   5.125   0.015   4.693 -0.6142 -0.0493 -2.0987
 2111WAT    EPW 9166   5.051  -0.002   4.714 -0.0425 -0.1076  0.1087
 2112WAT      O 9167   6.867   1.125   6.295 -0.3777  0.0893 -0.8763
 2112WAT     H1 9168   6.940   1.171   6.286 -0.5921  0.6610  0.1367
 2112WAT     H2 9169   6.828   1.162   6.364  0.4355 -2.8859  1.3986
 2112WAT    EPW 9170   6.872   1.137   6.304 -0.2893 -0.2657 -0.3906
 2113WAT      O 9171   6.435   0.992   6.280 -0.5570 -0.9307 -0.1413
 2113WAT     H1 9172   6.355   0.971   6.253 -0.6699  0.5377 -1.0943
 2113WAT     H2 9173   6.485   0.972   6.212 -0.1889 -1.3982  0.2713
 2113WAT    EPW 9174   6.430   0.986   6.266 -0.5193 -0.7828 -0.2211
 2114WAT      O 9175   7.173   1.770   6.514 -0.0278 -0.1943 -0.3449
 2114WAT     H1 9176   7.109   1.829   6.517 -0.3446 -0.5110 -0.7533
 2114WAT     H2 9177   7.221   1.796   6.446  1.5072  1.2659  1.1776
 2114WAT    EPW 9178   7.171   1.782   6.504  0.1522 -0.0254 -0.1803
 2115WAT      O 9179   6.201   3.288   6.457 -0.4268 -0.3113 -0.2612
 2115WAT     H1 9180   6.266   3.331   6.418 -0.4665  1.6345  1.6139
 2115WAT     H2 9181   6.134   3.299   6.402  0.5479 -1.6955 -1.8457
 2115WAT    EPW 9182   6.201   3.296   6.443 -0.2887 -0.2284 -0.2183
 2116WAT      O 9183   7.028   3.081   7.532  0.6339 -0.2646 -0.2550
 2116WAT     H1 9184   6.975   3.019   7.563  0.9514 -0.7100 -0.5828
 2116WAT     H2 9185   6.992   3.155   7.560 -0.4303 -0.5293 -0.8818
 2116WAT    EPW 9186   7.015   3.083   7.541  0.5236 -0.3695 -0.3960
 2117WAT      O 9187   7.246   1.118   7.777 -0.1068 -0.1186 -0.3752
 2117WAT     H1 9188   7.160   1.134   7.782 -0.5927 -2.5896  0.4815
 2117WAT     H2 9189   7.278   1.158   7.847 -0.8733 -0.6743  0.3229
 2117WAT    EPW 9190   7.238   1.126   7.788 -0.2918 -0.5657 -0.1455
 2118WAT      O 9191   6.441   1.264   6.311 -0.0242  0.0993  0.1719
 2118WAT     H1 9192   6.422   1.179   6.308  0.7021 -0.0703  0.2575
 2118WAT     H2 9193   6.370   1.302   6.278 -0.3568 -0.5415  0.1456
 2118WAT    EPW 9194   6.428   1.257   6.305  0.0340 -0.0204  0.1807
 2119WAT      O 9195   5.575   7.553   7.041  0.1206 -0.1531 -0.4470
 2119WAT     H1 9196   5.660   7.551   7.019  0.1598 -1.5347 -0.2219
 2119WAT     H2 9197   5.573   7.519   7.121 -0.5896  0.4696 -0.1831
 2119WAT    EPW 9198   5.588   7.548   7.049  0.0215 -0.2652 -0.3748
 2120WAT      O 9199   5.046   4.410   6.420 -0.2569 -0.1575 -0.2719
 2120WAT     H1 9200   5.116   4.461   6.405 -0.3948  0.1894  0.2386
 2120WAT     H2 9201   5.004   4.410   6.344 -0.4733  0.8364 -0.1643
 2120WAT    EPW 9202   5.050   4.418   6.407 -0.3093  0.0406 -0.1806
 2121WAT      O 9203   6.622   1.616   6.687 -0.6102  0.0842 -0.1004
 2121WAT     H1 9204   6.663   1.692   6.701 -0.1988  0.2614 -2.0186
 2121WAT     H2 9205   6.687   1.559   6.674 -0.7893  0.4803 -3.7506
 2121WAT    EPW 9206   6.637   1.619   6.687 -0.5759  0.1689 -0.9230
 2122WAT      O 9207   6.695   1.837   6.845 -0.1481 -0.2108 -0.0554
 2122WAT     H1 9208   6.712   1.923   6.850 -0.0944 -0.2488  0.4606
 2122WAT     H2 9209   6.770   1.800   6.870 -0.6326 -0.3900  1.1746
 2122WAT    EPW 9210   6.709   1.845   6.849 -0.2118 -0.2429  0.2025
 2123WAT      O 9211   6.765   7.233   5.593 -0.0103 -0.8999  0.3346
 2123WAT     H1 9212   6.828   7.231   5.654 -1.4915 -1.9473  1.9321
 2123WAT     H2 9213   6.795   7.179   5.532  1.4308  0.0247  0.1505
 2123WAT    EPW 9214   6.779   7.225   5.593 -0.0162 -0.9180  0.5434
 2124WAT      O 9215   5.633   1.276   6.941 -0.3026 -0.0994 -0.2458
 2124WAT     H1 9216   5.648   1.348   6.895 -0.3036  0.7866  1.1043
 2124WAT     H2 9217   5.687   1.284   7.010 -0.6709 -1.1362  0.1828
 2124WAT    EPW 9218   5.643   1.287   6.945 -0.3572 -0.1217  0.0169
 2125WAT      O 9219   5.579   7.291   5.496  0.1384  0.5459 -0.2114
 2125WAT     H1 9220   5.634   7.358   5.507 -0.1659  0.6935  0.4366
 2125WAT     H2 9221   5.538   7.310   5.421 -1.6792  2.3394  1.1453
 2125WAT    EPW 9222   5.581   7.304   5.486 -0.1750  0.8327  0.0847
 2126WAT      O 9223   7.413   7.363   7.312 -0.3336  0.2040  0.2423
 2126WAT     H1 9224   7.439   7.346   7.393 -0.2089 -0.6085  0.0425
 2126WAT     H2 9225   7.381   7.286   7.285 -0.4913  0.5032 -0.4279
 2126WAT    EPW 9226   7.412   7.349   7.320 -0.3385  0.1282  0.1138
 2127WAT      O 9227   6.768   7.635   7.085 -0.1269  0.5368  0.6555
 2127WAT     H1 9228   6.694   7.647   7.041 -0.8162 -1.7267  1.0843
 2127WAT     H2 9229   6.746   7.648   7.168 -0.8783 -2.7898  1.1331
 2127WAT    EPW 9230   6.754   7.639   7.091 -0.3397 -0.2889  0.7894
 2128WAT      O 9231   6.032   1.205   3.803 -0.2803 -0.7198  0.1487
 2128WAT     H1 9232   6.021   1.130   3.760  0.5173 -0.4408 -0.5590
 2128WAT     H2 9233   6.069   1.258   3.745 -1.8659  0.6131  0.2780
 2128WAT    EPW 9234   6.036   1.202   3.788 -0.3967 -0.4817  0.0633
 2129WAT      O 9235   5.726   0.366   6.148 -0.5082 -0.0152  0.1647
 2129WAT     H1 9236   5.776   0.437   6.152  1.0182 -0.9949 -0.5257
 2129WAT     H2 9237   5.737   0.338   6.066 -0.5306 -1.4133  0.6155
 2129WAT    EPW 9238   5.735   0.372   6.136 -0.2861 -0.3664  0.1293
 2130WAT      O 9239   6.839   1.353   7.145  0.1791 -0.1286 -0.3355
 2130WAT     H1 9240   6.767   1.384   7.186  0.3084 -2.1292  1.6020
 2130WAT     H2 9241   6.903   1.400   7.180  0.0881 -0.4756  0.3224
 2130WAT    EPW 9242   6.838   1.365   7.156  0.1848 -0.4754  0.0479
 2131WAT      O 9243   7.151   7.495   6.490 -0.3929 -0.3807  0.3178
 2131WAT     H1 9244   7.117   7.558   6.440  2.3737  0.5936 -0.5574
 2131WAT     H2 9245   7.149   7.424   6.439 -0.1511 -0.0572 -0.1593
 2131WAT    EPW 9246   7.146   7.494   6.475  0.0515 -0.1890  0.1181
 2132WAT      O 9247   6.381   2.798   4.745 -0.3937  0.0229  0.7735
 2132WAT     H1 9248   6.389   2.717   4.778 -0.6117  0.3501  1.6465
 2132WAT     H2 9249   6.448   2.804   4.690 -1.2257 -1.3093 -0.5007
 2132WAT    EPW 9250   6.392   2.787   4.742 -0.5488 -0.1255  0.7142
 2133WAT      O 9251   7.061   3.194   7.096 -0.4506 -0.1502  0.1547
 2133WAT     H1 9252   7.032   3.179   7.015  0.4385 -0.5428 -0.1128
 2133WAT     H2 9253   7.123   3.133   7.107  1.0611  1.3154  0.2298
 2133WAT    EPW 9254   7.066   3.183   7.086 -0.0960  0.0083  0.1263
 2134WAT      O 9255   5.513   0.224   7.796 -0.1841 -0.2207 -0.6272
 2134WAT     H1 9256   5.433   0.209   7.765 -1.0386  0.2227  1.2298
 2134WAT     H2 9257   5.531   0.152   7.842  0.2133 -0.0562 -0.5227
 2134WAT    EPW 9258   5.504   0.211   7.798 -0.2516 -0.1309 -0.3374
 2135WAT      O 9259   6.484   1.613   5.273 -0.2712  0.4579  0.2052
 2135WAT     H1 9260   6.465   1.554   5.212  0.3246 -1.4533  1.7332
 2135WAT     H2 9261   6.549   1.659   5.238 -1.2892  0.8042 -1.3436
 2135WAT    EPW 9262   6.491   1.611   5.259 -0.3335  0.2267  0.2021
 2136WAT      O 9263   6.913   6.928   6.950 -0.1092  0.6757  1.0161
 2136WAT     H1 9264   6.900   7.008   6.917  1.1704  0.9123  1.0526
 2136WAT     H2 9265   6.871   6.876   6.894  2.0528  1.0541 -1.1182
 2136WAT    EPW 9266   6.905   6.932   6.937  0.3992  0.7665  0.7062
 2137WAT      O 9267   7.133   1.597   0.244 -0.1709  0.6133  0.2638
 2137WAT     H1 9268   7.183   1.526   0.257 -0.4361  0.5562  1.0035
 2137WAT     H2 9269   7.130   1.634   0.323 -0.9185  0.8677  0.1188
 2137WAT    EPW 9270   7.140   1.592   0.258 -0.3205  0.6425  0.3517
 2138WAT      O 9271   6.510   7.586   0.373  0.1567 -0.6472 -0.3168
 2138WAT     H1 9272   6.564   7.552   0.433  0.5945 -0.9957 -0.9004
 2138WAT     H2 9273   6.452   7.522   0.359  0.2755 -0.7056 -0.5416
 2138WAT    EPW 9274   6.509   7.571   0.380  0.2390 -0.7073 -0.4362
 2139WAT      O 9275   5.001   2.679   6.106 -0.7851  0.3919 -0.7241
 2139WAT     H1 9276   4.954   2.607   6.118  1.1267 -0.9816 -0.9466
 2139WAT     H2 9277   5.019   2.677   6.020 -0.1551  0.7522 -0.6085
 2139WAT    EPW 9278   4.997   2.668   6.095 -0.4096  0.2422 -0.7398
 2140WAT      O 9279   5.102   2.489   6.375  0.0113  0.2722  0.3728
 2140WAT     H1 9280   5.038   2.491   6.315  0.4126 -0.3958 -0.0847
 2140WAT     H2 9281   5.062   2.459   6.447 -0.0527 -0.7950 -0.0932
 2140WAT    EPW 9282   5.087   2.485   6.377  0.0611  0.0159  0.2364
 2141WAT      O 9283   5.883   0.359   7.100 -0.7748 -0.3328  0.6967
 2141WAT     H1 9284   5.870   0.435   7.057 -1.2711 -0.1349  1.1910
 2141WAT     H2 9285   5.960   0.332   7.069 -1.0722 -0.1456 -0.2536
 2141WAT    EPW 9286   5.893   0.367   7.089 -0.8920 -0.2759  0.6294
 2142WAT      O 9287   3.921   0.884   4.985  0.1389  0.1208 -0.3094
 2142WAT     H1 9288   4.001   0.849   4.982  0.0924 -0.0642  0.3292
 2142WAT     H2 9289   3.874   0.823   5.027 -0.5649 -0.1808 -1.4803
 2142WAT    EPW 9290   3.926   0.870   4.991  0.0281  0.0489 -0.3880
 2143WAT      O 9291   6.787   0.752   5.932  0.3792  0.1658  0.1301
 2143WAT     H1 9292   6.757   0.705   5.864 -0.5751  0.3441  0.4188
 2143WAT     H2 9293   6.831   0.693   5.979 -0.3079 -0.3244  0.1805
 2143WAT    EPW 9294   6.789   0.736   5.929  0.1367  0.1197  0.1802
 2144WAT      O 9295   6.401   2.082   6.223  0.1265 -0.2469 -0.4296
 2144WAT     H1 9296   6.331   2.132   6.207  0.7352  1.0285  0.6966
 2144WAT     H2 9297   6.434   2.068   6.144 -0.5916  0.3482 -0.8559
 2144WAT    EPW 9298   6.395   2.088   6.209  0.1103  0.0294 -0.3262
 2145WAT      O 9299   6.617   3.242   7.234 -0.9149  0.2249 -0.1944
 2145WAT     H1 9300   6.619   3.167   7.190 -0.5264  0.4365 -0.5473
 2145WAT     H2 9301   6.701   3.257   7.254 -1.1537 -0.2435  1.2883
 2145WAT    EPW 9302   6.630   3.233   7.230 -0.8928  0.1870 -0.0275
 2146WAT      O 9303   5.550   1.244   7.829 -0.0530 -0.1021  0.3725
 2146WAT     H1 9304   5.561   1.279   7.750  0.4393  0.0941  0.5260
 2146WAT     H2 9305   5.601   1.174   7.828  0.6459  0.3925  0.8239
 2146WAT    EPW 9306   5.559   1.239   7.818  0.1230 -0.0001  0.4618
 2147WAT      O 9307   6.402   2.222   0.193  0.0869 -0.0785 -0.1451
 2147WAT     H1 9308   6.362   2.194   0.121 -0.5213  0.1928  0.0884
 2147WAT     H2 9309   6.344   2.208   0.256 -0.5827  2.4302 -0.1057
 2147WAT    EPW 9310   6.388   2.215   0.192 -0.1018  0.3322 -0.1048
 2148WAT      O 9311   6.066   1.765   5.441  0.5063  0.1519 -0.1850
 2148WAT     H1 9312   6.019   1.817   5.492 -0.7118 -0.5266 -0.5652
 2148WAT     H2 9313   6.143   1.806   5.434 -0.0136  1.2773  0.4903
 2148WAT    EPW 9314   6.071   1.779   5.447  0.2496  0.2179 -0.1414
 2149WAT      O 9315   6.640   3.612   6.437  0.1270  0.4969  0.6221
 2149WAT     H1 9316   6.661   3.613   6.522 -0.5043 -0.8966  0.8304
 2149WAT     H2 9317   6.554   3.626   6.438 -0.0728 -0.5987  0.3190
 2149WAT    EPW 9318   6.630   3.614   6.450  0.0043  0.1292  0.6081
 2150WAT      O 9319   6.280   0.399   5.749 -0.2787  0.2387 -0.4089
 2150WAT     H1 9320   6.204   0.380   5.789 -1.1231  2.8059 -0.6186
 2150WAT     H2 9321   6.315   0.461   5.800  0.9850  0.1327 -1.1083
 2150WAT    EPW 9322   6.274   0.406   5.763 -0.2167  0.6023 -0.5432
 2151WAT      O 9323   6.193   4.532   7.198  0.7552 -0.1966 -0.0717
 2151WAT     H1 9324   6.193   4.456   7.241 -0.8153 -0.8274 -1.1087
 2151WAT     H2 9325   6.180   4.591   7.261  0.3674 -0.9353  0.5623
 2151WAT    EPW 9326   6.191   4.529   7.214  0.4659 -0.3989 -0.1312
 2152WAT      O 9327   6.081   2.548   6.457 -0.0512 -0.7622  0.0160
 2152WAT     H1 9328   6.124   2.473   6.469  0.5168 -0.3695  0.5220
 2152WAT     H2 9329   6.069   2.578   6.538  1.5160  0.6716 -0.2175
 2152WAT    EPW 9330   6.086   2.541   6.471  0.2642 -0.4924  0.0562
 2153WAT      O 9331   6.236   2.549   7.345  0.6342 -0.2819 -0.7041
 2153WAT     H1 9332   6.296   2.609   7.324 -0.2336  0.9812  0.2362
 2153WAT     H2 9333   6.167   2.573   7.298 -0.0027  0.0150  0.3525
 2153WAT    EPW 9334   6.235   2.562   7.335  0.4119 -0.0515 -0.4091
 2154WAT      O 9335   6.501   0.572   5.382  0.1398 -0.1655 -0.2984
 2154WAT     H1 9336   6.503   0.626   5.314  0.4942  0.1418 -0.0500
 2154WAT     H2 9337   6.494   0.626   5.450 -1.8752 -0.5127 -0.1577
 2154WAT    EPW 9338   6.500   0.588   5.382 -0.1055 -0.1714 -0.2409
 2155WAT      O 9339   6.542   3.324   7.501 -0.0148  0.0633  0.2466
 2155WAT     H1 9340   6.502   3.262   7.549  2.0077 -0.2654  1.6551
 2155WAT     H2 9341   6.544   3.290   7.421 -1.4385 -0.4250  0.3983
 2155WAT    EPW 9342   6.537   3.310   7.497  0.0737 -0.0574  0.4771
 2156WAT      O 9343   5.340   0.867   5.658 -0.3543 -0.2425 -0.4713
 2156WAT     H1 9344   5.299   0.916   5.717 -0.4841 -0.5692 -0.2899
 2156WAT     H2 9345   5.309   0.895   5.582 -1.6975 -1.2015 -0.2959
 2156WAT    EPW 9346   5.330   0.879   5.655 -0.5719 -0.4324 -0.4186
 2157WAT      O 9347   6.704   0.246   6.408  0.1964  0.1070  0.5016
 2157WAT     H1 9348   6.636   0.197   6.384  0.3205 -0.3679  1.0888
 2157WAT     H2 9349   6.762   0.233   6.345 -0.0192  0.0180  0.3196
 2157WAT    EPW 9350   6.702   0.237   6.395  0.1829  0.0237  0.5614
 2158WAT      O 9351   7.180   2.121   7.086 -0.2610  0.2451 -0.0518
 2158WAT     H1 9352   7.125   2.136   7.020 -1.7016 -2.1731  0.4792
 2158WAT     H2 9353   7.212   2.041   7.068 -0.9412 -0.6277  2.2461
 2158WAT    EPW 9354   7.177   2.111   7.074 -0.5743 -0.2411  0.3661
 2159WAT      O 9355   6.530   6.377   0.919 -0.1300  0.2799  0.0665
 2159WAT     H1 9356   6.508   6.454   0.885 -2.6165  1.4116  3.6099
 2159WAT     H2 9357   6.610   6.391   0.952  0.1829  0.7139 -0.8552
 2159WAT    EPW 9358   6.538   6.390   0.919 -0.4511  0.5112  0.4538
 2160WAT      O 9359   6.135   1.396   7.618  0.4304  0.2782 -0.3123
 2160WAT     H1 9360   6.184   1.457   7.657 -1.6141  1.0565  1.2299
 2160WAT     H2 9361   6.153   1.323   7.663  1.3102  0.1874 -0.7900
 2160WAT    EPW 9362   6.144   1.394   7.630  0.2584  0.3797 -0.1551
 2161WAT      O 9363   6.771   0.382   7.430 -0.2786  0.2605 -0.3625
 2161WAT     H1 9364   6.710   0.404   7.372 -0.0974  1.2740 -0.1852
 2161WAT     H2 9365   6.836   0.438   7.413  1.1154 -1.5219 -1.3386
 2161WAT    EPW 9366   6.772   0.393   7.419 -0.0459  0.1469 -0.4805
 2162WAT      O 9367   6.539   1.932   0.463 -0.5122 -0.0077  0.1968
 2162WAT     H1 9368   6.497   1.898   0.532 -1.9190  1.3785  0.0869
 2162WAT     H2 9369   6.552   2.015   0.486 -2.2478  0.8657 -1.6820
 2162WAT    EPW 9370   6.534   1.939   0.477 -0.9764  0.3261 -0.0970
 2163WAT      O 9371   6.557   2.005   5.984 -0.1807  0.1430 -0.6483
 2163WAT     H1 9372   6.579   2.088   5.971 -0.9399  0.2522 -1.3341
 2163WAT     H2 9373   6.505   1.987   5.917  1.5086 -1.4832 -1.6262
 2163WAT    EPW 9374   6.553   2.015   5.972 -0.0433 -0.0811 -0.8941
 2164WAT      O 9375   6.818   1.074   7.146 -0.0307 -0.4748 -0.3216
 2164WAT     H1 9376   6.890   1.052   7.102 -1.2650 -1.3349 -1.9619
 2164WAT     H2 9377   6.819   1.161   7.144  0.1985 -0.4933 -1.6453
 2164WAT    EPW 9378   6.829   1.084   7.140 -0.1792 -0.6046 -0.7594
 2165WAT      O 9379   7.041   0.266   6.661  0.1980  0.0720  0.1197
 2165WAT     H1 9380   7.101   0.224   6.708 -0.3282 -1.0395 -0.1440
 2165WAT     H2 9381   6.966   0.227   6.684 -0.1465 -0.0666 -1.1517
 2165WAT    EPW 9382   7.039   0.254   6.671  0.0694 -0.1127 -0.1070
 2166WAT      O 9383   4.154   0.193   6.604 -0.5224 -0.4918  0.1553
 2166WAT     H1 9384   4.143   0.143   6.533 -1.2900  1.3980 -1.1442
 2166WAT     H2 9385   4.238   0.181   6.624 -0.8847 -2.9475  0.4815
 2166WAT    EPW 9386   4.165   0.184   6.596 -0.6893 -0.5754  0.0115
 2167WAT      O 9387   7.106   1.258   6.275 -0.4081  0.1020  0.0057
 2167WAT     H1 9388   7.124   1.292   6.197  1.0765 -0.6456 -0.0029
 2167WAT     H2 9389   7.116   1.325   6.330  0.5771  0.1476 -0.2255
 2167WAT    EPW 9390   7.110   1.273   6.272 -0.0433 -0.0017 -0.0297
 2168WAT      O 9391   7.126   0.511   6.961  0.2791  0.3736 -0.0785
 2168WAT     H1 9392   7.202   0.470   6.967  1.1354  2.0612  1.5787
 2168WAT     H2 9393   7.112   0.515   6.875  1.5230 -0.8810 -0.3695
 2168WAT    EPW 9394   7.135   0.506   6.949  0.5893  0.4375  0.1233
 2169WAT      O 9395   5.850   2.202   5.845 -0.7051  0.2222  0.3295
 2169WAT     H1 9396   5.807   2.253   5.790 -0.3549  1.6703  1.3339
 2169WAT     H2 9397   5.788   2.166   5.894 -0.9117  0.4087  0.2013
 2169WAT    EPW 9398   5.835   2.204   5.844 -0.6839  0.4637  0.4589
 2170WAT      O 9399   5.178   2.340   6.769 -0.2762 -0.1158 -0.3977
 2170WAT     H1 9400   5.261   2.361   6.751 -0.6010  2.7046  0.8553
 2170WAT     H2 9401   5.137   2.352   6.693 -0.0423  1.8684 -0.2562
 2170WAT    EPW 9402   5.184   2.345   6.755 -0.2896  0.5939 -0.1917
 2171WAT      O 9403   5.815   2.884   6.271 -0.1119  0.4087 -0.1369
 2171WAT     H1 9404   5.735   2.872   6.239  0.1604 -0.8145 -0.3859
 2171WAT     H2 9405   5.840   2.804   6.296  1.0223  0.7722 -0.0337
 2171WAT    EPW 9406   5.807   2.871   6.270  0.0959  0.2817 -0.1585
 2172WAT      O 9407   5.958   1.135   5.898 -0.4074  0.0609  0.3218
 2172WAT     H1 9408   5.913   1.100   5.964  0.2389  1.0569  1.3261
 2172WAT     H2 9409   5.940   1.220   5.904  2.5278  0.6987  1.5554
 2172WAT    EPW 9410   5.949   1.143   5.909  0.1217  0.3022  0.6523
 2173WAT      O 9411   6.482   2.275   6.965 -0.8721  0.3453  0.0560
 2173WAT     H1 9412   6.423   2.302   7.024 -1.7249 -1.1038 -0.0759
 2173WAT     H2 9413   6.444   2.293   6.889 -0.0073  1.7190 -0.0791
 2173WAT    EPW 9414   6.467   2.281   6.963 -0.8704  0.3342  0.0166
 2174WAT      O 9415   6.036   2.366   7.059  0.5038 -0.4928  1.0185
 2174WAT     H1 9416   5.974   2.344   7.002 -0.7134  0.9766  1.6934
 2174WAT     H2 9417   6.012   2.325   7.132 -0.9096  1.6097  1.8475
 2174WAT    EPW 9418   6.023   2.357   7.061  0.1152  0.0348  1.2406
 2175WAT      O 9419   6.601   0.917   6.061  0.5495  0.1818 -0.1416
 2175WAT     H1 9420   6.635   0.996   6.076  2.0493 -0.5505  0.5332
 2175WAT     H2 9421   6.671   0.867   6.046 -0.3588 -1.0533 -0.4233
 2175WAT    EPW 9422   6.617   0.922   6.061  0.6369 -0.1089 -0.0835
 2176WAT      O 9423   7.253   3.500   6.285 -0.6414 -0.0540 -0.2345
 2176WAT     H1 9424   7.257   3.567   6.230 -0.1024  0.7578  0.7632
 2176WAT     H2 9425   7.235   3.537   6.362  0.7868 -0.8884  0.5620
 2176WAT    EPW 9426   7.251   3.515   6.288 -0.3508 -0.0574  0.0305
 2177WAT      O 9427   5.773   2.270   4.893  0.1593  0.3974 -0.4645
 2177WAT     H1 9428   5.837   2.211   4.895 -0.5677 -0.4446 -0.9408
 2177WAT     H2 9429   5.711   2.233   4.943 -0.3727  0.6709 -0.9148
 2177WAT    EPW 9430   5.773   2.256   4.901 -0.0266  0.3134 -0.6014
 2178WAT      O 9431   6.698   2.505   7.548 -0.4108 -0.0542 -0.2451
 2178WAT     H1 9432   6.657   2.575   7.515  1.5741  2.0571  1.4623
 2178WAT     H2 9433   6.642   2.474   7.606 -1.7195 -0.5580 -1.6965
 2178WAT    EPW 9434   6.684   2.511   7.552 -0.3109  0.1833 -0.2073
 2179WAT      O 9435   6.078   6.474   7.147  0.3740  0.1916  0.2508
 2179WAT     H1 9436   6.078   6.556   7.178  0.6527  0.4935 -0.5232
 2179WAT     H2 9437   6.154   6.442   7.175  0.3445  0.2555  0.4070
 2179WAT    EPW 9438   6.089   6.481   7.156  0.4108  0.2456  0.1595
 2180WAT      O 9439   5.869   1.096   5.614 -0.6362  0.1970  0.5544
 2180WAT     H1 9440   5.882   1.100   5.700 -0.3550  0.8620  0.4869
 2180WAT     H2 9441   5.932   1.146   5.581 -0.3303 -0.5865 -0.0876
 2180WAT    EPW 9442   5.880   1.104   5.622 -0.5495  0.1795  0.4496
 2181WAT      O 9443   7.183   3.606   7.174  0.1746 -0.3158 -0.0702
 2181WAT     H1 9444   7.235   3.583   7.108 -1.3407  1.4525 -2.0275
 2181WAT     H2 9445   7.105   3.575   7.150 -0.3772  0.1986  0.9981
 2181WAT    EPW 9446   7.179   3.598   7.161 -0.1308  0.0214 -0.2015
 2182WAT      O 9447   6.359   0.956   7.535 -0.3688 -0.0538  0.4189
 2182WAT     H1 9448   6.428   0.930   7.581 -1.3688 -2.9988  0.4698
 2182WAT     H2 9449   6.386   0.950   7.452 -0.4822 -1.0622  0.4431
 2182WAT    EPW 9450   6.373   0.952   7.530 -0.5333 -0.6378  0.4300
 2183WAT      O 9451   6.729   7.276   7.049 -0.4874  0.3560 -0.1733
 2183WAT     H1 9452   6.705   7.220   7.111 -0.3674  0.1133 -0.3463
 2183WAT     H2 9453   6.742   7.350   7.092 -0.8252  0.2994  0.0290
 2183WAT    EPW 9454   6.727   7.279   7.064 -0.5196  0.3118 -0.1690
 2184WAT      O 9455   6.186   2.293   6.497  0.1417  0.6275 -0.6910
 2184WAT     H1 9456   6.177   2.269   6.413 -1.3109  0.2252 -0.4547
 2184WAT     H2 9457   6.112   2.264   6.534  1.5405 -0.9106  1.1369
 2184WAT    EPW 9458   6.174   2.285   6.490  0.1338  0.3409 -0.3861
 2185WAT      O 9459   6.394   0.113   0.831  0.1845  0.1668 -0.2314
 2185WAT     H1 9460   6.453   0.164   0.870 -0.1939  1.9621 -1.8467
 2185WAT     H2 9461   6.420   0.113   0.747 -1.2022 -0.3117 -0.6790
 2185WAT    EPW 9462   6.407   0.121   0.824 -0.0762  0.3613 -0.5361
 2186WAT      O 9463   6.522   1.927   7.461  0.3753  0.6772 -0.7470
 2186WAT     H1 9464   6.438   1.914   7.483  0.4581  1.2206 -0.0612
 2186WAT     H2 9465   6.552   1.847   7.444  0.3840  0.1628  1.4428
 2186WAT    EPW 9466   6.514   1.914   7.462  0.3888  0.6815 -0.3222
 2187WAT      O 9467   5.875   1.933   6.570  0.1529 -0.1008 -0.7019
 2187WAT     H1 9468   5.789   1.916   6.573 -0.0274  0.7523 -0.8040
 2187WAT     H2 9469   5.907   1.889   6.638 -0.6091  0.8736  0.3216
 2187WAT    EPW 9470   5.867   1.924   6.580  0.0137  0.1692 -0.5658
 2188WAT      O 9471   5.529   1.791   7.100 -0.4632 -0.1225  0.1529
 2188WAT     H1 9472   5.520   1.869   7.138 -0.7912 -0.4137  0.6854
 2188WAT     H2 9473   5.579   1.747   7.156  2.4009  0.6811 -1.5987
 2188WAT    EPW 9474   5.535   1.796   7.114 -0.0886 -0.0468 -0.0272
 2189WAT      O 9475   6.989   1.877   7.207 -0.0253 -0.2259 -0.5714
 2189WAT     H1 9476   6.996   1.964   7.214 -1.5045  0.1899 -2.9915
 2189WAT     H2 9477   7.045   1.857   7.144  1.1126 -1.2559  0.7102
 2189WAT    EPW 9478   6.998   1.887   7.199 -0.0757 -0.3167 -0.7396
 2190WAT      O 9479   6.597   3.008   7.076 -0.7355  0.6947  0.3089
 2190WAT     H1 9480   6.519   2.969   7.081 -1.4678  1.5824 -2.4314
 2190WAT     H2 9481   6.649   2.955   7.122 -2.3515 -1.6591 -0.3861
 2190WAT    EPW 9482   6.593   2.994   7.084 -1.0824  0.4781 -0.1986
 2191WAT      O 9483   5.676   2.553   7.800  0.7781  0.5195  0.1004
 2191WAT     H1 9484   5.750   2.546   7.845  0.8463 -0.5758 -0.1559
 2191WAT     H2 9485   5.653   2.470   7.785  1.7606  0.7114 -3.4930
 2191WAT    EPW 9486   5.684   2.540   7.804  0.9333  0.3861 -0.4683
 2192WAT      O 9487   6.407   1.983   5.750  0.5904 -0.4835  0.2173
 2192WAT     H1 9488   6.463   1.934   5.704  0.4963 -0.2474 -0.1487
 2192WAT     H2 9489   6.413   2.061   5.712  3.0165  0.6693  2.6188
 2192WAT    EPW 9490   6.416   1.987   5.738  0.9349 -0.2783  0.5180
 2193WAT      O 9491   6.114   3.054   0.192 -0.8260  0.0949 -0.3453
 2193WAT     H1 9492   6.117   3.125   0.141  0.0880 -0.1611 -0.6685
 2193WAT     H2 9493   6.029   3.043   0.207 -0.9797  1.3081 -0.2143
 2193WAT    EPW 9494   6.102   3.063   0.187 -0.7137  0.2363 -0.3736
 2194WAT      O 9495   7.043   2.150   0.087 -0.3649  0.3260  0.0710
 2194WAT     H1 9496   6.962   2.149   0.056 -0.7518  2.2333  0.8528
 2194WAT     H2 9497   7.071   2.068   0.074 -1.6722  0.1376 -2.0421
 2194WAT    EPW 9498   7.035   2.138   0.081 -0.6152  0.5799 -0.1256
 2195WAT      O 9499   7.040   1.552   7.197  0.0519 -0.4100 -0.9743
 2195WAT     H1 9500   7.029   1.602   7.126  0.4156 -0.4219 -1.0398
 2195WAT     H2 9501   7.018   1.606   7.263  2.0968  0.4343 -0.8994
 2195WAT    EPW 9502   7.035   1.568   7.197  0.4077 -0.2871 -0.9729
 2196WAT      O 9503   6.092   0.626   5.567  0.7698 -0.0527  0.5197
 2196WAT     H1 9504   6.031   0.685   5.589  2.0068  1.1881  0.7208
 2196WAT     H2 9505   6.116   0.592   5.644 -1.0713 -2.0673  0.3037
 2196WAT    EPW 9506   6.086   0.630   5.582  0.6806 -0.1670  0.5175
 2197WAT      O 9507   4.968   2.362   6.591 -0.5030 -0.0853  0.0203
 2197WAT     H1 9508   4.926   2.428   6.628 -0.5028  1.1217 -1.9464
 2197WAT     H2 9509   4.926   2.292   6.620  0.8775  0.4839  3.9633
 2197WAT    EPW 9510   4.956   2.362   6.600 -0.2991  0.1771  0.3122
 2198WAT      O 9511   6.909   0.228   6.219 -0.3877 -0.5368  0.8324
 2198WAT     H1 9512   6.974   0.267   6.261 -1.7860  2.4861  0.4629
 2198WAT     H2 9513   6.921   0.251   6.136 -0.9106 -1.4975  0.4681
 2198WAT    EPW 9514   6.920   0.237   6.213 -0.6715 -0.2322  0.7240
 2199WAT      O 9515   6.964   1.230   7.780 -0.1796 -0.3046 -0.1568
 2199WAT     H1 9516   6.948   1.310   7.811  0.6509 -0.9184  2.0259
 2199WAT     H2 9517   6.920   1.229   7.705  0.6014  2.5317 -0.7901
 2199WAT    EPW 9518   6.955   1.242   7.774  0.0585  0.0237  0.0721
 2200WAT      O 9519   6.448   2.093   5.375  0.2562 -0.0610  0.2828
 2200WAT     H1 9520   6.510   2.084   5.314 -0.5267 -0.4334 -0.4948
 2200WAT     H2 9521   6.417   2.012   5.385 -2.1060  0.4848 -1.5794
 2200WAT    EPW 9522   6.452   2.080   5.367 -0.2084 -0.0354 -0.1071
 2201WAT      O 9523   7.017   0.736   7.095 -0.3176 -0.2412  1.0174
 2201WAT     H1 9524   6.935   0.716   7.072 -0.1980  0.2607  0.0834
 2201WAT     H2 9525   7.066   0.686   7.043 -0.0114  2.2844 -1.4057
 2201WAT    EPW 9526   7.012   0.726   7.084 -0.2547  0.2060  0.5215
 2202WAT      O 9527   5.584   0.486   6.903  0.4655 -0.9041  0.1848
 2202WAT     H1 9528   5.631   0.455   6.837  1.2249  3.3620 -1.5699
 2202WAT     H2 9529   5.508   0.445   6.895  1.2284 -2.0423 -2.0537
 2202WAT    EPW 9530   5.580   0.476   6.892  0.6904 -0.4421 -0.4051
 2203WAT      O 9531   6.266   0.783   6.400  0.1355 -0.4073 -0.3227
 2203WAT     H1 9532   6.335   0.829   6.372 -0.7724  0.7015 -0.7962
 2203WAT     H2 9533   6.272   0.787   6.487  1.1483 -1.0807 -0.3474
 2203WAT    EPW 9534   6.277   0.790   6.409  0.1510 -0.3430 -0.3963
 2204WAT      O 9535   6.733   2.411   7.012 -0.0566 -0.2733  0.0191
 2204WAT     H1 9536   6.769   2.393   7.089 -0.0359 -1.1015 -0.1794
 2204WAT     H2 9537   6.667   2.355   7.006 -0.3472  0.0988 -0.3696
 2204WAT    EPW 9538   6.729   2.400   7.022 -0.0965 -0.3407 -0.0677
 2205WAT      O 9539   5.482   1.249   7.286 -0.4947  0.1990 -0.4017
 2205WAT     H1 9540   5.412   1.224   7.332  0.5535  1.8543  2.3919
 2205WAT     H2 9541   5.449   1.308   7.230 -1.4372  0.6113  0.5387
 2205WAT    EPW 9542   5.467   1.254   7.285 -0.4791  0.5045  0.1499
 2206WAT      O 9543   6.416   0.477   6.628 -0.3553  0.5420  0.7092
 2206WAT     H1 9544   6.468   0.503   6.693  1.0269  0.6085 -0.3725
 2206WAT     H2 9545   6.373   0.409   6.662  1.8630 -0.7679  1.0574
 2206WAT    EPW 9546   6.417   0.471   6.643  0.1766  0.3583  0.6008
 2207WAT      O 9547   6.198   1.708   6.448 -0.3192  0.3848 -0.2899
 2207WAT     H1 9548   6.125   1.742   6.416 -1.5666 -1.9633 -0.1521
 2207WAT     H2 9549   6.260   1.740   6.396 -1.6702  0.8361 -1.7065
 2207WAT    EPW 9550   6.197   1.718   6.436 -0.7030  0.1046 -0.4788
 2208WAT      O 9551   4.565   7.542   5.839 -0.0874  0.6142  0.0485
 2208WAT     H1 9552   4.513   7.556   5.771 -0.5780 -1.0294  0.0270
 2208WAT     H2 9553   4.534   7.595   5.901 -1.2504  0.2982 -0.2369
 2208WAT    EPW 9554   4.553   7.552   5.838 -0.3317  0.3247  0.0032
 2209WAT      O 9555   5.962   0.562   5.187  0.3969  0.3535  1.1520
 2209WAT     H1 9556   5.908   0.500   5.156 -0.1829  1.3559  0.1054
 2209WAT     H2 9557   6.021   0.516   5.232  0.4905 -1.0521 -0.3099
 2209WAT    EPW 9558   5.963   0.546   5.189  0.3251  0.2939  0.7814
 2210WAT      O 9559   6.476   4.363   6.678  0.6271  0.0417  0.0807
 2210WAT     H1 9560   6.397   4.396   6.659 -0.0521 -1.1669  0.6893
 2210WAT     H2 9561   6.510   4.342   6.600  0.1279  0.0931 -0.1519
 2210WAT    EPW 9562   6.469   4.365   6.664  0.4530 -0.1293  0.1363
 2211WAT      O 9563   6.252   1.261   5.910  0.5243 -0.6683  0.3116
 2211WAT     H1 9564   6.264   1.346   5.925 -0.0219 -0.2396 -1.4289
 2211WAT     H2 9565   6.196   1.237   5.972  0.6277  0.2590  0.7793
 2211WAT    EPW 9566   6.245   1.270   5.921  0.4589 -0.4680  0.1236
 2212WAT      O 9567   6.505   0.157   6.812 -0.2602  0.0431  0.2155
 2212WAT     H1 9568   6.573   0.166   6.758  0.7082  3.2583  1.7168
 2212WAT     H2 9569   6.436   0.170   6.761  0.4645  0.0101 -0.7880
 2212WAT    EPW 9570   6.505   0.161   6.797 -0.0101  0.5132  0.2890
 2213WAT      O 9571   6.233   1.459   7.109  0.1979  0.3222  0.5017
 2213WAT     H1 9572   6.214   1.409   7.178 -0.6592  1.4167  1.1009
 2213WAT     H2 9573   6.301   1.419   7.072  1.0142 -0.0124  2.2870
 2213WAT    EPW 9574   6.240   1.446   7.114  0.1918  0.4344  0.8539
 2214WAT      O 9575   6.484   2.580   0.652  0.3637  0.0572  0.1444
 2214WAT     H1 9576   6.524   2.566   0.728 -1.0725  0.1276  0.9430
 2214WAT     H2 9577   6.414   2.626   0.674  0.5673  1.1801 -1.3940
 2214WAT    EPW 9578   6.480   2.584   0.666  0.1816  0.2335  0.0351
 2215WAT      O 9579   6.703   0.741   7.433 -0.0422  0.0214  0.1600
 2215WAT     H1 9580   6.697   0.698   7.508  1.7064 -0.2232  0.2038
 2215WAT     H2 9581   6.694   0.824   7.455 -0.8944 -0.1395  0.4367
 2215WAT    EPW 9582   6.701   0.747   7.447  0.0902 -0.0385  0.2073
 2216WAT      O 9583   6.747   2.754   6.803 -0.2539 -0.1151 -0.1522
 2216WAT     H1 9584   6.691   2.740   6.868  0.5721 -0.0128  0.5971
 2216WAT     H2 9585   6.822   2.719   6.831 -0.0925 -0.8678 -1.4253
 2216WAT    EPW 9586   6.750   2.747   6.816 -0.1080 -0.2112 -0.2296
 2217WAT      O 9587   5.754   1.685   6.317  0.4707  0.2014 -0.3399
 2217WAT     H1 9588   5.739   1.620   6.373  0.0786  0.7189  0.1769
 2217WAT     H2 9589   5.770   1.645   6.242  0.7916 -0.5050  0.0962
 2217WAT    EPW 9590   5.754   1.670   6.314  0.4602  0.1735 -0.1992
 2218WAT      O 9591   6.057   0.661   6.069 -0.6188 -0.0298  0.5140
 2218WAT     H1 9592   5.990   0.631   6.117  0.2977 -0.8510  1.3205
 2218WAT     H2 9593   6.097   0.589   6.042 -1.3585  0.3921 -1.9459
 2218WAT    EPW 9594   6.053   0.646   6.072 -0.5927 -0.0888  0.2698
 2219WAT      O 9595   6.692   0.623   7.701 -0.5512  1.3823 -0.0394
 2219WAT     H1 9596   6.652   0.546   7.710 -0.5497  1.4512  0.6824
 2219WAT     H2 9597   6.768   0.611   7.743 -0.3540  1.6335 -0.3257
 2219WAT    EPW 9598   6.698   0.610   7.709 -0.5219  1.4296  0.0249
 2220WAT      O 9599   5.113   1.056   5.182 -0.2363 -0.2179 -0.0262
 2220WAT     H1 9600   5.143   1.133   5.210 -0.7113 -0.0429  0.0072
 2220WAT     H2 9601   5.138   1.053   5.098 -1.1188  0.4333 -0.3190
 2220WAT    EPW 9602   5.121   1.067   5.174 -0.4368 -0.0958 -0.0645
 2221WAT      O 9603   5.771   0.525   0.466  0.1709 -0.3123  0.0356
 2221WAT     H1 9604   5.726   0.494   0.534 -0.3974  1.3002  0.4392
 2221WAT     H2 9605   5.854   0.505   0.486 -0.1489 -1.5286  0.2540
 2221WAT    EPW 9606   5.776   0.517   0.479  0.0397 -0.2538  0.1275
 2222WAT      O 9607   6.743   0.451   5.437 -0.0267 -0.1726 -0.4903
 2222WAT     H1 9608   6.731   0.365   5.446  0.9386 -0.5203 -2.2311
 2222WAT     H2 9609   6.662   0.482   5.430 -0.6143 -0.5006  3.0061
 2222WAT    EPW 9610   6.729   0.443   5.438  0.0291 -0.2724 -0.2310
 2223WAT      O 9611   7.046   2.778   7.191 -0.3444  0.3776 -0.1685
 2223WAT     H1 9612   7.118   2.825   7.203 -1.0659  1.3552  0.5565
 2223WAT     H2 9613   7.061   2.704   7.235  0.2481  0.5286 -0.1178
 2223WAT    EPW 9614   7.059   2.774   7.199 -0.3635  0.5443 -0.0540
 2224WAT      O 9615   6.380   0.824   7.026 -0.1389 -0.5708 -0.4051
 2224WAT     H1 9616   6.453   0.865   7.002  0.8391  0.2249  3.2105
 2224WAT     H2 9617   6.381   0.750   6.981  3.1074 -0.7014 -0.3286
 2224WAT    EPW 9618   6.391   0.819   7.016  0.4851 -0.4726  0.1403
 2225WAT      O 9619   5.446   1.706   4.977 -0.1914  0.6742 -0.6964
 2225WAT     H1 9620   5.388   1.761   4.941 -1.7022 -0.3723 -0.0098
 2225WAT     H2 9621   5.463   1.650   4.913  0.0966  1.0100 -0.9149
 2225WAT    EPW 9622   5.440   1.706   4.963 -0.3720  0.5692 -0.6272
 2226WAT      O 9623   6.327   1.545   6.655  0.5903  0.3567  0.2000
 2226WAT     H1 9624   6.408   1.570   6.677  0.8319 -0.5936  0.4382
 2226WAT     H2 9625   6.312   1.587   6.580  2.3782 -1.5344 -1.3215
 2226WAT    EPW 9626   6.337   1.555   6.647  0.8901 -0.0631  0.0104
 2227WAT      O 9627   6.953   2.126   7.329  0.2832 -0.2834 -0.8261
 2227WAT     H1 9628   7.025   2.176   7.320  0.7583 -0.8626 -0.3094
 2227WAT     H2 9629   6.888   2.183   7.319  0.7839  0.0832 -2.3492
 2227WAT    EPW 9630   6.954   2.142   7.326  0.4273 -0.3148 -0.9747
 2228WAT      O 9631   6.353   1.370   0.140 -0.3425  0.3356 -0.2243
 2228WAT     H1 9632   6.418   1.393   0.193 -0.7431 -1.4710  1.1778
 2228WAT     H2 9633   6.342   1.285   0.157 -0.3206 -0.4330 -3.4566
 2228WAT    EPW 9634   6.361   1.361   0.151 -0.3984 -0.0448 -0.4946
 2229WAT      O 9635   6.135   4.095   0.547 -0.4928  0.1603 -0.1731
 2229WAT     H1 9636   6.090   4.137   0.485  0.5311 -1.6754 -2.3503
 2229WAT     H2 9637   6.082   4.029   0.568 -0.8457  0.7949  0.9792
 2229WAT    EPW 9638   6.120   4.091   0.541 -0.3937 -0.0171 -0.3245
 2230WAT      O 9639   6.872   1.439   0.765  0.1672 -0.2076  0.0100
 2230WAT     H1 9640   6.827   1.420   0.693  0.6838 -0.4303 -0.2517
 2230WAT     H2 9641   6.955   1.427   0.742  0.3609  0.1475  0.5122
 2230WAT    EPW 9642   6.878   1.434   0.751  0.2721 -0.1880  0.0456
 2231WAT      O 9643   6.972   2.146   6.893 -0.4574 -0.3277  0.0964
 2231WAT     H1 9644   6.886   2.131   6.891 -0.4452 -0.6698  1.1949
 2231WAT     H2 9645   6.978   2.232   6.876 -1.2890  0.3707  2.7224
 2231WAT    EPW 9646   6.960   2.157   6.890 -0.5785 -0.2751  0.6466
 2232WAT      O 9647   5.802   0.034   0.604  0.2911 -0.1317  0.0356
 2232WAT     H1 9648   5.793   0.094   0.541 -1.8501  1.8368  2.0157
 2232WAT     H2 9649   5.749  -0.030   0.579 -2.3044  1.5963  0.7498
 2232WAT    EPW 9650   5.793   0.034   0.591 -0.4086  0.4143  0.4336
 2233WAT      O 9651   6.228   3.161   7.094  0.5067  0.3221 -0.3555
 2233WAT     H1 9652   6.291   3.211   7.060 -0.6799  1.9674 -0.2112
 2233WAT     H2 9653   6.184   3.133   7.024  1.6344 -1.2470 -0.4936
 2233WAT    EPW 9654   6.231   3.164   7.079  0.4980  0.3334 -0.3546
 2234WAT      O 9655   6.978   6.867   6.512 -0.5198  0.0172  0.5043
 2234WAT     H1 9656   7.036   6.874   6.578 -0.6300  0.5326  0.5504
 2234WAT     H2 9657   7.016   6.811   6.457  0.0424  0.3787  0.5181
 2234WAT    EPW 9658   6.992   6.860   6.514 -0.4531  0.1467  0.5131
 2235WAT      O 9659   6.227   7.606   6.722 -0.0263 -0.1544 -0.7538
 2235WAT     H1 9660   6.224   7.628   6.806 -0.6589 -1.7335 -0.3120
 2235WAT     H2 9661   6.229   7.682   6.680  0.9067  0.6590  0.6979
 2235WAT    EPW 9662   6.227   7.620   6.728  0.0180 -0.2675 -0.4741
 2236WAT      O 9663   6.703   0.990   7.367  0.7471 -0.2656 -0.0871
 2236WAT     H1 9664   6.628   0.964   7.332  0.8544  0.1975 -0.6935
 2236WAT     H2 9665   6.746   1.024   7.299  2.0679 -1.7496 -0.0437
 2236WAT    EPW 9666   6.698   0.991   7.352  0.9581 -0.4164 -0.1703
 2237WAT      O 9667   7.091   2.560   7.348 -0.4039  0.1235  0.0037
 2237WAT     H1 9668   7.071   2.567   7.432 -0.0824 -0.3508  0.1250
 2237WAT     H2 9669   7.116   2.476   7.340  1.5341  0.6642 -0.1188
 2237WAT    EPW 9670   7.092   2.548   7.359 -0.0701  0.1333  0.0035
 2238WAT      O 9671   6.593   2.932   7.692 -0.1447  0.1587 -0.1881
 2238WAT     H1 9672   6.554   2.903   7.764  0.0242  1.1476  0.3063
 2238WAT     H2 9673   6.678   2.919   7.708 -0.1822 -1.4325 -1.0207
 2238WAT    EPW 9674   6.600   2.926   7.705 -0.1253  0.0697 -0.2380
 2239WAT      O 9675   6.375   1.884   7.147 -0.0884 -0.0273  0.2441
 2239WAT     H1 9676   6.461   1.876   7.159 -0.1147  1.0519  1.3033
 2239WAT     H2 9677   6.365   1.870   7.061  0.9692 -1.3827  0.3088
 2239WAT    EPW 9678   6.386   1.881   7.136  0.0640 -0.0681  0.4101
 2240WAT      O 9679   5.599   1.719   4.632 -0.1549  0.1344 -0.2924
 2240WAT     H1 9680   5.591   1.693   4.549 -1.9127 -0.3086 -0.0351
 2240WAT     H2 9681   5.684   1.712   4.648  0.2950  0.6631 -2.1897
 2240WAT    EPW 9682   5.610   1.714   4.622 -0.3481  0.1470 -0.5347
 2241WAT      O 9683   5.711   1.666   7.257  0.2122 -0.6116 -0.1279
 2241WAT     H1 9684   5.790   1.702   7.250  1.1337 -2.3001  1.0241
 2241WAT     H2 9685   5.699   1.659   7.343 -0.8489 -1.1234 -0.3036
 2241WAT    EPW 9686   5.721   1.670   7.268  0.1916 -0.9366  0.0163
 2242WAT      O 9687   6.274   2.652   0.804 -0.0892 -0.3407  0.2565
 2242WAT     H1 9688   6.302   2.600   0.868 -1.0408 -0.1984  0.8011
 2242WAT     H2 9689   6.188   2.643   0.806 -0.3373  1.6918  0.7676
 2242WAT    EPW 9690   6.266   2.643   0.814 -0.2664 -0.0195  0.4125
 2243WAT      O 9691   6.832   0.519   6.296 -0.4342  0.0691 -1.0189
 2243WAT     H1 9692   6.816   0.436   6.319  0.3185 -0.7386 -3.1226
 2243WAT     H2 9693   6.755   0.548   6.267 -0.9170  0.4629  0.5265
 2243WAT    EPW 9694   6.818   0.511   6.295 -0.3944  0.0080 -1.1014
 2244WAT      O 9695   5.167   2.561   7.581 -0.0338  0.2822  0.4594
 2244WAT     H1 9696   5.213   2.533   7.512  0.6129 -0.9930  1.3595
 2244WAT     H2 9697   5.226   2.603   7.629 -0.3588  0.7017  0.4933
 2244WAT    EPW 9698   5.183   2.563   7.578  0.0137  0.1558  0.5973
 2245WAT      O 9699   6.750   1.959   5.752 -0.8216 -0.4517  0.1422
 2245WAT     H1 9700   6.725   1.972   5.835  2.0407 -1.1812  1.2275
 2245WAT     H2 9701   6.711   1.884   5.731 -0.6000 -0.9248  1.3087
 2245WAT    EPW 9702   6.741   1.950   5.761 -0.3660 -0.6293  0.4749
 2246WAT      O 9703   5.424   0.091   7.510  0.3368  0.0532  0.3568
 2246WAT     H1 9704   5.503   0.127   7.501  0.6590 -0.7366  0.0338
 2246WAT     H2 9705   5.438   0.006   7.502 -0.8673 -0.0086 -2.1828
 2246WAT    EPW 9706   5.438   0.084   7.507  0.2065 -0.0726 -0.0661
 2247WAT      O 9707   6.357   6.838   7.278 -0.4782  0.1057  0.4729
 2247WAT     H1 9708   6.356   6.925   7.275 -0.5790  0.0813 -1.6558
 2247WAT     H2 9709   6.276   6.815   7.257 -0.5262 -0.5192  1.2802
 2247WAT    EPW 9710   6.345   6.847   7.275 -0.5002  0.0098  0.2777
 2248WAT      O 9711   6.853   1.523   5.987 -0.2626 -0.2215 -0.0956
 2248WAT     H1 9712   6.798   1.464   6.021 -1.9375  1.3070  0.0020
 2248WAT     H2 9713   6.842   1.514   5.900  0.0149 -0.5077 -0.1042
 2248WAT    EPW 9714   6.843   1.513   5.979 -0.4690 -0.0380 -0.0825
 2249WAT      O 9715   6.676   2.664   0.869 -0.4939  0.0193  0.3630
 2249WAT     H1 9716   6.621   2.731   0.875  0.6350  0.9310  0.8785
 2249WAT     H2 9717   6.712   2.659   0.948 -0.4626 -1.1329  0.2956
 2249WAT    EPW 9718   6.673   2.673   0.881 -0.3225 -0.0163  0.4292
 2250WAT      O 9719   6.633   1.160   1.786 -0.4243 -0.3237 -0.4133
 2250WAT     H1 9720   6.552   1.169   1.816  0.2803  1.9830  1.0630
 2250WAT     H2 9721   6.673   1.114   1.849 -0.3973 -0.8467 -0.8055
 2250WAT    EPW 9722   6.627   1.154   1.800 -0.3162 -0.0602 -0.2532
 2251WAT      O 9723   5.536   2.849   6.135 -0.0284  0.6560 -0.1785
 2251WAT     H1 9724   5.476   2.899   6.176  0.2640  2.2163 -1.5590
 2251WAT     H2 9725   5.528   2.873   6.052  1.2649 -0.4787 -0.6476
 2251WAT    EPW 9726   5.526   2.860   6.129  0.2059  0.7188 -0.4517
 2252WAT      O 9727   6.580   0.725   6.513 -0.0340 -0.3776 -0.1063
 2252WAT     H1 9728   6.553   0.681   6.583  0.9040  2.0421  1.9262
 2252WAT     H2 9729   6.594   0.663   6.454  0.6969 -2.7388  2.3430
 2252WAT    EPW 9730   6.578   0.709   6.515  0.2125 -0.3689  0.5558
 2253WAT      O 9731   6.719   2.102   6.833  0.4399 -0.4574  0.1460
 2253WAT     H1 9732   6.664   2.148   6.884 -0.6877 -2.6394  1.0516
 2253WAT     H2 9733   6.708   2.138   6.754  1.9833  2.8070  1.2512
 2253WAT    EPW 9734   6.709   2.114   6.829  0.5013 -0.2975  0.4430
 2254WAT      O 9735   6.191   0.929   6.101  0.1721  0.2044 -0.5744
 2254WAT     H1 9736   6.126   0.874   6.081 -0.5735  0.9894 -0.3560
 2254WAT     H2 9737   6.253   0.910   6.043  0.9255 -2.5207  0.9500
 2254WAT    EPW 9738   6.190   0.918   6.090  0.1733 -0.0822 -0.3169
 2255WAT      O 9739   6.091   1.308   5.679  0.9661  0.7909  0.2888
 2255WAT     H1 9740   6.086   1.394   5.665 -0.0106  1.1431  2.4504
 2255WAT     H2 9741   6.151   1.302   5.742  0.1800 -0.0029  0.9677
 2255WAT    EPW 9742   6.099   1.320   5.686  0.7057  0.7257  0.7084
 2256WAT      O 9743   5.619   1.706   7.823  0.4918  0.5175 -0.0169
 2256WAT     H1 9744   5.538   1.675   7.826  0.4212  0.7528  1.1648
 2256WAT     H2 9745   5.643   1.694   7.740 -1.6110  2.6933 -1.0714
 2256WAT    EPW 9746   5.611   1.700   7.811  0.1707  0.8737  0.0019
 2257WAT      O 9747   5.749   3.641   1.052  0.3621 -0.1808  0.2241
 2257WAT     H1 9748   5.699   3.611   0.987  1.5265  0.8321 -1.2133
 2257WAT     H2 9749   5.710   3.611   1.124 -1.8002 -0.1729 -0.8650
 2257WAT    EPW 9750   5.736   3.632   1.053  0.2147 -0.0300 -0.1491
 2258WAT      O 9751   5.962   2.087   7.759 -0.0254 -0.1793 -0.5023
 2258WAT     H1 9752   5.948   2.104   7.844 -1.1180  2.9524 -1.1623
 2258WAT     H2 9753   6.046   2.107   7.748  0.0664 -0.3959 -0.1961
 2258WAT    EPW 9754   5.972   2.093   7.770 -0.1732  0.2513 -0.5546
 2259WAT      O 9755   6.534   1.517   0.314 -0.5398  0.8590  0.3348
 2259WAT     H1 9756   6.597   1.475   0.359 -0.0238  0.0680 -1.0715
 2259WAT     H2 9757   6.579   1.564   0.255 -1.2267  1.4174  0.2435
 2259WAT    EPW 9758   6.550   1.518   0.312 -0.5650  0.8247  0.1136
 2260WAT      O 9759   5.013   2.656   7.015  0.1945 -0.0060  0.3990
 2260WAT     H1 9760   4.997   2.577   7.049  0.0065 -0.1895 -0.1021
 2260WAT     H2 9761   5.072   2.639   6.952  0.1719  0.2539  0.3074
 2260WAT    EPW 9762   5.020   2.642   7.011  0.1634  0.0053  0.3115
 2261WAT      O 9763   5.621   0.986   7.537  0.0781 -0.2820 -0.2984
 2261WAT     H1 9764   5.658   1.065   7.535 -1.3305  0.4242 -0.1478
 2261WAT     H2 9765   5.665   0.941   7.477  1.5167  0.3186  0.2663
 2261WAT    EPW 9766   5.633   0.991   7.528  0.0825 -0.0890 -0.1928
 2262WAT      O 9767   5.341   1.501   7.402 -0.5255 -0.3584  0.1635
 2262WAT     H1 9768   5.282   1.475   7.344  0.9481  0.4884 -1.8116
 2262WAT     H2 9769   5.328   1.588   7.406  1.0912 -0.0353 -0.9523
 2262WAT    EPW 9770   5.330   1.510   7.394 -0.0690 -0.1856 -0.2931
 2263WAT      O 9771   6.755   1.160   7.568  0.0929  0.1298 -0.0371
 2263WAT     H1 9772   6.689   1.157   7.626  0.2623 -0.3820  0.1332
 2263WAT     H2 9773   6.744   1.087   7.521 -0.3864  0.8356 -1.0369
 2263WAT    EPW 9774   6.744   1.149   7.570  0.0471  0.1585 -0.1596
 2264WAT      O 9775   5.324   1.533   6.589  0.6356 -0.7661  0.1801
 2264WAT     H1 9776   5.393   1.490   6.619  0.9652  0.1552  0.7830
 2264WAT     H2 9777   5.355   1.614   6.573 -0.0665 -0.6087 -0.4825
 2264WAT    EPW 9778   5.339   1.539   6.591  0.5806 -0.6067  0.1713
 2265WAT      O 9779   6.641   2.173   6.576 -0.2977  0.8482  0.0606
 2265WAT     H1 9780   6.556   2.186   6.590 -0.5599  0.0736 -0.6916
 2265WAT     H2 9781   6.644   2.148   6.492  0.5840  0.2112  0.2715
 2265WAT    EPW 9782   6.629   2.171   6.566 -0.2062  0.6397 -0.0193
 2266WAT      O 9783   7.111   1.024   7.534 -0.5964  0.2893 -0.0800
 2266WAT     H1 9784   7.157   1.001   7.464 -0.7383  0.1235 -0.1214
 2266WAT     H2 9785   7.171   1.051   7.591 -0.3687 -0.7008  0.1712
 2266WAT    EPW 9786   7.126   1.025   7.532 -0.5837  0.1185 -0.0490
 2267WAT      O 9787   7.066   3.720   6.019  0.2728 -0.6235  0.7014
 2267WAT     H1 9788   7.114   3.652   5.993 -0.5049 -0.5085 -1.1811
 2267WAT     H2 9789   6.992   3.683   6.048 -0.7162 -0.6054 -1.5903
 2267WAT    EPW 9790   7.062   3.705   6.020  0.0118 -0.6039  0.0848
 2268WAT      O 9791   5.286   0.270   6.631  0.0044  0.4486 -0.2404
 2268WAT     H1 9792   5.271   0.325   6.565  1.1868 -0.0207 -0.9451
 2268WAT     H2 9793   5.220   0.213   6.626 -0.6083  1.1530 -0.2085
 2268WAT    EPW 9794   5.274   0.269   6.620  0.0886  0.4833 -0.3398
 2269WAT      O 9795   7.060   0.996   7.031  0.1745 -0.0584  0.0020
 2269WAT     H1 9796   7.067   0.914   7.059 -0.2277  0.0319  0.3637
 2269WAT     H2 9797   7.065   0.988   6.944  1.1705 -0.3582  0.0775
 2269WAT    EPW 9798   7.062   0.983   7.022  0.2622 -0.0893  0.0666
 2270WAT      O 9799   5.694   1.150   6.682 -0.0684 -0.4970  0.0802
 2270WAT     H1 9800   5.765   1.187   6.647 -0.8639  1.9641  0.8639
 2270WAT     H2 9801   5.682   1.194   6.756 -2.9003 -0.1413 -0.4622
 2270WAT    EPW 9802   5.703   1.162   6.688 -0.6043 -0.0809  0.1158
 2271WAT      O 9803   6.958   1.707   6.836  0.3335  0.0975  0.2279
 2271WAT     H1 9804   6.983   1.775   6.787 -2.7191  0.1231 -1.5574
 2271WAT     H2 9805   7.020   1.647   6.821  1.0146  1.1273 -1.3495
 2271WAT    EPW 9806   6.971   1.709   6.826 -0.0168  0.2534 -0.2688
 2272WAT      O 9807   6.942   7.667   6.323  0.2151 -0.6153  0.3256
 2272WAT     H1 9808   6.950   7.752   6.307  2.4844 -0.9736 -0.9261
 2272WAT     H2 9809   6.869   7.645   6.279 -0.2101  0.5966  0.3848
 2272WAT    EPW 9810   6.932   7.676   6.314  0.4875 -0.4892  0.1494
 2273WAT      O 9811   6.776   3.187   6.462  0.3717 -0.3184 -0.0427
 2273WAT     H1 9812   6.700   3.168   6.500 -0.0257  1.7206  0.2713
 2273WAT     H2 9813   6.818   3.110   6.462 -1.8638 -1.6229 -0.7377
 2273WAT    EPW 9814   6.771   3.173   6.468 -0.0172 -0.2099 -0.0990
 2274WAT      O 9815   7.140   1.335   0.650 -0.0371 -0.3735 -0.4961
 2274WAT     H1 9816   7.096   1.269   0.613 -1.1103 -0.3699  0.6940
 2274WAT     H2 9817   7.182   1.296   0.716 -0.0559  0.0009 -0.2630
 2274WAT    EPW 9818   7.140   1.319   0.655 -0.1984 -0.3176 -0.2859
 2275WAT      O 9819   6.973   2.614   7.644  0.1542 -0.3161  0.1423
 2275WAT     H1 9820   6.893   2.582   7.627  0.1499 -0.2612  0.0628
 2275WAT     H2 9821   6.973   2.623   7.731 -0.5288  1.2953 -0.0051
 2275WAT    EPW 9822   6.961   2.610   7.654  0.0526 -0.0699  0.1088
 2276WAT      O 9823   6.369   0.970   6.713 -0.1787  0.3116  0.0610
 2276WAT     H1 9824   6.368   0.883   6.709 -0.8946  0.2662  0.9365
 2276WAT     H2 9825   6.293   0.990   6.750 -0.5102  1.3840 -1.1341
 2276WAT    EPW 9826   6.358   0.960   6.718 -0.3334  0.4633  0.0138
 2277WAT      O 9827   6.034   1.080   6.271 -0.0863  0.2043 -0.1923
 2277WAT     H1 9828   6.073   1.023   6.219 -1.4252  0.6765 -1.8060
 2277WAT     H2 9829   5.999   1.030   6.334 -0.2972 -0.6469 -0.9593
 2277WAT    EPW 9830   6.035   1.064   6.273 -0.3153  0.1483 -0.5440
 2278WAT      O 9831   5.915   7.666   7.212 -0.3882 -0.3542 -0.0423
 2278WAT     H1 9832   5.881   7.673   7.292 -0.8662 -1.3957 -0.1346
 2278WAT     H2 9833   5.850   7.690   7.159 -0.4817 -0.8484 -0.1590
 2278WAT    EPW 9834   5.900   7.670   7.216 -0.4726 -0.5811 -0.0732
 2279WAT      O 9835   6.936   1.354   7.450 -0.4638  0.7249 -0.2055
 2279WAT     H1 9836   6.874   1.297   7.474 -0.8124  0.7298 -1.0676
 2279WAT     H2 9837   6.999   1.303   7.418 -0.3973  0.7725 -0.1500
 2279WAT    EPW 9838   6.936   1.338   7.449 -0.5055  0.7326 -0.3246
 2280WAT      O 9839   6.793   0.726   0.105  0.0261  0.5706 -0.4161
 2280WAT     H1 9840   6.823   0.725   0.187 -0.7741  1.1786 -0.0941
 2280WAT     H2 9841   6.839   0.791   0.067  1.1732 -0.4206 -0.7848
 2280WAT    EPW 9842   6.804   0.736   0.111  0.0774  0.5140 -0.4230
 2281WAT      O 9843   6.799   1.868   0.474 -0.3890 -0.2510  0.1999
 2281WAT     H1 9844   6.716   1.892   0.473 -0.8121 -1.6021  0.8422
 2281WAT     H2 9845   6.829   1.900   0.550 -0.9867 -1.7733  1.1189
 2281WAT    EPW 9846   6.791   1.877   0.485 -0.5398 -0.6754  0.4305
 2282WAT      O 9847   5.183   0.719   6.975  0.0435  0.3562 -0.3820
 2282WAT     H1 9848   5.191   0.805   6.991  1.7931  0.5224 -1.7996
 2282WAT     H2 9849   5.097   0.706   6.974 -0.2565  2.1104 -0.1411
 2282WAT    EPW 9850   5.171   0.730   6.977  0.2576  0.6399 -0.5558
 2283WAT      O 9851   6.027   0.613   6.417 -0.0939 -0.6617  0.1461
 2283WAT     H1 9852   6.052   0.544   6.464 -0.5490 -1.1516 -0.3403
 2283WAT     H2 9853   6.103   0.643   6.384 -0.1122 -2.3462 -1.6022
 2283WAT    EPW 9854   6.042   0.608   6.419 -0.1638 -0.9829 -0.1840
 2284WAT      O 9855   6.468   2.830   0.058  0.3319  0.0965 -0.3309
 2284WAT     H1 9856   6.382   2.815   0.066  0.5961 -0.9004  0.9041
 2284WAT     H2 9857   6.492   2.859   0.136  0.5274  4.0515 -1.6399
 2284WAT    EPW 9858   6.459   2.832   0.071  0.3998  0.5335 -0.3418
 2285WAT      O 9859   6.703   1.593   0.111  0.3844 -0.0557 -0.1353
 2285WAT     H1 9860   6.665   1.585   0.033  1.5878 -0.2134 -0.7391
 2285WAT     H2 9861   6.722   1.678   0.116  1.1266 -0.1965 -0.4342
 2285WAT    EPW 9862   6.700   1.604   0.100  0.6718 -0.0998 -0.2687
 2286WAT      O 9863   6.034   2.548   6.751 -0.1821  0.2582  0.1699
 2286WAT     H1 9864   6.061   2.627   6.777  0.4286  0.7333 -1.6969
 2286WAT     H2 9865   5.951   2.545   6.778 -0.3617  1.7508 -0.1038
 2286WAT    EPW 9866   6.025   2.559   6.759 -0.1184  0.5488 -0.1463
 2287WAT      O 9867   6.688   0.440   5.956 -0.0470  0.1074  0.0075
 2287WAT     H1 9868   6.667   0.357   5.970 -0.8096  0.3061  0.0659
 2287WAT     H2 9869   6.771   0.445   5.984 -0.4671 -0.2712  1.4077
 2287WAT    EPW 9870   6.697   0.428   5.962 -0.2218  0.0808  0.2229
 2288WAT      O 9871   6.511   7.522   5.214 -0.1434  0.0937 -0.3019
 2288WAT     H1 9872   6.503   7.486   5.135 -0.5643 -0.7138  0.0923
 2288WAT     H2 9873   6.539   7.456   5.264  0.1412  0.6017  0.2204
 2288WAT    EPW 9874   6.514   7.507   5.210 -0.1636  0.0495 -0.1665
 2289WAT      O 9875   6.448   2.352   6.643 -0.3899 -0.1925  0.1950
 2289WAT     H1 9876   6.439   2.365   6.558  0.4496  1.5098  0.3236
 2289WAT     H2 9877   6.365   2.348   6.672 -0.7433  1.7699 -0.3879
 2289WAT    EPW 9878   6.434   2.353   6.635 -0.3181  0.3489  0.1279
 2290WAT      O 9879   6.840   7.054   5.390 -0.2542  0.0261  0.4326
 2290WAT     H1 9880   6.927   7.043   5.393  0.1370  2.7122  1.5842
 2290WAT     H2 9881   6.809   6.980   5.424  1.6821 -0.2358  1.8190
 2290WAT    EPW 9882   6.849   7.041   5.395  0.0896  0.3842  0.8075
 2291WAT      O 9883   6.899   7.605   5.743 -0.9654  0.1290 -0.3193
 2291WAT     H1 9884   6.912   7.550   5.676 -0.1087 -0.6410  0.4636
 2291WAT     H2 9885   6.872   7.553   5.807  2.2431  0.1740  1.2064
 2291WAT    EPW 9886   6.897   7.589   5.742 -0.3649  0.0219  0.0217
 2292WAT      O 9887   5.080   1.803   7.244  0.3049  0.4349 -0.1388
 2292WAT     H1 9888   5.123   1.873   7.213  1.2786 -0.6384 -1.2979
 2292WAT     H2 9889   5.130   1.778   7.312  1.7608 -0.9764 -1.6527
 2292WAT    EPW 9890   5.094   1.810   7.250  0.6638  0.0679 -0.5336
 2293WAT      O 9891   6.311   1.528   7.786  0.3101 -0.3796 -0.0082
 2293WAT     H1 9892   6.323   1.475   7.855 -0.0123 -0.5624 -0.0889
 2293WAT     H2 9893   6.392   1.547   7.760  0.6415  2.1750  2.2972
 2293WAT    EPW 9894   6.325   1.523   7.793  0.3114 -0.0292  0.3204
 2294WAT      O 9895   5.642   3.130   5.965  0.2004 -0.3188 -0.6345
 2294WAT     H1 9896   5.689   3.200   5.943  0.5008 -0.2105  0.3121
 2294WAT     H2 9897   5.693   3.063   5.945  0.6262 -0.2105  0.0520
 2294WAT    EPW 9898   5.656   3.131   5.959  0.3077 -0.2868 -0.3932
 2295WAT      O 9899   5.783   3.426   6.700  0.2897  0.1171 -0.0432
 2295WAT     H1 9900   5.777   3.381   6.626  0.7015  1.1707 -0.7391
 2295WAT     H2 9901   5.837   3.492   6.680 -0.7932  1.2998  0.7342
 2295WAT    EPW 9902   5.790   3.429   6.686  0.1906  0.4475 -0.0311
 2296WAT      O 9903   6.827   2.328   0.444 -0.0840 -0.1959  0.1291
 2296WAT     H1 9904   6.887   2.387   0.423  0.0663 -0.6725 -0.8461
 2296WAT     H2 9905   6.798   2.300   0.366 -1.7233  0.1723  0.5533
 2296WAT    EPW 9906   6.831   2.333   0.429 -0.3040 -0.2119  0.0477
 2297WAT      O 9907   6.674   2.090   7.619  0.5241 -0.3469  0.1872
 2297WAT     H1 9908   6.627   2.164   7.613  0.4572 -0.0833  2.6936
 2297WAT     H2 9909   6.620   2.029   7.589 -0.1344  0.3891 -0.1594
 2297WAT    EPW 9910   6.659   2.092   7.614  0.4170 -0.1992  0.5062
 2298WAT      O 9911   7.151   3.384   7.401  0.2351 -0.5632  0.3436
 2298WAT     H1 9912   7.118   3.406   7.478 -1.8606 -0.9847 -0.3536
 2298WAT     H2 9913   7.136   3.454   7.351  1.5855 -0.2880  0.2924
 2298WAT    EPW 9914   7.144   3.397   7.405  0.1250 -0.5848  0.2331
 2299WAT      O 9915   5.187   1.727   0.180  0.1804 -0.5209  0.3959
 2299WAT     H1 9916   5.250   1.673   0.153 -1.2473 -1.3736 -1.4407
 2299WAT     H2 9917   5.118   1.674   0.191 -1.0500  0.7697 -0.6716
 2299WAT    EPW 9918   5.186   1.711   0.178 -0.2123 -0.4562 -0.0331
 2300WAT      O 9919   7.099   1.154   6.619  0.1533  0.3734  0.9241
 2300WAT     H1 9920   7.117   1.120   6.541 -0.3439  0.2579  0.8568
 2300WAT     H2 9921   7.037   1.102   6.651  1.7752 -0.8510  2.3007
 2300WAT    EPW 9922   7.093   1.141   6.613  0.3194  0.1755  1.1175
 2301WAT      O 9923   5.205   1.747   6.214 -0.2636  0.1268 -0.3088
 2301WAT     H1 9924   5.220   1.777   6.294 -0.8720 -0.7934  0.1700
 2301WAT     H2 9925   5.266   1.685   6.204  1.5414  1.9627 -1.6168
 2301WAT    EPW 9926   5.216   1.742   6.224 -0.0868  0.2621 -0.4313
 2302WAT      O 9927   6.195   1.074   7.027 -0.1744 -0.3035 -0.6462
 2302WAT     H1 9928   6.241   1.001   7.039  1.4008  0.4455 -1.7780
 2302WAT     H2 9929   6.112   1.047   7.034  0.3778 -2.0791 -0.4787
 2302WAT    EPW 9930   6.189   1.059   7.030  0.1399 -0.4551 -0.7886
 2303WAT      O 9931   5.875   3.284   0.757  0.4729  0.1590  0.0456
 2303WAT     H1 9932   5.884   3.330   0.831 -0.0121 -0.7057  0.6627
 2303WAT     H2 9933   5.879   3.344   0.694  0.9895  0.9003  0.7681
 2303WAT    EPW 9934   5.877   3.300   0.759  0.4776  0.1408  0.2435
 2304WAT      O 9935   7.190   6.463   6.378 -0.3376 -0.0619  0.0311
 2304WAT     H1 9936   7.215   6.404   6.437  0.2748  1.3996  1.3088
 2304WAT     H2 9937   7.148   6.416   6.318  0.3641 -1.8116  0.8480
 2304WAT    EPW 9938   7.187   6.447   6.378 -0.1435 -0.1045  0.3405
 2305WAT      O 9939   6.164   2.630   7.724 -0.1883  0.3391 -0.2808
 2305WAT     H1 9940   6.193   2.690   7.781 -0.9253 -0.1136  0.6020
 2305WAT     H2 9941   6.109   2.675   7.674 -1.2201  0.3045  0.7724
 2305WAT    EPW 9942   6.161   2.645   7.725 -0.4496  0.2671  0.0052
 2306WAT      O 9943   5.296   1.541   4.308 -0.1418  0.3548 -0.3102
 2306WAT     H1 9944   5.283   1.622   4.337  0.8917  1.2282 -2.1139
 2306WAT     H2 9945   5.324   1.553   4.226 -0.2035 -1.8430 -0.7091
 2306WAT    EPW 9946   5.298   1.555   4.300  0.0018  0.1592 -0.6356
 2307WAT      O 9947   5.962   1.966   5.148  0.3518  0.4425  0.0272
 2307WAT     H1 9948   5.881   1.936   5.153  0.3437  0.3102 -0.8542
 2307WAT     H2 9949   5.961   2.037   5.200  0.1996 -0.6525  1.5876
 2307WAT    EPW 9950   5.950   1.972   5.156  0.3281  0.2612  0.1275
 2308WAT      O 9951   6.214   2.421   4.651 -0.5989  0.0868 -0.0269
 2308WAT     H1 9952   6.242   2.403   4.570  0.7061  2.2526 -0.1218
 2308WAT     H2 9953   6.217   2.343   4.691 -1.1397 -0.9936 -2.0003
 2308WAT    EPW 9954   6.219   2.407   4.645 -0.4860  0.2472 -0.3325
 2309WAT      O 9955   6.686   2.423   4.224 -0.4085 -0.6704  0.7960
 2309WAT     H1 9956   6.636   2.410   4.155  0.5125 -2.1858  0.3616
 2309WAT     H2 9957   6.649   2.374   4.286  0.5572 -1.8993  0.4363
 2309WAT    EPW 9958   6.673   2.414   4.223 -0.1298 -1.0758  0.6787
 2310WAT      O 9959   5.583   2.768   4.469 -0.3334 -0.2803  0.0279
 2310WAT     H1 9960   5.616   2.710   4.414 -1.2601 -0.8319  0.0396
 2310WAT     H2 9961   5.624   2.751   4.544  0.0278 -0.3439 -0.1857
 2310WAT    EPW 9962   5.594   2.757   4.472 -0.4170 -0.3712 -0.0019
 2311WAT      O 9963   6.016   1.047   3.238 -0.1397 -0.0324  0.9362
 2311WAT     H1 9964   5.943   1.000   3.243  0.6108 -1.1638  3.1521
 2311WAT     H2 9965   6.034   1.065   3.322  1.6835  0.8954  0.4063
 2311WAT    EPW 9966   6.008   1.043   3.251  0.2405 -0.0625  1.1853
 2312WAT      O 9967   6.954   2.026   6.040 -0.1661  0.1200 -0.0848
 2312WAT     H1 9968   7.015   1.967   6.020 -1.2172 -0.6595 -1.1050
 2312WAT     H2 9969   6.889   1.978   6.074  0.3588  1.0878  2.5071
 2312WAT    EPW 9970   6.953   2.010   6.042 -0.2438  0.1478  0.1474
 2313WAT      O 9971   5.241   0.244   4.416 -0.0797  0.1285 -1.2323
 2313WAT     H1 9972   5.309   0.298   4.410  1.7916 -2.0695 -1.1274
 2313WAT     H2 9973   5.246   0.212   4.497 -1.7830  0.5458 -0.9272
 2313WAT    EPW 9974   5.251   0.247   4.427 -0.0549 -0.1345 -1.1717
 2314WAT      O 9975   6.452   1.435   4.264  0.0298 -0.2920  0.3534
 2314WAT     H1 9976   6.511   1.431   4.199  1.6580 -1.3337  1.8108
 2314WAT     H2 9977   6.427   1.352   4.273 -4.2308  0.4019 -2.3041
 2314WAT    EPW 9978   6.457   1.422   4.256 -0.3591 -0.3434  0.1761
 2315WAT      O 9979   6.543   2.123   4.095 -0.0370  0.6341  0.2385
 2315WAT     H1 9980   6.519   2.056   4.045  1.9672 -0.5605  0.7682
 2315WAT     H2 9981   6.627   2.106   4.113  0.1459  2.5957  1.5042
 2315WAT    EPW 9982   6.552   2.111   4.090  0.2861  0.7474  0.5037
 2316WAT      O 9983   5.123   1.406   6.427 -0.0429 -0.8317  0.4376
 2316WAT     H1 9984   5.115   1.357   6.498  1.7539  0.6517  1.7642
 2316WAT     H2 9985   5.200   1.445   6.437  0.1541 -0.3182 -2.2046
 2316WAT    EPW 9986   5.133   1.405   6.439  0.2516 -0.5367  0.2432
 2317WAT      O 9987   6.193   1.310   6.206  0.2179 -0.1198  0.5125
 2317WAT     H1 9988   6.149   1.381   6.230  0.2818 -1.3581  5.5710
 2317WAT     H2 9989   6.138   1.245   6.223  1.3934 -1.4486 -0.4772
 2317WAT    EPW 9990   6.178   1.311   6.212  0.4010 -0.4990  1.1135
 2318WAT      O 9991   7.016   1.995   5.239 -0.5382  0.2545  0.0399
 2318WAT     H1 9992   7.011   1.913   5.270 -2.7701  0.9661  1.7737
 2318WAT     H2 9993   7.025   2.043   5.311  0.1259  1.6069 -0.9159
 2318WAT    EPW 9994   7.017   1.990   5.254 -0.7698  0.5594  0.1548
 2319WAT      O 9995   6.409   0.765   4.900  0.1589 -0.0561  0.1392
 2319WAT     H1 9996   6.490   0.781   4.872 -0.2247  2.2316  0.1169
 2319WAT     H2 9997   6.418   0.759   4.987  0.2859  0.9566  0.2095
 2319WAT    EPW 9998   6.422   0.766   4.909  0.1210  0.4314  0.1463
 2320WAT      O 9999   6.578   2.015   4.445  0.5233  0.3729  0.1178
 2320WAT     H110000   6.642   1.989   4.498  0.8853 -0.0502 -0.5075
 2320WAT     H210001   6.509   1.970   4.473  0.7340  0.0782  0.1753
 2320WAT    EPW10002   6.577   2.005   4.457  0.6079  0.2668  0.0339
 2321WAT      O10003   5.226   2.596   5.257 -0.2087 -0.2561  0.2363
 2321WAT     H110004   5.183   2.580   5.331  0.6919  0.0156  0.8289
 2321WAT     H210005   5.292   2.646   5.282 -0.6193  0.9473 -0.9532
 2321WAT    EPW10006   5.229   2.601   5.271 -0.1363 -0.0382  0.1481
 2322WAT      O10007   6.879   2.876   4.962  0.1162 -0.0088  0.0756
 2322WAT     H110008   6.792   2.866   4.962  0.2239 -1.1006  0.6581
 2322WAT     H210009   6.903   2.844   4.884 -0.0062  0.3925 -0.1308
 2322WAT    EPW10010   6.869   2.870   4.950  0.1140 -0.1108  0.1312
 2323WAT      O10011   5.297   4.304   4.767 -0.3552  0.6320  0.3846
 2323WAT     H110012   5.214   4.293   4.747 -0.3825  1.2134  0.1508
 2323WAT     H210013   5.314   4.239   4.823 -1.0808  0.7670  0.7677
 2323WAT    EPW10014   5.288   4.293   4.773 -0.4665  0.7378  0.4067
 2324WAT      O10015   6.077   1.147   4.558  0.5067  0.1337 -0.0932
 2324WAT     H110016   6.140   1.088   4.539  0.9482  0.5312  0.1200
 2324WAT     H210017   6.098   1.175   4.638 -1.0193 -1.1030  0.7990
 2324WAT    EPW10018   6.090   1.142   4.567  0.3465  0.0098  0.0701
 2325WAT      O10019   5.986   1.773   4.248  0.2124  1.2229  0.4579
 2325WAT     H110020   5.912   1.737   4.219  1.0885  0.0075 -0.3745
 2325WAT     H210021   5.980   1.856   4.223  0.9139  0.2821 -3.4047
 2325WAT    EPW10022   5.974   1.780   4.240  0.4455  0.9044 -0.2357
 2326WAT      O10023   6.248   0.247   5.239 -0.2191  0.8025 -0.3053
 2326WAT     H110024   6.300   0.281   5.177  0.3866 -1.3633 -1.0621
 2326WAT     H210025   6.235   0.314   5.293 -0.1305  2.5669 -2.3457
 2326WAT    EPW10026   6.254   0.262   5.238 -0.1166  0.7432 -0.7185
 2327WAT      O10027   5.319   1.103   3.745  0.1992  0.5259 -0.2116
 2327WAT     H110028   5.292   1.088   3.663  0.9948  1.2266 -0.6092
 2327WAT     H210029   5.265   1.054   3.793  0.1129 -0.3873 -1.1927
 2327WAT    EPW10030   5.307   1.093   3.740  0.3040  0.4945 -0.4152
 2328WAT      O10031   5.885   2.660   4.401 -0.2182  0.3249  0.2092
 2328WAT     H110032   5.887   2.621   4.480 -2.4848  1.5986  0.9756
 2328WAT     H210033   5.926   2.736   4.415  1.7662 -0.5182 -0.6007
 2328WAT    EPW10034   5.892   2.665   4.415 -0.2599  0.3885  0.2028
 2329WAT      O10035   4.219   2.176   5.428  0.0120  0.0831  0.1417
 2329WAT     H110036   4.176   2.242   5.463 -1.0868 -1.5438  2.0716
 2329WAT     H210037   4.279   2.155   5.488  1.3852  0.2477 -1.0988
 2329WAT    EPW10038   4.222   2.182   5.442  0.0525 -0.1329  0.2436
 2330WAT      O10039   5.039   3.083   4.165  0.7406 -0.0856  0.0296
 2330WAT     H110040   5.010   3.008   4.131 -1.2365  0.0509  1.2721
 2330WAT     H210041   4.997   3.144   4.119 -2.1657  0.1011  2.6348
 2330WAT    EPW10042   5.029   3.081   4.153  0.0192 -0.0378  0.5980
 2331WAT      O10043   6.866   3.444   4.802 -0.3291  0.0824  0.2995
 2331WAT     H110044   6.863   3.441   4.889  2.5723  1.0913  0.5722
 2331WAT     H210045   6.861   3.361   4.778  0.5439 -0.3873  1.6131
 2331WAT    EPW10046   6.865   3.432   4.812  0.2285  0.1620  0.5338
 2332WAT      O10047   6.260   1.868   6.668 -0.1927 -0.5357  0.1467
 2332WAT     H110048   6.248   1.811   6.603  0.3074 -0.8194  0.3001
 2332WAT     H210049   6.302   1.934   6.629  0.7336 -1.0085  0.3191
 2332WAT    EPW10050   6.264   1.869   6.653  0.0180 -0.6475  0.1949
 2333WAT      O10051   6.507   2.351   3.258 -0.6176  0.2296  0.0218
 2333WAT     H110052   6.519   2.432   3.288  0.2002  0.0000  0.3507
 2333WAT     H210053   6.501   2.361   3.171 -0.5738  0.6487  0.0674
 2333WAT    EPW10054   6.508   2.364   3.249 -0.4903  0.2576  0.0771
 2334WAT      O10055   6.757   0.995   5.759 -0.1890 -0.1698 -0.1584
 2334WAT     H110056   6.686   1.030   5.794  0.0340 -0.3394  0.4941
 2334WAT     H210057   6.760   0.915   5.795 -0.4118 -0.6758 -1.2268
 2334WAT    EPW10058   6.747   0.988   5.770 -0.1890 -0.2696 -0.2198
 2335WAT      O10059   6.448   0.162   5.805  0.2217  0.3567 -0.0476
 2335WAT     H110060   6.399   0.225   5.771 -1.7433 -1.3397 -0.5571
 2335WAT     H210061   6.486   0.125   5.736 -1.1612 -0.9865 -0.1366
 2335WAT    EPW10062   6.447   0.166   5.790 -0.2729 -0.0923 -0.1360
 2336WAT      O10063   5.162   3.772   3.501 -0.4442  0.6543 -0.1034
 2336WAT     H110064   5.154   3.686   3.507 -0.6637  0.3958 -2.9680
 2336WAT     H210065   5.082   3.799   3.480 -0.0931  1.4035 -0.5254
 2336WAT    EPW10066   5.149   3.763   3.499 -0.4247  0.7268 -0.5889
 2337WAT      O10067   6.815   2.000   4.012  0.2374 -0.5635 -0.8043
 2337WAT     H110068   6.852   2.055   3.955 -1.4863  0.4181 -1.0516
 2337WAT     H210069   6.847   2.027   4.089  0.4222 -0.0583 -1.0500
 2337WAT    EPW10070   6.825   2.012   4.015  0.0100 -0.3438 -0.8771
 2338WAT      O10071   6.367   2.184   5.014  0.4466 -0.0371 -0.0489
 2338WAT     H110072   6.419   2.118   5.037  0.4322 -0.0437 -0.0345
 2338WAT     H210073   6.358   2.175   4.928  2.0042  1.0506 -0.3813
 2338WAT    EPW10074   6.374   2.173   5.005  0.6746  0.1226 -0.0959
 2339WAT      O10075   5.115   1.827   5.742  0.0575  0.4729  0.1023
 2339WAT     H110076   5.172   1.839   5.807 -0.8290 -0.4744  1.1014
 2339WAT     H210077   5.040   1.810   5.783 -0.4537 -0.5132 -1.1614
 2339WAT    EPW10078   5.113   1.826   5.758 -0.1490  0.1873  0.0632
 2340WAT      O10079   5.891   3.167   4.776  0.0374 -0.5910 -0.1577
 2340WAT     H110080   5.861   3.088   4.796  1.4033 -1.3110 -0.8760
 2340WAT     H210081   5.854   3.185   4.699 -1.6804  0.2868  0.7895
 2340WAT    EPW10082   5.881   3.158   4.768 -0.0146 -0.5677 -0.1239
 2341WAT      O10083   5.767   3.228   4.153 -0.2871  0.0114  0.0005
 2341WAT     H110084   5.744   3.270   4.080 -0.0446  0.7688  0.3469
 2341WAT     H210085   5.704   3.251   4.210 -2.0329 -2.7047 -0.6376
 2341WAT    EPW10086   5.754   3.238   4.151 -0.5092 -0.2779 -0.0426
 2342WAT      O10087   6.998   6.307   6.184  0.2914 -0.2010 -0.4037
 2342WAT     H110088   7.028   6.249   6.126 -0.9471 -0.9133 -0.3721
 2342WAT     H210089   6.960   6.257   6.244 -0.7261  0.6433 -0.3290
 2342WAT    EPW10090   6.997   6.291   6.184 -0.0419 -0.1815 -0.3880
 2343WAT      O10091   5.581   3.273   4.331 -0.0849  0.0411  0.1252
 2343WAT     H110092   5.592   3.200   4.377  0.9352 -0.7646 -1.3047
 2343WAT     H210093   5.508   3.258   4.285 -0.3733  0.2998  0.4953
 2343WAT    EPW10094   5.572   3.260   4.331  0.0232 -0.0397 -0.0313
 2344WAT      O10095   6.220   0.718   3.058 -0.6529 -0.3084  0.0721
 2344WAT     H110096   6.208   0.804   3.066  0.9023 -0.2261  2.6514
 2344WAT     H210097   6.277   0.711   2.993  0.8570  0.8536  1.1862
 2344WAT    EPW10098   6.227   0.730   3.050 -0.2001 -0.1246  0.6177
 2345WAT      O10099   6.255   3.504   3.807  0.7395 -0.0302 -0.2672
 2345WAT     H110100   6.190   3.468   3.853  1.7047  2.1383  3.2023
 2345WAT     H210101   6.213   3.545   3.742 -1.1346 -0.5961  0.5065
 2345WAT    EPW10102   6.239   3.505   3.804  0.6052  0.2065  0.3596
 2346WAT      O10103   5.358   3.540   5.711 -0.7271  0.9235 -0.0158
 2346WAT     H110104   5.389   3.619   5.690  0.3655  0.4258 -0.3347
 2346WAT     H210105   5.428   3.496   5.738 -1.2872  0.0089  0.0154
 2346WAT    EPW10106   5.373   3.545   5.712 -0.6484  0.7149 -0.0583
 2347WAT      O10107   5.003   1.510   5.151 -0.6398 -0.0528 -0.0182
 2347WAT     H110108   5.090   1.507   5.144 -0.6150  1.4417 -0.7615
 2347WAT     H210109   4.987   1.466   5.225  0.6776 -0.9247 -0.2206
 2347WAT    EPW10110   5.014   1.503   5.161 -0.4415  0.0392 -0.1579
 2348WAT      O10111   7.076   3.301   6.193 -0.2898 -0.3626  0.0674
 2348WAT     H110112   7.093   3.215   6.198 -1.0571 -0.4859  3.2079
 2348WAT     H210113   7.147   3.338   6.227 -1.2564 -0.0814  1.9498
 2348WAT    EPW10114   7.089   3.294   6.199 -0.5460 -0.3393  0.8094
 2349WAT      O10115   5.445   3.598   4.153  0.3198 -0.0547 -0.0342
 2349WAT     H110116   5.478   3.527   4.114 -0.1403  0.3316 -1.1796
 2349WAT     H210117   5.516   3.639   4.185  0.8477  0.1270 -1.3686
 2349WAT    EPW10118   5.461   3.594   4.152  0.3298  0.0292 -0.4005
 2350WAT      O10119   6.684   1.491   4.392 -0.2599  0.4234 -0.2166
 2350WAT     H110120   6.743   1.483   4.328 -0.3049  0.6728 -0.2887
 2350WAT     H210121   6.608   1.473   4.353 -0.2668  0.3915 -0.1890
 2350WAT    EPW10122   6.682   1.487   4.377 -0.2676  0.4555 -0.2232
 2351WAT      O10123   5.246   3.062   5.179 -0.4777 -0.0312 -0.2937
 2351WAT     H110124   5.262   3.126   5.122 -1.7516  0.9310  0.3883
 2351WAT     H210125   5.216   3.104   5.250 -1.4499 -1.3666  0.1286
 2351WAT    EPW10126   5.244   3.078   5.181 -0.8095 -0.0863 -0.1306
 2352WAT      O10127   7.342   1.803   6.278 -0.0058 -0.5135 -0.6001
 2352WAT     H110128   7.415   1.780   6.318  0.0885  0.5162 -0.1407
 2352WAT     H210129   7.344   1.891   6.281 -2.2532 -0.4415  1.3037
 2352WAT    EPW10130   7.353   1.813   6.284 -0.3238 -0.3508 -0.2510
 2353WAT      O10131   6.314   1.234   2.202  0.0215 -0.3374 -0.1183
 2353WAT     H110132   6.336   1.156   2.170  0.2464 -0.3205 -0.0062
 2353WAT     H210133   6.385   1.259   2.246  0.2116  0.2326 -0.7245
 2353WAT    EPW10134   6.328   1.227   2.204  0.0828 -0.2507 -0.1913
 2354WAT      O10135   6.335   1.281   6.607  0.0624 -0.5561 -0.0111
 2354WAT     H110136   6.350   1.260   6.524 -0.0217 -1.2176  0.1310
 2354WAT     H210137   6.363   1.363   6.613 -1.4418  0.0926 -1.1049
 2354WAT    EPW10138   6.341   1.290   6.596 -0.1722 -0.5580 -0.1517
 2355WAT      O10139   6.333   7.544   5.977 -0.0305  0.4537  0.5358
 2355WAT     H110140   6.320   7.630   5.971  0.4012  0.5256  0.6096
 2355WAT     H210141   6.348   7.531   6.062 -0.9870  0.1733  0.6785
 2355WAT    EPW10142   6.333   7.555   5.989 -0.1080  0.4229  0.5678
 2356WAT      O10143   6.661   3.119   4.484  0.2743  0.7348  0.3950
 2356WAT     H110144   6.655   3.067   4.414 -0.7383 -0.1319  1.1015
 2356WAT     H210145   6.612   3.188   4.463 -1.9510 -0.5472  1.0948
 2356WAT    EPW10146   6.653   3.122   4.470 -0.2040  0.4174  0.6027
 2357WAT      O10147   6.507   0.627   3.297 -0.3228 -0.1829 -0.2461
 2357WAT     H110148   6.436   0.578   3.304 -0.3799  0.0165  0.8724
 2357WAT     H210149   6.478   0.701   3.261 -0.8304  0.1465  0.8003
 2357WAT    EPW10150   6.492   0.631   3.293 -0.4062 -0.1048  0.0737
 2358WAT      O10151   6.687   4.470   4.102  0.2853  0.3768  0.8601
 2358WAT     H110152   6.721   4.465   4.022  0.1367 -0.8893  0.8517
 2358WAT     H210153   6.700   4.553   4.125  0.2576  0.7814 -0.5030
 2358WAT    EPW10154   6.694   4.482   4.094  0.2593  0.2496  0.6575
 2359WAT      O10155   6.351   1.825   5.396 -0.5069 -0.5576  0.3717
 2359WAT     H110156   6.383   1.795   5.471 -0.5741  0.3135  0.7674
 2359WAT     H210157   6.377   1.766   5.337  1.0767 -0.3396  0.8036
 2359WAT    EPW10158   6.359   1.812   5.398 -0.2829 -0.3967  0.4940
 2360WAT      O10159   6.108   0.212   4.729  0.1252 -0.1974  0.4121
 2360WAT     H110160   6.104   0.169   4.806 -1.6999  0.8868  0.9738
 2360WAT     H210161   6.193   0.232   4.722  0.3108 -0.1204  2.2748
 2360WAT    EPW10162   6.120   0.208   4.740 -0.1170 -0.0258  0.7703
 2361WAT      O10163   5.653   1.891   4.988  0.5903 -0.0641 -0.3360
 2361WAT     H110164   5.615   1.944   5.047  1.1518 -0.2941  0.2418
 2361WAT     H210165   5.593   1.829   4.975  1.4731 -1.5762  2.1208
 2361WAT    EPW10166   5.638   1.890   4.995  0.8037 -0.3215  0.1123
 2362WAT      O10167   6.003   0.792   4.282  0.4882  0.1002  0.8097
 2362WAT     H110168   5.998   0.810   4.197  0.3649 -0.9968  0.5660
 2362WAT     H210169   5.941   0.732   4.294 -0.7232  1.5069  2.0592
 2362WAT    EPW10170   5.993   0.786   4.272  0.2911  0.1459  0.9583
 2363WAT      O10171   6.663   3.205   5.181 -0.1033  0.3559 -0.4651
 2363WAT     H110172   6.739   3.195   5.139 -0.2459  0.9665 -0.8855
 2363WAT     H210173   6.607   3.225   5.117 -0.7242 -0.5372 -0.2213
 2363WAT    EPW10174   6.666   3.206   5.165 -0.2161  0.3142 -0.4912
 2364WAT      O10175   7.058   1.964   5.714  0.0804  0.6734  0.3052
 2364WAT     H110176   6.972   1.964   5.723 -0.1833 -1.9358 -0.9226
 2364WAT     H210177   7.072   2.016   5.645 -0.9625 -1.1237 -1.3998
 2364WAT    EPW10178   7.047   1.971   5.705 -0.1126  0.0225 -0.1280
 2365WAT      O10179   7.027   3.026   6.143  0.0638 -0.1953  0.1488
 2365WAT     H110180   7.010   2.979   6.214  0.4948 -1.7095 -0.7081
 2365WAT     H210181   7.063   2.968   6.089  0.4663  1.1023 -1.0149
 2365WAT    EPW10182   7.030   3.011   6.146  0.1869 -0.2273 -0.1497
 2366WAT      O10183   3.585   2.203   5.095  0.4719  0.3117 -0.2949
 2366WAT     H110184   3.577   2.256   5.027 -1.0597  1.2011  0.5289
 2366WAT     H210185   3.569   2.124   5.062  3.5755  0.1345 -1.7016
 2366WAT    EPW10186   3.581   2.199   5.080  0.7041  0.4169 -0.3810
 2367WAT      O10187   6.955   0.711   4.995  0.5047 -0.5326 -0.0369
 2367WAT     H110188   6.916   0.696   5.072  2.4188 -0.9185  0.9231
 2367WAT     H210189   6.997   0.637   4.979 -0.8736 -0.9253 -2.1525
 2367WAT    EPW10190   6.956   0.698   5.004  0.5839 -0.6476 -0.2076
 2368WAT      O10191   6.856   0.711   6.818 -0.0888  0.0945  0.3720
 2368WAT     H110192   6.879   0.749   6.743  0.6726 -0.5888  0.2432
 2368WAT     H210193   6.894   0.632   6.813 -0.5904 -0.2063  1.1806
 2368WAT    EPW10194   6.865   0.705   6.806 -0.0504 -0.0509  0.4724
 2369WAT      O10195   6.121   3.712   4.185  0.1572  0.4553 -0.6856
 2369WAT     H110196   6.142   3.667   4.257  0.1091 -1.8832 -2.0484
 2369WAT     H210197   6.179   3.685   4.126 -0.3860  1.6196 -1.7939
 2369WAT    EPW10198   6.133   3.701   4.187  0.0698  0.2818 -1.0507
 2370WAT      O10199   4.942   2.397   5.106  0.7859  0.2572  0.0689
 2370WAT     H110200   4.949   2.313   5.081 -0.6992  0.5702 -1.6576
 2370WAT     H210201   4.918   2.392   5.189 -2.0571 -1.1978 -0.6959
 2370WAT    EPW10202   4.940   2.384   5.114  0.1466  0.0885 -0.2991
 2371WAT      O10203   6.957   2.939   5.598  0.0642 -0.4285 -0.1211
 2371WAT     H110204   6.958   2.870   5.544 -2.0042 -2.6008  2.3037
 2371WAT     H210205   6.872   2.960   5.603  0.4753  1.2614  0.4550
 2371WAT    EPW10206   6.944   2.932   5.591 -0.1807 -0.4998  0.3222
 2372WAT      O10207   4.700   1.742   3.887  0.8217 -0.1381  0.2912
 2372WAT     H110208   4.716   1.793   3.956  2.9384  0.6942 -0.7091
 2372WAT     H210209   4.766   1.685   3.888  0.2380 -0.8441 -0.3992
 2372WAT    EPW10210   4.712   1.741   3.898  1.0482 -0.1194  0.0415
 2373WAT      O10211   6.457   1.413   4.841 -0.0548  0.0995  0.3263
 2373WAT     H110212   6.461   1.334   4.804  3.4264  0.2655  0.0537
 2373WAT     H210213   6.424   1.464   4.779 -1.6345 -0.9669  0.2504
 2373WAT    EPW10214   6.453   1.409   4.826  0.2261 -0.0335  0.2749
 2374WAT      O10215   6.521   2.282   4.396  0.0744 -0.9418  0.7152
 2374WAT     H110216   6.540   2.197   4.401 -0.5037 -1.1214 -0.0273
 2374WAT     H210217   6.436   2.283   4.379  0.4866 -0.2705 -1.5082
 2374WAT    EPW10218   6.511   2.270   4.395  0.0499 -0.8692  0.2771
 2375WAT      O10219   6.009   2.516   5.280 -0.3524 -0.1608 -0.2440
 2375WAT     H110220   5.933   2.497   5.241 -1.1698  1.2464  0.5918
 2375WAT     H210221   6.023   2.447   5.332 -2.7958  0.9522  2.0774
 2375WAT    EPW10222   6.000   2.503   5.282 -0.8341  0.2115  0.2224
 2376WAT      O10223   6.252   0.712   6.683 -0.2002 -0.0129 -0.7027
 2376WAT     H110224   6.314   0.655   6.662 -0.2435  0.0541 -1.0231
 2376WAT     H210225   6.186   0.662   6.711 -0.2434 -0.1242 -0.9972
 2376WAT    EPW10226   6.251   0.696   6.684 -0.2130 -0.0195 -0.7936
 2377WAT      O10227   4.815   2.755   2.240 -0.2603 -0.2296  0.1765
 2377WAT     H110228   4.738   2.792   2.225  0.1102  0.2556 -0.5198
 2377WAT     H210229   4.801   2.671   2.219 -0.2369  0.1015 -1.2079
 2377WAT    EPW10230   4.802   2.748   2.235 -0.2021 -0.1090 -0.1309
 2378WAT      O10231   6.052   1.410   4.095  0.0177  0.1091 -0.0598
 2378WAT     H110232   6.012   1.409   4.173 -0.7245  0.0160 -0.4353
 2378WAT     H210233   6.039   1.492   4.067 -0.4980 -0.1119 -0.4783
 2378WAT    EPW10234   6.044   1.422   4.102 -0.1681  0.0627 -0.1771
 2379WAT      O10235   6.772   2.370   4.772 -0.8619  0.0614  0.3012
 2379WAT     H110236   6.731   2.403   4.702  0.1171 -0.9926 -0.8169
 2379WAT     H210237   6.856   2.387   4.757 -0.7645  2.6705  2.8068
 2379WAT    EPW10238   6.778   2.377   4.760 -0.7029  0.2911  0.5062
 2380WAT      O10239   5.402   2.795   4.794 -0.4377 -0.2062 -0.7340
 2380WAT     H110240   5.359   2.864   4.761 -2.0556 -0.3280  0.9672
 2380WAT     H210241   5.338   2.736   4.808  0.4562 -0.8845  0.6815
 2380WAT    EPW10242   5.386   2.797   4.791 -0.5446 -0.3244 -0.2736
 2381WAT      O10243   6.639   1.426   6.162  0.3832  0.0750  0.0117
 2381WAT     H110244   6.612   1.493   6.210  0.4933 -0.1371  0.3778
 2381WAT     H210245   6.580   1.363   6.180 -0.1967  0.3261 -0.9642
 2381WAT    EPW10246   6.626   1.426   6.172  0.3138  0.0808 -0.0784
 2382WAT      O10247   5.796   2.202   1.901 -0.0256 -0.0608  0.3858
 2382WAT     H110248   5.797   2.288   1.887  0.7134 -0.1478 -0.2137
 2382WAT     H210249   5.714   2.186   1.927 -0.2907  0.7614  0.1005
 2382WAT    EPW10250   5.784   2.212   1.902  0.0444  0.0478  0.2551
 2383WAT      O10251   5.625   1.201   2.497 -0.3319 -0.4140 -0.0311
 2383WAT     H110252   5.568   1.216   2.432  0.7288  0.1809 -0.8568
 2383WAT     H210253   5.613   1.117   2.515 -1.9292 -0.1383  0.2736
 2383WAT    EPW10254   5.615   1.191   2.490 -0.4112 -0.2854 -0.1081
 2384WAT      O10255   5.592   2.080   6.835 -0.1695  0.2471  0.4962
 2384WAT     H110256   5.678   2.070   6.846  0.3195  2.0448 -1.2140
 2384WAT     H210257   5.574   2.030   6.766  0.1499  2.1461 -1.0449
 2384WAT    EPW10258   5.602   2.071   6.826 -0.0501  0.7932  0.0159
 2385WAT      O10259   6.020   0.415   2.702  0.1231 -0.1921 -0.5329
 2385WAT     H110260   6.054   0.386   2.627  1.9142 -0.4217  0.3065
 2385WAT     H210261   6.071   0.378   2.763 -1.9926 -0.9415  0.8655
 2385WAT    EPW10262   6.033   0.405   2.700  0.0751 -0.3367 -0.2024
 2386WAT      O10263   6.661   3.586   5.019  0.1931  0.1243 -0.3604
 2386WAT     H110264   6.623   3.533   4.961 -0.1298 -0.3261  0.2432
 2386WAT     H210265   6.740   3.550   5.032  0.6371  0.7618 -1.2196
 2386WAT    EPW10266   6.667   3.573   5.013  0.2110  0.1519 -0.3982
 2387WAT      O10267   5.697   2.145   2.938  0.0641 -0.2966  0.8913
 2387WAT     H110268   5.649   2.073   2.948 -3.3410  1.5690 -0.4712
 2387WAT     H210269   5.663   2.201   2.995 -0.9871  1.7514 -1.5611
 2387WAT    EPW10270   5.685   2.142   2.948 -0.5942  0.2815  0.3278
 2388WAT      O10271   6.978   2.847   5.882  0.1669 -0.2635  0.1371
 2388WAT     H110272   6.982   2.888   5.806  1.8673  0.1394  0.4060
 2388WAT     H210273   6.902   2.873   5.916  0.5714  1.5953 -0.2938
 2388WAT    EPW10274   6.967   2.857   5.876  0.4778  0.0706  0.1132
 2389WAT      O10275   5.615   2.172   3.965 -0.4415 -0.0897  0.1749
 2389WAT     H110276   5.598   2.211   3.888 -0.5189 -0.6635 -0.1060
 2389WAT     H210277   5.536   2.146   3.992 -0.8037  2.2314  1.6591
 2389WAT    EPW10278   5.600   2.174   3.958 -0.5064  0.1684  0.3527
 2390WAT      O10279   6.837   1.156   4.788  0.0242 -0.5917  0.4468
 2390WAT     H110280   6.825   1.216   4.726  1.4633  1.6862  2.2557
 2390WAT     H210281   6.871   1.088   4.744  0.3596  0.6836 -1.3606
 2390WAT    EPW10282   6.840   1.155   4.772  0.2863 -0.0668  0.4470
 2391WAT      O10283   6.679   1.237   6.462 -0.1495  0.4561  0.3478
 2391WAT     H110284   6.650   1.167   6.505  0.3177 -1.3128 -1.9858
 2391WAT     H210285   6.612   1.258   6.410 -0.2872  1.7742  1.0296
 2391WAT    EPW10286   6.665   1.230   6.461 -0.1008  0.3895  0.1038
 2392WAT      O10287   6.417   2.214   5.595 -0.4083  0.6569  0.0743
 2392WAT     H110288   6.497   2.249   5.600  0.0235 -0.2286 -0.4232
 2392WAT     H210289   6.413   2.184   5.513 -0.4383 -1.1448  0.6949
 2392WAT    EPW10290   6.428   2.215   5.584 -0.3489  0.2600  0.0925
 2393WAT      O10291   6.723   1.364   3.105  0.7859  0.3822  0.2747
 2393WAT     H110292   6.667   1.426   3.078  0.8763 -0.4413 -2.0410
 2393WAT     H210293   6.716   1.367   3.192 -1.1449  1.8577  0.1533
 2393WAT    EPW10294   6.713   1.374   3.114  0.5140  0.4785 -0.0853
 2394WAT      O10295   7.067   0.015   6.017  0.5763 -0.5686  0.2674
 2394WAT     H110296   7.095  -0.048   5.964  0.7879 -0.5424  0.3501
 2394WAT     H210297   7.014  -0.027   6.072  1.6276 -0.8889  1.0637
 2394WAT    EPW10298   7.063  -0.001   6.017  0.7628 -0.6121  0.3973
 2395WAT      O10299   5.868   0.830   3.708  0.4638 -0.0544  0.0116
 2395WAT     H110300   5.868   0.745   3.691  1.6093  0.0331 -0.5470
 2395WAT     H210301   5.804   0.861   3.658 -0.9004 -0.7450  1.2613
 2395WAT    EPW10302   5.859   0.822   3.698  0.4315 -0.1435  0.1137
 2396WAT      O10303   5.864   1.424   5.390 -0.2232  0.0841 -0.0388
 2396WAT     H110304   5.898   1.344   5.401 -0.1890 -0.1467 -1.6014
 2396WAT     H210305   5.925   1.466   5.344 -0.0285  1.1928  1.1842
 2396WAT    EPW10306   5.878   1.418   5.385 -0.1894  0.2138 -0.0890
 2397WAT      O10307   6.177   3.277   5.864 -0.1751  0.3244  0.4610
 2397WAT     H110308   6.108   3.329   5.855 -1.4106 -1.2008  0.8546
 2397WAT     H210309   6.157   3.207   5.818  1.1874 -0.0998  0.4639
 2397WAT    EPW10310   6.164   3.275   5.856 -0.1564  0.0365  0.5196
 2398WAT      O10311   6.549   3.091   6.202 -0.2414  0.1490  0.5199
 2398WAT     H110312   6.633   3.103   6.220  0.2051 -2.7430  0.8707
 2398WAT     H210313   6.542   3.116   6.119  1.2695 -0.5910  0.1311
 2398WAT    EPW10314   6.560   3.096   6.193  0.0477 -0.3875  0.5143
 2399WAT      O10315   6.195   1.801   5.099  0.2895 -0.2912 -0.0955
 2399WAT     H110316   6.209   1.770   5.179  3.2722 -1.8751 -1.0768
 2399WAT     H210317   6.133   1.861   5.110  0.6381 -0.4166  3.3906
 2399WAT    EPW10318   6.188   1.805   5.112  0.7816 -0.5437  0.2745
 2400WAT      O10319   6.025   1.380   4.393 -0.4160  0.1699  0.4777
 2400WAT     H110320   6.101   1.423   4.398  0.1218 -0.8172  1.1706
 2400WAT     H210321   6.043   1.303   4.430 -1.5508 -0.3725 -0.0508
 2400WAT    EPW10322   6.039   1.375   4.399 -0.5042 -0.0560  0.5020
 2401WAT      O10323   5.768   2.503   3.923 -0.4359 -0.0753  0.1424
 2401WAT     H110324   5.737   2.491   4.003  1.2553  0.5308  0.9142
 2401WAT     H210325   5.818   2.432   3.909  0.8193  0.7277  0.4141
 2401WAT    EPW10326   5.771   2.491   3.933 -0.0007  0.1328  0.2965
 2402WAT      O10327   6.759   2.583   3.523 -0.7833  0.3170  0.6745
 2402WAT     H110328   6.789   2.513   3.480  1.8013  0.1772  2.4768
 2402WAT     H210329   6.745   2.553   3.604 -2.2873  1.3275  0.8420
 2402WAT    EPW10330   6.761   2.568   3.528 -0.6237  0.4456  0.9655
 2403WAT      O10331   6.196   2.614   5.087 -0.0562  0.8675  0.1738
 2403WAT     H110332   6.163   2.577   5.159  0.6422  0.0142  0.0686
 2403WAT     H210333   6.184   2.699   5.100 -1.5720  0.6296  0.4905
 2403WAT    EPW10334   6.189   2.621   5.099 -0.1769  0.7063  0.2050
 2404WAT      O10335   6.510   1.544   7.000  0.0359  0.0905 -0.2400
 2404WAT     H110336   6.483   1.624   6.978 -1.2194 -0.6032 -1.3706
 2404WAT     H210337   6.508   1.500   6.925  0.3312 -1.1189  0.4270
 2404WAT    EPW10338   6.506   1.549   6.986 -0.1059 -0.1906 -0.3085
 2405WAT      O10339   5.850   0.541   4.277  0.4787 -0.2370  0.2240
 2405WAT     H110340   5.770   0.522   4.305 -0.1365  1.6751 -0.0500
 2405WAT     H210341   5.858   0.493   4.205  0.2508 -1.6825  1.1185
 2405WAT    EPW10342   5.839   0.531   4.271  0.3542 -0.1681  0.3157
 2406WAT      O10343   4.509   3.571   5.371  0.3034  0.0593  0.2090
 2406WAT     H110344   4.534   3.517   5.308 -0.3540 -2.0675  1.6779
 2406WAT     H210345   4.424   3.583   5.356 -0.3321 -2.0187  1.6596
 2406WAT    EPW10346   4.500   3.565   5.360  0.1124 -0.5618  0.6403
 2407WAT      O10347   6.526   1.239   7.335  0.9870 -0.9363 -0.1362
 2407WAT     H110348   6.588   1.188   7.369  0.5525 -0.2119  1.8855
 2407WAT     H210349   6.567   1.316   7.325  0.5329 -0.5582  0.8463
 2407WAT    EPW10350   6.541   1.243   7.338  0.8558 -0.7734  0.3076
 2408WAT      O10351   7.285   3.121   7.422 -0.1131  0.0175  0.1675
 2408WAT     H110352   7.277   3.206   7.439 -1.6696 -0.2302  0.8174
 2408WAT     H210353   7.208   3.088   7.446 -0.0379 -1.3748 -1.3456
 2408WAT    EPW10354   7.272   3.129   7.428 -0.3319 -0.2247  0.0400
 2409WAT      O10355   6.374   1.169   4.279  0.2203 -0.3258 -0.1043
 2409WAT     H110356   6.323   1.179   4.208  0.1043  1.9090  0.2161
 2409WAT     H210357   6.438   1.116   4.251 -0.9587 -1.2126 -1.2293
 2409WAT    EPW10358   6.376   1.162   4.264  0.0290 -0.1267 -0.2232
 2410WAT      O10359   5.220   2.386   2.819 -0.1998 -0.2715  0.7719
 2410WAT     H110360   5.234   2.470   2.800  2.1873 -0.4463  1.4127
 2410WAT     H210361   5.154   2.363   2.767 -0.5511  1.8586  0.2132
 2410WAT    EPW10362   5.212   2.395   2.809  0.1009  0.0174  0.7840
 2411WAT      O10363   6.861   1.351   5.025  0.7980  0.6107 -0.0024
 2411WAT     H110364   6.870   1.283   4.971 -0.6417 -1.3485  2.0109
 2411WAT     H210365   6.819   1.411   4.977 -2.9137 -2.0467 -0.5214
 2411WAT    EPW10366   6.856   1.350   5.010  0.0370 -0.0713  0.2183
 2412WAT      O10367   5.343   2.188   5.362  0.1140 -0.2171 -0.1636
 2412WAT     H110368   5.358   2.152   5.284 -0.5767  0.0735 -0.4367
 2412WAT     H210369   5.376   2.130   5.418  2.0845  0.2860 -0.7057
 2412WAT    EPW10370   5.350   2.174   5.359  0.3030 -0.0999 -0.2840
 2413WAT      O10371   6.431   2.783   3.539  0.2031  0.1141  0.3162
 2413WAT     H110372   6.457   2.718   3.486  2.3716  1.7932 -0.8608
 2413WAT     H210373   6.403   2.741   3.610  2.2342 -2.1527 -0.0652
 2413WAT    EPW10374   6.431   2.767   3.542  0.8234  0.0273  0.0860
 2414WAT      O10375   6.977   2.733   5.404  0.4035 -0.0089  0.1971
 2414WAT     H110376   6.927   2.666   5.379  1.6958 -0.4390 -1.4008
 2414WAT     H210377   7.012   2.761   5.330  1.5389  1.0902  1.1132
 2414WAT    EPW10378   6.975   2.727   5.389  0.7621  0.0900  0.0964
 2415WAT      O10379   6.241   2.425   4.348  0.1424 -0.1454 -0.2591
 2415WAT     H110380   6.274   2.503   4.328 -2.1514  1.1463  0.6046
 2415WAT     H210381   6.223   2.390   4.270 -0.3787  0.9487 -0.6491
 2415WAT    EPW10382   6.243   2.431   4.333 -0.2734  0.2071 -0.1891
 2416WAT      O10383   7.082   1.366   5.998 -0.0413 -0.0021  0.4990
 2416WAT     H110384   7.014   1.414   5.973 -0.0637 -0.4393 -0.3109
 2416WAT     H210385   7.078   1.296   5.946  2.2412  0.9298 -1.0989
 2416WAT    EPW10386   7.071   1.363   5.987  0.2926  0.0710  0.1433
 2417WAT      O10387   5.872   2.953   4.158 -0.1990 -0.8665  0.5290
 2417WAT     H110388   5.842   3.033   4.138  1.6416 -0.3847 -0.4959
 2417WAT     H210389   5.870   2.953   4.246 -1.9553 -0.4216  0.5251
 2417WAT    EPW10390   5.867   2.965   4.168 -0.1866 -0.7296  0.3770
 2418WAT      O10391   5.696   1.468   4.098 -0.4786  0.0496  0.5073
 2418WAT     H110392   5.668   1.442   4.176 -2.6287  0.0851 -0.1844
 2418WAT     H210393   5.727   1.395   4.062 -1.2846 -0.3861  0.6769
 2418WAT    EPW10394   5.697   1.453   4.104 -0.9153 -0.0095  0.4302
 2419WAT      O10395   6.449   1.803   4.945 -0.0366 -0.4285  0.5445
 2419WAT     H110396   6.507   1.836   5.000 -1.2467  1.8375  0.5783
 2419WAT     H210397   6.378   1.792   4.995 -0.6656  0.1401 -0.2113
 2419WAT    EPW10398   6.447   1.806   4.961 -0.3083 -0.0097  0.4379
 2420WAT      O10399   4.787   2.652   5.365 -0.1824 -0.1505 -0.2834
 2420WAT     H110400   4.730   2.719   5.371  0.2052  0.2909 -1.2753
 2420WAT     H210401   4.812   2.655   5.282 -0.3024 -1.6704 -0.3951
 2420WAT    EPW10402   4.782   2.663   5.354 -0.1428 -0.3098 -0.4465
 2421WAT      O10403   6.890   2.459   5.374 -0.1295  0.3440 -0.8906
 2421WAT     H110404   6.872   2.416   5.447  3.3021 -1.1574 -0.6987
 2421WAT     H210405   6.860   2.407   5.311 -0.8196  0.3743 -0.5892
 2421WAT    EPW10406   6.883   2.445   5.375  0.2755  0.1267 -0.8177
 2422WAT      O10407   6.403   2.612   1.616  0.1676 -0.3233  0.1183
 2422WAT     H110408   6.410   2.666   1.684 -1.2358 -0.1293  0.1315
 2422WAT     H210409   6.462   2.643   1.559  1.1884 -0.3492  1.1362
 2422WAT    EPW10410   6.413   2.625   1.618  0.1111 -0.2985  0.2706
 2423WAT      O10411   4.754   1.252   6.848  0.0814  0.0177  0.0506
 2423WAT     H110412   4.688   1.309   6.855 -0.4396 -0.7922  2.5173
 2423WAT     H210413   4.818   1.288   6.895  0.3667 -0.6212  0.1618
 2423WAT    EPW10414   4.754   1.266   6.856  0.0466 -0.1963  0.4314
 2424WAT      O10415   6.277   2.372   2.665 -0.3880  0.0680 -0.1483
 2424WAT     H110416   6.299   2.290   2.684  0.5887  0.2439 -0.4725
 2424WAT     H210417   6.220   2.393   2.727  0.9579 -0.1560  1.2109
 2424WAT    EPW10418   6.272   2.363   2.677 -0.0449  0.0609  0.0046
 2425WAT      O10419   6.879   0.194   5.698  0.6635  1.0494 -0.1023
 2425WAT     H110420   6.908   0.114   5.714  3.7536  1.9300 -0.5961
 2425WAT     H210421   6.853   0.190   5.614  2.2337  0.8527 -0.6168
 2425WAT    EPW10422   6.880   0.182   5.688  1.3519  1.1504 -0.2512
 2426WAT      O10423   4.534   1.585   4.026  0.2796 -0.3827 -0.3951
 2426WAT     H110424   4.595   1.627   3.980  0.5543 -0.9864 -0.6037
 2426WAT     H210425   4.506   1.644   4.082  2.0757 -0.4680  0.6917
 2426WAT    EPW10426   4.539   1.600   4.027  0.5855 -0.4845 -0.2654
 2427WAT      O10427   6.090   1.174   5.430  0.0456  0.8608 -0.3476
 2427WAT     H110428   6.120   1.210   5.356  2.2117  0.5338  0.3126
 2427WAT     H210429   6.102   1.236   5.489 -3.9551  2.0826 -0.5391
 2427WAT    EPW10430   6.096   1.189   5.428 -0.2254  0.9930 -0.2784
 2428WAT      O10431   6.818   1.442   6.587  0.5818 -0.8628 -0.1315
 2428WAT     H110432   6.771   1.375   6.557  0.9136 -1.4262  0.6009
 2428WAT     H210433   6.856   1.411   6.658  0.6347  0.1470  0.3019
 2428WAT    EPW10434   6.817   1.427   6.593  0.6387 -0.7969  0.0407
 2429WAT      O10435   5.559   1.552   5.558 -0.1897 -0.4493  0.6369
 2429WAT     H110436   5.600   1.538   5.482 -1.2190 -0.2776  0.0316
 2429WAT     H210437   5.615   1.520   5.617  0.7764 -0.2860 -0.1598
 2429WAT    EPW10438   5.574   1.545   5.556 -0.1990 -0.3998  0.4298
 2430WAT      O10439   6.716   1.889   5.386  0.2883 -0.4883 -0.3370
 2430WAT     H110440   6.731   1.973   5.403  0.3332 -0.6446  0.4083
 2430WAT     H210441   6.795   1.853   5.388  0.1754 -0.7068  0.2346
 2430WAT    EPW10442   6.730   1.896   5.389  0.2783 -0.5437 -0.1424
 2431WAT      O10443   5.725   2.998   3.045 -0.6248 -0.5920 -0.4602
 2431WAT     H110444   5.720   2.928   3.097 -0.1583 -0.6613 -0.4986
 2431WAT     H210445   5.810   3.018   3.048 -0.8977  0.5838  0.3687
 2431WAT    EPW10446   5.737   2.991   3.053 -0.5962 -0.4285 -0.3434
 2432WAT      O10447   6.112   1.982   4.526  0.6683  0.5011  0.0360
 2432WAT     H110448   6.052   1.921   4.545  0.8003  0.2550 -0.3186
 2432WAT     H210449   6.069   2.039   4.476  0.6801  0.4133 -0.0765
 2432WAT    EPW10450   6.097   1.981   4.521  0.6895  0.4518 -0.0330
 2433WAT      O10451   6.060   1.547   6.180  0.1271 -0.6469 -0.4108
 2433WAT     H110452   6.102   1.550   6.104 -0.2058  1.3475 -0.5805
 2433WAT     H210453   5.996   1.606   6.171 -1.0979 -1.7179  0.7643
 2433WAT    EPW10454   6.057   1.556   6.168 -0.1031 -0.5105 -0.2623
 2434WAT      O10455   6.341   2.665   6.337  0.6178  1.0895  0.4772
 2434WAT     H110456   6.389   2.722   6.382  2.0451 -0.6575  1.2682
 2434WAT     H210457   6.279   2.641   6.394  1.8733 -0.4241  1.2727
 2434WAT    EPW10458   6.339   2.670   6.352  1.0141  0.6078  0.7115
 2435WAT      O10459   6.566   1.621   5.920 -0.5016  0.3327  0.1034
 2435WAT     H110460   6.590   1.580   5.993 -1.0582 -2.1570 -1.0170
 2435WAT     H210461   6.638   1.622   5.872 -0.8224 -0.6288 -0.4165
 2435WAT    EPW10462   6.580   1.615   5.924 -0.6312 -0.1771 -0.1389
 2436WAT      O10463   4.888   2.236   5.354 -0.2840  0.5545  0.4244
 2436WAT     H110464   4.950   2.206   5.301 -0.1439  0.9087  0.3877
 2436WAT     H210465   4.823   2.179   5.343 -0.0246  0.2717  0.3457
 2436WAT    EPW10466   4.887   2.223   5.345 -0.2250  0.5650  0.4074
 2437WAT      O10467   5.051   4.158   3.582 -0.0192  0.1934  0.5212
 2437WAT     H110468   4.972   4.127   3.604 -0.8632  2.5090  1.0697
 2437WAT     H210469   5.098   4.147   3.655  0.2196 -1.2581  0.1721
 2437WAT    EPW10470   5.046   4.152   3.596 -0.1086  0.3211  0.5507
 2438WAT      O10471   6.653   1.211   5.157 -0.9118 -0.4428 -0.2181
 2438WAT     H110472   6.581   1.256   5.140 -0.3441  0.3333 -0.6570
 2438WAT     H210473   6.717   1.260   5.123 -0.0932 -0.7138  0.8357
 2438WAT    EPW10474   6.652   1.225   5.150 -0.7070 -0.3682 -0.1273
 2439WAT      O10475   6.651   0.584   5.710 -0.3821 -0.4757 -0.1364
 2439WAT     H110476   6.694   0.554   5.641  1.3991  0.2227  0.6014
 2439WAT     H210477   6.648   0.515   5.764  0.3334 -0.3929  0.0229
 2439WAT    EPW10478   6.657   0.569   5.708 -0.0133 -0.3603 -0.0039
 2440WAT      O10479   5.127   2.105   4.607 -0.1473  0.3906  0.2847
 2440WAT     H110480   5.125   2.044   4.670 -1.3416 -0.6711 -0.7280
 2440WAT     H210481   5.046   2.135   4.604  0.0018  0.7369 -0.4684
 2440WAT    EPW10482   5.115   2.100   4.616 -0.3017  0.2849  0.0239
 2441WAT      O10483   7.241   1.627   6.802 -0.4659 -0.1657 -0.0539
 2441WAT     H110484   7.237   1.661   6.721 -0.0705 -0.4327 -0.1858
 2441WAT     H210485   7.228   1.541   6.788 -0.4689 -0.2017  0.1765
 2441WAT    EPW10486   7.238   1.619   6.788 -0.4080 -0.2105 -0.0393
 2442WAT      O10487   6.699   1.553   4.905  0.0494  0.0270  0.2289
 2442WAT     H110488   6.636   1.493   4.899  0.4954 -0.4995  0.6373
 2442WAT     H210489   6.710   1.580   4.823  2.1923 -2.9118 -0.6169
 2442WAT    EPW10490   6.691   1.548   4.892  0.4319 -0.4849  0.1643
 2443WAT      O10491   6.833   2.110   1.567 -0.2860  0.5098  0.0161
 2443WAT     H110492   6.901   2.058   1.548 -0.5277  0.2078 -0.0446
 2443WAT     H210493   6.806   2.079   1.645 -0.5990  0.3663 -0.1483
 2443WAT    EPW10494   6.839   2.097   1.576 -0.3680  0.4440 -0.0172
 2444WAT      O10495   5.613   1.874   2.144  0.2753  0.1442  0.0714
 2444WAT     H110496   5.605   1.890   2.059  1.8868 -2.2944 -0.6409
 2444WAT     H210497   5.699   1.883   2.158  0.2866 -1.2095  1.0207
 2444WAT    EPW10498   5.625   1.878   2.134  0.5150 -0.4160  0.1064
 2445WAT      O10499   5.966   1.646   3.936 -0.1175  0.2533  0.3827
 2445WAT     H110500   6.023   1.622   3.875  0.7317  0.3091  1.1353
 2445WAT     H210501   5.992   1.726   3.959 -1.4038  0.9071 -0.3124
 2445WAT    EPW10502   5.978   1.655   3.931 -0.1821  0.3581  0.3912
 2446WAT      O10503   6.857   0.871   4.152 -0.0054 -0.5024 -0.5295
 2446WAT     H110504   6.910   0.936   4.175 -0.3741  0.0150 -1.1120
 2446WAT     H210505   6.880   0.806   4.205  2.5315 -0.9430 -2.0032
 2446WAT    EPW10506   6.868   0.871   4.163  0.3149 -0.4911 -0.8333
 2447WAT      O10507   6.805   2.136   5.531  0.6081 -0.9113 -0.1199
 2447WAT     H110508   6.760   2.210   5.541  2.2944  0.1371  0.1301
 2447WAT     H210509   6.825   2.113   5.612  3.6850  0.7695 -0.2526
 2447WAT    EPW10510   6.801   2.144   5.544  1.3117 -0.5081 -0.1026
 2448WAT      O10511   6.456   3.812   7.033 -0.3634  0.3759 -0.1666
 2448WAT     H110512   6.491   3.776   6.962 -1.6365 -2.2352  0.4194
 2448WAT     H210513   6.454   3.747   7.090 -1.6629  1.7321  1.4422
 2448WAT    EPW10514   6.461   3.797   7.031 -0.7434  0.1905  0.1576
 2449WAT      O10515   6.191   0.908   5.254 -0.6410 -0.6693 -0.1318
 2449WAT     H110516   6.278   0.916   5.248 -0.8355  3.5118 -0.3085
 2449WAT     H210517   6.178   0.903   5.340 -0.2420  0.1461 -0.0100
 2449WAT    EPW10518   6.202   0.909   5.266 -0.6108  0.0688 -0.1399
 2450WAT      O10519   5.731   1.742   5.789  0.5337 -0.1825  0.0617
 2450WAT     H110520   5.662   1.757   5.737 -0.5738 -0.6705  1.3052
 2450WAT     H210521   5.784   1.694   5.740  0.0912  0.4073 -1.0211
 2450WAT    EPW10522   5.728   1.737   5.774  0.3047 -0.1675  0.0854
 2451WAT      O10523   6.101   0.032   6.168  0.3409 -0.2248  0.1176
 2451WAT     H110524   6.026  -0.008   6.147  0.0615  0.1108  0.4789
 2451WAT     H210525   6.140   0.044   6.091  0.0355 -0.4250 -0.0679
 2451WAT    EPW10526   6.096   0.028   6.153  0.2545 -0.2048  0.1435
 2452WAT      O10527   6.673   2.975   4.262  0.0133  0.5827 -0.0276
 2452WAT     H110528   6.663   2.895   4.228  1.1806  0.1355  0.6075
 2452WAT     H210529   6.688   3.025   4.193  1.8792 -0.2281 -0.2802
 2452WAT    EPW10530   6.674   2.970   4.247  0.4614  0.3969  0.0289
 2453WAT      O10531   5.894   1.788   4.686  0.0752  0.0919  0.1374
 2453WAT     H110532   5.892   1.740   4.613  1.8060  0.4182 -0.1763
 2453WAT     H210533   5.959   1.753   4.732 -0.6432  0.2302  1.3101
 2453WAT    EPW10534   5.903   1.776   4.682  0.2248  0.1605  0.2643
 2454WAT      O10535   5.849   7.240   6.397 -0.8137 -0.3322 -0.1070
 2454WAT     H110536   5.880   7.166   6.361 -1.8471 -1.2569  0.8118
 2454WAT     H210537   5.921   7.282   6.423 -0.2343 -1.4576  0.1727
 2454WAT    EPW10538   5.864   7.235   6.396 -0.8808 -0.6350  0.0701
 2455WAT      O10539   6.009   2.001   5.682 -0.1234 -0.5062 -0.3715
 2455WAT     H110540   5.957   2.036   5.743 -1.4634 -0.1116 -1.6889
 2455WAT     H210541   6.057   1.943   5.726 -0.8443 -0.0162  1.1008
 2455WAT    EPW10542   6.009   1.998   5.697 -0.4278 -0.3755 -0.3487
 2456WAT      O10543   6.509   2.558   5.403  0.0783  0.5958 -0.2298
 2456WAT     H110544   6.428   2.590   5.415  0.2285  0.7942  0.2886
 2456WAT     H210545   6.502   2.513   5.329 -1.0270 -1.0914  0.8319
 2456WAT    EPW10546   6.496   2.556   5.394 -0.0628  0.3759  0.0036
 2457WAT      O10547   6.840   2.083   5.034 -0.0873 -0.1845 -0.0744
 2457WAT     H110548   6.899   2.052   5.090  0.4667  1.7507  0.5195
 2457WAT     H210549   6.841   2.169   5.050 -2.7389 -0.0008 -0.3525
 2457WAT    EPW10550   6.849   2.091   5.045 -0.3971  0.1285 -0.0277
 2458WAT      O10551   6.448   2.846   5.219  0.1358  0.0909  0.5576
 2458WAT     H110552   6.497   2.781   5.252 -0.7854 -0.8056  0.2292
 2458WAT     H210553   6.471   2.915   5.266  1.0426 -0.5048  1.0263
 2458WAT    EPW10554   6.459   2.846   5.230  0.1337 -0.1295  0.5783
 2459WAT      O10555   6.512   1.312   6.816 -0.3263 -0.5786  0.3003
 2459WAT     H110556   6.463   1.282   6.751 -2.8831  1.8623  0.8605
 2459WAT     H210557   6.475   1.277   6.887 -0.4365  0.2360  0.6573
 2459WAT    EPW10558   6.499   1.303   6.817 -0.7203 -0.0977  0.4358
 2460WAT      O10559   6.822   1.564   7.592  0.6602  0.0416  0.6532
 2460WAT     H110560   6.875   1.509   7.550 -0.9466  1.0068 -3.1000
 2460WAT     H210561   6.787   1.611   7.527 -3.0786  0.9350  3.0410
 2460WAT    EPW10562   6.825   1.563   7.576 -0.1295  0.3161  0.4515
 2461WAT      O10563   6.145   3.047   6.646  0.0598  0.8129  0.4386
 2461WAT     H110564   6.218   3.000   6.635 -0.2951 -0.0561  1.5186
 2461WAT     H210565   6.157   3.116   6.594  1.4693  0.4872  0.2726
 2461WAT    EPW10566   6.158   3.050   6.637  0.2156  0.6364  0.5736
 2462WAT      O10567   6.682   2.168   6.311 -0.1423  0.5623  0.1541
 2462WAT     H110568   6.613   2.175   6.258  0.8178 -0.8506 -1.3604
 2462WAT     H210569   6.738   2.228   6.280  0.1923  0.1378 -0.0737
 2462WAT    EPW10570   6.680   2.178   6.299  0.0490  0.2909 -0.1032
 2463WAT      O10571   5.856   4.599   3.554  0.2702  0.5287  0.2101
 2463WAT     H110572   5.815   4.526   3.577  0.2881  0.1685 -0.8333
 2463WAT     H210573   5.880   4.635   3.630  1.3332 -1.1646  0.7201
 2463WAT    EPW10574   5.853   4.594   3.569  0.4299  0.2253  0.1313
 2464WAT      O10575   5.712   2.408   5.718  0.1860 -0.4649  0.5665
 2464WAT     H110576   5.676   2.437   5.791  0.3162  1.6218 -0.1351
 2464WAT     H210577   5.645   2.374   5.673 -0.7634  2.1474 -0.1447
 2464WAT    EPW10578   5.697   2.407   5.722  0.0650  0.2292  0.3578
 2465WAT      O10579   5.282   1.300   5.218 -0.3763 -0.0389  0.5578
 2465WAT     H110580   5.288   1.383   5.191 -0.0705 -0.0517  0.5806
 2465WAT     H210581   5.312   1.303   5.300  0.7959 -0.3734  0.1627
 2465WAT    EPW10582   5.287   1.313   5.226 -0.1580 -0.0902  0.5028
 2466WAT      O10583   5.514   0.539   5.648 -0.3031  0.5838 -0.1272
 2466WAT     H110584   5.577   0.483   5.670  0.0762  0.9008 -0.3907
 2466WAT     H210585   5.558   0.613   5.633 -0.8082  0.9825  0.3368
 2466WAT    EPW10586   5.530   0.542   5.649 -0.3217  0.6895 -0.0976
 2467WAT      O10587   5.503   1.200   4.713 -0.3398  0.0415  0.3608
 2467WAT     H110588   5.569   1.149   4.687 -0.9071 -1.4190  1.5641
 2467WAT     H210589   5.438   1.179   4.659 -0.0263  1.0080 -0.4176
 2467WAT    EPW10590   5.503   1.189   4.702 -0.3773 -0.0314  0.4236
 2468WAT      O10591   6.609   0.632   3.879  0.7046  0.6579 -0.1852
 2468WAT     H110592   6.675   0.688   3.876  1.0060  0.3454  0.4573
 2468WAT     H210593   6.541   0.679   3.850  1.0019  1.2779  0.1016
 2468WAT    EPW10594   6.609   0.647   3.874  0.7931  0.7034 -0.0479
 2469WAT      O10595   5.910   2.201   6.556 -0.2856  0.3773  0.2865
 2469WAT     H110596   5.919   2.117   6.576 -1.1623  0.3358  0.5179
 2469WAT     H210597   5.877   2.199   6.475 -1.4877  0.4738  0.7650
 2469WAT    EPW10598   5.906   2.188   6.547 -0.5927  0.3855  0.3914
 2470WAT      O10599   6.494   2.326   1.602  0.5505 -0.1258  0.2755
 2470WAT     H110600   6.468   2.407   1.621 -1.4873 -0.8268  0.7348
 2470WAT     H210601   6.573   2.338   1.567  0.3695  2.0374  0.4489
 2470WAT    EPW10602   6.502   2.340   1.599  0.2227  0.0902  0.3689
 2471WAT      O10603   6.720   1.251   5.438  0.4319  0.1378 -0.0163
 2471WAT     H110604   6.697   1.264   5.354  0.5601 -0.7095 -0.1869
 2471WAT     H210605   6.687   1.172   5.456 -0.6318  0.8050  1.1099
 2471WAT    EPW10606   6.712   1.241   5.428  0.2937  0.1112  0.1248
 2472WAT      O10607   6.553   1.165   5.835  0.5199 -0.2998 -0.5078
 2472WAT     H110608   6.479   1.208   5.850 -0.6426 -2.0797 -0.7847
 2472WAT     H210609   6.601   1.181   5.905 -0.5428  0.0827  0.1625
 2472WAT    EPW10610   6.549   1.174   5.847  0.1912 -0.5062 -0.4497
 2473WAT      O10611   5.665   0.928   3.548 -0.0030 -0.5655 -0.4407
 2473WAT     H110612   5.645   0.992   3.605 -0.1825  1.0738 -2.2297
 2473WAT     H210613   5.602   0.870   3.560 -1.0439  0.5715 -0.1562
 2473WAT    EPW10614   5.653   0.929   3.558 -0.1833 -0.1554 -0.6630
 2474WAT      O10615   7.067   0.607   6.433  0.2484  0.0324  0.3218
 2474WAT     H110616   6.993   0.577   6.397 -0.8524  0.7831  1.8848
 2474WAT     H210617   7.061   0.693   6.423  0.9723  0.0968  0.3924
 2474WAT    EPW10618   7.055   0.615   6.426  0.1927  0.1528  0.5631
 2475WAT      O10619   5.818   1.571   2.938 -0.3588 -0.4596  0.3140
 2475WAT     H110620   5.755   1.575   2.997  0.5837 -0.8738  1.3837
 2475WAT     H210621   5.858   1.648   2.945 -2.0311  0.7382 -1.9295
 2475WAT    EPW10622   5.815   1.583   2.947 -0.4666 -0.3439  0.1406
 2476WAT      O10623   6.346   3.873   5.180 -0.0235  0.5905  0.6838
 2476WAT     H110624   6.406   3.909   5.129  1.1344  0.8309  2.1314
 2476WAT     H210625   6.358   3.787   5.168 -1.5581  0.5979 -1.3846
 2476WAT    EPW10626   6.356   3.865   5.171 -0.0791  0.6271  0.5921
 2477WAT      O10627   6.737   0.170   5.447 -0.1093  0.8168  0.2125
 2477WAT     H110628   6.677   0.119   5.484 -0.7550  1.5323  0.1764
 2477WAT     H210629   6.722   0.160   5.361 -0.2034  1.0227  0.2042
 2477WAT    EPW10630   6.726   0.161   5.440 -0.2185  0.9529  0.2059
 2478WAT      O10631   4.866   0.097   6.134  0.9755 -0.0960  0.0912
 2478WAT     H110632   4.916   0.026   6.123  1.4946  0.4853 -1.5758
 2478WAT     H210633   4.923   0.163   6.129  0.1358  0.5616 -1.5321
 2478WAT    EPW10634   4.882   0.096   6.132  0.9282  0.0870 -0.3949
 2479WAT      O10635   6.968   2.221   5.834  0.3592  0.0294  0.4494
 2479WAT     H110636   6.953   2.183   5.912  0.7946 -0.7859  0.1454
 2479WAT     H210637   7.049   2.195   5.814  0.2037  0.1347 -0.3387
 2479WAT    EPW10638   6.978   2.212   5.843  0.4005 -0.0755  0.2881
 2480WAT      O10639   6.826   1.899   4.566 -0.0777 -0.4685  0.3314
 2480WAT     H110640   6.857   1.931   4.491 -1.0137  0.8472  0.4722
 2480WAT     H210641   6.853   1.957   4.626  1.5695 -2.0500  1.2129
 2480WAT    EPW10642   6.834   1.912   4.564  0.0273 -0.5078  0.4824
 2481WAT      O10643   5.866   3.583   4.845  0.3655  0.3945  0.1761
 2481WAT     H110644   5.900   3.548   4.917 -0.3384  0.0022  0.3249
 2481WAT     H210645   5.899   3.664   4.843 -1.3095  1.2180  2.1535
 2481WAT    EPW10646   5.876   3.590   4.855  0.0141  0.4582  0.4902
 2482WAT      O10647   6.248   3.291   3.325  0.2156  0.1710  0.4989
 2482WAT     H110648   6.282   3.212   3.339  0.9722  0.0705 -1.5747
 2482WAT     H210649   6.179   3.293   3.378  1.1786 -1.1677  1.8924
 2482WAT    EPW10650   6.243   3.279   3.335  0.4696 -0.0416  0.3984
 2483WAT      O10651   6.788   1.610   5.716  0.5822  0.4642 -0.3228
 2483WAT     H110652   6.871   1.625   5.694 -0.1163  1.1382 -2.9048
 2483WAT     H210653   6.779   1.524   5.704  1.0608  0.2688  0.6532
 2483WAT    EPW10654   6.799   1.599   5.711  0.5498  0.5349 -0.5601
 2484WAT      O10655   7.119   2.605   5.620 -0.4018  0.3219  0.2310
 2484WAT     H110656   7.089   2.665   5.565 -1.2706 -0.7161 -0.4875
 2484WAT     H210657   7.149   2.652   5.687 -1.7039  1.5439  0.0258
 2484WAT    EPW10658   7.119   2.621   5.622 -0.7225  0.3490  0.0945
 2485WAT      O10659   7.160   2.393   5.400  0.0200  0.0305  0.1196
 2485WAT     H110660   7.194   2.457   5.448 -0.9308  1.1921 -0.6988
 2485WAT     H210661   7.077   2.417   5.389 -0.6129 -1.7750  0.4882
 2485WAT    EPW10662   7.152   2.406   5.405 -0.2140 -0.0646  0.0531
 2486WAT      O10663   4.843   2.272   5.929 -0.5957  0.0264  0.7612
 2486WAT     H110664   4.818   2.285   5.846  0.4279 -1.3473  0.1954
 2486WAT     H210665   4.770   2.247   5.969 -1.1671  1.0143  0.3627
 2486WAT    EPW10666   4.829   2.270   5.923 -0.5289 -0.0306  0.6188
 2487WAT      O10667   6.662   0.918   6.975 -0.4209 -0.0376  0.4308
 2487WAT     H110668   6.714   0.899   6.907 -0.6287 -0.3482  0.3558
 2487WAT     H210669   6.704   0.984   7.015 -0.7984  0.8293 -0.5598
 2487WAT    EPW10670   6.676   0.925   6.971 -0.5073  0.0446  0.2734
 2488WAT      O10671   6.844   1.126   3.652  0.0113 -0.3833 -0.4147
 2488WAT     H110672   6.891   1.185   3.609  0.5023  0.7568  1.5725
 2488WAT     H210673   6.878   1.050   3.627  0.1480  0.2006 -2.1224
 2488WAT    EPW10674   6.856   1.124   3.642  0.1040 -0.1286 -0.3734
 2489WAT      O10675   5.659   2.721   4.726 -0.6611 -0.0066 -0.4492
 2489WAT     H110676   5.578   2.751   4.737 -0.0677  1.3743  0.4914
 2489WAT     H210677   5.654   2.637   4.748 -1.4177  0.5632  1.6992
 2489WAT    EPW10678   5.646   2.713   4.731 -0.6852  0.2816  0.0071
 2490WAT      O10679   6.665   2.377   5.566  0.6652  0.2378  0.0220
 2490WAT     H110680   6.622   2.441   5.525  0.1897 -0.3675 -0.4261
 2490WAT     H210681   6.725   2.421   5.613  0.9907  0.9636 -1.0234
 2490WAT    EPW10682   6.668   2.393   5.567  0.6430  0.2556 -0.1986
 2491WAT      O10683   7.029   2.631   4.455 -0.0970 -0.7216  0.1957
 2491WAT     H110684   6.971   2.691   4.428  0.0454 -0.5425  0.2875
 2491WAT     H210685   7.063   2.600   4.381  0.3282 -0.1980  0.1719
 2491WAT    EPW10686   7.025   2.635   4.440 -0.0131 -0.6178  0.2057
 2492WAT      O10687   6.744   1.164   6.054  0.2007 -0.6285  0.7952
 2492WAT     H110688   6.774   1.185   6.134  1.3780 -0.8303  0.4313
 2492WAT     H210689   6.817   1.152   6.008 -0.4636 -0.1236 -0.4320
 2492WAT    EPW10690   6.759   1.165   6.059  0.2765 -0.5837  0.5602
 2493WAT      O10691   7.218   1.819   7.044  0.2694 -0.6005  0.3123
 2493WAT     H110692   7.202   1.787   6.964 -0.7505 -1.2709  0.7526
 2493WAT     H210693   7.286   1.773   7.072  0.2807 -0.7476  0.0442
 2493WAT    EPW10694   7.225   1.808   7.036  0.1204 -0.7213  0.3378
 2494WAT      O10695   5.894   2.621   5.638 -0.6530  0.0805 -0.3551
 2494WAT     H110696   5.837   2.562   5.666 -1.2162  1.0462  0.6089
 2494WAT     H210697   5.971   2.583   5.652 -1.0233 -0.8851 -0.8491
 2494WAT    EPW10698   5.897   2.607   5.644 -0.7909  0.0805 -0.2857
 2495WAT      O10699   5.546   1.669   4.362  0.3076 -0.2305  0.3274
 2495WAT     H110700   5.502   1.745   4.356 -0.3463 -0.6661 -0.7376
 2495WAT     H210701   5.487   1.609   4.340  1.1576 -0.9339 -0.1225
 2495WAT    EPW10702   5.531   1.672   4.358  0.3366 -0.3987  0.1036
 2496WAT      O10703   6.333   2.756   3.130  0.2088  0.1853 -0.2812
 2496WAT     H110704   6.249   2.739   3.111  0.1652  0.1789 -0.0870
 2496WAT     H210705   6.342   2.840   3.110 -0.0113  0.3442  0.2715
 2496WAT    EPW10706   6.322   2.766   3.124  0.1699  0.2078 -0.1709
 2497WAT      O10707   5.224   2.445   5.040  0.0717  0.2400 -0.2490
 2497WAT     H110708   5.220   2.495   5.111  0.0493 -1.5813  1.1333
 2497WAT     H210709   5.142   2.417   5.029  0.2660 -0.3305 -0.3216
 2497WAT    EPW10710   5.211   2.448   5.049  0.0971 -0.1133 -0.0555
 2498WAT      O10711   6.921   0.273   3.985  0.4166  0.3532 -0.0411
 2498WAT     H110712   6.993   0.317   3.962 -0.2038  1.8108  0.6970
 2498WAT     H210713   6.858   0.311   3.938 -0.2507  0.7841  1.1663
 2498WAT    EPW10714   6.922   0.285   3.975  0.2264  0.6322  0.2463
 2499WAT      O10715   4.618   3.644   4.751  0.2833  0.1146 -0.0576
 2499WAT     H110716   4.581   3.718   4.723 -1.1511  0.2393  2.0075
 2499WAT     H210717   4.554   3.585   4.747  0.9480 -0.6344 -0.0690
 2499WAT    EPW10718   4.603   3.646   4.746  0.1696  0.0224  0.2458
 2500WAT      O10719   4.834   1.042   5.498 -0.6520 -0.3131  0.3183
 2500WAT     H110720   4.759   1.085   5.507 -0.3897 -0.0511  1.2808
 2500WAT     H210721   4.846   1.041   5.412 -0.6062  1.6251  0.2591
 2500WAT    EPW10722   4.825   1.048   5.487 -0.6065  0.0119  0.4517
 2501WAT      O10723   6.194   3.200   3.071  0.5353  0.1023  0.0212
 2501WAT     H110724   6.248   3.232   3.010  2.0185 -0.7466  0.8234
 2501WAT     H210725   6.198   3.258   3.135 -0.1822  0.4524 -0.2397
 2501WAT    EPW10726   6.202   3.213   3.071  0.6484  0.0286  0.1012
 2502WAT      O10727   6.501   1.640   7.493  0.2835  0.5668 -0.0217
 2502WAT     H110728   6.489   1.593   7.565 -0.5850 -1.2575 -1.2832
 2502WAT     H210729   6.427   1.630   7.448  0.2150  2.8655 -0.5517
 2502WAT    EPW10730   6.488   1.631   7.497  0.1451  0.6369 -0.2864
 2503WAT      O10731   6.602   2.859   4.571  0.0861 -0.4730  0.0263
 2503WAT     H110732   6.616   2.822   4.494  1.1817  0.8017 -0.4356
 2503WAT     H210733   6.612   2.944   4.555 -0.3886 -0.1230  1.4289
 2503WAT    EPW10734   6.606   2.866   4.558  0.1778 -0.2330  0.1653
 2504WAT      O10735   5.189   1.748   3.791 -0.4399 -0.0113 -0.0359
 2504WAT     H110736   5.203   1.692   3.726 -0.2002  0.7580 -0.6639
 2504WAT     H210737   5.249   1.811   3.777  0.4930 -0.4577  1.6718
 2504WAT    EPW10738   5.200   1.749   3.779 -0.2667  0.0364  0.1236
 2505WAT      O10739   6.451   0.779   5.541  0.3213 -0.4566 -0.2574
 2505WAT     H110740   6.456   0.747   5.622 -0.2350 -1.7725 -0.7155
 2505WAT     H210741   6.378   0.827   5.541  0.2735 -0.5305 -0.0093
 2505WAT    EPW10742   6.441   0.782   5.553  0.2321 -0.6619 -0.2884
 2506WAT      O10743   5.687   0.490   4.852 -0.5769 -0.3800 -0.2170
 2506WAT     H110744   5.684   0.491   4.939  0.2155  2.7130 -0.1273
 2506WAT     H210745   5.771   0.473   4.835 -0.8156 -1.4306 -0.4485
 2506WAT    EPW10746   5.699   0.487   4.862 -0.4951 -0.0783 -0.2379
 2507WAT      O10747   6.783   7.203   4.535 -0.4398 -0.2321  0.1066
 2507WAT     H110748   6.776   7.212   4.622  0.1145  3.3231 -0.0838
 2507WAT     H210749   6.701   7.208   4.507 -0.4647  1.1548  0.3402
 2507WAT    EPW10750   6.770   7.205   4.544 -0.3616  0.4979  0.1130
 2508WAT      O10751   5.695   2.302   5.330 -0.0476 -0.3728  0.2525
 2508WAT     H110752   5.728   2.363   5.276 -0.5620 -2.0440 -2.1031
 2508WAT     H210753   5.766   2.266   5.365  0.5729 -1.4934 -1.9777
 2508WAT    EPW10754   5.710   2.306   5.327 -0.0319 -0.7852 -0.4250
 2509WAT      O10755   6.899   1.364   3.387 -0.2365 -0.3545 -0.8159
 2509WAT     H110756   6.897   1.286   3.346  1.6932 -0.7386 -0.2981
 2509WAT     H210757   6.954   1.411   3.338  1.0599 -0.3854  0.5376
 2509WAT    EPW10758   6.907   1.359   3.373  0.2400 -0.4158 -0.5394
 2510WAT      O10759   5.489   3.960   5.864 -0.1220  0.2208  0.4613
 2510WAT     H110760   5.515   3.906   5.927  0.5138  1.4866  1.3306
 2510WAT     H210761   5.469   3.907   5.798  0.0867 -1.0827  1.4132
 2510WAT    EPW10762   5.490   3.944   5.863  0.0028  0.2152  0.7303
 2511WAT      O10763   6.963   1.713   0.760 -0.1076  0.0773 -0.1300
 2511WAT     H110764   7.000   1.755   0.827 -1.0336  0.7917 -0.0550
 2511WAT     H210765   6.958   1.631   0.789  3.1971 -0.5644 -0.8879
 2511WAT    EPW10766   6.968   1.707   0.774  0.2438  0.0880 -0.2309
 2512WAT      O10767   6.244   1.011   3.074 -0.0955  0.2713 -0.0957
 2512WAT     H110768   6.224   1.050   2.999 -2.0687  1.7644  1.0897
 2512WAT     H210769   6.176   1.030   3.126  1.0890 -0.8349  2.0175
 2512WAT    EPW10770   6.231   1.020   3.071 -0.2120  0.3285  0.3916
 2513WAT      O10771   5.211   1.755   3.068 -0.1059 -0.7199  0.2302
 2513WAT     H110772   5.142   1.809   3.061 -0.6495 -1.5616 -1.3577
 2513WAT     H210773   5.211   1.734   3.153 -0.7383  0.6548  0.6017
 2513WAT    EPW10774   5.201   1.760   3.079 -0.2796 -0.6412  0.0505
 2514WAT      O10775   6.896   4.042   2.106  0.2111 -0.0704  0.9050
 2514WAT     H110776   6.920   3.960   2.124  1.0132 -0.0241  0.1586
 2514WAT     H210777   6.879   4.040   2.020  0.8029  0.6652  0.7566
 2514WAT    EPW10778   6.897   4.030   2.096  0.4170  0.0451  0.7728
 2515WAT      O10779   6.439   1.245   1.470 -1.2052 -0.2020 -0.0250
 2515WAT     H110780   6.457   1.326   1.442 -0.5285  0.0853  1.1992
 2515WAT     H210781   6.396   1.258   1.544  1.0815 -0.9236  1.5232
 2515WAT    EPW10782   6.436   1.259   1.477 -0.7675 -0.2662  0.3845
 2516WAT      O10783   5.176   1.266   1.648  1.0356 -0.2851 -0.7428
 2516WAT     H110784   5.229   1.206   1.614  0.5213  0.0188 -2.1221
 2516WAT     H210785   5.096   1.236   1.630  0.7701  1.1434 -2.0936
 2516WAT    EPW10786   5.172   1.252   1.641  0.9204 -0.0292 -1.1461
 2517WAT      O10787   6.182   2.351   1.228 -0.1105 -0.1435  0.8740
 2517WAT     H110788   6.265   2.333   1.249  0.4456  0.4222 -0.7180
 2517WAT     H210789   6.142   2.353   1.306  1.0633 -1.8054  1.5868
 2517WAT    EPW10790   6.188   2.349   1.243  0.1450 -0.3055  0.7441
 2518WAT      O10791   5.023   3.095   2.707  0.0528 -0.3112  0.5883
 2518WAT     H110792   5.082   3.108   2.770  0.8667  1.2709 -0.4319
 2518WAT     H210793   4.955   3.143   2.735  0.8243  1.3398 -0.2121
 2518WAT    EPW10794   5.022   3.104   2.721  0.2870  0.1664  0.3193
 2519WAT      O10795   6.634   0.047   2.760  0.0888  0.2448  0.4602
 2519WAT     H110796   6.581   0.029   2.827  0.9125  0.0335  1.0667
 2519WAT     H210797   6.616  -0.015   2.702 -0.3377  0.1805  0.6603
 2519WAT    EPW10798   6.624   0.035   2.762  0.1475  0.2041  0.5793
 2520WAT      O10799   5.621   2.304   1.085  0.1210  0.2417  0.0173
 2520WAT     H110800   5.568   2.368   1.059 -0.1482  0.7244  1.5978
 2520WAT     H210801   5.683   2.346   1.131  0.1790 -0.5822  0.7229
 2520WAT    EPW10802   5.623   2.320   1.088  0.0898  0.1913  0.3550
 2521WAT      O10803   6.580   1.452   3.835  0.4062 -0.7412 -0.6851
 2521WAT     H110804   6.561   1.517   3.890 -1.3992 -0.1591 -1.9162
 2521WAT     H210805   6.502   1.417   3.816  1.2544 -2.7527 -0.7056
 2521WAT    EPW10806   6.566   1.456   3.840  0.2648 -0.9523 -0.8700
 2522WAT      O10807   7.122   3.438   2.122 -0.8763  0.0112 -0.0337
 2522WAT     H110808   7.057   3.465   2.071 -1.9639  0.2523  1.4195
 2522WAT     H210809   7.156   3.370   2.078 -0.0462  1.7929 -2.3045
 2522WAT    EPW10810   7.117   3.432   2.108 -0.9143  0.3100 -0.1545
 2523WAT      O10811   4.964   2.236   2.071  0.0667 -0.2704  0.0368
 2523WAT     H110812   5.042   2.274   2.080 -0.1052  0.6782 -1.9663
 2523WAT     H210813   4.968   2.168   2.126  1.8913  0.3521  0.7557
 2523WAT    EPW10814   4.977   2.231   2.081  0.3108 -0.0383 -0.1529
 2524WAT      O10815   6.453   2.186   2.802  0.2348 -0.3519 -0.3581
 2524WAT     H110816   6.493   2.112   2.823  1.7741  1.0897  2.2208
 2524WAT     H210817   6.512   2.248   2.820 -1.9458  1.6970  0.2833
 2524WAT    EPW10818   6.468   2.184   2.808  0.1400  0.1637  0.1176
 2525WAT      O10819   6.321   2.383   1.920 -0.4270  0.1562  0.3994
 2525WAT     H110820   6.243   2.358   1.951 -0.4884  0.5090  0.5289
 2525WAT     H210821   6.339   2.323   1.859 -1.0852  0.4249 -0.0678
 2525WAT    EPW10822   6.312   2.370   1.916 -0.5333  0.2480  0.3495
 2526WAT      O10823   5.457   1.790   1.754  0.3279 -0.0589  0.1156
 2526WAT     H110824   5.522   1.745   1.791 -0.3321 -0.3169  0.9776
 2526WAT     H210825   5.386   1.765   1.798 -0.2056  1.0588 -0.0618
 2526WAT    EPW10826   5.456   1.780   1.766  0.1516  0.0681  0.2168
 2527WAT      O10827   7.001   1.880   1.528 -0.8557  0.2852 -0.4161
 2527WAT     H110828   6.939   1.833   1.488  1.1708 -0.8139 -2.4122
 2527WAT     H210829   7.061   1.894   1.467  0.6831  1.7794  1.2906
 2527WAT    EPW10830   7.000   1.875   1.513 -0.3290  0.3435 -0.4589
 2528WAT      O10831   5.438   2.228   0.508  0.2533 -0.1659 -0.0088
 2528WAT     H110832   5.416   2.284   0.445  1.1034 -0.9136 -1.0077
 2528WAT     H210833   5.361   2.210   0.547 -0.3304  0.0889 -1.0114
 2528WAT    EPW10834   5.423   2.234   0.505  0.2926 -0.2387 -0.3045
 2529WAT      O10835   6.503   2.380   3.999 -0.4045 -0.0069  0.1503
 2529WAT     H110836   6.417   2.384   4.015 -0.3924  0.0326  0.2041
 2529WAT     H210837   6.523   2.297   4.016 -0.3050  0.1379  0.7584
 2529WAT    EPW10838   6.493   2.368   4.004 -0.3880  0.0203  0.2481
 2530WAT      O10839   5.781   2.766   1.577 -0.4684 -0.2879 -0.8001
 2530WAT     H110840   5.699   2.765   1.607  0.0114 -1.1373  0.5249
 2530WAT     H210841   5.788   2.845   1.539 -0.9774  1.0543  1.6941
 2530WAT    EPW10842   5.770   2.778   1.576 -0.4727 -0.2151 -0.2359
 2531WAT      O10843   6.618   0.787   4.451 -0.1651  0.1404 -0.2199
 2531WAT     H110844   6.604   0.839   4.519  0.2170  1.2157 -0.9458
 2531WAT     H210845   6.618   0.841   4.383  1.3146 -0.6547 -0.8953
 2531WAT    EPW10846   6.616   0.803   4.451  0.1099  0.1818 -0.4269
 2532WAT      O10847   5.929   2.297   3.831 -0.0088  0.3503 -0.3266
 2532WAT     H110848   5.922   2.251   3.758  0.7908  0.3380 -0.4005
 2532WAT     H210849   6.015   2.313   3.838 -0.2460  1.7660 -0.2687
 2532WAT    EPW10850   5.941   2.293   3.822  0.0743  0.5576 -0.3290
 2533WAT      O10851   6.545   1.785   1.308  0.4069  0.1843  0.2535
 2533WAT     H110852   6.577   1.752   1.234 -1.1474 -0.5115 -0.1565
 2533WAT     H210853   6.477   1.834   1.281  0.2381  0.4776  1.1719
 2533WAT    EPW10854   6.540   1.788   1.293  0.1523  0.1248  0.3286
 2534WAT      O10855   5.176   2.867   2.953 -0.0892 -0.0876 -0.0595
 2534WAT     H110856   5.112   2.906   2.997  0.3930  0.8608 -0.1751
 2534WAT     H210857   5.234   2.847   3.016  0.9020  1.8538 -0.2659
 2534WAT    EPW10858   5.175   2.870   2.969  0.1285  0.3393 -0.1071
 2535WAT      O10859   4.977   3.737   2.199 -0.9134  0.0665  0.2378
 2535WAT     H110860   5.057   3.745   2.166 -0.9587 -0.4410  0.0004
 2535WAT     H210861   4.930   3.794   2.152 -0.4970  1.1587  1.0868
 2535WAT    EPW10862   4.982   3.747   2.187 -0.8586  0.1529  0.3282
 2536WAT      O10863   6.114   0.704   0.233 -0.2101  0.2291  0.2985
 2536WAT     H110864   6.080   0.760   0.291 -1.9367 -2.8849  2.5833
 2536WAT     H210865   6.170   0.657   0.281  0.9180 -0.2726 -1.4255
 2536WAT    EPW10866   6.117   0.705   0.249 -0.2985 -0.3050  0.3813
 2537WAT      O10867   6.232   2.833   4.502 -0.8519 -0.0788  0.4830
 2537WAT     H110868   6.190   2.908   4.517  0.5913  0.9414 -0.2975
 2537WAT     H210869   6.272   2.817   4.578 -1.4536 -0.2487  0.7638
 2537WAT    EPW10870   6.232   2.842   4.516 -0.7276  0.0468  0.4092
 2538WAT      O10871   6.932   2.784   1.786 -0.1073  1.0002  0.0605
 2538WAT     H110872   6.981   2.715   1.807 -2.6651 -1.3860 -1.1477
 2538WAT     H210873   6.863   2.777   1.839 -0.9664  1.9772 -0.8868
 2538WAT    EPW10874   6.929   2.773   1.797 -0.6120  0.7921 -0.2579
 2539WAT      O10875   5.080   0.746   2.792 -0.2271  0.0111  0.1187
 2539WAT     H110876   5.059   0.735   2.708  2.3342 -1.4890 -0.4423
 2539WAT     H210877   5.162   0.776   2.788  0.1625 -0.6478  2.0802
 2539WAT    EPW10878   5.089   0.749   2.779  0.2088 -0.3078  0.3256
 2540WAT      O10879   6.373   0.907   3.505 -0.0094 -0.9146 -0.5155
 2540WAT     H110880   6.344   0.907   3.423  1.4156  0.3090 -1.0643
 2540WAT     H210881   6.399   0.989   3.518 -0.1448 -1.0995  1.1540
 2540WAT    EPW10882   6.373   0.919   3.495  0.1811 -0.7612 -0.3499
 2541WAT      O10883   5.902   2.596   3.632  0.4349 -0.2026  0.0586
 2541WAT     H110884   5.898   2.587   3.719 -2.7302 -0.8246 -0.0282
 2541WAT     H210885   5.844   2.660   3.616  0.8936 -0.1675 -1.6276
 2541WAT    EPW10886   5.893   2.604   3.642  0.0351 -0.2893 -0.2033
 2542WAT      O10887   6.873   1.910   2.621  0.0081  1.1453 -0.4425
 2542WAT     H110888   6.887   1.881   2.702  3.4019  0.4995 -1.1395
 2542WAT     H210889   6.919   1.983   2.616  0.7295  0.6371 -2.0631
 2542WAT    EPW10890   6.882   1.916   2.632  0.6160  0.9749 -0.7848
 2543WAT      O10891   6.314   3.002   1.794  0.7292  0.0081  0.3319
 2543WAT     H110892   6.250   2.951   1.764  1.5543 -0.4007 -0.8145
 2543WAT     H210893   6.383   2.948   1.795  1.4180  0.8749 -0.0247
 2543WAT    EPW10894   6.315   2.986   1.790  0.9528  0.0757  0.1099
 2544WAT      O10895   6.008   2.707   4.887 -0.3652  0.6592  0.1180
 2544WAT     H110896   6.038   2.651   4.947 -2.7625 -1.2245 -0.2896
 2544WAT     H210897   5.969   2.769   4.934  1.9961  1.9087  0.5627
 2544WAT    EPW10898   6.007   2.708   4.902 -0.3705  0.5655  0.1235
 2545WAT      O10899   6.262   2.290   2.959 -0.1513 -0.4392 -0.3516
 2545WAT     H110900   6.312   2.238   2.911 -0.5585  0.4682 -1.8273
 2545WAT     H210901   6.211   2.235   3.003  1.1486 -1.3298  0.1053
 2545WAT    EPW10902   6.262   2.274   2.959 -0.0194 -0.4367 -0.5021
 2546WAT      O10903   5.558   3.653   2.299 -0.0132  0.5591 -0.4063
 2546WAT     H110904   5.494   3.594   2.286  0.1805  0.2814 -0.1037
 2546WAT     H210905   5.523   3.727   2.270 -0.1313  0.2292 -1.1332
 2546WAT    EPW10906   5.543   3.655   2.292 -0.0021  0.4693 -0.4690
 2547WAT      O10907   5.090   7.649   5.294 -1.1298 -0.0504  0.6895
 2547WAT     H110908   5.119   7.587   5.348  0.3867 -0.9455 -1.0182
 2547WAT     H210909   5.098   7.612   5.215 -2.2604  1.5594 -0.2251
 2547WAT    EPW10910   5.096   7.634   5.290 -1.0728  0.0552  0.3021
 2548WAT      O10911   6.403   0.249   2.745 -0.9180  0.0694 -0.6337
 2548WAT     H110912   6.462   0.309   2.770 -1.7124  0.2143  1.0552
 2548WAT     H210913   6.418   0.182   2.800 -3.3613  0.7575  1.0581
 2548WAT    EPW10914   6.414   0.248   2.757 -1.3963  0.1925 -0.1343
 2549WAT      O10915   4.876   2.924   2.457 -0.0179  0.4123 -0.6021
 2549WAT     H110916   4.963   2.919   2.453 -0.0386  0.0055 -0.5975
 2549WAT     H210917   4.849   2.874   2.391 -0.2478  0.4997 -0.5758
 2549WAT    EPW10918   4.884   2.916   2.447 -0.0549  0.3651 -0.5975
 2550WAT      O10919   6.765   2.767   1.999 -0.2745 -0.1938 -0.5751
 2550WAT     H110920   6.777   2.827   2.062 -1.1298  0.0083 -0.5961
 2550WAT     H210921   6.768   2.691   2.042 -0.9429 -0.0527 -0.2715
 2550WAT    EPW10922   6.767   2.765   2.015 -0.4996 -0.1431 -0.5334
 2551WAT      O10923   6.328   1.495   2.448  0.4287  0.2162  0.1571
 2551WAT     H110924   6.328   1.565   2.396 -1.2687 -1.7210 -2.7701
 2551WAT     H210925   6.246   1.466   2.442  1.3627 -2.7105  0.1732
 2551WAT    EPW10926   6.316   1.501   2.440  0.3159 -0.5023 -0.2730
 2552WAT      O10927   6.756   2.595   2.454 -0.2810  0.0900 -0.4033
 2552WAT     H110928   6.697   2.536   2.479  0.5623 -1.5042 -2.0058
 2552WAT     H210929   6.815   2.592   2.519 -1.0329  0.3864  0.3194
 2552WAT    EPW10930   6.756   2.586   2.468 -0.2675 -0.1017 -0.5333
 2553WAT      O10931   6.610   2.067   3.046 -0.5469 -0.1198  0.2674
 2553WAT     H110932   6.649   1.999   3.008  0.7673 -0.2545  1.7641
 2553WAT     H210933   6.595   2.040   3.127  0.3801  1.4757  1.0316
 2553WAT    EPW10934   6.613   2.053   3.052 -0.2158  0.0960  0.6014
 2554WAT      O10935   6.900   2.708   2.731  0.0850  0.2458  0.1726
 2554WAT     H110936   6.828   2.698   2.779 -1.5594  1.4574 -1.8696
 2554WAT     H210937   6.918   2.793   2.737  0.7022  0.1539 -0.2061
 2554WAT    EPW10938   6.892   2.719   2.739 -0.0668  0.4112 -0.1850
 2555WAT      O10939   6.940   1.272   1.159 -0.2792  0.1396 -0.0279
 2555WAT     H110940   6.893   1.212   1.201 -3.0352  0.5805 -2.2099
 2555WAT     H210941   6.973   1.320   1.223 -1.5949 -1.0969  1.6904
 2555WAT    EPW10942   6.938   1.270   1.175 -0.8807  0.0221 -0.0964
 2556WAT      O10943   5.350   1.409   1.856 -0.4286 -0.5368  0.0214
 2556WAT     H110944   5.396   1.423   1.783 -0.1645 -1.5948 -0.0351
 2556WAT     H210945   5.278   1.369   1.828 -0.9936  0.3301  0.2043
 2556WAT    EPW10946   5.346   1.405   1.841 -0.4731 -0.5650  0.0401
 2557WAT      O10947   6.256   2.028   1.985 -0.0282 -0.4307  0.5631
 2557WAT     H110948   6.219   1.950   1.971  1.6436 -1.0520 -0.7143
 2557WAT     H210949   6.305   2.041   1.914  0.7964  1.1676  1.3654
 2557WAT    EPW10950   6.258   2.018   1.972  0.3406 -0.2864  0.4930
 2558WAT      O10951   6.354   1.328   0.580 -0.1035 -0.0431  0.1251
 2558WAT     H110952   6.279   1.313   0.621 -1.1897 -0.2211 -1.8018
 2558WAT     H210953   6.361   1.415   0.581 -0.7526  0.0223 -0.3351
 2558WAT    EPW10954   6.344   1.339   0.586 -0.3598 -0.0598 -0.2275
 2559WAT      O10955   6.090   3.947   3.141  0.6773  0.9562  0.3777
 2559WAT     H110956   6.005   3.967   3.141  0.9461  2.1192  0.5909
 2559WAT     H210957   6.121   3.987   3.070  0.8484 -0.4776 -0.4127
 2559WAT    EPW10958   6.082   3.956   3.130  0.7423  0.9162  0.2925
 2560WAT      O10959   5.634   6.331   1.655  0.4680 -0.2900  0.2801
 2560WAT     H110960   5.670   6.357   1.730  1.2470  1.0025 -0.5018
 2560WAT     H210961   5.550   6.320   1.675  0.3235  1.7029  0.9591
 2560WAT    EPW10962   5.627   6.333   1.669  0.5617  0.1953  0.2649
 2561WAT      O10963   5.724   4.678   2.340 -0.3632 -0.6671 -0.2689
 2561WAT     H110964   5.722   4.735   2.405 -0.7107 -2.8719  1.7997
 2561WAT     H210965   5.737   4.727   2.269 -0.7855  1.9200  1.3422
 2561WAT    EPW10966   5.725   4.694   2.339 -0.4769 -0.6106  0.2746
 2562WAT      O10967   6.089   1.216   0.604 -0.3218  0.3113  0.1444
 2562WAT     H110968   6.075   1.212   0.518  0.0735  0.6242  0.0645
 2562WAT     H210969   6.070   1.135   0.631  1.9446 -0.5512 -0.6076
 2562WAT    EPW10970   6.084   1.203   0.595  0.0714  0.2301  0.0215
 2563WAT      O10971   5.885   2.055   3.627 -0.3011  0.2994  0.2192
 2563WAT     H110972   5.928   1.980   3.634  0.9684  1.1039  2.2330
 2563WAT     H210973   5.802   2.034   3.642  0.0075 -0.7509  0.5104
 2563WAT    EPW10974   5.879   2.041   3.630 -0.0680  0.2631  0.5597
 2564WAT      O10975   6.036   2.431   2.237  0.1744 -0.1985  0.4931
 2564WAT     H110976   6.042   2.481   2.165 -0.6149 -2.4795 -1.2792
 2564WAT     H210977   6.084   2.474   2.296 -0.1101  2.3838 -1.0196
 2564WAT    EPW10978   6.044   2.445   2.235  0.0158 -0.1540  0.0079
 2565WAT      O10979   5.689   1.382   3.497 -0.1786 -0.6692  0.1185
 2565WAT     H110980   5.673   1.302   3.528 -1.3647 -0.7449 -0.6569
 2565WAT     H210981   5.718   1.425   3.567 -2.2061 -0.9988  1.2399
 2565WAT    EPW10982   5.691   1.376   3.512 -0.6533 -0.7291  0.1696
 2566WAT      O10983   6.629   1.449   1.817  0.2326  0.4655  0.3259
 2566WAT     H110984   6.607   1.440   1.901 -0.0930  1.9924  0.4241
 2566WAT     H210985   6.628   1.367   1.787  0.1693 -0.0853  1.7555
 2566WAT    EPW10986   6.626   1.436   1.825  0.1752  0.6097  0.5516
 2567WAT      O10987   5.729   1.529   3.748 -0.2109  0.1377  0.5044
 2567WAT     H110988   5.741   1.494   3.827 -2.4678 -0.8874  0.4481
 2567WAT     H210989   5.643   1.524   3.735 -0.1881  2.3273 -1.1163
 2567WAT    EPW10990   5.718   1.523   3.758 -0.5409  0.3097  0.2567
 2568WAT      O10991   4.996   2.805   4.032  0.7301 -0.1829  0.1760
 2568WAT     H110992   5.006   2.727   3.996 -0.9474 -0.3581  0.0168
 2568WAT     H210993   4.912   2.808   4.053  1.0090  1.1055  1.3111
 2568WAT    EPW10994   4.985   2.794   4.030  0.5235 -0.0185  0.3202
 2569WAT      O10995   5.310   1.377   2.125 -0.5080  0.4195  0.1581
 2569WAT     H110996   5.236   1.331   2.130 -0.5033  0.3823 -0.0961
 2569WAT     H210997   5.321   1.389   2.039  0.4468 -0.6570  0.1077
 2569WAT    EPW10998   5.301   1.372   2.113 -0.3663  0.2550  0.1131
 2570WAT      O10999   5.607   7.633   3.460 -0.2886  0.0330 -0.7952
 2570WAT     H111000   5.669   7.576   3.482 -0.4491  0.8495  2.1467
 2570WAT     H211001   5.533   7.591   3.481 -0.4422  0.9298  0.5619
 2570WAT    EPW11002   5.605   7.618   3.466 -0.3350  0.2861 -0.1601
 2571WAT      O11003   5.610   3.643   4.792  0.1884 -0.4530  0.2623
 2571WAT     H111004   5.583   3.579   4.739  1.4052 -0.2561 -0.6458
 2571WAT     H211005   5.692   3.621   4.812  0.7176  0.8920 -0.2386
 2571WAT    EPW11006   5.618   3.631   4.787  0.4463 -0.2252  0.0542
 2572WAT      O11007   6.613   7.565   3.515 -0.3755 -0.5929  0.0254
 2572WAT     H111008   6.667   7.627   3.486 -0.9832  0.6918  1.5017
 2572WAT     H211009   6.665   7.514   3.564  0.5758 -2.5653 -2.8273
 2572WAT    EPW11010   6.629   7.567   3.518 -0.3247 -0.6945 -0.1779
 2573WAT      O11011   5.580   0.615   3.945 -0.0628  0.0874 -0.4625
 2573WAT     H111012   5.565   0.531   3.964 -2.1476  0.5488  0.1447
 2573WAT     H211013   5.544   0.625   3.866  0.1955  0.4140 -0.5424
 2573WAT    EPW11014   5.573   0.604   3.936 -0.3326  0.2038 -0.3846
 2574WAT      O11015   5.359   2.601   1.852 -0.1539  0.0515  0.8551
 2574WAT     H111016   5.418   2.660   1.827 -1.0676 -0.3822 -2.8653
 2574WAT     H211017   5.294   2.650   1.884  0.6403  0.7575  1.4491
 2574WAT    EPW11018   5.358   2.617   1.853 -0.1715  0.0917  0.3932
 2575WAT      O11019   6.958   1.131   1.697  0.4347  0.1739  0.5143
 2575WAT     H111020   6.881   1.168   1.718  0.9277  1.3933  0.2934
 2575WAT     H211021   6.946   1.102   1.616 -0.1554 -0.7446  0.9123
 2575WAT    EPW11022   6.945   1.132   1.688  0.4203  0.2183  0.5405
 2576WAT      O11023   6.178   3.588   2.258 -0.3234 -0.5001 -0.1959
 2576WAT     H111024   6.224   3.609   2.329 -0.8188  0.0437 -0.0294
 2576WAT     H211025   6.225   3.621   2.193 -0.1361 -0.5398 -0.0831
 2576WAT    EPW11026   6.191   3.596   2.259 -0.3689 -0.4256 -0.1547
 2577WAT      O11027   5.696   1.999   2.686  0.4117 -0.0502 -0.0835
 2577WAT     H111028   5.667   1.922   2.715  1.9765 -0.6194  0.1034
 2577WAT     H211029   5.645   2.016   2.618 -0.5737 -0.7858  0.4493
 2577WAT    EPW11030   5.684   1.990   2.680  0.4973 -0.2429  0.0228
 2578WAT      O11031   6.900   0.304   2.704 -0.5618 -0.3339 -0.0541
 2578WAT     H111032   6.912   0.221   2.679  0.0042  0.2285 -1.8724
 2578WAT     H211033   6.868   0.342   2.632 -0.7607  1.0289  0.7257
 2578WAT    EPW11034   6.897   0.297   2.690 -0.5075 -0.0495 -0.2075
 2579WAT      O11035   6.561   3.530   2.519 -0.1287 -0.1883 -0.1846
 2579WAT     H111036   6.552   3.496   2.599  0.5995  1.7784  0.8082
 2579WAT     H211037   6.641   3.566   2.521 -0.3807  0.5133 -1.5640
 2579WAT    EPW11038   6.572   3.530   2.531 -0.0584  0.2059 -0.2417
 2580WAT      O11039   6.571   3.412   2.778  0.2587  0.6114  0.7654
 2580WAT     H111040   6.634   3.351   2.780 -0.6359 -0.4004 -0.1333
 2580WAT     H211041   6.502   3.371   2.814 -0.1739  1.3228  0.7646
 2580WAT    EPW11042   6.570   3.397   2.784  0.0626  0.5670  0.6325
 2581WAT      O11043   6.922   2.446   2.685  0.1180 -0.0891 -0.5948
 2581WAT     H111044   6.852   2.430   2.735 -1.5923  1.8769 -2.1396
 2581WAT     H211045   6.936   2.531   2.697  1.7810 -0.2975 -0.9138
 2581WAT    EPW11046   6.913   2.456   2.694  0.1110  0.1705 -0.8701
 2582WAT      O11047   4.908   1.476   1.120 -0.3944 -0.2326 -0.0104
 2582WAT     H111048   4.954   1.549   1.108 -0.2289 -0.4802 -1.0534
 2582WAT     H211049   4.863   1.468   1.045 -2.1518 -0.0031  0.9685
 2582WAT    EPW11050   4.908   1.485   1.107 -0.6296 -0.2353 -0.0199
 2583WAT      O11051   6.815   6.912   3.377 -0.1913 -0.0557 -0.2804
 2583WAT     H111052   6.854   6.879   3.448  0.2809  0.7648 -0.1487
 2583WAT     H211053   6.782   6.988   3.405  0.4325  0.5147 -1.0516
 2583WAT    EPW11054   6.816   6.918   3.392 -0.0294  0.1498 -0.3748
 2584WAT      O11055   6.262   2.652   1.898 -0.1910  0.0414 -0.2504
 2584WAT     H111056   6.299   2.680   1.972  0.2507 -0.7970 -0.1405
 2584WAT     H211057   6.293   2.571   1.889 -0.4300  0.0464 -1.2311
 2584WAT    EPW11058   6.272   2.644   1.908 -0.1611 -0.0817 -0.3791
 2585WAT      O11059   5.468   1.839   0.644 -0.2324 -0.6014  0.2568
 2585WAT     H111060   5.461   1.890   0.714  1.8503  0.2750 -0.0969
 2585WAT     H211061   5.482   1.760   0.678  0.0852 -0.3028  0.8403
 2585WAT    EPW11062   5.469   1.835   0.659  0.1222 -0.4278  0.2908
 2586WAT      O11063   5.897   2.576   1.421  0.4960 -0.1353  0.3473
 2586WAT     H111064   5.876   2.634   1.482  0.1559 -1.7970  1.8769
 2586WAT     H211065   5.976   2.547   1.445  1.2762  0.5940 -1.1457
 2586WAT    EPW11066   5.906   2.580   1.433  0.5610 -0.2730  0.3527
 2587WAT      O11067   6.857   2.177   3.062  0.3023 -0.1522 -0.4718
 2587WAT     H111068   6.928   2.138   3.095  0.4934 -0.0817 -0.7940
 2587WAT     H211069   6.795   2.117   3.070 -0.2910  0.6464  2.2452
 2587WAT    EPW11070   6.858   2.163   3.068  0.2429 -0.0238 -0.1180
 2588WAT      O11071   5.265   2.249   0.869 -0.2791  0.3678  0.2287
 2588WAT     H111072   5.208   2.296   0.915  0.1120  0.2213  0.8710
 2588WAT     H211073   5.325   2.307   0.845  0.0324  0.2709  0.7468
 2588WAT    EPW11074   5.266   2.265   0.872 -0.1753  0.3319  0.4001
 2589WAT      O11075   6.762   1.931   2.034  0.0103 -0.2608 -0.0771
 2589WAT     H111076   6.764   2.017   2.046 -0.2070 -0.1597 -0.7362
 2589WAT     H211077   6.828   1.916   1.979 -1.1216 -0.2447 -1.5055
 2589WAT    EPW11078   6.772   1.941   2.028 -0.1890 -0.2435 -0.3855
 2590WAT      O11079   5.894   6.356   2.548  0.4149  0.0351  0.1554
 2590WAT     H111080   5.831   6.417   2.554  0.5530  0.0353  2.4886
 2590WAT     H211081   5.967   6.401   2.563  0.9415 -0.1315 -1.6591
 2590WAT    EPW11082   5.895   6.372   2.551  0.5131  0.0105  0.2320
 2591WAT      O11083   7.122   2.319   5.138  0.1961 -0.0168  0.1095
 2591WAT     H111084   7.143   2.236   5.125 -1.3915 -0.4342  0.0051
 2591WAT     H211085   7.142   2.332   5.222  1.1107 -0.2845 -0.0612
 2591WAT    EPW11086   7.128   2.309   5.149  0.0967 -0.1180  0.0688
 2592WAT      O11087   5.611   1.766   2.765  0.5070 -0.4319 -0.1423
 2592WAT     H111088   5.571   1.710   2.711 -1.0620  0.6546 -0.1487
 2592WAT     H211089   5.556   1.774   2.832  0.6375  1.1884 -0.1915
 2592WAT    EPW11090   5.597   1.759   2.767  0.2945 -0.0321 -0.1505
 2593WAT      O11091   6.019   0.257   2.944 -0.1737 -0.1036  0.2264
 2593WAT     H111092   5.958   0.250   2.883  0.3944  0.4067 -0.4084
 2593WAT     H211093   5.974   0.283   3.015 -0.7440 -0.1187 -0.1255
 2593WAT    EPW11094   6.004   0.260   2.946 -0.1740 -0.0305  0.0806
 2594WAT      O11095   5.549   1.583   0.756 -0.4977 -0.6418  0.1507
 2594WAT     H111096   5.539   1.605   0.840 -0.1772 -2.8472  0.8443
 2594WAT     H211097   5.629   1.610   0.737 -1.1043  1.2305  0.0347
 2594WAT    EPW11098   5.559   1.590   0.766 -0.5400 -0.6910  0.2360
 2595WAT      O11099   4.943   2.026   2.275  0.3388 -0.1665 -0.1901
 2595WAT     H111100   4.863   2.030   2.309 -0.1048 -1.0024 -1.1301
 2595WAT     H211101   4.955   1.942   2.259  0.9510  0.0904 -1.1483
 2595WAT    EPW11102   4.933   2.014   2.278  0.3637 -0.2520 -0.4705
 2596WAT      O11103   6.381   0.749   3.759 -0.2835 -0.7194  0.8608
 2596WAT     H111104   6.381   0.773   3.675  1.1301 -0.2954  0.9652
 2596WAT     H211105   6.311   0.698   3.766 -1.3888  0.5838 -0.1865
 2596WAT    EPW11106   6.371   0.745   3.748 -0.2379 -0.4642  0.7215
 2597WAT      O11107   6.653   1.385   3.563 -0.3857 -0.1709  0.1406
 2597WAT     H111108   6.667   1.377   3.649 -1.4983 -0.3380  0.3290
 2597WAT     H211109   6.732   1.400   3.530 -0.0681  0.8868  1.3126
 2597WAT    EPW11110   6.666   1.386   3.571 -0.5031 -0.0393  0.3416
 2598WAT      O11111   4.778   2.524   2.684 -0.0161  0.3393 -0.1137
 2598WAT     H111112   4.722   2.558   2.626  0.7053 -1.8503 -2.2250
 2598WAT     H211113   4.843   2.583   2.687 -0.1828  0.6030 -1.3474
 2598WAT    EPW11114   4.779   2.538   2.676  0.0658  0.0548 -0.6078
 2599WAT      O11115   5.955   1.870   2.750  0.3087 -0.6405  0.4766
 2599WAT     H111116   5.958   1.951   2.717 -1.5756 -0.2573  1.1313
 2599WAT     H211117   5.885   1.835   2.710  1.7239 -2.3878 -0.6589
 2599WAT    EPW11118   5.945   1.877   2.739  0.2394 -0.8420  0.4056
 2600WAT      O11119   6.177   1.606   2.158  0.1303 -0.2806 -0.0411
 2600WAT     H111120   6.170   1.652   2.084 -1.4449  1.6927  1.2054
 2600WAT     H211121   6.245   1.643   2.199 -0.4041  0.1923  0.4448
 2600WAT    EPW11122   6.186   1.618   2.153 -0.1813  0.0807  0.2148
 2601WAT      O11123   5.463   1.880   2.990 -0.0954  0.4569  0.9294
 2601WAT     H111124   5.437   1.945   2.937  1.1301 -1.4827 -2.3254
 2601WAT     H211125   5.389   1.838   3.010 -0.4633  0.3388 -0.5943
 2601WAT    EPW11126   5.448   1.884   2.985  0.0313  0.1530  0.2235
 2602WAT      O11127   6.013   2.202   4.386  0.0923  0.1135  0.1509
 2602WAT     H111128   5.958   2.223   4.451  0.3070 -2.3526  1.2512
 2602WAT     H211129   6.075   2.263   4.391 -0.4354  0.5761  1.6283
 2602WAT    EPW11130   6.014   2.214   4.396  0.0460 -0.1824  0.5317
 2603WAT      O11131   6.007   2.584   1.991 -0.7624  0.2587 -0.2121
 2603WAT     H111132   6.082   2.598   1.950  0.8837  0.3380  2.5426
 2603WAT     H211133   5.979   2.664   2.012 -0.7868  0.1705  0.1001
 2603WAT    EPW11134   6.014   2.598   1.988 -0.5228  0.2574  0.2410
 2604WAT      O11135   6.153   2.236   3.542  0.4276 -0.3437 -0.1820
 2604WAT     H111136   6.100   2.249   3.474  0.8627 -0.1938 -0.4921
 2604WAT     H211137   6.110   2.177   3.590 -0.8995  1.0596  0.4875
 2604WAT    EPW11138   6.139   2.229   3.539  0.2958 -0.1142 -0.1289
 2605WAT      O11139   6.160   2.510   2.470  0.3751  0.0969  0.1985
 2605WAT     H111140   6.214   2.464   2.520  1.9521  0.1423 -1.3632
 2605WAT     H211141   6.166   2.591   2.502  1.2170  0.0896  0.0800
 2605WAT    EPW11142   6.169   2.515   2.482  0.7324  0.1025 -0.0497
 2606WAT      O11143   6.585   2.920   0.298  0.6436  0.3218 -0.0818
 2606WAT     H111144   6.600   2.867   0.366 -1.2630  2.6641  2.3610
 2606WAT     H211145   6.655   2.972   0.298  2.8259 -2.2447 -2.8646
 2606WAT    EPW11146   6.598   2.920   0.308  0.6844  0.2887 -0.1320
 2607WAT      O11147   6.991   2.486   1.716 -0.9298  0.3947  0.4496
 2607WAT     H111148   7.063   2.442   1.695 -0.2495  1.1407  1.1364
 2607WAT     H211149   6.962   2.446   1.788 -0.3015  1.0338  1.0843
 2607WAT    EPW11150   6.997   2.474   1.724 -0.7365  0.5993  0.6448
 2608WAT      O11151   5.765   2.635   2.378 -0.2422 -0.1107 -0.0065
 2608WAT     H111152   5.713   2.596   2.319 -0.8129  1.6793 -0.7716
 2608WAT     H211153   5.716   2.702   2.407  0.7450  0.1654  1.0978
 2608WAT    EPW11154   5.750   2.639   2.374 -0.1806  0.1945  0.0436
 2609WAT      O11155   6.789   2.371   3.332 -0.1720 -0.2225 -0.7114
 2609WAT     H111156   6.713   2.364   3.288 -0.4463  0.8685 -0.4217
 2609WAT     H211157   6.849   2.357   3.270 -0.5879 -1.2009 -0.9279
 2609WAT    EPW11158   6.787   2.368   3.316 -0.2740 -0.2059 -0.7006
 2610WAT      O11159   5.667   1.611   1.478 -0.3816 -0.4397 -0.2173
 2610WAT     H111160   5.733   1.639   1.528 -0.4495 -0.5140 -0.0859
 2610WAT     H211161   5.632   1.685   1.447 -0.2207 -0.4018 -0.3069
 2610WAT    EPW11162   5.671   1.626   1.481 -0.3679 -0.4450 -0.2111
 2611WAT      O11163   5.784   2.448   2.950 -0.3814 -0.1866 -0.4717
 2611WAT     H111164   5.708   2.479   2.919 -0.8348 -0.1059  0.6658
 2611WAT     H211165   5.767   2.432   3.035  0.7637 -0.5283 -0.2848
 2611WAT    EPW11166   5.770   2.450   2.958 -0.2792 -0.2252 -0.2760
 2612WAT      O11167   6.360   1.292   3.756  0.2361  0.1291 -0.1953
 2612WAT     H111168   6.402   1.256   3.688  0.3976 -0.9727  0.4675
 2612WAT     H211169   6.337   1.224   3.805  1.3653  0.9384  1.5921
 2612WAT    EPW11170   6.363   1.277   3.753  0.4267  0.0859  0.1667
 2613WAT      O11171   6.538   2.583   3.366  0.0176  0.2875  0.2399
 2613WAT     H111172   6.570   2.635   3.304 -0.4527  0.3829  0.0731
 2613WAT     H211173   6.604   2.576   3.423  0.8983 -0.8236 -0.8664
 2613WAT    EPW11174   6.552   2.590   3.365  0.0782  0.1374  0.0518
 2614WAT      O11175   6.800   6.870   4.693  0.0274  0.1564  0.0786
 2614WAT     H111176   6.852   6.854   4.762 -0.6469  0.5687  0.6975
 2614WAT     H211177   6.856   6.873   4.626  1.0569  2.2821  0.9257
 2614WAT    EPW11178   6.816   6.868   4.694  0.0799  0.5313  0.2951
 2615WAT      O11179   6.556   1.451   2.080 -0.4148  0.5502  0.6048
 2615WAT     H111180   6.620   1.423   2.132  0.5610  0.7061 -0.4757
 2615WAT     H211181   6.555   1.537   2.093 -0.3977  0.5521  0.5927
 2615WAT    EPW11182   6.565   1.460   2.090 -0.2681  0.5735  0.4434
 2616WAT      O11183   6.820   1.220   2.843  0.0976  0.5126  0.3869
 2616WAT     H111184   6.797   1.230   2.926  2.5825 -1.7689  1.5047
 2616WAT     H211185   6.763   1.161   2.812  0.4262 -0.2210  1.1487
 2616WAT    EPW11186   6.808   1.213   2.850  0.5132  0.0672  0.6645
 2617WAT      O11187   5.796   7.358   4.810  0.3013 -0.4813 -0.4730
 2617WAT     H111188   5.882   7.366   4.802  0.4090 -0.7021  0.3191
 2617WAT     H211189   5.784   7.271   4.808  0.1563 -0.4716 -0.1018
 2617WAT    EPW11190   5.807   7.346   4.808  0.2958 -0.5125 -0.3011
 2618WAT      O11191   5.598   1.244   0.957  0.2998 -0.4283 -0.3274
 2618WAT     H111192   5.610   1.262   0.872  1.2726 -1.3959 -0.4192
 2618WAT     H211193   5.522   1.282   0.975  0.3418  0.2697 -1.4967
 2618WAT    EPW11194   5.589   1.252   0.947  0.4497 -0.4681 -0.5137
 2619WAT      O11195   6.690   1.065   3.875  0.5075 -0.2563 -0.1279
 2619WAT     H111196   6.726   1.086   3.799  0.0018  0.3989 -0.1934
 2619WAT     H211197   6.745   1.005   3.908  1.8201  0.9179 -0.0831
 2619WAT    EPW11198   6.704   1.059   3.869  0.6267  0.0139 -0.1309
 2620WAT      O11199   6.609   1.978   2.352 -0.0707  0.9980 -0.1571
 2620WAT     H111200   6.679   2.022   2.379 -0.3045  1.4712 -0.2987
 2620WAT     H211201   6.641   1.923   2.292  0.5097 -0.3505  1.3429
 2620WAT    EPW11202   6.624   1.977   2.347 -0.0195  0.8687  0.0436
 2621WAT      O11203   5.109   2.184   1.824 -0.1108  0.1056  0.3562
 2621WAT     H111204   5.074   2.206   1.901  2.2665 -0.4842  1.7200
 2621WAT     H211205   5.062   2.115   1.799  0.1339 -0.7941  2.2018
 2621WAT    EPW11206   5.097   2.177   1.832  0.2765 -0.1144  0.8303
 2622WAT      O11207   6.156   3.082   1.133 -0.0258 -0.3335 -0.1993
 2622WAT     H111208   6.160   3.080   1.046  0.6400 -0.1937 -0.1748
 2622WAT     H211209   6.076   3.113   1.149 -0.5129 -1.2580 -0.7468
 2622WAT    EPW11210   6.145   3.086   1.123  0.0006 -0.4494 -0.2766
 2623WAT      O11211   5.458   1.552   3.702 -0.7497  0.1589 -0.4705
 2623WAT     H111212   5.395   1.491   3.704 -0.1155 -0.6653 -2.7723
 2623WAT     H211213   5.433   1.606   3.639 -0.8922  1.9384  1.0085
 2623WAT    EPW11214   5.445   1.551   3.693 -0.6771  0.3000 -0.5920
 2624WAT      O11215   5.277   0.692   4.911 -0.9992 -0.1381 -0.0353
 2624WAT     H111216   5.258   0.620   4.956 -1.4171 -0.1262 -0.1861
 2624WAT     H211217   5.221   0.689   4.844 -2.7217  1.5496  1.2116
 2624WAT    EPW11218   5.266   0.681   4.908 -1.3154  0.1130  0.1266
 2625WAT      O11219   7.000   2.214   2.602  0.1924  0.2432 -0.0099
 2625WAT     H111220   6.970   2.291   2.630 -0.7848 -0.5617  1.2683
 2625WAT     H211221   7.085   2.216   2.623  1.0982  2.3099 -3.1364
 2625WAT    EPW11222   7.008   2.226   2.609  0.1819  0.4296 -0.2829
 2626WAT      O11223   6.241   1.163   1.292  0.4261  0.2042  0.0151
 2626WAT     H111224   6.170   1.209   1.312  0.4288 -0.0592  0.6644
 2626WAT     H211225   6.302   1.193   1.347  0.1533 -1.2650  1.2063
 2626WAT    EPW11226   6.240   1.174   1.303  0.3862 -0.0518  0.2870
 2627WAT      O11227   6.097   2.704   3.010 -0.3583 -0.4514  0.0026
 2627WAT     H111228   6.098   2.645   2.945  1.4485 -0.1566 -0.2992
 2627WAT     H211229   6.073   2.778   2.971 -1.4420 -0.7249  0.1355
 2627WAT    EPW11230   6.094   2.706   2.995 -0.2515 -0.4483 -0.0224
 2628WAT      O11231   4.809   2.470   2.148 -0.2935  0.0321 -0.4769
 2628WAT     H111232   4.831   2.401   2.099  1.9034  0.4260 -0.1258
 2628WAT     H211233   4.790   2.435   2.225  2.2224 -0.1518  0.1341
 2628WAT    EPW11234   4.809   2.455   2.152  0.4027  0.0631 -0.3348
 2629WAT      O11235   6.033   0.678   2.666  0.3561 -0.3440  0.2791
 2629WAT     H111236   6.111   0.715   2.677  0.2415  0.7962 -1.9708
 2629WAT     H211237   6.045   0.595   2.690  1.5320  0.3624  2.3578
 2629WAT    EPW11238   6.047   0.672   2.671  0.5129 -0.0712  0.2538
 2630WAT      O11239   5.158   0.896   1.888 -0.5506 -0.1281  0.3457
 2630WAT     H111240   5.198   0.830   1.930 -1.6072 -1.1105 -0.1468
 2630WAT     H211241   5.225   0.945   1.861  0.2209 -0.3196  1.7674
 2630WAT    EPW11242   5.174   0.893   1.890 -0.5927 -0.3015  0.4830
 2631WAT      O11243   6.699   2.467   3.774  0.3103 -0.4063 -0.1664
 2631WAT     H111244   6.681   2.540   3.820 -0.8433  0.3426 -1.7322
 2631WAT     H211245   6.628   2.419   3.784 -0.8565  0.6402 -2.7417
 2631WAT    EPW11246   6.686   2.471   3.782 -0.0325 -0.1411 -0.7781
 2632WAT      O11247   6.640   2.314   2.543  0.5895 -0.0584 -0.2899
 2632WAT     H111248   6.682   2.320   2.620  0.2058 -1.3859  0.0482
 2632WAT     H211249   6.574   2.260   2.560 -0.7696  1.2891 -1.0394
 2632WAT    EPW11250   6.636   2.307   2.557  0.3321 -0.0555 -0.3507
 2633WAT      O11251   6.777   3.230   2.802  0.1681  0.8051  0.3059
 2633WAT     H111252   6.809   3.160   2.763 -0.6105  1.3694 -1.4697
 2633WAT     H211253   6.840   3.290   2.794  0.2174  0.7672  0.4060
 2633WAT    EPW11254   6.791   3.229   2.795  0.0604  0.8829  0.0584
 2634WAT      O11255   6.300   0.743   4.378  0.5423  0.0744  0.4874
 2634WAT     H111256   6.347   0.757   4.306  0.8075  1.0136  0.8292
 2634WAT     H211257   6.222   0.720   4.348  0.1723  2.0186 -0.1343
 2634WAT    EPW11258   6.296   0.741   4.363  0.5268  0.5004  0.4460
 2635WAT      O11259   6.164   2.884   1.458  0.6648  0.1276 -0.4202
 2635WAT     H111260   6.085   2.917   1.441  0.0719 -1.0719 -0.0979
 2635WAT     H211261   6.154   2.845   1.536  1.7527  0.5192 -0.0661
 2635WAT    EPW11262   6.151   2.883   1.467  0.7379  0.0083 -0.3203
 2636WAT      O11263   5.423   4.300   4.508 -0.5132  0.8741  0.2419
 2636WAT     H111264   5.478   4.368   4.510  0.3363  0.1986  1.8705
 2636WAT     H211265   5.350   4.333   4.541 -0.9950  1.6551 -1.4908
 2636WAT    EPW11266   5.420   4.315   4.513 -0.4589  0.8897  0.2265
 2637WAT      O11267   5.920   1.953   2.213  0.2128 -0.1109  0.4911
 2637WAT     H111268   6.003   1.928   2.206  0.4032  0.9402 -2.1795
 2637WAT     H211269   5.925   2.035   2.241  0.0941 -0.0231  0.2612
 2637WAT    EPW11270   5.933   1.961   2.216  0.2234  0.0573  0.0627
 2638WAT      O11271   7.033   1.389   1.612  0.4130  0.5027  0.4481
 2638WAT     H111272   7.046   1.311   1.651  2.6610  1.6885  2.3453
 2638WAT     H211273   6.982   1.431   1.669 -1.3164  0.2860 -0.8686
 2638WAT    EPW11274   7.027   1.383   1.626  0.4896  0.6458  0.5339
 2639WAT      O11275   6.416   2.089   1.717  0.4901 -0.1672  0.2025
 2639WAT     H111276   6.441   2.162   1.676 -0.4621 -0.5387 -1.0702
 2639WAT     H211277   6.489   2.040   1.717  0.0304 -1.0828 -3.1315
 2639WAT    EPW11278   6.431   2.092   1.711  0.2815 -0.3573 -0.4780
 2640WAT      O11279   6.134   2.101   3.113  0.3088  0.0213 -0.2615
 2640WAT     H111280   6.071   2.060   3.069  0.1908  0.8839 -0.9126
 2640WAT     H211281   6.103   2.103   3.195  0.2721 -1.0752 -0.2353
 2640WAT    EPW11282   6.120   2.095   3.119  0.2860 -0.0133 -0.3538
 2641WAT      O11283   6.368   1.985   1.295  0.0351  0.0616  0.7068
 2641WAT     H111284   6.380   1.942   1.370 -0.6055 -0.9421  0.2524
 2641WAT     H211285   6.282   1.978   1.281  0.1373  0.2838 -0.0814
 2641WAT    EPW11286   6.357   1.977   1.304 -0.0444 -0.0539  0.5232
 2642WAT      O11287   5.974   0.085   3.622  0.5466  0.3883  0.1310
 2642WAT     H111288   6.027   0.047   3.679 -0.3705 -0.4433  0.4582
 2642WAT     H211289   5.922   0.020   3.595  0.0384  1.0617 -0.5731
 2642WAT    EPW11290   5.974   0.070   3.626  0.3361  0.3649  0.0753
 2643WAT      O11291   6.828   0.804   3.893  0.0028 -0.4527 -0.0954
 2643WAT     H111292   6.900   0.758   3.877  1.2222  0.7732  1.5805
 2643WAT     H211293   6.829   0.815   3.979 -0.7425  1.8958 -0.3249
 2643WAT    EPW11294   6.839   0.799   3.903  0.0728  0.0753  0.1183
 2644WAT      O11295   6.664   0.830   3.606  0.1927  0.2531  0.0496
 2644WAT     H111296   6.668   0.873   3.682  0.2366  0.1390  0.1124
 2644WAT     H211297   6.584   0.848   3.576  1.0452  2.4223 -1.1345
 2644WAT    EPW11298   6.653   0.839   3.613  0.3251  0.5567 -0.1160
 2645WAT      O11299   6.698   1.790   2.971 -0.0771  0.4523 -0.5231
 2645WAT     H111300   6.664   1.712   2.991 -0.2248  0.3289 -1.2324
 2645WAT     H211301   6.654   1.814   2.899 -0.9027  1.7470  0.3602
 2645WAT    EPW11302   6.686   1.782   2.963 -0.2209  0.6253 -0.4974
 2646WAT      O11303   6.531   2.366   2.144 -0.0545  0.2737  0.1704
 2646WAT     H111304   6.485   2.367   2.070  0.3963  0.4322 -0.1127
 2646WAT     H211305   6.501   2.435   2.188  0.8652  1.2301 -0.6219
 2646WAT    EPW11306   6.520   2.377   2.140  0.1479  0.4384  0.0116
 2647WAT      O11307   7.040   1.203   0.899 -0.4245 -0.6266 -0.3188
 2647WAT     H111308   7.030   1.224   0.983 -0.0293  2.0870 -0.8409
 2647WAT     H211309   6.960   1.215   0.865  0.1268  2.1386 -0.9375
 2647WAT    EPW11310   7.027   1.208   0.906 -0.2847  0.1827 -0.4873
 2648WAT      O11311   5.573   0.996   1.073 -0.2910  0.3972  0.5461
 2648WAT     H111312   5.639   0.948   1.041  0.8851  2.3372 -0.0793
 2648WAT     H211313   5.575   1.069   1.026 -3.4584  0.2391 -0.0612
 2648WAT    EPW11314   5.583   1.000   1.061 -0.5852  0.6604  0.3640
 2649WAT      O11315   6.313   2.655   3.757  0.3316  0.0188  0.1897
 2649WAT     H111316   6.269   2.707   3.811 -0.1391 -0.9848  0.7969
 2649WAT     H211317   6.386   2.636   3.801  0.1797 -0.4040  0.2528
 2649WAT    EPW11318   6.318   2.660   3.771  0.2396 -0.1919  0.2887
 2650WAT      O11319   6.482   1.197   4.684  0.7142  0.2321 -0.1890
 2650WAT     H111320   6.435   1.145   4.632 -0.2535  1.3291 -0.4541
 2650WAT     H211321   6.556   1.208   4.640  0.0093  0.9401 -1.2451
 2650WAT    EPW11322   6.486   1.191   4.670  0.4671  0.4988 -0.3842
 2651WAT      O11323   6.910   1.649   2.488  1.1041  0.1149  0.1302
 2651WAT     H111324   6.918   1.729   2.521 -0.7011  0.6012 -0.4915
 2651WAT     H211325   6.879   1.601   2.554 -1.3113  0.8055 -0.4108
 2651WAT    EPW11326   6.907   1.653   2.502  0.4806  0.2887 -0.0415
 2652WAT      O11327   6.951   5.348   2.140 -0.5725  0.1382  0.0136
 2652WAT     H111328   6.938   5.433   2.157  1.1417  0.2503  0.9703
 2652WAT     H211329   6.924   5.308   2.213  0.1777  0.0034  0.2185
 2652WAT    EPW11330   6.945   5.355   2.153 -0.2085  0.1349  0.1852
 2653WAT      O11331   5.974   7.507   2.712 -0.1448  0.3465 -1.0662
 2653WAT     H111332   5.972   7.544   2.633  1.0698  0.5850 -1.0001
 2653WAT     H211333   6.045   7.541   2.750 -0.7108  0.2496  0.1432
 2653WAT    EPW11334   5.984   7.517   2.706 -0.0490  0.3674 -0.8778
 2654WAT      O11335   6.717   0.461   2.536  0.1134  0.6273  0.1234
 2654WAT     H111336   6.643   0.491   2.572 -0.7690 -0.7589 -0.4313
 2654WAT     H211337   6.737   0.522   2.478 -1.6104  0.2519 -0.9606
 2654WAT    EPW11338   6.709   0.474   2.533 -0.2716  0.3671 -0.1186
 2655WAT      O11339   6.446   7.248   3.467  0.6463 -0.7566 -0.0729
 2655WAT     H111340   6.371   7.212   3.442 -0.1430 -0.0933  1.2468
 2655WAT     H211341   6.443   7.328   3.432  1.2969 -1.1155 -0.9923
 2655WAT    EPW11342   6.434   7.255   3.458  0.6258 -0.7117 -0.0138
 2656WAT      O11343   6.567   3.046   1.178  0.1697 -0.1438 -0.2588
 2656WAT     H111344   6.648   3.014   1.182  0.7543  1.2679 -0.2100
 2656WAT     H211345   6.520   2.989   1.225  1.2021 -0.7807  0.0328
 2656WAT    EPW11346   6.572   3.033   1.186  0.4085 -0.0293 -0.2085
 2657WAT      O11347   6.605   3.169   4.887  0.0369 -0.2707 -0.1438
 2657WAT     H111348   6.672   3.174   4.831  0.6147  1.5063  0.6499
 2657WAT     H211349   6.614   3.090   4.923  1.6832 -0.0832 -0.0905
 2657WAT    EPW11350   6.616   3.158   4.884  0.3654  0.0195 -0.0186
 2658WAT      O11351   5.601   1.661   2.428  0.1531  0.0839  0.4710
 2658WAT     H111352   5.677   1.703   2.438 -1.9212  3.8460  3.3093
 2658WAT     H211353   5.611   1.588   2.475  2.0644  0.2888  0.4520
 2658WAT    EPW11354   5.614   1.657   2.436  0.1290  0.6699  0.8875
 2659WAT      O11355   5.567   2.523   3.360  0.1566 -0.6857  0.0648
 2659WAT     H111356   5.515   2.490   3.422 -0.2457 -1.1774 -0.5329
 2659WAT     H211357   5.608   2.589   3.401 -0.4992 -0.6686  0.7010
 2659WAT    EPW11358   5.566   2.528   3.375  0.0003 -0.7558  0.0705
 2660WAT      O11359   6.441   2.254   1.322  0.0943 -0.1289  0.0190
 2660WAT     H111360   6.440   2.277   1.407 -1.1457  0.9962 -0.2676
 2660WAT     H211361   6.432   2.167   1.325 -0.2216 -0.0825  1.0397
 2660WAT    EPW11362   6.439   2.245   1.335 -0.1356  0.0441  0.1274
 2661WAT      O11363   6.587   2.311   1.096  0.1269 -0.3447  0.7027
 2661WAT     H111364   6.530   2.365   1.059  0.6876  0.6522  1.2422
 2661WAT     H211365   6.545   2.281   1.165 -0.9566 -2.2789 -0.7145
 2661WAT    EPW11366   6.572   2.315   1.100  0.0497 -0.4832  0.5731
 2662WAT      O11367   6.515   1.197   0.987 -0.0296 -0.0668 -0.1277
 2662WAT     H111368   6.548   1.117   1.002 -0.4743 -0.3043 -0.3797
 2662WAT     H211369   6.583   1.250   1.000 -0.1797 -0.3006  1.9731
 2662WAT    EPW11370   6.530   1.193   0.991 -0.1174 -0.1364  0.1454
 2663WAT      O11371   6.547   3.459   1.864  0.6656  0.1076 -0.2164
 2663WAT     H111372   6.603   3.392   1.860  0.9668  0.3391  0.0324
 2663WAT     H211373   6.598   3.529   1.856  0.5094  0.3448  0.7180
 2663WAT    EPW11374   6.563   3.460   1.862  0.6870  0.1768 -0.0416
 2664WAT      O11375   5.731   1.735   4.159  0.9356 -0.2822  0.4568
 2664WAT     H111376   5.741   1.652   4.132 -1.1444  0.0018 -1.4375
 2664WAT     H211377   5.667   1.729   4.218  0.2369  0.0741 -0.2642
 2664WAT    EPW11378   5.723   1.722   4.164  0.5252 -0.1876  0.0704
 2665WAT      O11379   5.853   2.113   4.615 -0.2873  0.1677  0.3669
 2665WAT     H111380   5.897   2.100   4.689  0.5003  0.6111 -0.0102
 2665WAT     H211381   5.774   2.079   4.632  1.2446 -4.3612 -0.2440
 2665WAT    EPW11382   5.848   2.106   4.628  0.0554 -0.4358  0.2209
 2666WAT      O11383   5.010   2.883   4.837 -0.4171  0.1072 -0.5461
 2666WAT     H111384   5.075   2.926   4.798 -0.8581  1.5288  0.2185
 2666WAT     H211385   5.048   2.844   4.905 -0.4503  1.4892  0.2926
 2666WAT    EPW11386   5.025   2.884   4.841 -0.4872  0.5214 -0.3093
 2667WAT      O11387   6.524   1.635   3.550  0.3906 -0.3249  0.2272
 2667WAT     H111388   6.474   1.646   3.620  0.9929  1.4046  0.4351
 2667WAT     H211389   6.559   1.556   3.562 -3.0673 -2.1398 -0.4958
 2667WAT    EPW11390   6.522   1.625   3.562 -0.0313 -0.3375  0.1511
 2668WAT      O11391   7.112   1.931   0.918  0.2033 -0.3701  0.6639
 2668WAT     H111392   7.165   1.995   0.890  0.3851 -0.1892  1.3992
 2668WAT     H211393   7.033   1.959   0.895  0.3166 -0.0704  0.6324
 2668WAT    EPW11394   7.108   1.945   0.910  0.2469 -0.2991  0.7679
 2669WAT      O11395   6.598   2.948   3.910  0.1555 -0.4632  0.9774
 2669WAT     H111396   6.627   2.970   3.831 -1.7912  1.8645  0.8074
 2669WAT     H211397   6.629   3.012   3.961 -2.2234  0.5763  1.2443
 2669WAT    EPW11398   6.607   2.961   3.906 -0.4835  0.0342  0.9917
 2670WAT      O11399   3.995   2.065   2.526 -0.1856  0.2496 -0.2368
 2670WAT     H111400   3.990   2.144   2.491 -2.2229  0.6053  0.7127
 2670WAT     H211401   3.952   2.073   2.601 -3.4524 -2.4844 -1.5668
 2670WAT    EPW11402   3.988   2.078   2.532 -0.9691 -0.1017 -0.2930
 2671WAT      O11403   6.561   2.153   3.693 -0.0391 -0.1630 -0.7131
 2671WAT     H111404   6.510   2.174   3.625  2.1726  0.2428 -2.3550
 2671WAT     H211405   6.627   2.110   3.656  0.7319 -0.8795  1.3548
 2671WAT    EPW11406   6.563   2.150   3.678  0.4015 -0.2089 -0.6502
 2672WAT      O11407   6.935   1.403   2.076 -0.1482  0.3303 -0.1170
 2672WAT     H111408   7.015   1.367   2.072 -0.7933 -1.0508 -1.7012
 2672WAT     H211409   6.882   1.335   2.085 -1.3084  0.9541 -1.7146
 2672WAT    EPW11410   6.939   1.388   2.076 -0.4149  0.2184 -0.5870
 2673WAT      O11411   6.111   1.340   3.562 -0.5285 -0.2977  0.6433
 2673WAT     H111412   6.176   1.362   3.508 -1.1169 -0.5219 -0.1678
 2673WAT     H211413   6.039   1.359   3.517 -1.0546  0.5678  1.7741
 2673WAT    EPW11414   6.110   1.346   3.548 -0.6931 -0.2030  0.6905
 2674WAT      O11415   5.969   2.193   1.371 -0.4674  0.0812  0.2977
 2674WAT     H111416   5.973   2.206   1.458 -0.9460  1.6289  0.1067
 2674WAT     H211417   5.884   2.186   1.355 -0.3637 -0.5351 -0.0247
 2674WAT    EPW11418   5.957   2.194   1.382 -0.5228  0.2188  0.2218
 2675WAT      O11419   6.155   1.801   2.578 -0.6843 -0.0378  0.1240
 2675WAT     H111420   6.099   1.833   2.637 -2.1905  0.9177 -1.7021
 2675WAT     H211421   6.112   1.810   2.503  1.8939  0.6547 -1.3895
 2675WAT    EPW11422   6.140   1.807   2.576 -0.5260  0.2056 -0.3693
 2676WAT      O11423   6.913   2.411   1.973  0.4173  0.2731 -0.2986
 2676WAT     H111424   6.873   2.463   2.031  1.5782  1.2053 -0.2995
 2676WAT     H211425   6.879   2.332   1.990 -0.5581  0.8306  0.4579
 2676WAT    EPW11426   6.902   2.407   1.984  0.4447  0.4932 -0.1870
 2677WAT      O11427   5.644   1.922   1.455  1.0641  0.3779  0.1570
 2677WAT     H111428   5.564   1.921   1.489  0.4140 -0.1706 -1.3188
 2677WAT     H211429   5.656   2.006   1.433  1.9373  0.9991  2.5595
 2677WAT    EPW11430   5.634   1.935   1.457  1.0970  0.3886  0.2939
 2678WAT      O11431   5.731   1.232   3.895  0.2491  0.4497  0.0578
 2678WAT     H111432   5.816   1.240   3.881  0.1965  1.0964  0.1023
 2678WAT     H211433   5.726   1.172   3.958  0.5557 -1.6024 -1.7361
 2678WAT    EPW11434   5.742   1.224   3.902  0.2866  0.2421 -0.2006
 2679WAT      O11435   5.952   0.826   3.979  0.0232 -0.0661  0.3562
 2679WAT     H111436   5.942   0.856   3.897 -0.3333 -1.6722 -0.2214
 2679WAT     H211437   5.871   0.825   4.010  0.1453  0.4216  0.7078
 2679WAT    EPW11438   5.939   0.830   3.971 -0.0114 -0.2313  0.3228
 2680WAT      O11439   4.874   3.177   1.981  0.0628  0.0341 -1.2557
 2680WAT     H111440   4.789   3.187   1.998  0.3322 -0.8026  0.9446
 2680WAT     H211441   4.891   3.096   2.010  1.7974  0.5554 -0.6615
 2680WAT    EPW11442   4.864   3.166   1.988  0.3588 -0.0125 -0.8429
 2681WAT      O11443   5.580   0.224   3.464 -0.6231 -0.5039  0.8865
 2681WAT     H111444   5.520   0.204   3.404  0.4401 -0.5074 -0.2031
 2681WAT     H211445   5.635   0.157   3.463  0.6533  0.5090  0.2175
 2681WAT    EPW11446   5.579   0.211   3.455 -0.2775 -0.3548  0.6267
 2682WAT      O11447   6.689   1.652   4.646  0.5873  0.3917  0.2791
 2682WAT     H111448   6.730   1.728   4.634 -1.6437  1.6297 -0.0638
 2682WAT     H211449   6.707   1.606   4.574 -1.3409  2.2830 -1.5330
 2682WAT    EPW11450   6.698   1.656   4.633 -0.0271  0.8540 -0.0392
 2683WAT      O11451   6.803   2.058   3.596  0.4835 -0.2810 -0.5596
 2683WAT     H111452   6.791   1.977   3.566 -2.0403  0.1422 -0.8722
 2683WAT     H211453   6.829   2.103   3.526  1.2402 -0.6507 -0.5290
 2683WAT    EPW11454   6.805   2.053   3.582  0.2225 -0.2731 -0.6013
 2684WAT      O11455   5.981   3.059   3.158  0.4211  0.0893  0.0809
 2684WAT     H111456   6.045   3.103   3.118  0.8840 -1.7752 -1.4035
 2684WAT     H211457   6.024   2.999   3.204 -0.2138 -0.7988 -0.4500
 2684WAT    EPW11458   5.997   3.057   3.159  0.3957 -0.3173 -0.2168
 2685WAT      O11459   5.213   2.384   2.051 -0.6026 -0.5067  0.1696
 2685WAT     H111460   5.257   2.408   1.979 -2.6275 -0.1694 -1.0129
 2685WAT     H211461   5.277   2.375   2.111  0.9859  0.9689 -1.1652
 2685WAT    EPW11462   5.229   2.386   2.049 -0.6671 -0.2389 -0.2022
 2686WAT      O11463   5.551   1.938   0.095 -0.6428 -0.0942 -0.0996
 2686WAT     H111464   5.571   1.873   0.041 -1.2916  0.0343 -0.5065
 2686WAT     H211465   5.523   1.897   0.167 -1.1361 -0.2739 -0.3883
 2686WAT    EPW11466   5.550   1.922   0.098 -0.8115 -0.1018 -0.2023
 2687WAT      O11467   5.130   6.581   4.794 -0.2425 -0.2398 -1.0647
 2687WAT     H111468   5.139   6.650   4.740  0.3538 -0.0232 -0.7000
 2687WAT     H211469   5.198   6.589   4.848  1.6271 -2.7669 -2.8202
 2687WAT    EPW11470   5.142   6.592   4.794  0.1218 -0.5811 -1.2701
 2688WAT      O11471   5.545   0.941   2.514 -0.7012  0.2820 -0.1299
 2688WAT     H111472   5.563   0.894   2.443 -1.4712  0.0052 -0.1426
 2688WAT     H211473   5.567   0.888   2.580  0.3346  0.6644 -0.1525
 2688WAT    EPW11474   5.551   0.927   2.514 -0.6619  0.2976 -0.1351
 2689WAT      O11475   6.825   2.914   1.547  0.2144 -0.4832  0.4606
 2689WAT     H111476   6.869   2.876   1.612 -0.6655  0.2870  1.5380
 2689WAT     H211477   6.763   2.856   1.528 -0.0963 -0.3138  0.9497
 2689WAT    EPW11478   6.822   2.900   1.554  0.0385 -0.3444  0.6920
 2690WAT      O11479   6.604   2.952   2.913  0.2109  0.4407 -0.2175
 2690WAT     H111480   6.565   2.975   2.987 -0.7076  1.2441 -0.9275
 2690WAT     H211481   6.570   3.006   2.854  2.3105  1.1019 -0.9219
 2690WAT    EPW11482   6.593   2.963   2.915  0.3854  0.6570 -0.4264
 2691WAT      O11483   5.944   1.288   3.135 -0.3986  0.3201  0.0632
 2691WAT     H111484   5.936   1.282   3.048 -0.0606 -2.5906  0.1371
 2691WAT     H211485   5.963   1.207   3.160  0.1593  1.1784  2.8339
 2691WAT    EPW11486   5.946   1.275   3.126 -0.2663  0.0169  0.4834
 2692WAT      O11487   6.257   0.938   2.460  0.1995  0.0277 -0.3571
 2692WAT     H111488   6.180   0.947   2.420 -0.8553 -1.1040  1.2612
 2692WAT     H211489   6.235   0.907   2.539  2.3198 -0.2822  0.1726
 2692WAT    EPW11490   6.243   0.934   2.466  0.3569 -0.1852 -0.0398
 2693WAT      O11491   6.481   2.473   2.979  0.0966  0.0639  0.0990
 2693WAT     H111492   6.449   2.554   2.983  0.4983  0.1714  1.3055
 2693WAT     H211493   6.410   2.425   2.961 -0.2547  0.5996  0.0057
 2693WAT    EPW11494   6.466   2.478   2.977  0.1040  0.1589  0.2634
 2694WAT      O11495   6.129   2.919   5.494  0.1233  0.6232  0.2638
 2694WAT     H111496   6.173   2.846   5.510  0.0228  0.8957  1.9376
 2694WAT     H211497   6.067   2.894   5.438  1.7296  0.0270 -1.3534
 2694WAT    EPW11498   6.127   2.905   5.488  0.3457  0.5754  0.2721
 2695WAT      O11499   6.953   2.085   4.356  0.2858 -0.0104 -0.1164
 2695WAT     H111500   6.919   2.136   4.294  0.7638 -0.4023 -0.7097
 2695WAT     H211501   7.033   2.068   4.327  0.0521 -1.2948 -0.0511
 2695WAT    EPW11502   6.959   2.090   4.343  0.3219 -0.2581 -0.1944
 2696WAT      O11503   6.296   0.272   3.233 -0.9049 -0.7419  0.4538
 2696WAT     H111504   6.242   0.205   3.214 -3.1020  1.2134 -0.7175
 2696WAT     H211505   6.357   0.268   3.171 -2.3821 -0.3282 -1.0991
 2696WAT    EPW11506   6.297   0.261   3.221 -1.4477 -0.3919  0.0513
 2697WAT      O11507   6.764   2.376   1.573  0.5355  0.0140 -0.4142
 2697WAT     H111508   6.791   2.295   1.589  0.2857 -0.0561 -0.3490
 2697WAT     H211509   6.825   2.426   1.610 -0.6415 -0.1214  1.8756
 2697WAT    EPW11510   6.777   2.371   1.580  0.3247 -0.0164 -0.0663
 2698WAT      O11511   5.165   2.746   4.288 -0.1435  0.0275 -0.4888
 2698WAT     H111512   5.128   2.768   4.212 -0.6737 -2.5077 -1.0689
 2698WAT     H211513   5.209   2.673   4.268  0.5082 -0.1547  1.4468
 2698WAT    EPW11514   5.166   2.738   4.274 -0.1255 -0.3739 -0.2885
 2699WAT      O11515   7.243   1.357   0.352  0.1713 -0.3806  0.5261
 2699WAT     H111516   7.283   1.391   0.422  0.5562 -0.5878  0.4121
 2699WAT     H211517   7.178   1.310   0.386  0.8070 -1.0868  0.7959
 2699WAT    EPW11518   7.239   1.355   0.367  0.3220 -0.5155  0.5491
 2700WAT      O11519   4.486   1.549   1.058  0.0120 -0.0397  0.0361
 2700WAT     H111520   4.403   1.558   1.082 -0.1872  0.1072 -0.7115
 2700WAT     H211521   4.507   1.469   1.087 -0.4576 -0.1731  0.0105
 2700WAT    EPW11522   4.477   1.539   1.066 -0.0868 -0.0377 -0.0781
 2701WAT      O11523   6.245   3.594   3.349 -0.0443  0.5203  0.1485
 2701WAT     H111524   6.267   3.514   3.322 -0.6217  0.3878  0.0649
 2701WAT     H211525   6.177   3.615   3.299 -0.1519  0.8968  0.4473
 2701WAT    EPW11526   6.238   3.585   3.338 -0.1455  0.5564  0.1803
 2702WAT      O11527   6.893   7.667   2.869  0.5119  0.1335  0.7027
 2702WAT     H111528   6.809   7.689   2.858  1.5088  3.8026 -1.3110
 2702WAT     H211529   6.920   7.722   2.931  2.0556  1.1765 -0.8337
 2702WAT    EPW11530   6.884   7.678   2.877  0.8872  0.8295  0.1783
 2703WAT      O11531   6.153   2.496   1.494  0.2951 -0.2189  0.0144
 2703WAT     H111532   6.224   2.528   1.533  0.3037 -0.4988  0.2341
 2703WAT     H211533   6.125   2.435   1.550  0.3098 -0.6291 -0.4144
 2703WAT    EPW11534   6.159   2.492   1.508  0.2985 -0.3208 -0.0165
 2704WAT      O11535   6.127   2.809   1.714 -0.0740 -0.3676  0.0701
 2704WAT     H111536   6.048   2.811   1.752  0.0444 -0.2125  0.3120
 2704WAT     H211537   6.171   2.753   1.764 -0.2150 -0.9367 -0.4332
 2704WAT    EPW11538   6.122   2.801   1.727 -0.0773 -0.4287  0.0315
 2705WAT      O11539   6.409   3.613   2.063  0.5327  0.2539 -0.4274
 2705WAT     H111540   6.446   3.557   2.007 -0.8722 -0.2012 -0.9392
 2705WAT     H211541   6.476   3.644   2.109  1.6712  0.2617 -2.0234
 2705WAT    EPW11542   6.424   3.609   2.062  0.4933  0.1878 -0.7387
 2706WAT      O11543   6.526   1.543   2.629  0.3260  0.4172 -0.1688
 2706WAT     H111544   6.516   1.630   2.631 -0.8331  0.3056 -0.4219
 2706WAT     H211545   6.477   1.519   2.561 -0.2508 -0.5310  0.5592
 2706WAT    EPW11546   6.517   1.552   2.619  0.0696  0.2607 -0.0987
 2707WAT      O11547   6.974   1.003   3.043 -0.0056  0.5765 -0.3688
 2707WAT     H111548   6.921   0.951   2.997 -1.9314  1.3579  0.8527
 2707WAT     H211549   6.979   1.075   2.994 -1.1308  0.9770  0.0815
 2707WAT    EPW11550   6.967   1.006   3.029 -0.4563  0.7511 -0.1219
 2708WAT      O11551   5.590   0.248   4.197  0.1846  0.0795 -0.0652
 2708WAT     H111552   5.670   0.213   4.197  0.3615  0.4492  1.0805
 2708WAT     H211553   5.563   0.238   4.279 -1.1502 -0.4471 -0.5373
 2708WAT    EPW11554   5.598   0.241   4.209  0.0135  0.0563  0.0343
 2709WAT      O11555   5.611   0.188   4.480  0.3751  0.1919  0.3993
 2709WAT     H111556   5.688   0.228   4.477  0.3967  0.2328  1.2390
 2709WAT     H211557   5.563   0.241   4.531 -0.3457  0.3908 -0.4607
 2709WAT    EPW11558   5.615   0.202   4.487  0.2718  0.2273  0.3963
 2710WAT      O11559   6.372   1.914   2.971  0.6079  0.2536  0.0114
 2710WAT     H111560   6.307   1.964   3.003  0.5477  0.7785 -0.8847
 2710WAT     H211561   6.444   1.957   2.994  0.5749  0.4628 -0.2645
 2710WAT    EPW11562   6.373   1.928   2.979  0.5941  0.3621 -0.1617
 2711WAT      O11563   7.057   1.679   5.670  0.6302 -0.2753  0.2204
 2711WAT     H111564   7.063   1.765   5.678 -1.7770 -0.1935  3.0691
 2711WAT     H211565   7.113   1.648   5.730 -0.1637 -0.5994  0.8071
 2711WAT    EPW11566   7.066   1.687   5.680  0.1574 -0.3111  0.7279
 2712WAT      O11567   5.870   2.218   2.347 -0.0863  0.3249 -1.0494
 2712WAT     H111568   5.898   2.288   2.302  0.3346  1.1669  0.4643
 2712WAT     H211569   5.793   2.243   2.379 -0.2624 -0.1742 -1.0711
 2712WAT    EPW11570   5.863   2.232   2.345 -0.0502  0.3756 -0.8290
 2713WAT      O11571   6.142   2.640   3.496 -0.0597  0.3717  0.6041
 2713WAT     H111572   6.203   2.660   3.554 -0.2452 -0.7792  1.2129
 2713WAT     H211573   6.082   2.597   3.542  0.2630 -1.4945 -0.5789
 2713WAT    EPW11574   6.142   2.637   3.511 -0.0394 -0.0740  0.5193
 2714WAT      O11575   6.443   2.955   1.420 -0.4013  0.1926 -0.5866
 2714WAT     H111576   6.460   3.025   1.469  0.2385 -1.1230  1.1798
 2714WAT     H211577   6.361   2.935   1.439 -0.2347 -0.1623 -0.2026
 2714WAT    EPW11578   6.434   2.962   1.430 -0.2822 -0.0542 -0.2690
 2715WAT      O11579   6.702   2.581   0.226  0.1497  0.0046  0.3797
 2715WAT     H111580   6.640   2.622   0.180 -1.9253 -1.2236  1.9264
 2715WAT     H211581   6.690   2.497   0.206 -0.4528 -0.5091  2.6285
 2715WAT    EPW11582   6.691   2.575   0.216 -0.2458 -0.2527  0.9404
 2716WAT      O11583   6.822   1.740   1.363  0.0884  0.3822  0.2851
 2716WAT     H111584   6.851   1.658   1.354 -1.3005  0.0547 -1.6972
 2716WAT     H211585   6.744   1.730   1.401 -0.5527  0.6687 -0.9116
 2716WAT    EPW11586   6.815   1.727   1.368 -0.2114  0.3761 -0.1845
 2717WAT      O11587   7.018   0.277   5.933 -0.0594  0.4998  0.3237
 2717WAT     H111588   6.993   0.269   5.850  1.3926 -1.2751 -0.0089
 2717WAT     H211589   7.058   0.201   5.950 -1.2995  0.3128  3.0097
 2717WAT    EPW11590   7.020   0.265   5.923 -0.0281  0.2100  0.6714
 2718WAT      O11591   5.979   2.236   1.072  0.5834  0.3765  0.6351
 2718WAT     H111592   6.033   2.279   1.125 -0.0158 -0.1691  1.7139
 2718WAT     H211593   5.995   2.152   1.090 -1.8407  0.1713  2.3410
 2718WAT    EPW11594   5.989   2.230   1.082  0.1368  0.2656  1.0464
 2719WAT      O11595   6.201   7.678   6.984  0.5189 -0.0945  0.0312
 2719WAT     H111596   6.260   7.726   7.027  4.0035 -2.3530 -1.7422
 2719WAT     H211597   6.180   7.615   7.040  0.4646  0.2216  0.3711
 2719WAT    EPW11598   6.207   7.676   6.998  1.0256 -0.3814 -0.1805
 2720WAT      O11599   7.256   2.127   0.794 -0.1022  0.1672  0.5559
 2720WAT     H111600   7.248   2.115   0.708  0.4045  0.2289  0.4977
 2720WAT     H211601   7.232   2.210   0.805 -2.1788 -0.3967  0.7629
 2720WAT    EPW11602   7.251   2.138   0.783 -0.3341  0.0930  0.5779
 2721WAT      O11603   6.218   2.692   0.416 -0.1844  0.1001 -0.0554
 2721WAT     H111604   6.136   2.691   0.446  0.2986 -0.1382  1.3275
 2721WAT     H211605   6.246   2.772   0.436  0.1879 -0.1056  0.2491
 2721WAT    EPW11606   6.210   2.704   0.423 -0.0581  0.0345  0.1939
 2722WAT      O11607   4.772   2.422   0.517 -0.2508 -0.0225  0.1731
 2722WAT     H111608   4.859   2.420   0.526 -0.1714  0.5003 -0.3951
 2722WAT     H211609   4.754   2.507   0.513 -0.7033 -0.1418 -0.4921
 2722WAT    EPW11610   4.782   2.434   0.517 -0.3059  0.0371 -0.0091
 2723WAT      O11611   6.985   1.167   0.484  0.5300 -0.7879 -0.4851
 2723WAT     H111612   7.064   1.130   0.482  0.4711 -0.9758 -2.9713
 2723WAT     H211613   6.964   1.174   0.399 -1.0976  1.4754  0.0212
 2723WAT    EPW11614   6.993   1.162   0.471  0.2809 -0.4814 -0.7775
 2724WAT      O11615   5.411   1.565   6.153 -0.4713  0.1982  0.3420
 2724WAT     H111616   5.426   1.578   6.068 -0.3730 -0.8027  0.1886
 2724WAT     H211617   5.482   1.521   6.179 -1.1617 -0.8135  0.5844
 2724WAT    EPW11618   5.424   1.561   6.144 -0.5587 -0.0991  0.3551
 2725WAT      O11619   5.752   2.246   0.390  0.1604  0.0131 -0.0985
 2725WAT     H111620   5.755   2.212   0.309  1.3976 -0.6339  0.2053
 2725WAT     H211621   5.835   2.244   0.416 -0.1131  0.9942  0.8826
 2725WAT    EPW11622   5.765   2.241   0.382  0.3027  0.0625  0.0913
 2726WAT      O11623   5.611   1.923   1.088 -0.6025 -0.5163  0.8833
 2726WAT     H111624   5.573   1.978   1.144 -1.0448 -0.4594  0.5281
 2726WAT     H211625   5.696   1.932   1.105 -0.7066 -0.1536  1.2230
 2726WAT    EPW11626   5.618   1.932   1.099 -0.6832 -0.4543  0.8810
 2727WAT      O11627   6.162   2.064   0.313 -0.2808  0.0278 -0.2532
 2727WAT     H111628   6.144   2.030   0.392  2.1682  1.3863  1.0218
 2727WAT     H211629   6.198   1.997   0.270 -1.9933 -0.8345 -0.4172
 2727WAT    EPW11630   6.165   2.049   0.319 -0.1720  0.1011 -0.0891
 2728WAT      O11631   6.731   1.239   1.433 -0.1380 -0.2204 -0.3445
 2728WAT     H111632   6.657   1.224   1.476  0.1784  0.0846  0.3056
 2728WAT     H211633   6.748   1.162   1.394 -0.7038 -0.3383 -0.3686
 2728WAT    EPW11634   6.723   1.225   1.433 -0.1748 -0.1928 -0.2520
 2729WAT      O11635   5.965   3.441   1.948  0.2783 -0.1549 -0.0868
 2729WAT     H111636   5.899   3.397   1.910  0.7279 -0.0342 -1.0411
 2729WAT     H211637   6.022   3.378   1.969  1.1981 -0.0464 -2.0013
 2729WAT    EPW11638   5.963   3.425   1.945  0.4806 -0.1211 -0.5106
 2730WAT      O11639   5.858   1.464   0.201  0.2521  0.4680  0.3340
 2730WAT     H111640   5.938   1.451   0.235 -0.2753  0.2181  1.5414
 2730WAT     H211641   5.862   1.545   0.170  0.8511  0.6142  0.7736
 2730WAT    EPW11642   5.871   1.474   0.201  0.2627  0.4527  0.5773
 2731WAT      O11643   5.276   3.739   2.193  0.3827  0.2989  0.5556
 2731WAT     H111644   5.268   3.806   2.248  2.0466 -0.7552  2.2041
 2731WAT     H211645   5.272   3.669   2.245  0.5522 -0.8226 -0.8735
 2731WAT    EPW11646   5.274   3.738   2.209  0.6535 -0.0225  0.5880
 2732WAT      O11647   7.179   3.275   0.314 -0.2691  0.0480 -0.0409
 2732WAT     H111648   7.105   3.305   0.350  0.6512  1.9828  0.3843
 2732WAT     H211649   7.224   3.246   0.382  0.1530  0.7264 -0.0201
 2732WAT    EPW11650   7.175   3.275   0.329 -0.0708  0.4340  0.0250
 2733WAT      O11651   5.898   1.923   1.843  0.1476 -0.7949  0.2526
 2733WAT     H111652   5.860   2.001   1.839  2.3800  0.2876 -2.0998
 2733WAT     H211653   5.886   1.890   1.763  3.4772 -0.6522 -0.4235
 2733WAT    EPW11654   5.891   1.930   1.830  0.9693 -0.6139 -0.1948
 2734WAT      O11655   6.627   0.348   7.679 -0.3511  0.2739  0.2316
 2734WAT     H111656   6.652   0.358   7.596  0.1442 -1.0908  0.1886
 2734WAT     H211657   6.610   0.263   7.685  0.3219  0.2043  1.7105
 2734WAT    EPW11658   6.628   0.337   7.668 -0.1785  0.0620  0.4437
 2735WAT      O11659   6.228   3.250   1.362 -0.5933  0.1249 -0.3022
 2735WAT     H111660   6.244   3.188   1.421  0.3819  0.6224 -0.0301
 2735WAT     H211661   6.216   3.204   1.288 -2.4348 -0.5369  0.3480
 2735WAT    EPW11662   6.228   3.234   1.360 -0.7213  0.1006 -0.1660
 2736WAT      O11663   7.067   1.837   0.081 -0.6866  0.0439  0.0405
 2736WAT     H111664   7.104   1.768   0.119 -1.2390 -0.4578 -0.3169
 2736WAT     H211665   7.078   1.822  -0.004 -1.4268  0.0413 -0.0601
 2736WAT    EPW11666   7.074   1.825   0.074 -0.8776 -0.0306 -0.0271
 2737WAT      O11667   7.053   0.918   0.269  0.3653 -0.0002 -0.0816
 2737WAT     H111668   7.082   0.877   0.198 -1.4168  0.3133 -1.0532
 2737WAT     H211669   7.019   0.992   0.238 -0.6166  0.0597  1.0508
 2737WAT    EPW11670   7.052   0.923   0.254 -0.0430  0.0549 -0.0579
 2738WAT      O11671   5.192   2.431   1.683 -0.2564  0.2157  0.6925
 2738WAT     H111672   5.178   2.363   1.736  1.1051 -0.3830  0.3295
 2738WAT     H211673   5.246   2.483   1.729  0.8973 -0.2876 -0.0431
 2738WAT    EPW11674   5.198   2.429   1.698  0.1151  0.0529  0.5302
 2739WAT      O11675   5.698   2.545   0.474  0.4313 -0.6470 -0.2973
 2739WAT     H111676   5.699   2.463   0.444 -1.5112 -1.1282  0.7618
 2739WAT     H211677   5.646   2.586   0.418  0.4898 -0.4061 -0.1726
 2739WAT    EPW11678   5.691   2.539   0.461  0.1530 -0.6825 -0.1225
 2740WAT      O11679   4.946   3.923   0.989 -0.2253 -0.3889  0.9560
 2740WAT     H111680   4.876   3.968   1.013 -0.4050  1.3028 -2.2496
 2740WAT     H211681   5.011   3.958   1.036 -0.9626  0.5989  1.2572
 2740WAT    EPW11682   4.945   3.935   0.999 -0.3607  0.0069  0.5270
 2741WAT      O11683   6.415   3.167   1.607 -0.1027 -0.4325  0.2159
 2741WAT     H111684   6.381   3.126   1.676 -0.0307  0.2208  0.6510
 2741WAT     H211685   6.501   3.167   1.624 -0.0353 -0.6772 -0.1078
 2741WAT    EPW11686   6.423   3.161   1.620 -0.0821 -0.3721  0.2323
 2742WAT      O11687   6.052   0.945   0.644  0.3099 -0.2293  0.2409
 2742WAT     H111688   6.112   0.908   0.695  0.8723 -1.6679 -1.3664
 2742WAT     H211689   5.977   0.929   0.686  0.9268  1.2973  2.0975
 2742WAT    EPW11690   6.050   0.937   0.658  0.4841 -0.2163  0.2777
 2743WAT      O11691   6.799   0.122   3.417  0.4236 -0.1660  0.6562
 2743WAT     H111692   6.875   0.087   3.442 -0.0985 -1.0908  1.0070
 2743WAT     H211693   6.789   0.189   3.472  0.6345 -0.4976  1.1115
 2743WAT    EPW11694   6.809   0.126   3.429  0.3776 -0.3516  0.7753
 2744WAT      O11695   4.847   2.342   0.905  0.2753 -0.0690 -0.0316
 2744WAT     H111696   4.903   2.409   0.901 -0.3095  0.5073  0.8858
 2744WAT     H211697   4.809   2.352   0.983 -0.5348 -0.9085 -0.2944
 2744WAT    EPW11698   4.850   2.353   0.916  0.0693 -0.1079  0.0651
 2745WAT      O11699   6.572   3.282   0.304 -0.2467 -0.5237  0.0555
 2745WAT     H111700   6.645   3.235   0.299 -0.6748 -1.1778 -0.0851
 2745WAT     H211701   6.532   3.266   0.229  0.1087  0.9304 -0.4733
 2745WAT    EPW11702   6.577   3.273   0.292 -0.2574 -0.4055 -0.0434
 2746WAT      O11703   6.820   3.721   1.021  0.2637 -0.0305  0.0934
 2746WAT     H111704   6.900   3.726   0.986  0.0114  1.8158 -0.3270
 2746WAT     H211705   6.831   3.750   1.102 -0.1839  1.6634 -0.4098
 2746WAT    EPW11706   6.833   3.726   1.028  0.1603  0.4925 -0.0430
 2747WAT      O11707   4.021   0.535   1.426  0.1610  0.0068  0.4412
 2747WAT     H111708   3.988   0.615   1.416 -0.1773  0.1757  2.5339
 2747WAT     H211709   3.950   0.484   1.429  0.1930 -0.0006  1.8571
 2747WAT    EPW11710   4.005   0.539   1.425  0.1158  0.0307  0.9595
 2748WAT      O11711   5.447   3.846   1.138  0.8233 -0.7263  0.5042
 2748WAT     H111712   5.459   3.878   1.218  1.4611 -1.3449  0.6625
 2748WAT     H211713   5.360   3.851   1.127  0.8079  0.0847  0.9150
 2748WAT    EPW11714   5.436   3.852   1.148  0.9153 -0.6979  0.5882
 2749WAT      O11715   5.868   2.981   1.402  0.0375 -0.4059 -0.6089
 2749WAT     H111716   5.840   2.921   1.346 -1.2829 -0.7368  0.3525
 2749WAT     H211717   5.801   3.037   1.408 -0.4353 -1.0867  1.5844
 2749WAT    EPW11718   5.854   2.980   1.395 -0.2274 -0.5554 -0.1429
 2750WAT      O11719   6.099   6.574   3.083  0.1012 -0.4014 -0.1326
 2750WAT     H111720   6.114   6.643   3.032  1.7101 -1.2567 -0.8748
 2750WAT     H211721   6.178   6.545   3.104 -0.5137 -0.7516  1.9851
 2750WAT    EPW11722   6.113   6.580   3.079  0.2481 -0.5795  0.0706
 2751WAT      O11723   6.627   1.615   1.103 -0.5958 -0.3845  0.6126
 2751WAT     H111724   6.541   1.598   1.101 -0.5303 -0.6756 -1.3993
 2751WAT     H211725   6.664   1.537   1.093 -0.1070 -0.1758  0.7582
 2751WAT    EPW11726   6.620   1.601   1.101 -0.5139 -0.3966  0.3369
 2752WAT      O11727   6.832   1.077   0.718 -0.2666  0.1841  0.1798
 2752WAT     H111728   6.870   1.083   0.640  1.1126  0.1754  0.8143
 2752WAT     H211729   6.759   1.124   0.709 -0.9223 -1.0847 -1.5403
 2752WAT    EPW11730   6.827   1.085   0.705 -0.1597 -0.0046  0.0195
 2753WAT      O11731   6.523   3.258   0.975 -0.0894 -0.3735 -0.6652
 2753WAT     H111732   6.604   3.291   0.974  0.8334 -2.1970 -4.1562
 2753WAT     H211733   6.531   3.187   1.025  0.4354 -0.4499 -0.8519
 2753WAT    EPW11734   6.536   3.252   0.982  0.1245 -0.6542 -1.2085
 2754WAT      O11735   5.283   2.268   1.473 -0.0714  0.1210 -0.1407
 2754WAT     H111736   5.268   2.313   1.400 -1.6449 -0.0977  0.0136
 2754WAT     H211737   5.265   2.325   1.537  1.1927  0.2789  0.1031
 2754WAT    EPW11738   5.279   2.283   1.472 -0.1171  0.1120 -0.0819
 2755WAT      O11739   5.768   0.792   0.368  0.0531 -0.3612 -0.0426
 2755WAT     H111740   5.847   0.830   0.374 -1.1378  2.0580  1.9538
 2755WAT     H211741   5.774   0.724   0.422  0.1524  1.2150  2.0873
 2755WAT    EPW11742   5.781   0.788   0.377 -0.1082  0.2290  0.5669
 2756WAT      O11743   7.102   3.895   0.594 -0.1249  0.2036 -0.3015
 2756WAT     H111744   7.134   3.820   0.626 -0.6362 -0.3117 -0.9470
 2756WAT     H211745   7.137   3.898   0.514  0.4424  1.0155 -0.0252
 2756WAT    EPW11746   7.112   3.884   0.587 -0.1167  0.2474 -0.3560
 2757WAT      O11747   5.413   4.589   1.280 -0.0249  0.0373 -0.6509
 2757WAT     H111748   5.478   4.637   1.249  0.2068 -0.4075 -0.8699
 2757WAT     H211749   5.433   4.508   1.253  1.1583 -0.7129  2.0833
 2757WAT    EPW11750   5.426   4.584   1.272  0.1841 -0.1392 -0.2793
 2758WAT      O11751   7.100   1.741   0.485 -0.5755 -0.1441  0.0321
 2758WAT     H111752   7.072   1.720   0.565  2.1675  0.6398  1.3080
 2758WAT     H211753   7.122   1.825   0.492 -0.2492 -0.0585 -1.5586
 2758WAT    EPW11754   7.099   1.750   0.498 -0.1221 -0.0157 -0.0144
 2759WAT      O11755   5.992   1.301   1.337 -0.1838 -0.0386  0.1027
 2759WAT     H111756   5.922   1.250   1.347 -0.9104  0.5493 -1.5265
 2759WAT     H211757   5.985   1.359   1.402 -1.3101  0.0889 -0.1060
 2759WAT    EPW11758   5.981   1.302   1.348 -0.4575  0.0671 -0.1688
 2760WAT      O11759   5.687   2.180   1.373  0.0503  0.4144 -0.3257
 2760WAT     H111760   5.617   2.173   1.321  0.1874  0.3632 -0.5029
 2760WAT     H211761   5.676   2.258   1.410  0.3790  0.8280 -1.0697
 2760WAT    EPW11762   5.675   2.191   1.371  0.1191  0.4679 -0.4618
 2761WAT      O11763   6.136   0.455   1.911  0.0522  0.1937 -0.6921
 2761WAT     H111764   6.098   0.505   1.850 -0.1489  1.6134  0.5286
 2761WAT     H211765   6.111   0.493   1.986  0.2103 -1.5533  0.2838
 2761WAT    EPW11766   6.127   0.468   1.913  0.0459  0.1454 -0.3676
 2762WAT      O11767   6.122   2.988   2.836 -0.5912  0.3786 -0.4421
 2762WAT     H111768   6.174   3.045   2.878  0.6967 -0.5088 -0.7459
 2762WAT     H211769   6.179   2.931   2.802 -1.8252 -1.3794  0.2794
 2762WAT    EPW11770   6.138   2.988   2.837 -0.5832 -0.0122 -0.3804
 2763WAT      O11771   6.747   6.884   7.169 -0.0399 -0.1614  0.4662
 2763WAT     H111772   6.817   6.903   7.121 -1.1658  0.9157 -0.8225
 2763WAT     H211773   6.703   6.959   7.173 -1.4648 -0.9596  0.6762
 2763WAT    EPW11774   6.751   6.898   7.163 -0.4167 -0.1202  0.3069
 2764WAT      O11775   5.464   3.171   1.312 -0.5521 -0.2337 -0.4402
 2764WAT     H111776   5.526   3.207   1.362 -0.8905  1.0960 -0.9233
 2764WAT     H211777   5.473   3.213   1.236 -2.1742  0.1696 -0.4485
 2764WAT    EPW11778   5.475   3.183   1.308 -0.8417  0.0223 -0.5128
 2765WAT      O11779   5.656   6.942   0.768  0.2768 -0.4138 -0.3904
 2765WAT     H111780   5.609   6.884   0.813 -2.2506  0.5956 -1.5244
 2765WAT     H211781   5.680   7.000   0.828 -0.4899 -0.6443  0.1564
 2765WAT    EPW11782   5.652   6.942   0.783 -0.2098 -0.2988 -0.4771
 2766WAT      O11783   6.947   1.475   0.079 -0.0612  0.3729  0.3952
 2766WAT     H111784   6.868   1.508   0.096 -0.4951 -1.3701  2.1238
 2766WAT     H211785   7.001   1.526   0.124  0.0580  2.3732 -1.7949
 2766WAT    EPW11786   6.943   1.488   0.088 -0.1077  0.4109  0.3270
 2767WAT      O11787   5.991   2.309   1.651  0.5126 -0.2189  0.7420
 2767WAT     H111788   5.924   2.350   1.690 -0.0048 -1.1622  0.8561
 2767WAT     H211789   6.035   2.274   1.717  0.2172 -0.9503  0.5510
 2767WAT    EPW11790   5.988   2.310   1.667  0.3925 -0.4663  0.7306
 2768WAT      O11791   7.010   0.573   1.808 -0.4089 -0.0025 -0.2294
 2768WAT     H111792   7.014   0.648   1.762  1.1383  1.3453  1.9017
 2768WAT     H211793   6.925   0.567   1.829 -1.2279 -0.7874 -3.2546
 2768WAT    EPW11794   6.998   0.583   1.804 -0.3013  0.0806 -0.3615
 2769WAT      O11795   6.045   0.508   0.557 -0.3197  0.7269 -0.0020
 2769WAT     H111796   6.014   0.521   0.638 -2.2039 -0.7661 -0.4030
 2769WAT     H211797   6.124   0.543   0.560 -1.4110  3.3816  1.6194
 2769WAT    EPW11798   6.052   0.515   0.570 -0.7593  0.8985  0.1783
 2770WAT      O11799   6.522   7.358   1.114  0.1213  0.7201 -0.4520
 2770WAT     H111800   6.500   7.400   1.041 -3.2446  1.4782  0.8168
 2770WAT     H211801   6.553   7.422   1.165 -1.9014  1.1574  0.3180
 2770WAT    EPW11802   6.523   7.374   1.111 -0.6747  0.8967 -0.1508
 2771WAT      O11803   4.454   1.739   1.432  0.7516 -0.0628  0.1526
 2771WAT     H111804   4.482   1.679   1.376 -0.6828  0.4318 -1.1771
 2771WAT     H211805   4.527   1.772   1.466  1.6037 -1.4047 -0.3182
 2771WAT    EPW11806   4.469   1.735   1.429  0.6655 -0.1880 -0.1134
 2772WAT      O11807   6.780   3.310   1.399 -0.2263  0.2068  0.2844
 2772WAT     H111808   6.746   3.267   1.467  0.8785 -0.6350  0.3387
 2772WAT     H211809   6.710   3.326   1.348 -0.5385 -3.5050 -0.7394
 2772WAT    EPW11810   6.764   3.306   1.401 -0.1092 -0.4658  0.1412
 2773WAT      O11811   6.653   0.720   1.197  0.1677  0.0107  0.1649
 2773WAT     H111812   6.714   0.721   1.260 -0.3734  0.0060  0.7037
 2773WAT     H211813   6.675   0.651   1.148 -0.7883 -1.5182  1.7728
 2773WAT    EPW11814   6.665   0.710   1.199 -0.0534 -0.2159  0.4820
 2774WAT      O11815   5.251   2.906   0.950 -0.5758 -0.3969  0.5722
 2774WAT     H111816   5.187   2.941   0.902  1.2084  1.5031 -0.5783
 2774WAT     H211817   5.293   2.853   0.895  0.9300  1.1015  0.1843
 2774WAT    EPW11818   5.248   2.903   0.935 -0.0898  0.1052  0.3449
 2775WAT      O11819   6.775   4.088   0.150  0.5882  0.1732  0.6101
 2775WAT     H111820   6.818   4.123   0.218 -0.5347  1.8731  0.5114
 2775WAT     H211821   6.691   4.096   0.173  0.2165 -0.1588 -0.5522
 2775WAT    EPW11822   6.769   4.095   0.164  0.3674  0.3753  0.4238
 2776WAT      O11823   6.336   1.648   0.465 -0.2973 -0.3040  0.2714
 2776WAT     H111824   6.408   1.621   0.423 -0.0031 -0.9239  1.1436
 2776WAT     H211825   6.366   1.676   0.542 -0.9047  0.1989  0.3389
 2776WAT    EPW11826   6.351   1.648   0.470 -0.3435 -0.3212  0.4102
 2777WAT      O11827   6.482   0.947   0.661 -0.1531  0.1192 -0.1399
 2777WAT     H111828   6.527   1.022   0.656 -1.3410  0.8415 -0.6253
 2777WAT     H211829   6.460   0.930   0.579 -1.8512  0.5326  0.1741
 2777WAT    EPW11830   6.485   0.956   0.648 -0.5794  0.2869 -0.1652
 2778WAT      O11831   5.815   2.828   0.705  0.7073 -0.1598 -0.0646
 2778WAT     H111832   5.870   2.896   0.702  0.7731 -0.2429 -1.6672
 2778WAT     H211833   5.745   2.859   0.747 -0.0830  1.5814 -2.4280
 2778WAT    EPW11834   5.813   2.843   0.711  0.6003  0.0851 -0.6505
 2779WAT      O11835   6.201   2.831   0.052 -0.1232  0.2745 -0.2322
 2779WAT     H111836   6.150   2.784   0.105  0.5504  0.6790  0.8128
 2779WAT     H211837   6.181   2.914   0.073  0.5855  0.4345 -0.1739
 2779WAT    EPW11838   6.190   2.836   0.063  0.0810  0.3579 -0.0692
 2780WAT      O11839   5.432   0.975   7.727 -0.2630 -0.5659 -0.0454
 2780WAT     H111840   5.490   0.977   7.662 -0.6438  0.0468 -0.3819
 2780WAT     H211841   5.469   0.924   7.787  1.0512  0.5624  0.1526
 2780WAT    EPW11842   5.446   0.968   7.726 -0.1251 -0.3087 -0.0658
 2781WAT      O11843   5.783   3.734   0.369  0.0268 -0.3198 -0.2276
 2781WAT     H111844   5.777   3.648   0.378  1.5735 -0.3448  0.9504
 2781WAT     H211845   5.862   3.753   0.401 -0.9595  1.7260  1.2577
 2781WAT    EPW11846   5.793   3.724   0.375  0.1096 -0.0213  0.1658
 2782WAT      O11847   6.222   2.389   7.574 -0.6369  0.7227 -0.1575
 2782WAT     H111848   6.190   2.455   7.621 -1.5958  0.2751 -0.1600
 2782WAT     H211849   6.241   2.425   7.497 -1.5003  0.9282 -0.2789
 2782WAT    EPW11850   6.220   2.404   7.570 -0.9061  0.6869 -0.1758
 2783WAT      O11851   7.109   2.029   1.189 -0.1251 -0.1710  0.8982
 2783WAT     H111852   7.112   2.117   1.185  1.1985 -0.1822  1.2175
 2783WAT     H211853   7.130   2.005   1.108  1.1145 -0.1871  1.2050
 2783WAT    EPW11854   7.113   2.039   1.177  0.2536 -0.1750  0.9907
 2784WAT      O11855   5.783   2.180   0.871 -0.5095 -0.5576 -0.1895
 2784WAT     H111856   5.837   2.202   0.935 -0.7296 -1.2930  0.2618
 2784WAT     H211857   5.706   2.211   0.897 -0.2393  0.9944 -1.0959
 2784WAT    EPW11858   5.779   2.188   0.884 -0.5021 -0.4370 -0.2568
 2785WAT      O11859   5.948   2.494   7.538 -0.5469  0.1847  0.0098
 2785WAT     H111860   5.908   2.436   7.590  0.9331 -1.4575 -0.5813
 2785WAT     H211861   5.976   2.446   7.471 -1.8887  2.1420 -2.0831
 2785WAT    EPW11862   5.947   2.478   7.536 -0.5265  0.2313 -0.3867
 2786WAT      O11863   6.970   7.164   7.262  0.1887  0.2924  0.0677
 2786WAT     H111864   7.052   7.136   7.269  0.0390  0.0935  1.4386
 2786WAT     H211865   6.978   7.251   7.253  0.5506  0.3005  0.4510
 2786WAT    EPW11866   6.983   7.173   7.262  0.2200  0.2642  0.3268
 2787WAT      O11867   6.591   1.506   7.740  0.2419  0.8010 -0.3751
 2787WAT     H111868   6.670   1.511   7.705  0.6102  0.6739  0.4098
 2787WAT     H211869   6.586   1.423   7.768 -0.3265  0.6959 -0.7806
 2787WAT    EPW11870   6.602   1.494   7.739  0.2123  0.7667 -0.3191
 2788WAT      O11871   6.015   2.826   1.122  0.1988 -0.4595 -0.3139
 2788WAT     H111872   6.049   2.779   1.187  0.0469  1.0204  0.8700
 2788WAT     H211873   6.057   2.902   1.128 -2.0383  0.8160  0.0787
 2788WAT    EPW11874   6.026   2.830   1.132 -0.1541 -0.0525 -0.0810
 2789WAT      O11875   5.650   2.413   1.484 -0.0793  0.4823 -0.6339
 2789WAT     H111876   5.728   2.447   1.504 -0.3847  0.2030  1.1341
 2789WAT     H211877   5.623   2.463   1.417  2.5100 -0.7453 -2.7969
 2789WAT    EPW11878   5.657   2.426   1.477  0.2581  0.2597 -0.6922
 2790WAT      O11879   6.889   1.542   1.846 -0.4089  0.0597  0.3646
 2790WAT     H111880   6.914   1.518   1.926  0.1050  1.8209  0.7729
 2790WAT     H211881   6.804   1.524   1.845 -0.2644 -0.7296  0.9936
 2790WAT    EPW11882   6.880   1.535   1.857 -0.3116  0.2032  0.5178
 2791WAT      O11883   4.965   2.082   0.909 -0.1296 -0.3626 -0.0245
 2791WAT     H111884   4.962   2.168   0.891 -1.1858 -0.0881  1.3156
 2791WAT     H211885   4.932   2.046   0.837 -1.2016  0.4774  0.0175
 2791WAT    EPW11886   4.960   2.089   0.895 -0.4440 -0.1980  0.1797
 2792WAT      O11887   6.047   2.385   0.815 -0.4904  0.0361 -0.4199
 2792WAT     H111888   6.036   2.470   0.834 -0.2352 -0.0760  0.2364
 2792WAT     H211889   6.011   2.344   0.882 -1.3679 -0.3992 -1.1410
 2792WAT    EPW11890   6.040   2.392   0.828 -0.5823 -0.0447 -0.4295
 2793WAT      O11891   6.935   0.347   7.077  0.4216 -0.0224  0.0369
 2793WAT     H111892   7.000   0.391   7.039  0.7314 -0.4985  0.0106
 2793WAT     H211893   6.933   0.381   7.158  0.9039 -0.2110  0.1350
 2793WAT    EPW11894   6.945   0.359   7.083  0.5386 -0.1206  0.0475
 2794WAT      O11895   6.884   3.079   1.308 -0.1664  0.2841  0.2568
 2794WAT     H111896   6.864   3.026   1.374  0.4810  0.8989  0.9639
 2794WAT     H211897   6.852   3.156   1.332  0.7966  0.7035  0.2417
 2794WAT    EPW11898   6.876   3.082   1.321  0.0715  0.4369  0.3590
 2795WAT      O11899   5.899   2.411   0.041 -0.3018 -0.2244  0.5016
 2795WAT     H111900   5.883   2.336   0.082  0.1265 -0.6518 -0.1053
 2795WAT     H211901   5.985   2.421   0.050 -0.4942  0.7838  1.5629
 2795WAT    EPW11902   5.909   2.401   0.048 -0.2669 -0.1386  0.5687
 2796WAT      O11903   6.715   3.633   0.603  0.5533  0.4514 -0.2888
 2796WAT     H111904   6.667   3.630   0.531  1.2089  1.6049 -0.7991
 2796WAT     H211905   6.742   3.550   0.612  0.0007  0.1737 -1.0360
 2796WAT    EPW11906   6.712   3.620   0.594  0.5685  0.5808 -0.4746
 2797WAT      O11907   6.875   1.047   6.762 -0.2046  0.2538  0.1157
 2797WAT     H111908   6.857   1.130   6.782  1.2777  0.8988 -1.0712
 2797WAT     H211909   6.809   1.024   6.709  0.4454  1.3773 -1.2240
 2797WAT    EPW11910   6.862   1.056   6.757  0.1104  0.5150 -0.2575
 2798WAT      O11911   6.333   2.544   0.231 -0.7451 -0.9505 -0.3311
 2798WAT     H111912   6.340   2.483   0.293 -1.8986  1.2686  2.2292
 2798WAT     H211913   6.294   2.610   0.273  0.2331  1.4661 -2.9274
 2798WAT    EPW11914   6.328   2.545   0.246 -0.7710 -0.2657 -0.3364
 2799WAT      O11915   7.129   2.186   0.351  0.0238 -0.0631  0.0274
 2799WAT     H111916   7.095   2.150   0.279 -0.9388  0.5434  0.1647
 2799WAT     H211917   7.151   2.266   0.325 -0.5646  0.2462  0.4646
 2799WAT    EPW11918   7.127   2.192   0.337 -0.2053  0.0722  0.1123
 2800WAT      O11919   6.302   0.749   1.067 -0.0683  0.2337 -0.3936
 2800WAT     H111920   6.281   0.793   0.994 -0.0546  0.4226 -0.2855
 2800WAT     H211921   6.258   0.675   1.060  1.2328 -0.4957 -1.4179
 2800WAT    EPW11922   6.293   0.745   1.055  0.1259  0.1538 -0.5290
 2801WAT      O11923   6.279   3.467   0.714 -0.4244 -0.7405 -0.1366
 2801WAT     H111924   6.297   3.406   0.654 -1.6358 -1.1374 -0.1174
 2801WAT     H211925   6.311   3.431   0.788 -0.0827 -0.8229 -0.3210
 2801WAT    EPW11926   6.287   3.452   0.716 -0.5529 -0.8113 -0.1610
 2802WAT      O11927   6.324   2.943   0.485  0.2516 -0.6018  0.1620
 2802WAT     H111928   6.350   2.998   0.423 -0.6114  0.3313  0.6050
 2802WAT     H211929   6.390   2.886   0.490  1.2774  0.5167 -0.1386
 2802WAT    EPW11930   6.338   2.942   0.476  0.2757 -0.2987  0.1830
 2803WAT      O11931   5.589   2.296   7.756 -0.0525  0.5438  0.3808
 2803WAT     H111932   5.602   2.277   7.840 -0.1347  1.0627  0.5176
 2803WAT     H211933   5.502   2.298   7.748 -0.0590 -0.4840  0.0451
 2803WAT    EPW11934   5.578   2.294   7.767 -0.0656  0.4686  0.3514
 2804WAT      O11935   6.931   2.360   1.055  0.0370 -0.2671  0.0810
 2804WAT     H111936   6.947   2.445   1.070  0.4650 -0.4075  0.4401
 2804WAT     H211937   6.934   2.324   1.134 -0.6764 -0.5381 -0.0070
 2804WAT    EPW11938   6.934   2.367   1.069 -0.0052 -0.3278  0.1210
 2805WAT      O11939   6.757   2.487   1.305 -0.7754 -0.5867 -0.4949
 2805WAT     H111940   6.770   2.440   1.378  2.0621  0.0806 -0.4865
 2805WAT     H211941   6.736   2.426   1.246  0.4077 -1.5957  0.0703
 2805WAT    EPW11942   6.756   2.471   1.307 -0.1815 -0.6371 -0.4101
 2806WAT      O11943   5.717   2.807   1.199  0.2683  0.1350 -0.3838
 2806WAT     H111944   5.631   2.792   1.203  0.3040 -0.0892 -0.4448
 2806WAT     H211945   5.746   2.744   1.147  1.0018 -2.2645  2.6114
 2806WAT    EPW11946   5.708   2.796   1.192  0.3819 -0.2526  0.0496
 2807WAT      O11947   5.688   1.496   1.228  0.5529 -0.6782 -0.6973
 2807WAT     H111948   5.692   1.527   1.310  0.8152  0.4864 -1.1232
 2807WAT     H211949   5.714   1.413   1.236  1.0157 -0.4551  0.3365
 2807WAT    EPW11950   5.693   1.489   1.242  0.6600 -0.4732 -0.6075
 2808WAT      O11951   5.901   1.724   0.121  0.1353  0.4160  0.4258
 2808WAT     H111952   5.829   1.725   0.072  0.4041  0.6773  0.0312
 2808WAT     H211953   5.965   1.737   0.063  0.4979  0.2068  0.7772
 2808WAT    EPW11954   5.900   1.726   0.105  0.2286  0.4237  0.4195
 2809WAT      O11955   6.504   2.546   0.013 -0.1159 -0.1468 -0.5465
 2809WAT     H111956   6.461   2.540   0.089 -0.9727 -1.5273 -1.1041
 2809WAT     H211957   6.486   2.627  -0.015  1.8068  1.1384  1.5894
 2809WAT    EPW11958   6.495   2.557   0.020  0.0415 -0.1609 -0.3134
 2810WAT      O11959   6.030   3.758   7.167  0.1621 -0.0338  0.2059
 2810WAT     H111960   6.101   3.724   7.203  1.1489  0.3729 -1.2620
 2810WAT     H211961   5.973   3.692   7.168  0.6403 -0.4502  1.1319
 2810WAT    EPW11962   6.032   3.743   7.172  0.3785 -0.0352  0.1258
 2811WAT      O11963   6.736   2.107   0.028  0.3973  0.4190  0.0790
 2811WAT     H111964   6.714   2.031   0.064 -0.8853  1.1475  0.9076
 2811WAT     H211965   6.692   2.108  -0.047 -0.2793  0.6871  0.4658
 2811WAT    EPW11966   6.726   2.096   0.023  0.1079  0.5662  0.2585
 2812WAT      O11967   5.599   2.961   0.814 -0.2596  0.0400  0.3318
 2812WAT     H111968   5.573   2.885   0.849  0.0047 -0.2699 -0.1365
 2812WAT     H211969   5.634   3.004   0.882 -1.1406  0.0841  0.7728
 2812WAT    EPW11970   5.600   2.956   0.830 -0.3507  0.0008  0.3278
 2813WAT      O11971   6.631   1.483   7.268  0.5200  0.2712 -0.0127
 2813WAT     H111972   6.578   1.482   7.199 -0.1379  2.5365  0.3873
 2813WAT     H211973   6.605   1.553   7.313  2.2942  0.0589  1.4663
 2813WAT    EPW11974   6.619   1.493   7.265  0.6849  0.5745  0.2649
 2814WAT      O11975   6.317   1.644   7.298 -0.3380 -0.1340 -0.1066
 2814WAT     H111976   6.335   1.722   7.263 -1.4061  0.5237  0.7289
 2814WAT     H211977   6.310   1.592   7.228 -0.9989  0.8312 -0.7966
 2814WAT    EPW11978   6.318   1.648   7.282 -0.5934  0.1057 -0.0851
 2815WAT      O11979   5.451   2.907   1.195 -0.4140 -0.2996 -0.4743
 2815WAT     H111980   5.455   2.975   1.249  0.4996 -0.3615 -0.4433
 2815WAT     H211981   5.388   2.929   1.139  0.1548  0.7778 -0.7241
 2815WAT    EPW11982   5.442   2.920   1.194 -0.1950 -0.1496 -0.5066
 2816WAT      O11983   6.654   3.916   2.721 -0.5622  0.2482  0.0762
 2816WAT     H111984   6.688   3.939   2.644  0.3439  1.8510  0.8863
 2816WAT     H211985   6.573   3.949   2.718 -1.2635 -1.4819 -0.9400
 2816WAT    EPW11986   6.647   3.925   2.709 -0.5319  0.2294  0.0457
 2817WAT      O11987   6.635   0.624   3.012 -0.7314 -0.2623  0.8157
 2817WAT     H111988   6.626   0.648   3.095 -0.8764 -1.9817  1.3472
 2817WAT     H211989   6.676   0.691   2.975 -0.8078  0.6082  2.2376
 2817WAT    EPW11990   6.640   0.637   3.019 -0.7641 -0.3877  1.1043
 2818WAT      O11991   6.113   1.746   0.751 -0.5538  0.3277  0.3517
 2818WAT     H111992   6.119   1.805   0.687 -1.4994 -1.8382 -1.9359
 2818WAT     H211993   6.196   1.722   0.764 -0.4156 -0.1548 -1.1413
 2818WAT    EPW11994   6.126   1.751   0.743 -0.6731 -0.0635 -0.2067
 2819WAT      O11995   6.948   0.108   0.121  0.0351  0.4973 -0.4033
 2819WAT     H111996   6.946   0.121   0.034 -0.2418  1.2148 -0.2995
 2819WAT     H211997   7.022   0.147   0.146 -0.6524  1.6928 -0.1280
 2819WAT    EPW11998   6.958   0.116   0.112 -0.1074  0.7799 -0.3473
 2820WAT      O11999   6.423   0.434   0.031  0.2636  0.2340 -0.0407
 2820WAT     H112000   6.357   0.378   0.022  0.2400  0.0254  1.2726
 2820WAT     H212001   6.481   0.406  -0.029  0.8396 -2.0911  1.4716
 2820WAT    EPW12002   6.422   0.421   0.021  0.3452 -0.1403  0.3767
 2821WAT      O12003   5.483   2.902   7.268 -0.0890 -0.0074  0.3203
 2821WAT     H112004   5.466   2.876   7.187 -0.2110  1.4153 -0.1423
 2821WAT     H212005   5.427   2.968   7.281  0.0745 -0.0662  1.4789
 2821WAT    EPW12006   5.472   2.908   7.258 -0.0829  0.1941  0.4231
 2822WAT      O12007   6.054   4.236   7.843  0.0244  0.3833 -0.0973
 2822WAT     H112008   5.981   4.190   7.841 -0.6194  1.2766  1.1836
 2822WAT     H212009   6.037   4.300   7.901  1.1751  1.6904 -1.1177
 2822WAT    EPW12010   6.041   4.239   7.852  0.0993  0.7084 -0.0588
 2823WAT      O12011   6.546   6.917   7.518 -0.0671  0.0974 -0.6028
 2823WAT     H112012   6.504   6.883   7.586 -1.1869  1.8201 -0.3844
 2823WAT     H212013   6.493   6.899   7.450  0.5833 -0.7679 -0.9109
 2823WAT    EPW12014   6.532   6.909   7.518 -0.1364  0.2240 -0.6161
 2824WAT      O12015   5.643   3.431   1.222 -0.5139 -0.8203 -0.0677
 2824WAT     H112016   5.570   3.478   1.212 -0.6072 -0.8184  0.5841
 2824WAT     H212017   5.635   3.367   1.162 -0.1414  0.2695 -1.3314
 2824WAT    EPW12018   5.631   3.428   1.212 -0.4727 -0.6591 -0.1581
 2825WAT      O12019   4.600   2.668   1.109  0.0902  0.0300  0.3234
 2825WAT     H112020   4.561   2.699   1.181 -0.8425  0.0656 -0.1849
 2825WAT     H212021   4.558   2.593   1.093 -1.9309  1.5207 -1.9638
 2825WAT    EPW12022   4.588   2.661   1.118 -0.3461  0.2555 -0.0896
 2826WAT      O12023   6.863   1.922   7.505 -0.2480 -0.0673 -0.4526
 2826WAT     H112024   6.902   1.992   7.470 -0.3346  0.0459 -0.3281
 2826WAT     H212025   6.795   1.956   7.548 -0.6494 -0.2927 -0.9026
 2826WAT    EPW12026   6.859   1.937   7.506 -0.3201 -0.0839 -0.5007
 2827WAT      O12027   5.291   1.128   7.407  0.6259 -0.3474 -0.0768
 2827WAT     H112028   5.281   1.042   7.408 -0.1916 -0.2572 -0.0408
 2827WAT     H212029   5.273   1.152   7.489  2.2215 -0.2722  0.2891
 2827WAT    EPW12030   5.287   1.119   7.419  0.7409 -0.3229 -0.0174
 2828WAT      O12031   6.492   4.255   1.757 -0.1705 -0.2398  0.0037
 2828WAT     H112032   6.426   4.308   1.778  0.9954  1.2935 -0.0475
 2828WAT     H212033   6.473   4.230   1.675 -1.9918 -1.9741  0.8636
 2828WAT    EPW12034   6.479   4.259   1.748 -0.2673 -0.2695  0.1232
 2829WAT      O12035   6.752   1.354   0.505  0.2513 -0.0785 -0.1662
 2829WAT     H112036   6.803   1.285   0.485  1.2905  0.4861  0.4269
 2829WAT     H212037   6.790   1.420   0.463  0.0629  0.3707  0.3647
 2829WAT    EPW12038   6.765   1.353   0.496  0.3770  0.0713 -0.0001
 2830WAT      O12039   4.651   7.451   7.595  0.0101 -0.2404  0.4760
 2830WAT     H112040   4.567   7.475   7.599 -0.1657 -0.9606  2.0190
 2830WAT     H212041   4.694   7.527   7.593 -0.6432  0.1904  1.6571
 2830WAT    EPW12042   4.645   7.466   7.595 -0.1123 -0.2832  0.8784
 2831WAT      O12043   6.962   3.041   1.975 -0.0724  0.8790 -1.1630
 2831WAT     H112044   6.960   2.965   1.933 -0.3536  0.8155 -1.0412
 2831WAT     H212045   6.927   3.022   2.053 -2.1696  1.5505 -1.8499
 2831WAT    EPW12046   6.956   3.027   1.980 -0.4237  0.9688 -1.2464
 2832WAT      O12047   6.483   1.180   0.366 -0.3924 -0.6221 -0.7255
 2832WAT     H112048   6.428   1.143   0.422 -1.4217 -0.2546 -1.4734
 2832WAT     H212049   6.509   1.252   0.408 -0.5445 -0.7494 -0.4102
 2832WAT    EPW12050   6.479   1.185   0.381 -0.5669 -0.5866 -0.7894
 2833WAT      O12051   6.904   1.460   1.382 -0.7475 -0.4962  0.0252
 2833WAT     H112052   6.839   1.405   1.401  0.2539 -1.7369 -0.0022
 2833WAT     H212053   6.964   1.442   1.443 -0.1816  0.1903 -0.3192
 2833WAT    EPW12054   6.903   1.449   1.394 -0.5160 -0.5781 -0.0298
 2834WAT      O12055   5.658   0.686   0.838 -0.0792  0.1725  0.0266
 2834WAT     H112056   5.628   0.664   0.917  0.8293 -1.4627 -0.0277
 2834WAT     H212057   5.622   0.627   0.785 -0.4404  1.0718 -0.7405
 2834WAT    EPW12058   5.649   0.674   0.842  0.0017  0.0638 -0.0947
 2835WAT      O12059   6.774   3.443   7.547  0.3541  0.2646 -0.1450
 2835WAT     H112060   6.817   3.391   7.602 -0.2988 -0.0893  0.0403
 2835WAT     H212061   6.698   3.402   7.535 -0.1030  1.0883 -0.1322
 2835WAT    EPW12062   6.769   3.429   7.553  0.1901  0.3340 -0.1157
 2836WAT      O12063   6.587   2.198   0.558  0.3490  0.4623  0.2782
 2836WAT     H112064   6.519   2.242   0.527  0.3821  0.7273  0.5819
 2836WAT     H212065   6.656   2.240   0.526  0.3720 -0.0884 -0.4223
 2836WAT    EPW12066   6.588   2.210   0.549  0.3573  0.4201  0.2196
 2837WAT      O12067   5.526   3.294   1.635 -0.0451  0.2579  0.0098
 2837WAT     H112068   5.445   3.262   1.631  0.6981 -2.0347  1.5358
 2837WAT     H212069   5.519   3.361   1.691 -1.0850  0.9321 -0.8822
 2837WAT    EPW12070   5.513   3.299   1.643 -0.0890  0.0188  0.1035
 2838WAT      O12071   4.773   2.763   0.918  0.0736  0.1926 -0.3161
 2838WAT     H112072   4.720   2.819   0.877 -0.1164  1.8706  2.0436
 2838WAT     H212073   4.728   2.740   0.989  1.6486 -0.0126  0.6682
 2838WAT    EPW12074   4.758   2.768   0.923  0.2782  0.4101  0.1779
 2839WAT      O12075   6.956   2.636   1.008 -0.0748  0.2703 -0.1214
 2839WAT     H112076   7.012   2.637   0.941 -1.7358 -1.1640 -1.6262
 2839WAT     H212077   6.958   2.719   1.036  1.7660  0.5700 -0.9626
 2839WAT    EPW12078   6.965   2.649   1.002 -0.0482  0.1027 -0.4680
 2840WAT      O12079   7.073   0.461   1.299 -0.2991 -0.7310 -0.2992
 2840WAT     H112080   7.112   0.390   1.267  0.3845 -0.2291 -0.5921
 2840WAT     H212081   7.029   0.430   1.368  0.8160 -1.2562  0.1909
 2840WAT    EPW12082   7.072   0.446   1.304 -0.0334 -0.7344 -0.2700
 2841WAT      O12083   6.861   2.731   0.660  0.0094  0.6439  0.5462
 2841WAT     H112084   6.808   2.690   0.716 -0.9814  1.1341 -0.0043
 2841WAT     H212085   6.810   2.745   0.590  1.5584 -1.2351 -1.0941
 2841WAT    EPW12086   6.846   2.727   0.658  0.0919  0.4388  0.2226
 2842WAT      O12087   4.851   2.963   1.551 -0.3082  0.3570  0.5239
 2842WAT     H112088   4.897   2.977   1.478  0.9376  1.3543  1.4726
 2842WAT     H212089   4.768   2.973   1.525  0.0704  0.0501 -0.8873
 2842WAT    EPW12090   4.845   2.966   1.536 -0.0682  0.4590  0.4556
 2843WAT      O12091   6.481   3.104   0.732  0.5218  0.6510 -0.0787
 2843WAT     H112092   6.557   3.079   0.697  0.9654  2.2624 -0.3203
 2843WAT     H212093   6.504   3.143   0.806 -0.3114 -1.3260  1.3232
 2843WAT    EPW12094   6.495   3.106   0.737  0.4643  0.5970  0.0927
 2844WAT      O12095   5.945   0.542   0.843 -0.1213 -0.1609  0.0871
 2844WAT     H112096   5.876   0.596   0.838  0.3810  0.4097 -0.8204
 2844WAT     H212097   5.908   0.464   0.858 -1.0511 -0.0236 -1.3171
 2844WAT    EPW12098   5.929   0.539   0.845 -0.1845 -0.0563 -0.2544
 2845WAT      O12099   6.797   0.567   2.280  0.3282  0.2834 -0.1298
 2845WAT     H112100   6.846   0.520   2.226 -0.3088 -0.3004 -0.2170
 2845WAT     H212101   6.760   0.626   2.227  0.6708  0.5101 -0.1188
 2845WAT    EPW12102   6.798   0.569   2.264  0.2847  0.2306 -0.1411
 2846WAT      O12103   6.196   2.198   0.689  0.2867  0.3327  0.0822
 2846WAT     H112104   6.145   2.255   0.731 -0.0487 -0.2156  0.4330
 2846WAT     H212105   6.271   2.202   0.732 -0.1284 -0.4020  0.9108
 2846WAT    EPW12106   6.199   2.207   0.701  0.1759  0.1432  0.2564
 2847WAT      O12107   5.875   1.842   1.551  0.5670  0.2189 -0.7679
 2847WAT     H112108   5.800   1.875   1.521 -0.2252 -0.4204  0.4511
 2847WAT     H212109   5.933   1.863   1.489 -0.9040 -0.6798 -2.5507
 2847WAT    EPW12110   5.873   1.850   1.537  0.2327 -0.0083 -0.8512
 2848WAT      O12111   6.923   4.329   1.261  0.2894  0.3674  0.2639
 2848WAT     H112112   6.874   4.257   1.257  0.4694  0.2081  0.8534
 2848WAT     H212113   6.975   4.315   1.330  0.5996  0.8887  0.1422
 2848WAT    EPW12114   6.923   4.316   1.271  0.3618  0.4209  0.3330
 2849WAT      O12115   6.175   2.405   0.049  0.3337 -0.2789 -0.3277
 2849WAT     H112116   6.235   2.445   0.098  0.6681  0.0629 -1.0068
 2849WAT     H212117   6.160   2.461  -0.015 -1.3479  0.0314  0.2703
 2849WAT    EPW12118   6.182   2.419   0.047  0.1347 -0.1825 -0.3397
 2850WAT      O12119   5.179   2.643   0.459  0.4574 -0.5835  0.2737
 2850WAT     H112120   5.128   2.573   0.453  0.9993 -1.3032  2.9915
 2850WAT     H212121   5.122   2.708   0.476  0.1423 -0.6494 -0.4558
 2850WAT    EPW12122   5.163   2.642   0.460  0.4909 -0.6996  0.5674
 2851WAT      O12123   4.879   1.492   1.542  0.3158  0.0574  0.3867
 2851WAT     H112124   4.964   1.488   1.521  0.1060  1.7252 -1.0421
 2851WAT     H212125   4.879   1.536   1.617  0.7115  0.1946  0.3111
 2851WAT    EPW12126   4.892   1.498   1.550  0.3433  0.3240  0.1645
 2852WAT      O12127   6.165   1.694   1.452 -0.3063  0.0217 -0.4696
 2852WAT     H112128   6.221   1.743   1.499 -1.5350  0.1508  0.9336
 2852WAT     H212129   6.122   1.753   1.404  0.2497 -0.0080 -1.0184
 2852WAT    EPW12130   6.167   1.710   1.452 -0.4057  0.0364 -0.3434
 2853WAT      O12131   6.165   4.855   1.224  0.6055  0.4321  0.3150
 2853WAT     H112132   6.178   4.863   1.138 -0.6825 -2.2457 -0.2138
 2853WAT     H212133   6.221   4.792   1.247 -0.4314 -0.2480  1.0248
 2853WAT    EPW12134   6.175   4.847   1.214  0.2621 -0.0639  0.3417
 2854WAT      O12135   6.614   2.707   0.467 -0.4493  0.8304  0.3980
 2854WAT     H112136   6.585   2.646   0.523 -1.2546  1.3872  0.5997
 2854WAT     H212137   6.654   2.660   0.405  0.2767  0.1855  1.3194
 2854WAT    EPW12138   6.616   2.691   0.466 -0.4610  0.8174  0.5639
 2855WAT      O12139   6.285   0.521   6.959  0.4420  0.6094 -0.3844
 2855WAT     H112140   6.215   0.515   6.907  1.0311  0.7600 -1.2073
 2855WAT     H212141   6.252   0.553   7.033 -1.0743 -2.9943  0.7231
 2855WAT    EPW12142   6.270   0.525   6.962  0.3050  0.0993 -0.3423
 2856WAT      O12143   6.762   0.158   3.137 -0.2646  0.2530 -0.0469
 2856WAT     H112144   6.776   0.164   3.223  1.8013 -0.6114 -0.2613
 2856WAT     H212145   6.831   0.198   3.102 -1.1579  0.7300 -1.3210
 2856WAT    EPW12146   6.774   0.165   3.145 -0.0914  0.1958 -0.2668
 2857WAT      O12147   6.763   3.457   1.060 -0.0171  0.1198  0.1474
 2857WAT     H112148   6.792   3.538   1.075  0.2653  0.0064  0.2388
 2857WAT     H212149   6.700   3.447   1.119 -0.0740  0.2835  0.1163
 2857WAT    EPW12150   6.758   3.468   1.071  0.0162  0.1272  0.1563
 2858WAT      O12151   5.973   2.116   2.597 -0.4426  0.4183 -0.0221
 2858WAT     H112152   5.924   2.121   2.525  1.2500 -1.4235 -1.3913
 2858WAT     H212153   6.054   2.131   2.568  0.2168  0.1228  1.5775
 2858WAT    EPW12154   5.977   2.119   2.582 -0.0952  0.1026  0.0119
 2859WAT      O12155   4.387   3.127   1.689  0.0429 -0.0457  0.4044
 2859WAT     H112156   4.380   3.213   1.681 -0.1954 -0.2243 -2.0854
 2859WAT     H212157   4.306   3.102   1.707 -0.7606  0.0393 -2.5498
 2859WAT    EPW12158   4.374   3.136   1.690 -0.1110 -0.0595 -0.3998
 2860WAT      O12159   6.928   2.099   0.629 -0.5393 -0.3794  0.5337
 2860WAT     H112160   6.915   2.091   0.715  0.0252 -0.8871  0.5732
 2860WAT     H212161   6.878   2.168   0.608 -1.7560 -1.0832  1.0152
 2860WAT    EPW12162   6.919   2.108   0.638 -0.6357 -0.5584  0.6107
 2861WAT      O12163   5.843   7.661   7.791 -0.2353 -0.1795 -0.4623
 2861WAT     H112164   5.830   7.723   7.851  1.2866  0.0570 -0.3507
 2861WAT     H212165   5.780   7.602   7.809 -1.0448  0.8241  0.0829
 2861WAT    EPW12166   5.831   7.661   7.803 -0.1301  0.0037 -0.3652
 2862WAT      O12167   6.755   2.206   2.128  0.1341  0.0521 -0.1343
 2862WAT     H112168   6.673   2.234   2.140  0.2948  0.8857 -0.9026
 2862WAT     H212169   6.786   2.200   2.210 -0.2803  1.0134  0.1074
 2862WAT    EPW12170   6.748   2.209   2.142  0.0966  0.3172 -0.2121
 2863WAT      O12171   7.225   3.245   7.776 -0.1175 -0.1669  0.1279
 2863WAT     H112172   7.250   3.201   7.704 -0.7489 -0.4196  0.0502
 2863WAT     H212173   7.235   3.186   7.840 -1.7742 -0.7567 -0.0925
 2863WAT    EPW12174   7.230   3.230   7.775 -0.4555 -0.2913  0.0839
 2864WAT      O12175   6.047   3.300   1.579  0.3881  0.1341  0.1537
 2864WAT     H112176   6.091   3.291   1.504 -0.0421 -1.6265  0.0700
 2864WAT     H212177   6.062   3.383   1.602  0.2852  0.8202 -2.0239
 2864WAT    EPW12178   6.055   3.311   1.572  0.3094 -0.0247 -0.1803
 2865WAT      O12179   6.448   6.448   1.561  0.0122 -0.7955  0.0829
 2865WAT     H112180   6.407   6.461   1.485 -0.2381  1.9557  0.5588
 2865WAT     H212181   6.394   6.484   1.620  1.7953  0.4628  1.0577
 2865WAT    EPW12182   6.434   6.456   1.558  0.2386 -0.2032  0.2972
 2866WAT      O12183   5.704   0.191   7.468 -0.6615 -0.1192 -0.3153
 2866WAT     H112184   5.717   0.245   7.536  0.0897  1.0852 -1.3760
 2866WAT     H212185   5.751   0.121   7.489 -0.4634  0.2225  0.4244
 2866WAT    EPW12186   5.713   0.189   7.481 -0.5213  0.1092 -0.3627
 2867WAT      O12187   6.744   1.363   1.000 -0.3666 -0.0943  0.2481
 2867WAT     H112188   6.779   1.404   0.932 -0.5518  1.6195  1.1153
 2867WAT     H212189   6.813   1.336   1.046 -0.2378 -0.6541 -0.2739
 2867WAT    EPW12190   6.760   1.365   0.997 -0.3749  0.0762  0.2991
 2868WAT      O12191   6.609   2.746   1.502 -0.1005  0.3948  0.2179
 2868WAT     H112192   6.547   2.792   1.461 -2.1480 -3.0848 -1.0389
 2868WAT     H212193   6.654   2.709   1.437  0.2437 -0.7843  1.0889
 2868WAT    EPW12194   6.606   2.747   1.487 -0.3521 -0.2934  0.1609
 2869WAT      O12195   6.853   3.508   2.040 -0.2540  0.1225 -0.3895
 2869WAT     H112196   6.807   3.555   1.983 -0.7889  0.1188  0.0344
 2869WAT     H212197   6.865   3.563   2.107  0.4162  0.1440 -0.5164
 2869WAT    EPW12198   6.848   3.523   2.042 -0.2340  0.1252 -0.3456
 2870WAT      O12199   6.355   2.525   1.038 -0.1325  0.5060 -0.1138
 2870WAT     H112200   6.284   2.481   1.061  0.6906 -0.7379  0.1659
 2870WAT     H212201   6.347   2.601   1.080 -1.2736  0.3789 -0.0754
 2870WAT    EPW12202   6.344   2.529   1.047 -0.1795  0.3034 -0.0668
 2871WAT      O12203   6.621   1.893   1.735 -0.0189 -0.0841 -0.1821
 2871WAT     H112204   6.672   1.872   1.802 -1.3908  1.0827  1.3077
 2871WAT     H212205   6.582   1.818   1.714 -0.8915 -0.1439  1.5238
 2871WAT    EPW12206   6.623   1.879   1.742 -0.3505  0.0794  0.2900
 2872WAT      O12207   4.559   2.156   1.588  0.2871 -0.4227 -0.0847
 2872WAT     H112208   4.500   2.209   1.624  1.9454  1.2534  0.2903
 2872WAT     H212209   4.614   2.140   1.653  0.2695 -1.9939 -0.4223
 2872WAT    EPW12210   4.558   2.161   1.603  0.5294 -0.4072 -0.0792
 2873WAT      O12211   6.230   2.146   7.806 -0.2279  0.0734  0.6173
 2873WAT     H112212   6.210   2.226   7.837 -1.6724  0.9635 -2.2519
 2873WAT     H212213   6.308   2.157   7.770 -1.8087  1.3605 -2.8684
 2873WAT    EPW12214   6.238   2.160   7.805 -0.6748  0.3950 -0.3215
 2874WAT      O12215   5.912   7.400   0.116  1.0094 -0.4999  0.3717
 2874WAT     H112216   5.968   7.384   0.051 -0.8134 -1.9972 -0.9388
 2874WAT     H212217   5.904   7.322   0.155  1.6079  0.2416  2.0746
 2874WAT    EPW12218   5.919   7.386   0.112  0.8286 -0.6115  0.4297
 2875WAT      O12219   6.860   3.887   0.730 -0.0871  0.3460  0.3862
 2875WAT     H112220   6.927   3.889   0.674 -0.6678 -1.8307 -0.4915
 2875WAT     H212221   6.821   3.811   0.712 -1.9934  0.9195  1.8136
 2875WAT    EPW12222   6.864   3.876   0.719 -0.4545  0.1092  0.4674
 2876WAT      O12223   6.667   1.749   0.822 -0.1431  0.2560  0.0907
 2876WAT     H112224   6.662   1.695   0.890 -0.7103  0.0839 -0.0837
 2876WAT     H212225   6.752   1.747   0.801  0.0735  0.4604  0.9022
 2876WAT    EPW12226   6.679   1.741   0.829 -0.1949  0.2608  0.1848
 2877WAT      O12227   6.625   2.748   7.430 -0.5687  0.5387 -0.4445
 2877WAT     H112228   6.673   2.794   7.374 -0.3893  0.6860 -0.1710
 2877WAT     H212229   6.608   2.805   7.494 -0.9225  0.4244 -0.4327
 2877WAT    EPW12230   6.629   2.763   7.431 -0.5945  0.5436 -0.4024
 2878WAT      O12231   5.805   0.905   0.808  0.0629 -0.0220 -0.0193
 2878WAT     H112232   5.775   0.830   0.840  1.0484 -0.0337  0.9436
 2878WAT     H212233   5.751   0.923   0.742 -1.9211 -0.1072  1.5074
 2878WAT    EPW12234   5.793   0.897   0.803 -0.0846 -0.0363  0.3485
 2879WAT      O12235   6.535   0.792   0.120  0.4602  0.2346 -0.3241
 2879WAT     H112236   6.504   0.783   0.039  0.7962 -0.9983 -0.3246
 2879WAT     H212237   6.620   0.778   0.112  0.7003  1.3529  0.0565
 2879WAT    EPW12238   6.543   0.789   0.107  0.5453  0.2177 -0.2679
 2880WAT      O12239   6.262   1.907   7.595  0.2116 -0.2073  0.3782
 2880WAT     H112240   6.223   1.981   7.569  2.1428  1.0199  0.7815
 2880WAT     H212241   6.240   1.901   7.679  2.0806  1.3861  1.0600
 2880WAT    EPW12242   6.253   1.917   7.603  0.7730  0.2094  0.5385
 2881WAT      O12243   6.115   1.373   2.051 -0.0300  0.8588 -0.4440
 2881WAT     H112244   6.140   1.450   2.082 -2.1617  0.8125  1.6248
 2881WAT     H212245   6.176   1.318   2.082  1.3693  1.5995 -1.7412
 2881WAT    EPW12246   6.128   1.376   2.060 -0.1382  0.9614 -0.3300
 2882WAT      O12247   6.451   1.826   0.697  0.0475  0.2819 -0.2088
 2882WAT     H112248   6.521   1.794   0.737 -0.4939  0.8570  1.2568
 2882WAT     H212249   6.424   1.891   0.749 -1.2028  0.4958 -1.0528
 2882WAT    EPW12250   6.457   1.831   0.710 -0.2172  0.3985 -0.1170
 2883WAT      O12251   6.657   2.069   1.014 -0.5730 -0.0403  0.4884
 2883WAT     H112252   6.707   2.026   1.070 -0.6030  0.7264  1.1221
 2883WAT     H212253   6.645   2.147   1.052  0.7328  1.1154 -1.2965
 2883WAT    EPW12254   6.662   2.074   1.028 -0.3845  0.2437  0.3184
 2884WAT      O12255   5.630   1.478   6.743 -0.3481  0.4952  0.1814
 2884WAT     H112256   5.621   1.562   6.765 -1.6240  0.5998 -0.6659
 2884WAT     H212257   5.624   1.478   6.656 -1.1898 -0.5480  0.2100
 2884WAT    EPW12258   5.628   1.490   6.733 -0.6609  0.3565  0.0604
 2885WAT      O12259   6.855   1.597   0.412  0.1293  0.2481 -0.0632
 2885WAT     H112260   6.811   1.667   0.440  0.7139  2.0538 -3.2367
 2885WAT     H212261   6.935   1.629   0.396  0.7542 -1.4471 -0.5203
 2885WAT    EPW12262   6.860   1.612   0.414  0.3080  0.2644 -0.5995
 2886WAT      O12263   5.507   0.720   0.005  0.7471  0.3313 -0.1333
 2886WAT     H112264   5.577   0.668  -0.004 -1.1259 -2.4340  0.1054
 2886WAT     H212265   5.440   0.667  -0.011 -1.3620  2.7722  0.0092
 2886WAT    EPW12266   5.507   0.705   0.001  0.1589  0.2834 -0.0770
 2887WAT      O12267   5.719   0.672   1.377 -0.5561 -0.0066  0.7398
 2887WAT     H112268   5.803   0.670   1.357 -0.9236 -0.4843 -0.8434
 2887WAT     H212269   5.695   0.754   1.356 -0.5393  0.0757  1.0298
 2887WAT    EPW12270   5.728   0.684   1.371 -0.6079 -0.0650  0.5488
 2888WAT      O12271   6.375   1.736   2.303  0.1833  0.2187  0.8093
 2888WAT     H112272   6.450   1.750   2.260 -0.4037  1.1201  0.0400
 2888WAT     H212273   6.332   1.811   2.294 -1.2632 -0.6257  0.3278
 2888WAT    EPW12274   6.380   1.749   2.295 -0.1171  0.2271  0.6245
 2889WAT      O12275   6.932   3.614   1.607  0.2925  0.1657  0.1428
 2889WAT     H112276   6.987   3.681   1.596 -0.3468  0.4903 -1.2912
 2889WAT     H212277   6.963   3.553   1.553 -0.3819  0.1205 -0.2022
 2889WAT    EPW12278   6.944   3.615   1.598  0.0984  0.2070 -0.1200
 2890WAT      O12279   6.028   4.069   2.070 -0.0007  0.7271  0.9719
 2890WAT     H112280   6.006   4.060   2.154  1.0572  3.0059  1.5631
 2890WAT     H212281   5.966   4.024   2.028 -1.2010  0.4570  2.9012
 2890WAT    EPW12282   6.015   4.061   2.076 -0.0217  1.0238  1.3442
 2891WAT      O12283   6.438   2.119   0.783  0.5567  0.1210 -0.3891
 2891WAT     H112284   6.489   2.158   0.724  1.8187  2.0401  1.7799
 2891WAT     H212285   6.475   2.140   0.859 -2.3201 -0.1586  1.2364
 2891WAT    EPW12286   6.451   2.128   0.785  0.3181  0.3632  0.1714
 2892WAT      O12287   5.807   2.471   1.861 -0.2024  0.3326 -0.1996
 2892WAT     H112288   5.753   2.532   1.891 -0.8384  0.3835 -1.4060
 2892WAT     H212289   5.885   2.494   1.894 -0.8228  0.4697  1.2424
 2892WAT    EPW12290   5.811   2.483   1.871 -0.3880  0.3604 -0.1648
 2893WAT      O12291   5.169   4.077   2.133  0.0192  0.0070  0.2627
 2893WAT     H112292   5.113   4.138   2.160 -0.3323 -0.2585  0.1375
 2893WAT     H212293   5.184   4.029   2.204 -1.0135 -0.7748 -0.0343
 2893WAT    EPW12294   5.163   4.079   2.147 -0.1852 -0.1477  0.2003
 2894WAT      O12295   5.421   3.588   1.191 -0.0354 -0.3601 -0.2844
 2894WAT     H112296   5.445   3.665   1.158  1.1846 -0.6107 -0.0085
 2894WAT     H212297   5.365   3.557   1.131 -0.7810  0.8631 -0.2450
 2894WAT    EPW12298   5.416   3.595   1.177  0.0347 -0.2164 -0.2379
 2895WAT      O12299   6.296   1.553   0.827  0.3112  0.3296 -0.5821
 2895WAT     H112300   6.365   1.512   0.794  0.1682 -0.6303  0.2457
 2895WAT     H212301   6.307   1.545   0.913 -0.8159  0.1553 -0.4356
 2895WAT    EPW12302   6.308   1.545   0.835  0.1236  0.1621 -0.4382
 2896WAT      O12303   6.674   0.411   1.650 -0.0853 -0.2315  0.4883
 2896WAT     H112304   6.602   0.454   1.629  1.2821  1.4856 -1.0320
 2896WAT     H212305   6.694   0.441   1.729  0.6875  1.8231 -0.4299
 2896WAT    EPW12306   6.667   0.422   1.658  0.2308  0.3257  0.1281
 2897WAT      O12307   5.846   0.966   1.320  0.5167  0.2269  0.8256
 2897WAT     H112308   5.800   1.038   1.302 -1.2104 -1.1330 -0.5320
 2897WAT     H212309   5.887   0.949   1.245 -2.0845 -2.2014 -0.2422
 2897WAT    EPW12310   5.845   0.974   1.306 -0.1227 -0.3327  0.4673
 2898WAT      O12311   5.590   0.413   0.711 -0.0243  0.0300 -0.3736
 2898WAT     H112312   5.507   0.386   0.705 -0.0154  0.0591 -0.6396
 2898WAT     H212313   5.632   0.344   0.742 -0.0749 -0.1231 -0.6433
 2898WAT    EPW12314   5.584   0.399   0.715 -0.0305  0.0117 -0.4527
 2899WAT      O12315   6.463   2.857   0.864  0.3904 -0.4018  0.5839
 2899WAT     H112316   6.465   2.935   0.825  2.6868 -1.2498 -1.2508
 2899WAT     H212317   6.406   2.811   0.817  0.6317 -0.4361  0.3229
 2899WAT    EPW12318   6.455   2.861   0.851  0.7653 -0.5321  0.2743
 2900WAT      O12319   6.829   0.690   1.445  0.1305 -0.0904  0.7016
 2900WAT     H112320   6.869   0.614   1.460  0.4178  0.0153  0.4867
 2900WAT     H212321   6.881   0.730   1.387 -1.2527 -0.7920 -1.1444
 2900WAT    EPW12322   6.842   0.685   1.438 -0.0314 -0.1784  0.3971
 2901WAT      O12323   6.606   3.560   0.336 -0.3482  0.1720  0.0126
 2901WAT     H112324   6.619   3.476   0.315  2.1163  0.6535 -0.7597
 2901WAT     H212325   6.522   3.573   0.319 -0.8722 -2.2149  0.4787
 2901WAT    EPW12326   6.596   3.549   0.330 -0.0615 -0.1094 -0.0326
 2902WAT      O12327   5.364   2.990   0.105 -0.0453  0.2563  0.2177
 2902WAT     H112328   5.314   3.056   0.130  0.4503  0.3839  0.9198
 2902WAT     H212329   5.366   2.938   0.175  0.2273 -0.0952 -0.0431
 2902WAT    EPW12330   5.357   2.992   0.119  0.0682  0.2232  0.2829
 2903WAT      O12331   6.289   1.827   0.220  0.8024  0.2790 -0.6111
 2903WAT     H112332   6.375   1.840   0.216  0.6425  4.7644  2.6809
 2903WAT     H212333   6.279   1.778   0.291  0.6176  0.3601 -0.5811
 2903WAT    EPW12334   6.300   1.822   0.230  0.7515  0.9536 -0.1203
 2904WAT      O12335   6.794   3.226   6.096  0.5177  0.1081  0.6542
 2904WAT     H112336   6.757   3.290   6.142  1.0326 -1.3280  3.3357
 2904WAT     H212337   6.879   3.234   6.115  0.8677 -0.1134 -0.7096
 2904WAT    EPW12338   6.801   3.236   6.106  0.6455 -0.1367  0.8489
 2905WAT      O12339   6.297   0.627   0.442  0.1180 -0.9919 -0.5005
 2905WAT     H112340   6.356   0.690   0.452 -0.0796 -0.8470 -0.2357
 2905WAT     H212341   6.342   0.563   0.402  0.7528 -1.3034  0.6437
 2905WAT    EPW12342   6.313   0.627   0.437  0.1826 -1.0165 -0.2924
 2906WAT      O12343   6.947   2.640   0.038  0.3548 -0.0579  0.0869
 2906WAT     H112344   6.874   2.614   0.078  1.4984 -2.1376  0.9649
 2906WAT     H212345   6.959   2.721   0.067 -1.0977 -0.0129  0.6384
 2906WAT    EPW12346   6.938   2.648   0.048  0.3092 -0.3584  0.2980
 2907WAT      O12347   6.379   0.226   2.398 -0.4567  0.1938  0.1125
 2907WAT     H112348   6.426   0.266   2.336 -0.2746  1.0959  0.8233
 2907WAT     H212349   6.439   0.195   2.453 -0.5891 -1.1488 -0.4537
 2907WAT    EPW12350   6.394   0.227   2.397 -0.4494  0.1287  0.1338
 2908WAT      O12351   5.817   2.555   1.147  0.5661 -0.4041 -0.3222
 2908WAT     H112352   5.859   2.555   1.223 -0.2730 -1.4420  0.1632
 2908WAT     H212353   5.879   2.536   1.089  0.8389 -1.5947  0.3413
 2908WAT    EPW12354   5.832   2.552   1.150  0.4824 -0.7333 -0.1525
 2909WAT      O12355   6.351   0.676   2.339 -0.0903  0.4367 -0.1105
 2909WAT     H112356   6.403   0.698   2.272  0.7334  0.4078  0.5078
 2909WAT     H212357   6.335   0.752   2.379  1.6830  0.1528  1.2560
 2909WAT    EPW12358   6.356   0.691   2.335  0.2933  0.3905  0.1827
 2910WAT      O12359   6.272   4.208   2.329  0.3915 -0.0487  0.6359
 2910WAT     H112360   6.309   4.139   2.292 -0.7848 -0.9280  1.0540
 2910WAT     H212361   6.341   4.257   2.355  1.2269 -0.8446 -0.0216
 2910WAT    EPW12362   6.288   4.205   2.328  0.3411 -0.2961  0.6006
 2911WAT      O12363   5.326   2.309   7.744 -0.1546  0.4728  0.1848
 2911WAT     H112364   5.300   2.271   7.818 -0.1684 -0.3360 -0.2216
 2911WAT     H212365   5.284   2.385   7.744 -2.3439 -0.6421 -0.3021
 2911WAT    EPW12366   5.316   2.315   7.755 -0.4801  0.1886  0.0528
 2912WAT      O12367   5.037   2.384   0.454 -0.7995 -0.4660 -0.5297
 2912WAT     H112368   5.012   2.352   0.377 -1.9567 -1.3066  0.1679
 2912WAT     H212369   5.080   2.318   0.492 -1.0650 -0.3793 -0.0647
 2912WAT    EPW12370   5.040   2.370   0.449 -1.0097 -0.5774 -0.3580
 2913WAT      O12371   4.053   3.313   1.585  0.3520 -0.2600  0.0931
 2913WAT     H112372   3.979   3.351   1.558  0.1921 -0.7960 -0.2442
 2913WAT     H212373   4.074   3.358   1.657 -0.9318 -0.8472  0.8705
 2913WAT    EPW12374   4.045   3.325   1.592  0.1387 -0.4259  0.1581
 2914WAT      O12375   7.065   6.855   5.648 -0.1003  0.1162  0.4309
 2914WAT     H112376   7.094   6.776   5.671  1.8069  0.2594 -1.1675
 2914WAT     H212377   7.030   6.887   5.721  0.6325 -1.5340  1.5561
 2914WAT    EPW12378   7.064   6.848   5.662  0.2897 -0.1064  0.3610
 2915WAT      O12379   6.511   7.055   5.708  0.5101  0.2535 -0.2670
 2915WAT     H112380   6.578   7.002   5.727 -0.4303 -1.8443 -2.2932
 2915WAT     H212381   6.550   7.132   5.691  2.5387 -1.0089 -1.9132
 2915WAT    EPW12382   6.527   7.059   5.708  0.6709 -0.2429 -0.8095
 2916WAT      O12383   4.979   0.336   5.291 -0.3781 -0.4940 -0.0715
 2916WAT     H112384   4.990   0.358   5.208  0.7989  0.4578  0.3065
 2916WAT     H212385   5.055   0.299   5.312  0.2783  1.4256  1.2041
 2916WAT    EPW12386   4.992   0.333   5.282 -0.1073 -0.0698  0.1728
 2917WAT      O12387   6.462   6.868   6.793 -0.2177  0.0110 -0.1563
 2917WAT     H112388   6.461   6.854   6.707  1.6088  0.2690 -0.2628
 2917WAT     H212389   6.396   6.820   6.822  0.8665 -2.3885 -1.3830
 2917WAT    EPW12390   6.453   6.859   6.784  0.2123 -0.3053 -0.3533
 2918WAT      O12391   7.258   7.105   7.244  0.2093 -0.7769 -0.0435
 2918WAT     H112392   7.283   7.031   7.285  0.0230 -0.6383  0.3286
 2918WAT     H212393   7.243   7.080   7.162  1.9241 -0.8091 -0.3818
 2918WAT    EPW12394   7.260   7.090   7.238  0.4351 -0.7612 -0.0385
 2919WAT      O12395   5.867   2.315   6.810  0.2113  0.0938 -0.2081
 2919WAT     H112396   5.901   2.315   6.729  0.6715  0.4088 -0.0195
 2919WAT     H212397   5.829   2.237   6.816 -0.4404  0.3320 -0.9803
 2919WAT    EPW12398   5.866   2.304   6.799  0.1830  0.1755 -0.2943
 2920WAT      O12399   5.815   6.652   0.254 -0.5302 -0.2896  0.2767
 2920WAT     H112400   5.738   6.621   0.281  0.0039 -0.7612  1.3115
 2920WAT     H212401   5.814   6.636   0.168 -1.1675 -1.2234  0.4393
 2920WAT    EPW12402   5.804   6.645   0.245 -0.5455 -0.4972  0.4536
 2921WAT      O12403   5.765   6.732   6.998  0.4961 -0.1047  0.5620
 2921WAT     H112404   5.695   6.703   6.954 -0.2772  0.5744  1.2987
 2921WAT     H212405   5.818   6.762   6.936  1.2303 -2.7524 -0.2335
 2921WAT    EPW12406   5.762   6.732   6.982  0.4903 -0.3955  0.5533
 2922WAT      O12407   4.935   1.539   5.835 -0.2609  0.0035 -0.1148
 2922WAT     H112408   4.907   1.559   5.915 -0.4014  0.8291 -0.3544
 2922WAT     H212409   4.890   1.467   5.814 -2.0509  1.1171 -0.3784
 2922WAT    EPW12410   4.924   1.531   5.844 -0.5461  0.2900 -0.1891
 2923WAT      O12411   6.261   0.883   0.836 -0.0039  0.3963  0.2680
 2923WAT     H112412   6.250   0.960   0.875 -0.9586  0.2682  0.2825
 2923WAT     H212413   6.345   0.884   0.811 -0.3506  2.0070 -0.9833
 2923WAT    EPW12414   6.272   0.894   0.838 -0.1961  0.6153  0.0853
 2924WAT      O12415   5.406   0.206   6.300  0.2762  0.5026  0.1866
 2924WAT     H112416   5.485   0.224   6.334  0.3455 -0.9446  0.8658
 2924WAT     H212417   5.356   0.270   6.331  0.6107 -0.0676  2.0291
 2924WAT    EPW12418   5.411   0.218   6.309  0.3359  0.2046  0.5591
 2925WAT      O12419   5.681   0.767   5.561  0.6739  0.0949 -0.3255
 2925WAT     H112420   5.637   0.809   5.499  2.7917  1.3291 -1.0938
 2925WAT     H212421   5.764   0.770   5.533  1.2782 -2.4085  0.8530
 2925WAT    EPW12422   5.687   0.773   5.548  1.0760 -0.0926 -0.2649
 2926WAT      O12423   7.073   6.606   5.765  0.0047  0.3805  0.1385
 2926WAT     H112424   7.004   6.574   5.723  0.1042  0.0435  0.2317
 2926WAT     H212425   7.048   6.605   5.849  0.3414 -0.3165  0.2418
 2926WAT    EPW12426   7.059   6.601   5.772  0.0691  0.2277  0.1676
 2927WAT      O12427   6.977   0.857   6.348 -0.0687 -0.0817 -0.1101
 2927WAT     H112428   6.981   0.841   6.263  0.1730  1.2227 -0.3614
 2927WAT     H212429   6.940   0.936   6.353 -0.1278 -0.1598  0.9921
 2927WAT    EPW12430   6.972   0.866   6.336 -0.0417  0.0995  0.0156
 2928WAT      O12431   7.139   6.859   6.747  0.6386  0.7999  0.2129
 2928WAT     H112432   7.163   6.776   6.763  1.2363  1.0809  0.7955
 2928WAT     H212433   7.077   6.874   6.806  0.8216  0.9040  0.3779
 2928WAT    EPW12434   7.134   6.849   6.758  0.7539  0.8568  0.3233
 2929WAT      O12435   6.932   0.110   6.937  0.4554 -0.4370  0.6341
 2929WAT     H112436   6.876   0.055   6.976 -1.1432  0.2662 -0.5958
 2929WAT     H212437   6.928   0.182   6.987 -0.5499 -0.0199 -0.0325
 2929WAT    EPW12438   6.923   0.112   6.950  0.0708 -0.2715  0.3539
 2930WAT      O12439   4.878   0.518   6.225  0.0080  0.8654  0.8578
 2930WAT     H112440   4.814   0.484   6.273  1.9661  0.5884  3.5438
 2930WAT     H212441   4.853   0.600   6.211 -2.1933 -0.0007 -0.7345
 2930WAT    EPW12442   4.865   0.525   6.230 -0.0279  0.6966  1.0194
 2931WAT      O12443   6.024   7.404   6.761 -0.2282 -0.2230  0.0306
 2931WAT     H112444   6.080   7.470   6.759  0.6601 -0.7220  2.9170
 2931WAT     H212445   6.069   7.338   6.726  1.2867 -0.7068  2.6310
 2931WAT    EPW12446   6.039   7.404   6.756  0.1268 -0.3682  0.8411
 2932WAT      O12447   6.491   6.583   4.978  0.0164  0.2225 -0.0988
 2932WAT     H112448   6.404   6.578   4.977  0.0296 -0.5800  0.7487
 2932WAT     H212449   6.515   6.503   5.004  0.9659  0.6799  0.4808
 2932WAT    EPW12450   6.481   6.570   4.982  0.1586  0.1715  0.1120
 2933WAT      O12451   5.907   0.255   0.066  0.0231 -0.2314 -0.4890
 2933WAT     H112452   5.912   0.337   0.095 -0.9193 -0.7496  1.2721
 2933WAT     H212453   5.989   0.226   0.070  0.0257 -0.0784  1.1837
 2933WAT    EPW12454   5.920   0.263   0.071 -0.1157 -0.2853  0.0182
 2934WAT      O12455   6.309   2.378   7.154  0.3135  0.7841 -0.3767
 2934WAT     H112456   6.238   2.358   7.108  1.4049 -0.5846 -1.5736
 2934WAT     H212457   6.280   2.434   7.214 -1.3878  1.7821 -2.0249
 2934WAT    EPW12458   6.294   2.383   7.156  0.2234  0.7293 -0.7969
 2935WAT      O12459   5.202   0.163   7.357  0.5099  0.1418  0.1451
 2935WAT     H112460   5.277   0.165   7.402  0.8092  1.3115 -0.3856
 2935WAT     H212461   5.181   0.247   7.347 -0.5426 -0.1556 -0.2699
 2935WAT    EPW12462   5.210   0.175   7.362  0.3987  0.2706  0.0054
 2936WAT      O12463   5.950   6.909   6.864  0.5969 -0.6521 -0.1785
 2936WAT     H112464   6.034   6.886   6.858  0.6287 -0.8024  0.7021
 2936WAT     H212465   5.951   6.975   6.921  0.4871  1.5955 -2.5943
 2936WAT    EPW12466   5.963   6.915   6.871  0.5854 -0.3423 -0.4053
 2937WAT      O12467   6.004   0.272   7.607 -0.2301  0.0165  0.2804
 2937WAT     H112468   6.068   0.277   7.666  1.3076 -2.2103 -1.0594
 2937WAT     H212469   5.933   0.253   7.655  0.4494  0.7286  1.6187
 2937WAT    EPW12470   6.003   0.270   7.623  0.0975 -0.2073  0.2802
 2938WAT      O12471   7.031   1.750   7.694 -0.5674 -0.1691  0.4024
 2938WAT     H112472   6.968   1.690   7.684 -0.3605 -0.2469 -0.5200
 2938WAT     H212473   7.024   1.799   7.622  2.3962 -2.0240 -1.3624
 2938WAT    EPW12474   7.021   1.749   7.682 -0.0990 -0.4546  0.0054
 2939WAT      O12475   6.747   0.677   7.142  0.3879  0.0316  0.0985
 2939WAT     H112476   6.712   0.742   7.095  0.2029 -0.5591 -0.6038
 2939WAT     H212477   6.727   0.698   7.224  0.0437  0.6905 -0.1454
 2939WAT    EPW12478   6.738   0.690   7.147  0.3097  0.0417 -0.0413
 2940WAT      O12479   6.004   7.396   7.471  0.1404 -0.4391  0.1989
 2940WAT     H112480   5.949   7.365   7.531 -1.0968  1.3173  0.0526
 2940WAT     H212481   6.082   7.389   7.509 -0.5020 -0.3378  1.5804
 2940WAT    EPW12482   6.008   7.390   7.485 -0.1372 -0.1647  0.3814
 2941WAT      O12483   6.332   0.241   7.565  0.0746  0.7074 -0.1216
 2941WAT     H112484   6.267   0.198   7.525 -0.1889  2.9311 -2.3280
 2941WAT     H212485   6.404   0.202   7.537 -0.1830  1.2699 -1.6806
 2941WAT    EPW12486   6.333   0.229   7.555 -0.0024  1.1189 -0.6778
 2942WAT      O12487   6.538   7.373   6.850  0.3869  0.0924 -0.5062
 2942WAT     H112488   6.585   7.388   6.779 -0.0656  1.2988 -0.5681
 2942WAT     H212489   6.591   7.323   6.899  1.1480  0.2139 -1.1824
 2942WAT    EPW12490   6.553   7.368   6.847  0.4325  0.2886 -0.6152
 2943WAT      O12491   7.031   6.902   7.509  0.4339  0.5792  0.1478
 2943WAT     H112492   6.972   6.845   7.481  1.0549 -1.3809  2.4844
 2943WAT     H212493   6.986   6.977   7.514 -1.3635 -0.4363  0.1416
 2943WAT    EPW12494   7.015   6.905   7.506  0.2601  0.1396  0.4920
 2944WAT      O12495   7.101   7.188   6.376  0.4402 -0.3143  0.2054
 2944WAT     H112496   7.037   7.186   6.435  1.1784  0.5067  1.0781
 2944WAT     H212497   7.167   7.147   6.416  0.6245 -0.6904 -0.4731
 2944WAT    EPW12498   7.101   7.181   6.391  0.5765 -0.2486  0.2341
 2945WAT      O12499   6.706   7.651   6.177 -0.3815 -0.2756  0.1109
 2945WAT     H112500   6.646   7.664   6.239  0.5282  0.4490  0.8689
 2945WAT     H212501   6.699   7.721   6.126  0.7471  0.5415  1.0166
 2945WAT    EPW12502   6.696   7.663   6.179 -0.0804 -0.0478  0.3567
 2946WAT      O12503   4.209   0.953   6.515 -0.5000 -0.0858 -0.3655
 2946WAT     H112504   4.222   1.034   6.488 -1.0029  0.3143  0.5219
 2946WAT     H212505   4.287   0.914   6.505  0.0679  0.8437  0.2906
 2946WAT    EPW12506   4.222   0.959   6.510 -0.4904  0.1106 -0.1375
 2947WAT      O12507   6.278   6.265   6.856  0.1369  0.9395 -0.4631
 2947WAT     H112508   6.239   6.215   6.796  0.3882 -1.3768  1.1451
 2947WAT     H212509   6.226   6.257   6.925  1.7324  0.4384  0.7368
 2947WAT    EPW12510   6.265   6.256   6.857  0.4097  0.5233 -0.0483
 2948WAT      O12511   4.242   0.880   7.312 -0.4759  0.3560  0.6716
 2948WAT     H112512   4.254   0.900   7.228 -0.3809 -0.7797  0.3873
 2948WAT     H212513   4.293   0.937   7.354  1.8902 -0.9341 -0.2158
 2948WAT    EPW12514   4.252   0.891   7.306 -0.1124 -0.0023  0.4985
 2949WAT      O12515   5.448   7.089   6.445 -0.2387 -0.4559  0.1895
 2949WAT     H112516   5.417   7.169   6.431 -0.5870 -0.5748  0.2839
 2949WAT     H212517   5.379   7.037   6.432  0.1311 -0.8005 -0.5244
 2949WAT    EPW12518   5.433   7.093   6.441 -0.2355 -0.5244  0.0980
 2950WAT      O12519   4.869   1.718   6.745 -0.4710  0.2513 -0.3059
 2950WAT     H112520   4.894   1.792   6.707  1.2891 -1.0551 -1.8983
 2950WAT     H212521   4.944   1.682   6.771 -1.2317 -1.1781  0.0119
 2950WAT    EPW12522   4.884   1.723   6.743 -0.3234 -0.1529 -0.4942
 2951WAT      O12523   7.010   6.782   1.360 -0.3450 -0.1408 -0.1131
 2951WAT     H112524   7.052   6.744   1.294  0.4841  0.1889  0.2137
 2951WAT     H212525   6.967   6.717   1.398 -2.1890 -0.1035 -1.9317
 2951WAT    EPW12526   7.009   6.767   1.356 -0.4949 -0.0866 -0.3334
 2952WAT      O12527   5.591   1.322   6.229  0.0809 -0.0744  0.0076
 2952WAT     H112528   5.587   1.235   6.235 -0.0646  0.0325  2.6888
 2952WAT     H212529   5.676   1.336   6.214  0.5889 -0.6628  2.0366
 2952WAT    EPW12530   5.603   1.311   6.227  0.1344 -0.1455  0.7034
 2953WAT      O12531   4.669   0.550   7.153 -0.5220 -0.0452  0.1504
 2953WAT     H112532   4.638   0.617   7.106  0.6173  0.1386 -0.3511
 2953WAT     H212533   4.696   0.588   7.227 -1.2271 -0.1720  0.4839
 2953WAT    EPW12534   4.668   0.566   7.157 -0.4578 -0.0368  0.1256
 2954WAT      O12535   6.646   0.078   0.126  0.2765 -0.2525 -0.1917
 2954WAT     H112536   6.729   0.066   0.148  0.6133  0.6044 -0.9707
 2954WAT     H212537   6.603   0.022   0.178  1.2860 -0.3547  0.5545
 2954WAT    EPW12538   6.652   0.068   0.137  0.4754 -0.1410 -0.1965
 2955WAT      O12539   6.436   7.410   7.282  0.3380 -0.1506  0.2222
 2955WAT     H112540   6.407   7.480   7.238  1.2858  1.1976  1.6026
 2955WAT     H212541   6.522   7.415   7.274  0.3777 -1.9519 -0.7264
 2955WAT    EPW12542   6.444   7.421   7.275  0.4839 -0.2175  0.2860
 2956WAT      O12543   6.621   0.453   7.219  0.9509 -0.3885 -0.4542
 2956WAT     H112544   6.641   0.514   7.160 -1.7048  0.6799 -0.3966
 2956WAT     H212545   6.561   0.404   7.179  0.2179 -0.5874  0.8198
 2956WAT    EPW12546   6.615   0.454   7.205  0.4503 -0.2601 -0.2575
 2957WAT      O12547   6.364   1.750   6.053  0.1136 -0.6868  0.2422
 2957WAT     H112548   6.393   1.737   6.134  1.8582 -0.6080 -0.3212
 2957WAT     H212549   6.437   1.759   6.006 -0.8378  1.7573 -0.9639
 2957WAT    EPW12550   6.379   1.750   6.058  0.2308 -0.3141 -0.0192
 2958WAT      O12551   5.577   7.395   7.289 -0.3789  0.1254  0.1591
 2958WAT     H112552   5.517   7.343   7.253  0.1323 -0.7042  0.4826
 2958WAT     H212553   5.646   7.343   7.298 -0.4466  0.3184  2.2133
 2958WAT    EPW12554   5.578   7.380   7.285 -0.3134  0.0314  0.5103
 2959WAT      O12555   6.676   7.444   6.611 -0.0489 -0.2925  0.1420
 2959WAT     H112556   6.741   7.502   6.619  0.4278 -0.8810  0.6573
 2959WAT     H212557   6.693   7.405   6.534 -0.5947  0.4986 -0.4014
 2959WAT    EPW12558   6.688   7.447   6.601 -0.0591 -0.2625  0.1378
 2960WAT      O12559   5.623   7.269   6.206  0.2184  0.1262 -0.3033
 2960WAT     H112560   5.661   7.306   6.276 -1.4175  1.6671 -0.1516
 2960WAT     H212561   5.547   7.311   6.200  0.3162  0.0892 -3.0607
 2960WAT    EPW12562   5.618   7.281   6.216 -0.0088  0.3483 -0.6882
 2961WAT      O12563   6.683   7.394   0.472 -0.5785  0.0633 -0.0609
 2961WAT     H112564   6.701   7.350   0.398  0.5200  0.5744 -0.1267
 2961WAT     H212565   6.757   7.438   0.487 -0.1610 -1.2865  2.2550
 2961WAT    EPW12566   6.697   7.394   0.463 -0.3545 -0.0606  0.2715
 2962WAT      O12567   5.817   0.615   6.234  0.0371 -0.4291  0.2352
 2962WAT     H112568   5.856   0.604   6.312  0.4109 -0.7146  0.0088
 2962WAT     H212569   5.736   0.643   6.256  0.0896 -0.6466  0.7282
 2962WAT    EPW12570   5.810   0.618   6.249  0.1000 -0.5034  0.2745
 2963WAT      O12571   6.149   0.599   4.984  0.1596 -0.1580 -0.2177
 2963WAT     H112572   6.093   0.620   5.048  0.8830 -0.6793  0.5988
 2963WAT     H212573   6.101   0.551   4.930 -0.1927 -0.6049  0.4795
 2963WAT    EPW12574   6.134   0.595   4.986  0.2144 -0.3010  0.0059
 2964WAT      O12575   4.846   6.151   7.449  0.2336  0.6101  0.1377
 2964WAT     H112576   4.884   6.195   7.384  0.5267  0.1193 -0.0272
 2964WAT     H212577   4.814   6.214   7.500  2.5624  1.1419  1.0957
 2964WAT    EPW12578   4.847   6.167   7.447  0.6209  0.6162  0.2549
 2965WAT      O12579   5.216   5.800   7.382 -0.0307  0.1781  0.3524
 2965WAT     H112580   5.180   5.836   7.452 -0.4204  1.6128 -0.5390
 2965WAT     H212581   5.160   5.737   7.360 -0.1242  0.0073  1.0657
 2965WAT    EPW12582   5.203   5.796   7.389 -0.1021  0.3648  0.3261
 2966WAT      O12583   6.932   0.849   4.752  0.4305 -0.2455 -0.3001
 2966WAT     H112584   6.942   0.812   4.831  0.6864 -0.3626 -0.3902
 2966WAT     H212585   6.920   0.781   4.699  2.3730 -0.2997 -0.7076
 2966WAT    EPW12586   6.932   0.833   4.756  0.7553 -0.2708 -0.3736
 2967WAT      O12587   6.891   7.129   6.560 -0.0675  0.3793  0.1789
 2967WAT     H112588   6.909   7.044   6.570  1.1235  0.6181  0.1742
 2967WAT     H212589   6.881   7.158   6.642 -1.2078  0.0994  0.1542
 2967WAT    EPW12590   6.892   7.121   6.574 -0.0600  0.3733  0.1746
 2968WAT      O12591   6.869   2.216   3.831 -0.0495 -0.1283  0.2925
 2968WAT     H112592   6.808   2.274   3.809  0.5520  0.2369 -0.4678
 2968WAT     H212593   6.844   2.143   3.791 -0.4073 -0.2035  0.6418
 2968WAT    EPW12594   6.856   2.214   3.822 -0.0135 -0.0855  0.2318
 2969WAT      O12595   6.025   0.372   7.342 -0.1101  0.4660  0.3551
 2969WAT     H112596   6.023   0.356   7.428  1.4004  0.7492  0.4719
 2969WAT     H212597   5.942   0.365   7.318 -0.4568 -0.4476  1.6926
 2969WAT    EPW12598   6.013   0.369   7.351  0.0618  0.3729  0.5699
 2970WAT      O12599   7.033   6.682   6.312  0.6465 -0.1107 -0.0666
 2970WAT     H112600   7.088   6.620   6.338  2.0434  1.0889  0.0069
 2970WAT     H212601   6.955   6.653   6.338  1.2937 -1.6386  0.2777
 2970WAT    EPW12602   7.029   6.669   6.320  0.9484 -0.1592 -0.0048
 2971WAT      O12603   6.474   7.442   4.954 -0.0121 -0.6773  0.2102
 2971WAT     H112604   6.440   7.522   4.947  0.8616 -0.3724 -0.8619
 2971WAT     H212605   6.549   7.448   4.909  1.0613 -1.5350  1.7923
 2971WAT    EPW12606   6.480   7.454   4.946  0.2755 -0.7589  0.2855
 2972WAT      O12607   5.598   5.827   4.718  0.0003 -0.0323 -0.0879
 2972WAT     H112608   5.561   5.899   4.751 -2.1275 -1.2867  0.4684
 2972WAT     H212609   5.681   5.850   4.707 -0.7616  2.8167 -0.8481
 2972WAT    EPW12610   5.605   5.841   4.721 -0.4266  0.2033 -0.1180
 2973WAT      O12611   6.275   7.096   6.305 -0.4843 -0.4724  0.0950
 2973WAT     H112612   6.359   7.092   6.328 -0.1097 -1.0227 -1.2989
 2973WAT     H212613   6.277   7.084   6.219 -2.0212 -0.7304  0.0793
 2973WAT    EPW12614   6.288   7.094   6.296 -0.6560 -0.5918 -0.1133
 2974WAT      O12615   6.345   6.922   1.191 -0.2112 -0.4134  0.4148
 2974WAT     H112616   6.384   6.890   1.120 -0.7208 -0.2405  0.0474
 2974WAT     H212617   6.406   6.917   1.252  0.6355  0.4872 -0.3047
 2974WAT    EPW12618   6.359   6.917   1.189 -0.1614 -0.2548  0.2543
 2975WAT      O12619   6.301   7.648   7.385 -0.1159 -0.4123 -0.3957
 2975WAT     H112620   6.253   7.709   7.346 -0.5921  0.1067  0.9681
 2975WAT     H212621   6.259   7.632   7.459  1.2742 -0.6706  0.3797
 2975WAT    EPW12622   6.288   7.654   7.390  0.0191 -0.3738 -0.0797
 2976WAT      O12623   5.638   1.735   6.841 -0.2145 -0.6251  0.0587
 2976WAT     H112624   5.618   1.739   6.926  0.2030 -0.6241  0.1619
 2976WAT     H212625   5.722   1.760   6.839 -0.8744  1.7503 -0.6437
 2976WAT    EPW12626   5.647   1.739   6.853 -0.2503 -0.2741 -0.0298
 2977WAT      O12627   6.765   6.930   6.245  0.1979  0.0103  0.2214
 2977WAT     H112628   6.850   6.949   6.252  0.0769  0.5010  0.4313
 2977WAT     H212629   6.761   6.845   6.266  1.3010 -1.5227 -4.6607
 2977WAT    EPW12630   6.777   6.920   6.249  0.3430 -0.1436 -0.4688
 2978WAT      O12631   5.646   0.958   0.580 -0.4860  0.2728  0.2649
 2978WAT     H112632   5.571   0.998   0.560 -0.2897 -0.2270 -1.6505
 2978WAT     H212633   5.679   0.937   0.503  0.8542 -0.9800  1.1322
 2978WAT    EPW12634   5.640   0.961   0.566 -0.2590  0.0139  0.1101
 2979WAT      O12635   6.317   0.573   7.615  0.4789 -0.0274  0.0649
 2979WAT     H112636   6.339   0.597   7.534 -1.1333 -0.9895 -0.7199
 2979WAT     H212637   6.306   0.487   7.609 -0.8100  0.0412  0.9976
 2979WAT    EPW12638   6.318   0.564   7.602  0.0503 -0.1594  0.0868
 2980WAT      O12639   6.417   0.823   5.838 -0.2243 -0.3973 -0.9039
 2980WAT     H112640   6.476   0.868   5.884  1.8940 -0.3739 -3.4063
 2980WAT     H212641   6.360   0.884   5.813  1.4532  0.6650 -2.4602
 2980WAT    EPW12642   6.417   0.839   5.841  0.3364 -0.2369 -1.5035
 2981WAT      O12643   7.168   0.989   0.781  0.6993 -0.4688  0.0027
 2981WAT     H112644   7.134   1.059   0.820  0.5990 -0.4038 -0.2051
 2981WAT     H212645   7.098   0.938   0.766  0.7145 -0.3994 -0.2909
 2981WAT    EPW12646   7.153   0.992   0.785  0.6867 -0.4490 -0.0714
 2982WAT      O12647   5.844   6.579   7.835  0.2041  0.2766  0.1767
 2982WAT     H112648   5.852   6.558   7.750 -2.0270 -2.6077  0.5442
 2982WAT     H212649   5.876   6.509   7.876  1.1507  1.5860  1.7893
 2982WAT    EPW12650   5.850   6.565   7.828  0.0143  0.0439  0.4692
 2983WAT      O12651   6.467   0.310   7.058 -0.2423  0.1229  0.6763
 2983WAT     H112652   6.413   0.375   7.037  0.0318  0.6401  1.5018
 2983WAT     H212653   6.493   0.279   6.981 -0.7977  0.6436  0.2690
 2983WAT    EPW12654   6.463   0.315   7.043 -0.2838  0.2762  0.7381
 2984WAT      O12655   6.563   7.193   7.521 -0.1763 -0.0497 -0.8219
 2984WAT     H112656   6.544   7.109   7.534  0.1666  0.0990  0.8082
 2984WAT     H212657   6.492   7.235   7.549  0.2310  0.2558 -0.2284
 2984WAT    EPW12658   6.550   7.187   7.527 -0.0655  0.0174 -0.4935
 2985WAT      O12659   4.780   0.052   6.521 -0.4551 -0.0917 -0.0075
 2985WAT     H112660   4.800  -0.005   6.584 -0.4436  0.3562  0.4000
 2985WAT     H212661   4.697   0.033   6.501 -0.7614  0.3549  0.7887
 2985WAT    EPW12662   4.771   0.041   6.528 -0.4987  0.0405  0.1703
 2986WAT      O12663   6.079   0.388   5.973  0.1232  0.0204  0.1871
 2986WAT     H112664   6.118   0.314   5.995  0.8072 -0.3253 -1.9457
 2986WAT     H212665   5.996   0.364   5.958  0.2463 -0.2307 -0.0968
 2986WAT    EPW12666   6.072   0.374   5.974  0.2424 -0.0678 -0.1699
 2987WAT      O12667   5.088   0.303   5.662 -0.4067  0.0329  0.2153
 2987WAT     H112668   5.036   0.234   5.673  0.4043 -0.5759  0.3864
 2987WAT     H212669   5.067   0.355   5.728 -0.6802 -0.2871  0.3848
 2987WAT    EPW12670   5.078   0.300   5.674 -0.3273 -0.1043  0.2656
 2988WAT      O12671   6.909   1.180   0.206 -0.0607  0.4700 -1.0251
 2988WAT     H112672   6.848   1.130   0.169 -1.2120  1.2207 -0.2066
 2988WAT     H212673   6.896   1.258   0.170 -1.2175  1.2172  0.8992
 2988WAT    EPW12674   6.898   1.184   0.195 -0.4016  0.6913 -0.6199
 2989WAT      O12675   5.903   0.538   0.165  0.2642  0.2393  0.2590
 2989WAT     H112676   5.964   0.599   0.180 -1.2332  2.5234 -2.1190
 2989WAT     H212677   5.849   0.546   0.234  0.5899  0.9455  0.4444
 2989WAT    EPW12678   5.904   0.549   0.178  0.0911  0.6810 -0.0649
 2990WAT      O12679   6.733   7.454   7.296 -0.1760  0.3934 -0.0796
 2990WAT     H112680   6.744   7.466   7.382 -1.7087  2.3632 -0.0905
 2990WAT     H212681   6.814   7.456   7.264  0.2923  1.8612  1.1012
 2990WAT    EPW12682   6.746   7.456   7.304 -0.3332  0.9012  0.0932
 2991WAT      O12683   6.118   7.341   6.423  0.0360 -0.2356  0.0410
 2991WAT     H112684   6.119   7.277   6.364  1.4821 -0.2001 -0.0222
 2991WAT     H212685   6.130   7.300   6.499 -0.9762 -0.2003  0.2382
 2991WAT    EPW12686   6.120   7.326   6.426  0.1001 -0.2251  0.0608
 2992WAT      O12687   6.205   0.096   5.924  0.1809 -0.7554 -0.3838
 2992WAT     H112688   6.279   0.139   5.907  0.6207 -0.6446  1.5164
 2992WAT     H212689   6.168   0.085   5.846 -0.5455  4.0650 -1.0342
 2992WAT    EPW12690   6.210   0.101   5.910  0.1386 -0.0269 -0.1992
 2993WAT      O12691   6.131   7.186   6.660 -0.0251 -0.2500  0.2850
 2993WAT     H112692   6.194   7.164   6.716  0.8356 -1.5933 -1.1360
 2993WAT     H212693   6.069   7.126   6.675  0.4440 -0.9645 -0.5453
 2993WAT    EPW12694   6.131   7.174   6.671  0.1713 -0.5540 -0.0476
 2994WAT      O12695   6.387   6.693   7.654 -0.0461  0.4115  0.1378
 2994WAT     H112696   6.416   6.666   7.576  1.9150 -3.2044  1.8924
 2994WAT     H212697   6.302   6.671   7.652 -0.2709  1.2421 -1.2331
 2994WAT    EPW12698   6.379   6.686   7.642  0.2104  0.0000  0.1945
 2995WAT      O12699   5.490   0.092   6.697 -0.4292  0.6221 -0.5520
 2995WAT     H112700   5.414   0.051   6.711 -1.1764  1.0303 -3.0134
 2995WAT     H212701   5.466   0.171   6.672  0.8892  1.1326 -0.2761
 2995WAT    EPW12702   5.475   0.097   6.696 -0.3448  0.7578 -0.8748
 2996WAT      O12703   6.057   7.292   7.753  0.3870  0.3125 -0.4308
 2996WAT     H112704   5.974   7.269   7.741  0.4161 -0.0235 -0.0213
 2996WAT     H212705   6.102   7.230   7.711  0.5657 -2.0853  2.8846
 2996WAT    EPW12706   6.051   7.279   7.745  0.4177 -0.0914  0.1194
 2997WAT      O12707   6.296   1.175   7.717  0.3756 -0.5038  0.1092
 2997WAT     H112708   6.262   1.150   7.794 -2.5851 -0.2987 -1.0127
 2997WAT     H212709   6.309   1.100   7.675  1.7138 -0.5998  0.6539
 2997WAT    EPW12710   6.293   1.161   7.722  0.1359 -0.4877  0.0240
 2998WAT      O12711   5.719   7.574   1.651  0.3276  0.0574  0.0263
 2998WAT     H112712   5.732   7.578   1.565  3.1582 -1.6434  0.2466
 2998WAT     H212713   5.690   7.653   1.671 -1.9001  0.0764 -2.6248
 2998WAT    EPW12714   5.716   7.586   1.641  0.4167 -0.1910 -0.3328
 2999WAT      O12715   5.292   0.121   6.065 -0.6791  0.5378  0.2560
 2999WAT     H112716   5.344   0.165   6.011  0.3012 -1.3204 -0.4032
 2999WAT     H212717   5.331   0.129   6.143 -0.0090  0.1010 -0.0281
 2999WAT    EPW12718   5.306   0.129   6.069 -0.4353  0.1988  0.1167
 3000WAT      O12719   6.948   0.535   6.053  0.2248 -0.9997 -0.2921
 3000WAT     H112720   6.940   0.517   6.138  1.2255  1.5679  0.4449
 3000WAT     H212721   6.985   0.463   6.020  1.6595 -1.3563  1.8595
 3000WAT    EPW12722   6.953   0.522   6.061  0.5846 -0.6731  0.1346
 3001WAT      O12723   5.211   7.418   0.832 -0.1223  0.4395  0.0655
 3001WAT     H112724   5.227   7.358   0.770 -0.1602  0.3895  0.1042
 3001WAT     H212725   5.123   7.420   0.836 -0.1262  0.6753 -0.1084
 3001WAT    EPW12726   5.200   7.409   0.823 -0.1285  0.4669  0.0455
 3002WAT      O12727   4.770   1.037   6.180  0.2914 -0.3981  0.3265
 3002WAT     H112728   4.818   1.030   6.108 -0.0405  0.0246  0.0584
 3002WAT     H212729   4.827   1.065   6.240  0.7725 -1.6124  0.4660
 3002WAT    EPW12730   4.786   1.040   6.178  0.3134 -0.5150  0.3075
 3003WAT      O12731   6.191   0.478   5.366  0.3384 -0.1068  0.7518
 3003WAT     H112732   6.275   0.499   5.365 -0.3842  3.4754 -0.3803
 3003WAT     H212733   6.156   0.537   5.420 -1.7319  0.1828 -0.7750
 3003WAT    EPW12734   6.198   0.490   5.374 -0.0742  0.4651  0.3590
 3004WAT      O12735   5.399   6.286   6.641  0.1278  0.1919 -0.5089
 3004WAT     H112736   5.358   6.222   6.683  0.1595  0.6992  0.3190
 3004WAT     H212737   5.450   6.244   6.583 -0.0465 -0.5075 -0.1592
 3004WAT    EPW12738   5.401   6.271   6.638  0.1067  0.1635 -0.3349
 3005WAT      O12739   5.911   6.649   5.191 -0.4494 -0.1448 -0.0652
 3005WAT     H112740   5.950   6.684   5.261 -0.1932 -0.1245 -0.2144
 3005WAT     H212741   5.876   6.718   5.151  1.2555  0.1657 -1.1163
 3005WAT    EPW12742   5.912   6.665   5.195 -0.1597 -0.0960 -0.2425
 3006WAT      O12743   6.261   6.263   0.402 -0.0843  0.3139 -0.5111
 3006WAT     H112744   6.302   6.210   0.457 -1.3715  0.6667  0.8346
 3006WAT     H212745   6.293   6.342   0.421 -0.6362  0.4560 -0.1776
 3006WAT    EPW12746   6.272   6.267   0.413 -0.3560  0.3870 -0.2631
 3007WAT      O12747   6.334   0.458   6.225 -0.6091  0.3548 -0.0490
 3007WAT     H112748   6.373   0.520   6.272 -1.2492  0.4070  0.4302
 3007WAT     H212749   6.316   0.499   6.149 -1.2077  0.8271  0.3377
 3007WAT    EPW12750   6.337   0.473   6.221 -0.7921  0.4322  0.0789
 3008WAT      O12751   5.223   7.667   7.074  0.5087 -0.2573  0.2767
 3008WAT     H112752   5.289   7.722   7.058 -0.8225  1.2491 -0.4278
 3008WAT     H212753   5.243   7.632   7.151  1.4963  1.1288  0.6977
 3008WAT    EPW12754   5.236   7.670   7.083  0.4579  0.1700  0.2348
 3009WAT      O12755   5.692   0.349   6.683 -0.1932  0.6057  0.3681
 3009WAT     H112756   5.703   0.267   6.712 -1.4144  0.1599 -0.3395
 3009WAT     H212757   5.698   0.341   6.596  1.1847  1.5433  0.3505
 3009WAT    EPW12758   5.694   0.335   6.674 -0.1700  0.6784  0.2610
 3010WAT      O12759   5.144   7.365   6.706 -0.4249  0.0678 -0.7537
 3010WAT     H112760   5.150   7.300   6.764 -0.2057  1.1881  0.5524
 3010WAT     H212761   5.202   7.344   6.645 -1.1130 -1.4681 -0.9315
 3010WAT    EPW12762   5.153   7.353   6.706 -0.4942  0.0064 -0.5870
 3011WAT      O12763   5.601   7.517   7.831 -0.2269 -0.4241  0.3148
 3011WAT     H112764   5.577   7.433   7.829  1.2773 -0.8806 -0.0794
 3011WAT     H212765   5.526   7.560   7.817 -1.1702 -1.6484  1.3561
 3011WAT    EPW12766   5.586   7.511   7.828 -0.1440 -0.6724  0.4104
 3012WAT      O12767   4.127   0.765   5.904 -0.1110 -0.4684 -0.1126
 3012WAT     H112768   4.055   0.785   5.859 -1.1164 -1.2383  1.0894
 3012WAT     H212769   4.180   0.732   5.844 -0.8979 -0.2328 -0.9600
 3012WAT    EPW12770   4.124   0.763   5.889 -0.3758 -0.5473 -0.0602
 3013WAT      O12771   6.083   1.904   3.924 -0.0830 -0.2033 -0.0735
 3013WAT     H112772   6.100   1.942   4.001 -0.4636  0.4185 -0.2918
 3013WAT     H212773   5.997   1.917   3.913 -0.0734 -0.4794 -0.5034
 3013WAT    EPW12774   6.072   1.912   3.934 -0.1378 -0.1523 -0.1693
 3014WAT      O12775   5.355   0.903   4.031 -0.5488  0.9524 -0.1328
 3014WAT     H112776   5.316   0.981   4.035  0.5441  1.5882 -1.2921
 3014WAT     H212777   5.439   0.922   4.021 -0.1394 -0.3920  0.4597
 3014WAT    EPW12778   5.362   0.917   4.030 -0.3269  0.8477 -0.2165
 3015WAT      O12779   5.110   0.769   1.447  0.0107 -0.1994 -0.0546
 3015WAT     H112780   5.079   0.821   1.510  1.1162  0.0722  0.2796
 3015WAT     H212781   5.044   0.765   1.390 -1.3721 -1.1980  1.5131
 3015WAT    EPW12782   5.095   0.776   1.448 -0.0303 -0.3068  0.2264
 3016WAT      O12783   5.514   1.954   4.341 -0.1398 -0.3083 -0.1786
 3016WAT     H112784   5.579   1.978   4.287  0.4352  0.4254  0.7916
 3016WAT     H212785   5.526   2.006   4.411 -1.3063 -0.7127  0.3460
 3016WAT    EPW12786   5.526   1.965   4.343 -0.2272 -0.2597  0.0422
 3017WAT      O12787   4.041   1.102   6.722  0.3035  0.3195 -0.0893
 3017WAT     H112788   4.091   1.038   6.691 -1.3501 -1.4588  0.7246
 3017WAT     H212789   3.986   1.061   6.776 -1.3629  2.3092 -0.1424
 3017WAT    EPW12790   4.041   1.087   6.725 -0.1869  0.3507  0.0231
 3018WAT      O12791   6.083   0.595   4.019  0.0358 -0.5971  0.1258
 3018WAT     H112792   6.031   0.527   4.034  0.3293 -1.2665 -1.6216
 3018WAT     H212793   6.027   0.660   4.000 -0.3314 -1.7672 -3.6442
 3018WAT    EPW12794   6.067   0.595   4.018  0.0249 -0.8688 -0.6892
 3019WAT      O12795   5.746   0.132   5.046  0.1348  0.7215  0.0182
 3019WAT     H112796   5.725   0.122   4.962  2.6267  2.0923 -0.8770
 3019WAT     H212797   5.673   0.110   5.088 -0.8981 -0.9760 -2.4278
 3019WAT    EPW12798   5.732   0.127   5.040  0.3503  0.6732 -0.4754
 3020WAT      O12799   6.119   1.952   6.081  0.3160  0.2254 -0.1828
 3020WAT     H112800   6.053   1.925   6.131  0.4211  0.8106  0.2882
 3020WAT     H212801   6.186   1.902   6.106  0.5669  1.0170  0.8444
 3020WAT    EPW12802   6.119   1.941   6.092  0.3686  0.4288  0.0385
 3021WAT      O12803   6.062   7.415   4.791  0.3218 -0.4538  0.0302
 3021WAT     H112804   6.138   7.372   4.783  0.6398  0.2407 -0.7446
 3021WAT     H212805   6.058   7.433   4.876  0.6939 -1.0774  0.1894
 3021WAT    EPW12806   6.072   7.411   4.803  0.4237 -0.4433 -0.0607
 3022WAT      O12807   3.862   0.888   4.426 -0.2736  0.4547 -0.0294
 3022WAT     H112808   3.890   0.884   4.509  0.6310 -0.2763 -0.3585
 3022WAT     H212809   3.781   0.859   4.431 -0.0359 -0.1436  0.5229
 3022WAT    EPW12810   3.855   0.883   4.439 -0.1048  0.2583  0.0036
 3023WAT      O12811   6.167   1.521   3.780 -0.1241  0.7162 -0.0166
 3023WAT     H112812   6.229   1.462   3.797  0.6984  1.7448  0.6810
 3023WAT     H212813   6.134   1.495   3.703  1.4286  0.3498 -0.5944
 3023WAT    EPW12814   6.171   1.508   3.771  0.2267  0.8140  0.0011
 3024WAT      O12815   6.180   1.099   2.825 -0.1305 -0.5125  0.0858
 3024WAT     H112816   6.212   1.152   2.764 -1.2326  1.3184  1.0190
 3024WAT     H212817   6.098   1.127   2.836 -0.5370 -1.9775  1.1218
 3024WAT    EPW12818   6.172   1.111   2.818 -0.3533 -0.4585  0.3767
 3025WAT      O12819   6.613   7.345   4.031 -0.4321 -0.4679  0.6553
 3025WAT     H112820   6.596   7.386   4.107  0.5692 -0.4416  0.8746
 3025WAT     H212821   6.619   7.410   3.974  0.7102 -0.3171  0.9217
 3025WAT    EPW12822   6.611   7.361   4.034 -0.1154 -0.4417  0.7271
 3026WAT      O12823   5.265   2.316   3.937 -0.3127  0.3858  0.1730
 3026WAT     H112824   5.267   2.275   3.860 -0.3627  0.0052  0.3684
 3026WAT     H212825   5.184   2.299   3.966  0.1035 -0.5324  0.8634
 3026WAT    EPW12826   5.253   2.307   3.930 -0.2586  0.1940  0.3039
 3027WAT      O12827   6.927   7.506   4.657  0.5048  0.6267  0.3490
 3027WAT     H112828   6.915   7.589   4.681  1.4368  1.8056 -2.7332
 3027WAT     H212829   6.907   7.506   4.572  0.7982 -2.2761  0.1712
 3027WAT    EPW12830   6.922   7.518   4.648  0.6858  0.3720 -0.1326
 3028WAT      O12831   6.432   1.177   3.503 -0.1072  0.3489 -0.7760
 3028WAT     H112832   6.371   1.210   3.451 -0.5635  1.2229  0.2718
 3028WAT     H212833   6.506   1.211   3.472 -0.5732  2.6052  0.3644
 3028WAT    EPW12834   6.434   1.187   3.491 -0.2435  0.8113 -0.4527
 3029WAT      O12835   4.654   0.544   5.094 -0.0290 -0.0907  0.5294
 3029WAT     H112836   4.700   0.590   5.036 -0.7020  0.8694  0.7386
 3029WAT     H212837   4.661   0.590   5.167  0.6660 -1.2038  1.1893
 3029WAT    EPW12838   4.662   0.557   5.096 -0.0258 -0.1133  0.6578
 3030WAT      O12839   6.554   1.566   3.028  0.9135 -0.1415  0.1017
 3030WAT     H112840   6.487   1.533   2.984 -0.1971  0.3497  1.3469
 3030WAT     H212841   6.531   1.555   3.112  2.0615  0.6686  0.5526
 3030WAT    EPW12842   6.541   1.559   3.034  0.9190  0.0508  0.3523
 3031WAT      O12843   6.835   7.455   4.388 -0.2241 -0.2917  0.8285
 3031WAT     H112844   6.902   7.452   4.333 -1.7599 -0.5009 -1.1431
 3031WAT     H212845   6.826   7.373   4.415 -0.8031 -0.6426 -0.3703
 3031WAT    EPW12846   6.843   7.443   4.384 -0.5365 -0.3744  0.3602
 3032WAT      O12847   5.348   0.160   5.683  0.0310  0.3189 -0.2648
 3032WAT     H112848   5.307   0.085   5.664 -0.3954  0.5761 -0.3565
 3032WAT     H212849   5.285   0.220   5.678  0.1398  0.5440  0.8890
 3032WAT    EPW12850   5.333   0.158   5.679 -0.0159  0.3902 -0.1079
 3033WAT      O12851   5.396   1.340   5.467 -0.2781  0.2407 -0.0258
 3033WAT     H112852   5.413   1.413   5.512 -1.7010 -0.5730  2.0353
 3033WAT     H212853   5.474   1.307   5.450  0.3738  1.8479 -0.3614
 3033WAT    EPW12854   5.410   1.346   5.471 -0.3920  0.3579  0.2291
 3034WAT      O12855   5.185   7.011   4.384  0.2389  0.0368 -0.1431
 3034WAT     H112856   5.125   7.072   4.399 -0.3723 -0.0180 -2.1284
 3034WAT     H212857   5.138   6.938   4.375  0.7827 -0.3579  0.1472
 3034WAT    EPW12858   5.169   7.009   4.385  0.2290 -0.0296 -0.3935
 3035WAT      O12859   6.079   1.689   4.865  0.7956  0.1227 -0.3676
 3035WAT     H112860   6.007   1.659   4.905 -0.6598  2.5024 -0.9867
 3035WAT     H212861   6.125   1.724   4.929 -0.3975  1.7914 -0.3406
 3035WAT    EPW12862   6.075   1.689   4.880  0.4043  0.7207 -0.4550
 3036WAT      O12863   6.618   2.469   4.569 -0.0159 -0.2211  1.2354
 3036WAT     H112864   6.584   2.401   4.527  2.1607 -1.2239  0.9620
 3036WAT     H212865   6.625   2.530   4.506 -0.7593 -0.1916  1.1753
 3036WAT    EPW12866   6.614   2.468   4.553  0.1958 -0.3648  1.1861
 3037WAT      O12867   6.614   1.286   4.058  0.5492  0.4683 -0.1625
 3037WAT     H112868   6.597   1.211   4.016  2.1272  0.9617 -1.8156
 3037WAT     H212869   6.615   1.345   3.994 -1.2448  2.0535  1.1807
 3037WAT    EPW12870   6.612   1.284   4.042  0.5173  0.7753 -0.2083
 3038WAT      O12871   6.331   7.688   4.897 -0.3080 -0.6263 -0.3150
 3038WAT     H112872   6.390   7.743   4.864  0.1136 -1.7499 -1.5299
 3038WAT     H212873   6.272   7.741   4.933  1.0640  0.5503  0.3248
 3038WAT    EPW12874   6.331   7.704   4.897 -0.0431 -0.6185 -0.4000
 3039WAT      O12875   6.077   7.613   5.314 -0.0332 -0.4581  0.3862
 3039WAT     H112876   6.153   7.653   5.324 -1.3647  2.2950  0.4672
 3039WAT     H212877   6.091   7.558   5.248  2.1947 -0.6396  0.9467
 3039WAT    EPW12878   6.090   7.611   5.306  0.0992 -0.0782  0.4810
 3040WAT      O12879   6.008   0.285   5.515  0.9867  0.1902  0.2281
 3040WAT     H112880   5.977   0.245   5.445  2.0230  1.7869 -1.2321
 3040WAT     H212881   6.043   0.359   5.483 -0.1239  1.9016  2.6307
 3040WAT    EPW12882   6.009   0.290   5.500  0.9758  0.6789  0.3673
 3041WAT      O12883   6.099   1.464   4.714  0.4364  0.3867  0.0830
 3041WAT     H112884   6.161   1.485   4.657  1.2102 -1.1886  0.2734
 3041WAT     H212885   6.100   1.529   4.772  2.1974  0.2092  0.2889
 3041WAT    EPW12886   6.108   1.477   4.714  0.8108  0.1278  0.1415
 3042WAT      O12887   4.824   7.232   6.120  0.4258 -0.1520 -0.1363
 3042WAT     H112888   4.759   7.285   6.144 -0.3844 -1.5845  1.0041
 3042WAT     H212889   4.883   7.242   6.185  0.4749 -0.3161 -0.1554
 3042WAT    EPW12890   4.823   7.241   6.133  0.3134 -0.3879  0.0293
 3043WAT      O12891   6.827   5.995   4.250  0.4743  0.2566  0.0414
 3043WAT     H112892   6.892   5.952   4.210  1.0980 -0.0636  1.3417
 3043WAT     H212893   6.755   5.962   4.213  0.9418 -1.7338  0.7722
 3043WAT    EPW12894   6.826   5.984   4.239  0.6355 -0.0847  0.3414
 3044WAT      O12895   6.333   6.984   6.026  0.3593 -0.8502 -0.0309
 3044WAT     H112896   6.395   7.039   5.998 -0.9302  0.5621 -0.1842
 3044WAT     H212897   6.288   6.964   5.954 -0.1549 -0.8471  0.2849
 3044WAT    EPW12898   6.336   6.989   6.011  0.0929 -0.6411 -0.0069
 3045WAT      O12899   5.925   0.855   5.474  0.1035 -0.0836 -0.1124
 3045WAT     H112900   5.939   0.940   5.485  1.3740  0.0844 -2.3833
 3045WAT     H212901   5.910   0.847   5.388 -2.3159 -1.8914  0.3452
 3045WAT    EPW12902   5.925   0.866   5.463 -0.0662 -0.3259 -0.3803
 3046WAT      O12903   5.387   7.017   4.558  0.1371  0.2111  0.0564
 3046WAT     H112904   5.367   6.978   4.634 -0.1878 -1.0208 -0.6300
 3046WAT     H212905   5.316   7.003   4.509  1.4812 -1.7550 -1.5005
 3046WAT    EPW12906   5.373   7.009   4.562  0.2877 -0.2613 -0.2750
 3047WAT      O12907   5.722   0.349   5.641  0.0273  0.1275 -0.6720
 3047WAT     H112908   5.716   0.287   5.580  2.3603 -1.2994  0.4106
 3047WAT     H212909   5.799   0.386   5.626  0.7694 -0.4214  1.4636
 3047WAT    EPW12910   5.732   0.345   5.630  0.4816 -0.1643 -0.1966
 3048WAT      O12911   5.882   1.128   4.171 -0.2159  0.0124 -0.1772
 3048WAT     H112912   5.875   1.102   4.254 -0.5074 -1.0572 -0.5186
 3048WAT     H212913   5.963   1.104   4.149  0.7041  2.2703  0.4147
 3048WAT    EPW12914   5.893   1.121   4.180 -0.1231  0.1880 -0.1402
 3049WAT      O12915   4.210   1.676   4.229  0.0510 -0.2479 -0.0964
 3049WAT     H112916   4.131   1.640   4.229 -0.8654  1.4806 -2.2424
 3049WAT     H212917   4.263   1.612   4.255 -1.8695 -1.9222 -0.1276
 3049WAT    EPW12918   4.206   1.662   4.233 -0.3681 -0.2399 -0.4181
 3050WAT      O12919   6.541   0.733   5.157  0.1260  0.1757  0.3597
 3050WAT     H112920   6.531   0.813   5.191 -0.0886  0.6991 -0.8721
 3050WAT     H212921   6.626   0.717   5.166  0.1342  0.4619  0.7978
 3050WAT    EPW12922   6.552   0.742   5.163  0.0955  0.2953  0.2425
 3051WAT      O12923   3.310   0.412   3.309  0.4595 -0.0893  0.5354
 3051WAT     H112924   3.346   0.432   3.232  0.0277  0.1764  0.4014
 3051WAT     H212925   3.331   0.328   3.320 -2.6023 -1.3201 -1.6379
 3051WAT    EPW12926   3.318   0.403   3.299 -0.0566 -0.2319  0.1946
 3052WAT      O12927   4.560   0.632   3.317 -0.0523 -0.0413  0.5363
 3052WAT     H112928   4.482   0.670   3.314 -0.8072 -1.5870 -0.3021
 3052WAT     H212929   4.577   0.612   3.233  1.6436  0.9861  0.5672
 3052WAT    EPW12930   4.551   0.635   3.304  0.0867 -0.1179  0.4170
 3053WAT      O12931   6.458   0.926   3.192 -0.6218  0.0938 -0.0100
 3053WAT     H112932   6.398   0.964   3.142 -0.3769  1.0933  0.4216
 3053WAT     H212933   6.503   0.993   3.224  0.2930 -0.6046  0.2127
 3053WAT    EPW12934   6.456   0.941   3.189 -0.4505  0.1383  0.0867
 3054WAT      O12935   5.266   2.411   4.580  0.0149  0.3461 -0.3940
 3054WAT     H112936   5.196   2.388   4.627  0.4184 -0.4664 -0.1719
 3054WAT     H212937   5.322   2.441   4.641  0.1338  0.3080 -0.4853
 3054WAT    EPW12938   5.264   2.412   4.596  0.0920  0.2204 -0.3747
 3055WAT      O12939   5.463   7.273   4.660 -0.3741  0.0507 -0.4471
 3055WAT     H112940   5.431   7.247   4.737 -0.7301 -0.2729 -0.7002
 3055WAT     H212941   5.522   7.213   4.640 -0.6849 -0.1814 -0.6903
 3055WAT    EPW12942   5.467   7.260   4.668 -0.4726 -0.0314 -0.5204
 3056WAT      O12943   6.943   6.967   5.883 -0.7007  0.3133 -0.2566
 3056WAT     H112944   6.960   6.958   5.968  0.7487  1.2476 -0.4075
 3056WAT     H212945   6.864   6.931   5.873 -0.5271 -0.5630  1.3165
 3056WAT    EPW12946   6.934   6.961   5.894 -0.4610  0.3219 -0.0465
 3057WAT      O12947   5.824   1.419   5.865 -0.3031  0.6932 -0.0429
 3057WAT     H112948   5.751   1.386   5.831 -1.7527  2.8081  0.8139
 3057WAT     H212949   5.870   1.444   5.795  0.2424 -1.7268 -0.6464
 3057WAT    EPW12950   5.820   1.417   5.849 -0.4366  0.6481 -0.0055
 3058WAT      O12951   6.477   0.980   5.249 -0.7575 -0.1644 -0.2723
 3058WAT     H112952   6.505   1.048   5.203  0.2869  0.0935  0.7005
 3058WAT     H212953   6.518   0.989   5.326 -2.0615 -0.8388  0.5433
 3058WAT    EPW12954   6.487   0.991   5.254 -0.7959 -0.2259 -0.0081
 3059WAT      O12955   6.600   2.001   5.133  0.7780  0.1319  0.3905
 3059WAT     H112956   6.647   1.936   5.168  0.1045 -0.8467 -0.4520
 3059WAT     H212957   6.657   2.042   5.082  1.0122 -0.3321  0.2679
 3059WAT    EPW12958   6.615   1.997   5.131  0.7131 -0.0812  0.2480
 3060WAT      O12959   4.855   7.371   4.634  0.4083  0.1094  0.9413
 3060WAT     H112960   4.813   7.422   4.578 -2.5074  0.3153  3.1262
 3060WAT     H212961   4.901   7.318   4.582 -2.4434 -0.0415 -1.6877
 3060WAT    EPW12962   4.856   7.371   4.618 -0.4436  0.1175  0.8757
 3061WAT      O12963   4.941   0.263   6.412 -0.6273 -0.0277 -0.3518
 3061WAT     H112964   4.896   0.194   6.443  0.8281 -0.3505  1.1957
 3061WAT     H212965   4.956   0.241   6.329 -0.1414 -1.6323  0.1171
 3061WAT    EPW12966   4.936   0.250   6.404 -0.3406 -0.3124 -0.0539
 3062WAT      O12967   5.914   1.167   2.888  0.0402  0.0965 -0.0203
 3062WAT     H112968   5.915   1.238   2.838 -2.5750  0.5020  0.3742
 3062WAT     H212969   5.895   1.103   2.832  1.5658 -0.2046 -0.2339
 3062WAT    EPW12970   5.911   1.168   2.873 -0.1207  0.1119  0.0064
 3063WAT      O12971   6.986   6.602   6.040 -0.5981 -0.2436 -0.2067
 3063WAT     H112972   7.002   6.528   6.084  0.9174  0.0592 -0.1980
 3063WAT     H212973   7.015   6.664   6.095 -0.1198  0.2309 -0.9838
 3063WAT    EPW12974   6.993   6.601   6.055 -0.3035 -0.1288 -0.3202
 3064WAT      O12975   6.589   0.680   6.228 -0.2440 -0.1621  0.0927
 3064WAT     H112976   6.579   0.765   6.241 -0.8360 -0.2069 -0.0631
 3064WAT     H212977   6.547   0.665   6.153 -0.3083 -0.6219  0.2159
 3064WAT    EPW12978   6.582   0.690   6.219 -0.3409 -0.2366  0.0879
 3065WAT      O12979   7.023   7.222   4.820 -0.3375  0.4262 -0.3269
 3065WAT     H112980   7.087   7.171   4.792  0.1365  1.6463 -1.5827
 3065WAT     H212981   7.017   7.284   4.758 -2.6472  0.4117 -0.2096
 3065WAT    EPW12982   7.031   7.224   4.807 -0.6087  0.6043 -0.4951
 3066WAT      O12983   5.938   6.592   4.837  0.4270  0.1061 -0.0299
 3066WAT     H112984   5.881   6.538   4.799  0.1505 -0.4531  1.1558
 3066WAT     H212985   5.971   6.545   4.902  2.1475  0.4774 -0.5816
 3066WAT    EPW12986   5.934   6.577   4.841  0.6403  0.0784  0.0638
 3067WAT      O12987   6.577   7.688   4.730 -0.1454  0.0890  0.0762
 3067WAT     H112988   6.587   7.710   4.646 -0.7274  0.0553 -0.0075
 3067WAT     H212989   6.600   7.604   4.731 -0.3671  0.0230 -0.1012
 3067WAT    EPW12990   6.582   7.679   4.718 -0.2641  0.0743  0.0376
 3068WAT      O12991   6.842   1.688   4.060  0.0770  0.3434  0.2073
 3068WAT     H112992   6.758   1.710   4.059  0.5654  2.3931  0.3020
 3068WAT     H212993   6.882   1.754   4.020  1.6116 -0.8526 -0.3525
 3068WAT    EPW12994   6.835   1.701   4.054  0.3759  0.4695  0.1386
 3069WAT      O12995   5.878   0.114   5.300  0.4445  0.2940  0.4602
 3069WAT     H112996   5.933   0.047   5.294 -1.4326 -1.2628 -0.5012
 3069WAT     H212997   5.837   0.114   5.223 -1.3672  0.9560  1.3547
 3069WAT    EPW12998   5.880   0.104   5.288 -0.1004  0.1618  0.4504
 3070WAT      O12999   5.096   7.467   5.080  0.2144 -0.1556 -0.1291
 3070WAT     H113000   5.093   7.449   4.995 -0.2822  0.8895 -0.3443
 3070WAT     H213001   5.097   7.388   5.118 -2.4765 -0.6799 -0.9976
 3070WAT    EPW13002   5.096   7.453   5.073 -0.2565 -0.0787 -0.2892
 3071WAT      O13003   6.874   1.149   4.280  0.1920 -0.3898  0.3148
 3071WAT     H113004   6.812   1.151   4.219 -0.7298  1.1636  1.2439
 3071WAT     H213005   6.915   1.225   4.270  0.3214 -0.3118  1.3432
 3071WAT    EPW13006   6.871   1.160   4.269  0.0749 -0.1488  0.6040
 3072WAT      O13007   6.615   0.896   4.702  0.5802  0.0775  0.4776
 3072WAT     H113008   6.608   0.980   4.723 -1.2238 -0.2045  1.1221
 3072WAT     H213009   6.696   0.875   4.730  1.4610  1.7934 -0.6053
 3072WAT    EPW13010   6.626   0.905   4.709  0.4438  0.2894  0.4128
 3073WAT      O13011   5.008   6.200   4.942 -0.0540  0.4376 -0.6147
 3073WAT     H113012   5.087   6.235   4.931  0.4033 -0.3558  0.0714
 3073WAT     H213013   4.992   6.212   5.027 -0.5668  0.3792 -0.7002
 3073WAT    EPW13014   5.017   6.207   4.953 -0.0622  0.3118 -0.5260
 3074WAT      O13015   6.158   5.479   4.702 -0.6293 -0.0535 -0.0759
 3074WAT     H113016   6.189   5.557   4.725  1.9407 -1.3444  1.3082
 3074WAT     H213017   6.222   5.444   4.655 -1.0159 -1.8723  0.6428
 3074WAT    EPW13018   6.172   5.485   4.699 -0.3068 -0.5128  0.2347
 3075WAT      O13019   6.230   5.958   5.387  0.8884 -0.0479 -0.3597
 3075WAT     H113020   6.234   5.900   5.322  0.8987  0.4693 -0.8332
 3075WAT     H213021   6.183   6.023   5.353  0.5206  0.0486  0.3040
 3075WAT    EPW13022   6.224   5.959   5.372  0.8356  0.0427 -0.3316
 3076WAT      O13023   7.090   2.213   4.575 -0.7341  0.1442 -0.2863
 3076WAT     H113024   7.033   2.189   4.513  0.0886  0.7610 -1.3147
 3076WAT     H213025   7.057   2.178   4.648 -2.2466  0.2140 -0.9033
 3076WAT    EPW13026   7.076   2.204   4.576 -0.8360  0.2456 -0.5293
 3077WAT      O13027   5.902   0.884   6.414 -0.0032 -0.2227  0.3602
 3077WAT     H113028   5.950   0.813   6.432  2.5425  1.4869  0.7894
 3077WAT     H213029   5.899   0.926   6.490 -0.2972  0.7834 -0.1968
 3077WAT    EPW13030   5.909   0.880   6.428  0.3294  0.1785  0.3414
 3078WAT      O13031   6.117   0.147   5.004 -0.0644  0.3126  0.0380
 3078WAT     H113032   6.150   0.190   5.073 -0.0969 -0.9288  0.8614
 3078WAT     H213033   6.038   0.124   5.031  0.1123 -0.6209 -0.2193
 3078WAT    EPW13034   6.110   0.150   5.018 -0.0431 -0.0086  0.1216
 3079WAT      O13035   5.831   6.443   4.198 -0.1119  0.1207  0.3836
 3079WAT     H113036   5.820   6.504   4.136  0.6101  1.2610  1.3307
 3079WAT     H213037   5.750   6.416   4.215 -0.2375 -1.2368 -1.9988
 3079WAT    EPW13038   5.818   6.448   4.191 -0.0238  0.0886  0.1716
 3080WAT      O13039   5.317   0.671   3.846  0.7989  0.2345  0.2179
 3080WAT     H113040   5.246   0.659   3.797  1.6940  1.0935 -1.3859
 3080WAT     H213041   5.302   0.748   3.886  0.7508  0.3386  0.0010
 3080WAT    EPW13042   5.304   0.681   3.845  0.9241  0.3768 -0.0510
 3081WAT      O13043   6.105   0.773   4.630  0.3371 -0.2057 -0.0046
 3081WAT     H113044   6.160   0.764   4.563 -0.3350  0.3481 -0.6525
 3081WAT     H213045   6.148   0.825   4.685  0.0687  1.1024 -0.9844
 3081WAT    EPW13046   6.120   0.780   4.628  0.1982  0.0693 -0.2451
 3082WAT      O13047   6.538   0.126   3.882  0.0634 -0.2264  0.2387
 3082WAT     H113048   6.584   0.198   3.862 -1.6442  1.2093  1.2162
 3082WAT     H213049   6.596   0.062   3.872  1.0886  1.0050 -2.7655
 3082WAT    EPW13050   6.554   0.127   3.878 -0.0374  0.1675 -0.0607
 3083WAT      O13051   5.164   0.060   3.629 -0.2848  0.1371  0.4055
 3083WAT     H113052   5.216   0.003   3.668  0.7699  0.2512 -0.7568
 3083WAT     H213053   5.100   0.011   3.595  1.3413 -0.6226 -1.7855
 3083WAT    EPW13054   5.162   0.044   3.630  0.1112  0.0417 -0.0899
 3084WAT      O13055   6.938   0.625   4.273 -0.1004  0.3443 -0.1411
 3084WAT     H113056   6.944   0.643   4.358  2.6100 -0.2510 -0.1275
 3084WAT     H213057   6.910   0.542   4.271  0.5320  0.1136  0.2223
 3084WAT    EPW13058   6.935   0.615   4.285  0.3934  0.2222 -0.0854
 3085WAT      O13059   5.064   1.972   6.065  0.5952 -0.5111  0.2952
 3085WAT     H113060   4.980   1.951   6.070  0.4300  0.2554  0.8286
 3085WAT     H213061   5.104   1.910   6.112  0.2571 -0.4467  0.6694
 3085WAT    EPW13062   5.057   1.960   6.073  0.5209 -0.3883  0.4293
 3086WAT      O13063   6.027   6.176   4.896  0.1701  0.2138 -0.1534
 3086WAT     H113064   5.956   6.136   4.928  1.8827 -1.2866  2.0928
 3086WAT     H213065   6.045   6.236   4.956  0.6099  0.8360 -0.8931
 3086WAT    EPW13066   6.019   6.179   4.910  0.4881  0.0841  0.0691
 3087WAT      O13067   5.526   0.536   5.340 -0.0527 -0.2554 -0.4659
 3087WAT     H113068   5.480   0.467   5.368  0.6118 -0.6941 -0.4262
 3087WAT     H213069   5.564   0.566   5.413  0.5619 -0.5430 -0.6583
 3087WAT    EPW13070   5.525   0.530   5.355  0.1362 -0.3627 -0.4884
 3088WAT      O13071   3.889   1.885   4.112 -0.1433  0.2638 -0.0265
 3088WAT     H113072   3.813   1.847   4.131  0.6899 -1.3843  0.2515
 3088WAT     H213073   3.902   1.864   4.028 -0.0286  0.5644 -0.0830
 3088WAT    EPW13074   3.880   1.876   4.102 -0.0033  0.0648  0.0063
 3089WAT      O13075   5.963   7.123   5.550  0.5040 -0.9318  0.0173
 3089WAT     H113076   5.995   7.200   5.522  0.4153 -0.9390 -0.1062
 3089WAT     H213077   5.977   7.125   5.636 -1.9168  0.3898  0.4752
 3089WAT    EPW13078   5.970   7.135   5.558  0.1333 -0.7376  0.0667
 3090WAT      O13079   5.937   6.848   4.194 -0.3428 -0.4408  0.4035
 3090WAT     H113080   5.928   6.808   4.271  0.9711  1.8606  1.8843
 3090WAT     H213081   6.023   6.857   4.186 -0.4382 -0.6829 -1.4388
 3090WAT    EPW13082   5.948   6.843   4.204 -0.1628 -0.1366  0.3501
 3091WAT      O13083   6.321   7.432   6.216  0.2123 -0.6568  0.4495
 3091WAT     H113084   6.236   7.418   6.231 -0.6958  1.8596 -1.6201
 3091WAT     H213085   6.352   7.451   6.295 -1.2502 -1.1123  1.1733
 3091WAT    EPW13086   6.313   7.433   6.230 -0.1379 -0.3524  0.2507
 3092WAT      O13087   6.394   0.211   4.720  0.1863 -0.3037  0.1102
 3092WAT     H113088   6.451   0.240   4.661 -1.4177  1.3097 -0.7884
 3092WAT     H213089   6.422   0.245   4.795  0.6990  0.0153 -0.2200
 3092WAT    EPW13090   6.406   0.220   4.722  0.0251 -0.0183 -0.0713
 3093WAT      O13091   4.978   1.115   5.744  0.3362 -0.0934  0.0418
 3093WAT     H113092   5.035   1.159   5.695 -0.0080 -0.7348 -0.9616
 3093WAT     H213093   4.955   1.048   5.694 -1.6948  0.4251  0.1794
 3093WAT    EPW13094   4.983   1.112   5.729 -0.0147 -0.1116 -0.0861
 3094WAT      O13095   6.265   1.528   4.486 -0.3003  0.0017  0.3589
 3094WAT     H113096   6.279   1.614   4.484  0.6454 -0.1449  0.4990
 3094WAT     H213097   6.324   1.496   4.431 -0.2671 -0.6108  0.7395
 3094WAT    EPW13098   6.276   1.536   4.478 -0.1557 -0.1105  0.4358
 3095WAT      O13099   4.993   1.662   3.969 -0.3217  0.4962  0.1056
 3095WAT     H113100   5.006   1.576   3.964 -0.4176  0.4479  0.5926
 3095WAT     H213101   5.049   1.695   3.911 -1.2533  0.0329 -1.1006
 3095WAT    EPW13102   5.003   1.654   3.960 -0.4735  0.4206 -0.0006
 3096WAT      O13103   5.440   1.504   4.774 -0.2383 -0.1695 -0.4231
 3096WAT     H113104   5.459   1.567   4.717  1.3663  0.7268  1.0311
 3096WAT     H213105   5.497   1.441   4.755 -1.9319 -1.3636 -1.9720
 3096WAT    EPW13106   5.451   1.504   4.763 -0.2515 -0.2135 -0.4371
 3097WAT      O13107   5.941   0.713   5.834  0.0519  0.2380  0.2890
 3097WAT     H113108   5.981   0.707   5.911 -0.7503  3.2783  1.0899
 3097WAT     H213109   5.857   0.725   5.855 -0.2542  0.6394 -1.0487
 3097WAT    EPW13110   5.935   0.714   5.849 -0.1118  0.7464  0.2097
 3098WAT      O13111   5.707   1.841   5.366  0.3764 -0.2539 -0.1265
 3098WAT     H113112   5.627   1.876   5.375  0.1980 -0.7930  0.4946
 3098WAT     H213113   5.690   1.762   5.331  0.8740  0.8186 -3.0879
 3098WAT    EPW13114   5.692   1.834   5.362  0.4235 -0.1751 -0.4722
 3099WAT      O13115   6.577   0.189   4.492 -0.2468 -0.6589  0.0947
 3099WAT     H113116   6.533   0.155   4.425 -1.8340 -0.2885  0.9058
 3099WAT     H213117   6.630   0.247   4.455 -0.3061 -1.2540 -0.9341
 3099WAT    EPW13118   6.578   0.192   4.477 -0.4900 -0.6921  0.0625
 3100WAT      O13119   6.185   6.171   5.855  0.4270 -0.3490 -0.9244
 3100WAT     H113120   6.123   6.153   5.795 -0.0150  1.2057 -0.9780
 3100WAT     H213121   6.184   6.258   5.859 -0.8023 -0.3617  2.6044
 3100WAT    EPW13122   6.176   6.181   5.846  0.1801 -0.1212 -0.4110
 3101WAT      O13123   6.698   7.437   4.802  0.2042 -0.3438 -0.5378
 3101WAT     H113124   6.724   7.383   4.866  1.7244  0.9701  0.0452
 3101WAT     H213125   6.770   7.446   4.752 -0.8630 -1.0858 -2.2750
 3101WAT    EPW13126   6.713   7.431   4.804  0.2711 -0.2593 -0.7083
 3102WAT      O13127   6.315   7.358   5.498 -0.0889 -0.3193  0.1858
 3102WAT     H113128   6.391   7.393   5.521  1.2553 -1.4212 -2.1953
 3102WAT     H213129   6.334   7.315   5.425 -3.4064  0.9710 -1.6417
 3102WAT    EPW13130   6.329   7.357   5.491 -0.3804 -0.2915 -0.4359
 3103WAT      O13131   5.819   0.261   5.899 -0.0446 -0.2922 -0.3871
 3103WAT     H113132   5.788   0.288   5.822  0.5779 -2.0211 -1.3076
 3103WAT     H213133   5.777   0.185   5.912  0.7724 -0.6368  0.3507
 3103WAT    EPW13134   5.808   0.254   5.889  0.1681 -0.5985 -0.4141
 3104WAT      O13135   4.691   0.775   5.265 -0.4674 -0.0613 -0.5610
 3104WAT     H113136   4.683   0.787   5.352 -0.2679  0.4200 -0.6081
 3104WAT     H213137   4.748   0.836   5.241 -0.4365 -0.2695 -1.0180
 3104WAT    EPW13138   4.698   0.786   5.275 -0.4334 -0.0210 -0.6355
 3105WAT      O13139   5.853   7.355   5.205 -0.5529 -0.0897 -0.1977
 3105WAT     H113140   5.813   7.415   5.253  0.4118  0.5157 -0.1045
 3105WAT     H213141   5.791   7.327   5.150 -1.0590  0.9089 -0.1592
 3105WAT    EPW13142   5.838   7.360   5.204 -0.4852  0.1473 -0.1782
 3106WAT      O13143   6.430   2.163   3.450 -0.8905 -0.1372  0.4132
 3106WAT     H113144   6.346   2.185   3.450 -0.5846  1.2905 -1.4341
 3106WAT     H213145   6.466   2.219   3.394  2.0178  1.8902  3.8822
 3106WAT    EPW13146   6.423   2.174   3.442 -0.4157  0.3732  0.6528
 3107WAT      O13147   6.087   7.443   5.091 -0.3377 -0.6970 -0.3599
 3107WAT     H113148   6.132   7.369   5.100  0.0270 -0.7676 -2.2277
 3107WAT     H213149   6.008   7.423   5.122  0.9685 -0.3178  3.7832
 3107WAT    EPW13150   6.082   7.429   5.097 -0.0908 -0.6514 -0.0238
 3108WAT      O13151   6.514   0.550   4.557 -0.8612  0.2323  0.0566
 3108WAT     H113152   6.446   0.565   4.610  0.1933  0.8139  1.3120
 3108WAT     H213153   6.531   0.629   4.524  1.3877  0.9410  2.5622
 3108WAT    EPW13154   6.506   0.564   4.560 -0.3732  0.4229  0.6122
 3109WAT      O13155   6.516   0.274   4.953 -0.8479 -0.5565 -0.0074
 3109WAT     H113156   6.596   0.297   4.925  0.2724 -2.1110  1.6653
 3109WAT     H213157   6.482   0.350   4.978  1.2313 -0.1061  1.8017
 3109WAT    EPW13158   6.523   0.289   4.953 -0.3752 -0.7196  0.5070
 3110WAT      O13159   6.635   0.980   5.510 -0.5790  0.1847  0.4503
 3110WAT     H113160   6.702   0.992   5.565  1.1239 -1.1230 -1.2244
 3110WAT     H213161   6.596   0.908   5.539 -0.3491  0.1021  0.5475
 3110WAT    EPW13162   6.639   0.971   5.522 -0.2935 -0.0207  0.2173
 3111WAT      O13163   5.378   1.452   2.710  0.7061  0.2815  0.5059
 3111WAT     H113164   5.464   1.438   2.703  0.5464 -0.2910 -0.4797
 3111WAT     H213165   5.347   1.430   2.631  0.1205  4.0299 -0.5350
 3111WAT    EPW13166   5.386   1.447   2.697  0.5960  0.7507  0.2066
 3112WAT      O13167   5.845   0.791   5.212 -0.2767  0.0605  0.0891
 3112WAT     H113168   5.890   0.717   5.222 -2.9246 -1.7010  0.1662
 3112WAT     H213169   5.887   0.832   5.148  0.7565 -2.0026 -0.6516
 3112WAT    EPW13170   5.858   0.786   5.204 -0.5153 -0.5045 -0.0089
 3113WAT      O13171   5.563   2.015   1.856 -0.1300  0.3281 -0.2918
 3113WAT     H113172   5.554   2.074   1.793  0.3479  0.3461 -0.3490
 3113WAT     H213173   5.523   1.944   1.824  0.2843  0.2767 -0.7020
 3113WAT    EPW13174   5.556   2.013   1.842  0.0018  0.3232 -0.3609
 3114WAT      O13175   5.803   0.190   2.509 -0.5702  0.3039  0.3463
 3114WAT     H113176   5.876   0.170   2.467 -0.6036  0.2229  0.3264
 3114WAT     H213177   5.776   0.264   2.471 -0.5721  0.2599  0.2629
 3114WAT    EPW13178   5.810   0.198   2.497 -0.5754  0.2854  0.3310
 3115WAT      O13179   5.808   7.263   3.186 -0.1928  0.0246  0.1649
 3115WAT     H113180   5.851   7.274   3.111 -0.3920 -0.2426  0.0072
 3115WAT     H213181   5.731   7.302   3.170 -0.0971  0.3009  0.3654
 3115WAT    EPW13182   5.803   7.271   3.172 -0.2081  0.0260  0.1713
 3116WAT      O13183   6.563   7.220   2.529  0.0632 -0.3896  0.1815
 3116WAT     H113184   6.534   7.140   2.548  0.8164 -0.6348  0.3487
 3116WAT     H213185   6.641   7.223   2.568 -0.0345  0.4979  0.3434
 3116WAT    EPW13186   6.570   7.209   2.538  0.1600 -0.2947  0.2301
 3117WAT      O13187   4.579   0.685   1.516  0.1509  0.2280  0.1481
 3117WAT     H113188   4.518   0.724   1.468  0.6337  1.3058  0.3949
 3117WAT     H213189   4.643   0.669   1.459 -0.3660 -0.9658 -0.1257
 3117WAT    EPW13190   4.580   0.688   1.501  0.1458  0.2108  0.1441
 3118WAT      O13191   5.751   0.469   2.983 -0.5023 -0.1963  0.5637
 3118WAT     H113192   5.759   0.469   2.896 -2.4214 -0.2958  0.3467
 3118WAT     H213193   5.798   0.539   3.008 -0.3433  0.1314 -0.5983
 3118WAT    EPW13194   5.759   0.480   2.974 -0.7623 -0.1626  0.3600
 3119WAT      O13195   4.956   1.200   2.604  0.7687  0.1274  0.3319
 3119WAT     H113196   4.977   1.284   2.597  1.5676 -0.0321  0.7316
 3119WAT     H213197   4.971   1.182   2.688 -1.3841  0.1018  0.7658
 3119WAT    EPW13198   4.961   1.209   2.616  0.5687  0.1000  0.4551
 3120WAT      O13199   6.851   0.370   4.497  0.2365  0.0966  0.0307
 3120WAT     H113200   6.869   0.287   4.518  0.6672  0.2947  0.4588
 3120WAT     H213201   6.870   0.374   4.412  0.2171 -0.2413  0.0086
 3120WAT    EPW13202   6.857   0.358   4.488  0.2972  0.0759  0.0907
 3121WAT      O13203   6.457   1.192   2.984 -0.0355  0.1286  0.1568
 3121WAT     H113204   6.451   1.250   2.918  1.2796  0.4761  0.2987
 3121WAT     H213205   6.375   1.184   3.012 -0.4656  0.7968 -0.8370
 3121WAT    EPW13206   6.444   1.200   2.978  0.0952  0.2786  0.0309
 3122WAT      O13207   6.251   1.315   1.662  0.3349 -0.1799  0.0306
 3122WAT     H113208   6.288   1.300   1.739  1.0733  0.0393 -0.2717
 3122WAT     H213209   6.173   1.276   1.668  0.7053 -0.8332  0.6000
 3122WAT    EPW13210   6.245   1.307   1.674  0.4987 -0.2440  0.0700
 3123WAT      O13211   5.962   0.892   1.083  0.2507  0.4472 -0.0061
 3123WAT     H113212   6.035   0.938   1.071 -0.7447  1.8401 -0.9109
 3123WAT     H213213   5.932   0.879   1.002 -0.1867 -0.6638  0.3164
 3123WAT    EPW13214   5.969   0.897   1.069  0.0391  0.4888 -0.0921
 3124WAT      O13215   6.792   7.021   3.898 -0.0986  0.2755 -0.2918
 3124WAT     H113216   6.783   7.087   3.842 -0.2907 -0.3620 -1.0249
 3124WAT     H213217   6.876   7.024   3.920  0.3062 -0.2823 -1.6643
 3124WAT    EPW13218   6.803   7.031   3.893 -0.0672  0.0989 -0.6028
 3125WAT      O13219   6.513   7.527   2.345  0.0828 -0.0653  0.3731
 3125WAT     H113220   6.435   7.552   2.314  0.2657 -0.3972 -0.3783
 3125WAT     H213221   6.527   7.450   2.306  1.2705  0.4939 -0.3609
 3125WAT    EPW13222   6.503   7.519   2.335  0.2853 -0.0317  0.1537
 3126WAT      O13223   5.941   7.021   2.215  0.1003 -0.0542  0.2078
 3126WAT     H113224   5.887   6.955   2.197  0.4174 -0.1748 -0.3264
 3126WAT     H213225   5.907   7.089   2.172  0.0152  0.0240  0.3989
 3126WAT    EPW13226   5.928   7.021   2.206  0.1346 -0.0605  0.1571
 3127WAT      O13227   6.639   0.382   2.847 -0.7222 -0.2118 -0.7025
 3127WAT     H113228   6.663   0.455   2.888 -0.9683  0.0762 -1.0634
 3127WAT     H213229   6.711   0.358   2.805 -0.8758  0.3238 -1.3025
 3127WAT    EPW13230   6.653   0.390   2.847 -0.7812 -0.0901 -0.8445
 3128WAT      O13231   7.041   2.457   4.686 -0.0269  0.3426 -0.4046
 3128WAT     H113232   7.093   2.395   4.653  0.9950  0.1497  1.4441
 3128WAT     H213233   7.043   2.520   4.625  3.1085  0.7349 -0.0686
 3128WAT    EPW13234   7.049   2.457   4.672  0.5872  0.3720 -0.0819
 3129WAT      O13235   6.785   1.517   2.715 -0.0932  0.0328 -0.1520
 3129WAT     H113236   6.794   1.440   2.754 -0.4262  0.0274 -0.0776
 3129WAT     H213237   6.707   1.510   2.675 -1.2908  1.1650  1.8045
 3129WAT    EPW13238   6.775   1.505   2.714 -0.3193  0.1993  0.1480
 3130WAT      O13239   6.957   7.238   3.036  0.2365  0.8701  0.3556
 3130WAT     H113240   6.910   7.274   2.972 -1.7488  0.3584  1.4580
 3130WAT     H213241   6.984   7.163   3.003  1.1302  1.5802 -0.6064
 3130WAT    EPW13242   6.954   7.232   3.022  0.0753  0.8994  0.3763
 3131WAT      O13243   6.009   1.167   1.662 -0.0320  0.1172 -0.0396
 3131WAT     H113244   5.925   1.182   1.646 -0.5614 -1.3974  1.0704
 3131WAT     H213245   6.016   1.081   1.658  1.0222  0.0523  1.8061
 3131WAT    EPW13246   5.998   1.157   1.659  0.0455 -0.1161  0.3970
 3132WAT      O13247   5.207   0.355   3.901 -0.0576 -0.4772  0.2435
 3132WAT     H113248   5.178   0.424   3.946  0.1299 -0.4745  0.3601
 3132WAT     H213249   5.292   0.353   3.918  0.8250  1.7571 -3.0389
 3132WAT    EPW13250   5.215   0.365   3.910  0.1004 -0.1468 -0.2242
 3133WAT      O13251   5.755   6.854   5.062  0.0893  0.6643 -0.4357
 3133WAT     H113252   5.673   6.873   5.081 -0.0347 -0.8953  0.7422
 3133WAT     H213253   5.758   6.860   4.975 -1.1867  0.9748 -0.4705
 3133WAT    EPW13254   5.744   6.857   5.052 -0.1175  0.4798 -0.2668
 3134WAT      O13255   6.073   2.200   1.870  0.2299  0.3809 -0.2726
 3134WAT     H113256   5.997   2.199   1.914  0.3343 -0.2957 -0.1059
 3134WAT     H213257   6.120   2.139   1.910  0.4088 -0.0958 -1.1937
 3134WAT    EPW13258   6.069   2.191   1.883  0.2717  0.2105 -0.3841
 3135WAT      O13259   5.791   0.665   3.184  0.6899 -0.1401 -0.0300
 3135WAT     H113260   5.850   0.656   3.248  0.0317 -0.6998  0.5167
 3135WAT     H213261   5.778   0.751   3.181 -0.2762 -0.1975  1.5473
 3135WAT    EPW13262   5.798   0.676   3.193  0.4499 -0.2313  0.2838
 3136WAT      O13263   6.580   0.429   4.300 -0.2715 -0.4987  0.0133
 3136WAT     H113264   6.517   0.464   4.251  1.5936  1.5838 -1.1146
 3136WAT     H213265   6.564   0.461   4.380 -1.3230 -1.0630  0.0533
 3136WAT    EPW13266   6.568   0.439   4.305 -0.1513 -0.2745 -0.1474
 3137WAT      O13267   6.407   0.974   3.908 -0.2073  0.4756  0.5534
 3137WAT     H113268   6.493   0.977   3.892  0.0259 -1.5388  1.1667
 3137WAT     H213269   6.380   0.906   3.861 -0.8893 -0.7808  2.6340
 3137WAT    EPW13270   6.416   0.964   3.898 -0.2736 -0.0076  0.9513
 3138WAT      O13271   6.314   1.025   4.480  0.3403  0.5299 -0.4218
 3138WAT     H113272   6.302   0.947   4.443  2.7539 -0.3789  0.4915
 3138WAT     H213273   6.333   1.077   4.413  1.0517 -0.2546 -0.8560
 3138WAT    EPW13274   6.315   1.021   4.465  0.8019  0.2798 -0.3510
 3139WAT      O13275   5.822   7.482   3.530  0.4512  0.0585 -0.1596
 3139WAT     H113276   5.829   7.476   3.617  1.0076  2.3342  0.0114
 3139WAT     H213277   5.889   7.433   3.501  1.1590  0.4541  0.7460
 3139WAT    EPW13278   5.833   7.474   3.539  0.6379  0.4531 -0.0005
 3140WAT      O13279   6.062   6.760   1.781  0.0471 -0.7549 -0.2748
 3140WAT     H113280   6.025   6.705   1.838 -1.4891 -0.9832 -1.4393
 3140WAT     H213281   6.075   6.832   1.828 -0.8196 -1.0635  0.4662
 3140WAT    EPW13282   6.059   6.762   1.796 -0.3078 -0.8342 -0.3373
 3141WAT      O13283   5.348   7.654   2.439  0.3850  0.5814 -0.3949
 3141WAT     H113284   5.408   7.705   2.476  1.1936 -0.5784 -0.0489
 3141WAT     H213285   5.372   7.573   2.462 -0.4775 -0.0147 -1.4633
 3141WAT    EPW13286   5.360   7.649   2.448  0.3770  0.3220 -0.5016
 3142WAT      O13287   5.061   7.437   4.801  0.2251  0.6432 -0.1924
 3142WAT     H113288   4.988   7.425   4.756  0.2886  0.6674 -0.3028
 3142WAT     H213289   5.124   7.429   4.741  0.4784 -1.8538  0.2868
 3142WAT    EPW13290   5.060   7.434   4.785  0.2719  0.2779 -0.1379
 3143WAT      O13291   5.462   0.414   3.007 -0.6534  0.2096 -0.3209
 3143WAT     H113292   5.546   0.435   3.019 -0.6459  0.5838 -0.9915
 3143WAT     H213293   5.463   0.363   2.936 -1.2094  1.9753 -1.6588
 3143WAT    EPW13294   5.475   0.410   2.998 -0.7345  0.5257 -0.6176
 3144WAT      O13295   6.738   1.203   2.153 -0.0647 -0.5637 -0.2234
 3144WAT     H113296   6.748   1.123   2.120 -1.5857 -0.2440 -1.5787
 3144WAT     H213297   6.703   1.189   2.232  1.6436 -1.2703  0.4564
 3144WAT    EPW13298   6.735   1.189   2.160 -0.0370 -0.6208 -0.3232
 3145WAT      O13299   6.249   0.547   3.295 -0.6115  0.4462 -0.3986
 3145WAT     H113300   6.232   0.601   3.229 -1.8897 -0.4270 -0.8151
 3145WAT     H213301   6.232   0.468   3.262 -0.1166 -0.1058  0.6172
 3145WAT    EPW13302   6.244   0.544   3.280 -0.7272  0.2357 -0.3101
 3146WAT      O13303   5.928   2.992   3.768  0.0577 -0.2302 -0.0292
 3146WAT     H113304   5.915   3.071   3.803  1.9916  0.2995 -0.3791
 3146WAT     H213305   5.873   2.940   3.812 -0.6243  1.1501  0.8052
 3146WAT    EPW13306   5.918   2.996   3.779  0.2426  0.0520  0.0424
 3147WAT      O13307   6.285   6.041   1.539  0.5054  0.4442  0.4750
 3147WAT     H113308   6.219   6.088   1.571  0.9004  1.5673 -0.3115
 3147WAT     H213309   6.276   5.963   1.579 -2.0432  0.1286 -0.5685
 3147WAT    EPW13310   6.274   6.036   1.550  0.1873  0.5635  0.2046
 3148WAT      O13311   5.442   0.757   5.195  0.0149 -0.2900  0.1389
 3148WAT     H113312   5.442   0.755   5.108 -3.5244  0.2489 -0.0425
 3148WAT     H213313   5.476   0.680   5.217 -0.9869 -1.3744 -1.8079
 3148WAT    EPW13314   5.447   0.745   5.185 -0.6559 -0.3706 -0.1755
 3149WAT      O13315   6.846   0.647   4.560  0.0861 -0.0018 -0.0624
 3149WAT     H113316   6.784   0.678   4.507 -1.3089 -0.2419  1.3526
 3149WAT     H213317   6.847   0.561   4.545 -0.2236 -0.0533  0.2076
 3149WAT    EPW13318   6.837   0.639   4.550 -0.1657 -0.0448  0.1865
 3150WAT      O13319   6.613   1.157   3.257  0.4015  0.8825  0.4859
 3150WAT     H113320   6.699   1.142   3.255  0.2074 -0.2873 -1.0996
 3150WAT     H213321   6.596   1.189   3.177 -0.7348  0.5303  0.5699
 3150WAT    EPW13322   6.623   1.160   3.245  0.2050  0.6577  0.2641
 3151WAT      O13323   5.378   0.619   4.158  0.1460  0.1571  0.6350
 3151WAT     H113324   5.338   0.696   4.161 -1.2315 -0.4105 -1.4259
 3151WAT     H213325   5.407   0.613   4.076  1.4565 -0.9368  1.1408
 3151WAT    EPW13326   5.376   0.629   4.147  0.1361 -0.0883  0.4053
 3152WAT      O13327   4.919   0.682   3.170  0.6328 -0.4730 -1.1136
 3152WAT     H113328   4.991   0.719   3.201 -1.4246  1.6794  1.6439
 3152WAT     H213329   4.917   0.605   3.211  1.9058 -1.1326 -2.2045
 3152WAT    EPW13330   4.929   0.676   3.181  0.5169 -0.2525 -0.8674
 3153WAT      O13331   5.302   0.056   2.186 -0.7658  0.3237  0.3728
 3153WAT     H113332   5.294   0.044   2.272 -1.2530 -1.8814  0.0821
 3153WAT     H213333   5.253   0.127   2.171 -0.5984  0.8148  1.8853
 3153WAT    EPW13334   5.293   0.065   2.197 -0.8130  0.0705  0.5533
 3154WAT      O13335   4.921   7.451   2.161 -0.2585  0.0490 -0.1652
 3154WAT     H113336   4.931   7.510   2.225 -1.7817 -0.4084  0.5182
 3154WAT     H213337   4.861   7.396   2.192  0.9667 -1.7827 -0.8757
 3154WAT    EPW13338   4.914   7.452   2.175 -0.3025 -0.2892 -0.1692
 3155WAT      O13339   6.642   0.832   1.597  0.1786 -0.8004 -0.1609
 3155WAT     H113340   6.693   0.790   1.540 -1.5905  0.1488 -2.6208
 3155WAT     H213341   6.600   0.891   1.548 -1.1811  0.3764  2.2246
 3155WAT    EPW13342   6.643   0.834   1.582 -0.2836 -0.4864 -0.1719
 3156WAT      O13343   6.281   1.784   3.754 -0.0269 -0.2630  0.2101
 3156WAT     H113344   6.221   1.825   3.802 -1.1130 -0.1783 -1.1485
 3156WAT     H213345   6.244   1.707   3.737 -0.5873  0.4226 -2.0847
 3156WAT    EPW13346   6.267   1.778   3.759 -0.2701 -0.1492 -0.3296
 3157WAT      O13347   6.654   6.783   2.996  0.2850  0.1140 -0.0767
 3157WAT     H113348   6.606   6.796   3.067 -1.9097  1.4498 -1.6640
 3157WAT     H213349   6.660   6.696   2.991 -0.9869 -0.0594  0.8476
 3157WAT    EPW13350   6.648   6.772   3.006 -0.2271  0.2857 -0.1747
 3158WAT      O13351   5.942   7.586   3.221  0.0532 -0.1655  0.0105
 3158WAT     H113352   5.977   7.645   3.274 -0.3505 -2.2808  2.8489
 3158WAT     H213353   5.857   7.604   3.223 -0.2105 -1.3815  1.7578
 3158WAT    EPW13354   5.935   7.597   3.229 -0.0454 -0.6576  0.6879
 3159WAT      O13355   5.615   7.428   2.232  0.0165 -0.2399 -0.5252
 3159WAT     H113356   5.628   7.385   2.307 -1.1237  3.2567  1.9189
 3159WAT     H213357   5.696   7.444   2.204  0.8211  2.4966  2.7194
 3159WAT    EPW13358   5.629   7.424   2.239 -0.0331  0.6809  0.3152
 3160WAT      O13359   5.884   0.469   2.185 -0.4265 -0.4931 -0.2615
 3160WAT     H113360   5.881   0.533   2.125  2.0503 -0.8754 -0.9064
 3160WAT     H213361   5.860   0.398   2.140 -1.9282 -0.2634  0.1305
 3160WAT    EPW13362   5.880   0.468   2.169 -0.2824 -0.5156 -0.2989
 3161WAT      O13363   6.644   7.548   3.184 -0.0517  0.1104 -0.1416
 3161WAT     H113364   6.658   7.631   3.163  0.7411 -0.1043 -0.4911
 3161WAT     H213365   6.581   7.552   3.243 -0.6394  0.9006 -0.7990
 3161WAT    EPW13366   6.637   7.561   3.189 -0.0214  0.1954 -0.2903
 3162WAT      O13367   6.245   0.397   4.386  0.2569  0.3613  0.7037
 3162WAT     H113368   6.168   0.425   4.416 -0.6954 -0.9986 -0.3530
 3162WAT     H213369   6.302   0.455   4.417 -1.2396  1.6378  1.1490
 3162WAT    EPW13370   6.242   0.409   4.395 -0.1048  0.3490  0.6134
 3163WAT      O13371   6.918   1.751   2.832  0.0586  0.0489  0.6801
 3163WAT     H113372   6.857   1.767   2.892 -0.0957 -1.6659  1.0470
 3163WAT     H213373   6.891   1.677   2.795  0.8625  0.3539 -0.5737
 3163WAT    EPW13374   6.905   1.742   2.835  0.1546 -0.1593  0.5491
 3164WAT      O13375   6.338   1.798   4.479  0.2333  0.1692 -0.0128
 3164WAT     H113376   6.269   1.848   4.496  1.5210  1.7543  0.8283
 3164WAT     H213377   6.351   1.755   4.554  0.0951 -0.2184 -0.2092
 3164WAT    EPW13378   6.330   1.799   4.493  0.4031  0.3461  0.0824
 3165WAT      O13379   5.533   0.568   3.262 -0.3682  0.5434  0.6982
 3165WAT     H113380   5.608   0.601   3.230 -1.1342  1.8660  0.1903
 3165WAT     H213381   5.554   0.548   3.345  0.6163  0.6755  0.4986
 3165WAT    EPW13382   5.547   0.570   3.270 -0.3359  0.7583  0.5937
 3166WAT      O13383   6.443   0.540   2.564  0.4012  0.2401  0.5112
 3166WAT     H113384   6.415   0.458   2.555  0.3077 -0.0700  3.0673
 3166WAT     H213385   6.409   0.580   2.494 -2.0045 -1.2594  0.7009
 3166WAT    EPW13386   6.434   0.534   2.552  0.0320 -0.0272  0.9168
 3167WAT      O13387   6.682   0.406   4.740 -0.1412 -0.0625 -0.1773
 3167WAT     H113388   6.623   0.455   4.697  0.3324  1.1605  0.5309
 3167WAT     H213389   6.748   0.399   4.683 -0.0497  0.4665 -0.1444
 3167WAT    EPW13390   6.683   0.412   4.725 -0.0577  0.1963 -0.0679
 3168WAT      O13391   6.899   7.533   2.397 -0.1537 -0.6709 -0.6286
 3168WAT     H113392   6.893   7.455   2.360 -0.7473 -0.4095 -1.1041
 3168WAT     H213393   6.827   7.574   2.370 -1.0172 -0.7250  1.4345
 3168WAT    EPW13394   6.887   7.528   2.388 -0.3690 -0.6403 -0.3941
 3169WAT      O13395   5.298   2.090   2.905  0.6863  0.1025 -0.1318
 3169WAT     H113396   5.223   2.076   2.948  2.0411 -2.5930  1.5922
 3169WAT     H213397   5.328   2.164   2.941 -0.6204  0.6940 -0.1638
 3169WAT    EPW13398   5.291   2.099   2.917  0.6934 -0.2083  0.1182
 3170WAT      O13399   4.792   0.393   0.969 -0.8662  0.1378 -0.1659
 3170WAT     H113400   4.836   0.333   1.014 -0.1439  0.0807 -0.9213
 3170WAT     H213401   4.853   0.430   0.919 -1.7788 -0.5488 -1.8889
 3170WAT    EPW13402   4.807   0.390   0.968 -0.8943  0.0279 -0.5320
 3171WAT      O13403   4.937   7.565   3.600 -0.0264 -0.7016 -0.2090
 3171WAT     H113404   4.878   7.572   3.664  0.8290  1.3642  0.4147
 3171WAT     H213405   4.985   7.496   3.624 -0.2000 -0.4322  0.9542
 3171WAT    EPW13406   4.935   7.556   3.613  0.0743 -0.3566  0.0550
 3172WAT      O13407   6.424   0.693   2.845 -0.1989  1.0151 -0.1438
 3172WAT     H113408   6.457   0.656   2.772 -0.5252 -0.1035  0.2485
 3172WAT     H213409   6.482   0.670   2.907  0.1551  2.0826 -0.0551
 3172WAT    EPW13410   6.438   0.684   2.843 -0.1948  1.0076 -0.0727
 3173WAT      O13411   7.040   6.664   0.583 -0.7254  0.1471 -0.0694
 3173WAT     H113412   7.118   6.701   0.595 -1.0611  0.5340  0.9735
 3173WAT     H213413   7.022   6.681   0.499  0.5972 -0.5173 -0.5152
 3173WAT    EPW13414   7.049   6.672   0.572 -0.5796  0.1061  0.0188
 3174WAT      O13415   6.474   0.621   1.593 -0.0663  0.3357 -1.0234
 3174WAT     H113416   6.508   0.701   1.603 -1.5913  1.2134 -2.2993
 3174WAT     H213417   6.456   0.597   1.674  0.9860  1.0278 -0.5620
 3174WAT    EPW13418   6.476   0.630   1.606 -0.1361  0.5676 -1.1437
 3175WAT      O13419   5.165   0.049   4.246 -0.0343 -0.4213 -0.4454
 3175WAT     H113420   5.197   0.097   4.310 -0.4783 -0.3930 -0.2414
 3175WAT     H213421   5.214  -0.023   4.248 -0.1701 -0.5034  0.0514
 3175WAT    EPW13422   5.177   0.045   4.256 -0.1200 -0.4293 -0.3419
 3176WAT      O13423   5.844   6.679   2.779 -0.0915 -0.6613 -0.2520
 3176WAT     H113424   5.866   6.607   2.821  0.2400 -0.1223  0.5212
 3176WAT     H213425   5.773   6.708   2.821 -0.1863 -0.5052 -0.5135
 3176WAT    EPW13426   5.837   6.673   2.791 -0.0566 -0.5586 -0.1764
 3177WAT      O13427   5.600   1.588   2.124 -0.5204  0.2982  0.0609
 3177WAT     H113428   5.621   1.602   2.208 -0.9602 -1.2540  0.4521
 3177WAT     H213429   5.598   1.669   2.090 -2.7568  1.2364  2.1414
 3177WAT    EPW13430   5.603   1.602   2.131 -0.9157  0.2075  0.4260
 3178WAT      O13431   5.893   7.580   3.993  0.3441 -0.1194  0.3070
 3178WAT     H113432   5.868   7.523   3.932 -3.2908  0.2757  1.1825
 3178WAT     H213433   5.863   7.544   4.067  0.8377  1.4027  1.2844
 3178WAT    EPW13434   5.885   7.566   3.995 -0.1199  0.1638  0.5807
 3179WAT      O13435   6.410   0.403   3.769  0.2897 -0.0028  0.0363
 3179WAT     H113436   6.413   0.324   3.806 -0.9217  0.6059  1.5494
 3179WAT     H213437   6.413   0.386   3.684 -0.9980 -1.7716  0.2846
 3179WAT    EPW13438   6.411   0.389   3.762 -0.0794 -0.1742  0.2965
 3180WAT      O13439   6.715   7.156   3.461  0.8217  0.3155  0.4521
 3180WAT     H113440   6.628   7.153   3.457  0.8787 -1.6199 -0.6842
 3180WAT     H213441   6.737   7.211   3.397  0.4595  1.9381  1.6392
 3180WAT    EPW13442   6.706   7.164   3.451  0.7766  0.2693  0.4596
 3181WAT      O13443   5.893   1.196   2.403 -0.1840  0.3151 -0.4003
 3181WAT     H113444   5.817   1.189   2.445 -0.1156  0.1651 -0.3006
 3181WAT     H213445   5.870   1.225   2.324 -0.3636  0.1053 -0.4271
 3181WAT    EPW13446   5.879   1.199   2.397 -0.2004  0.2620 -0.3895
 3182WAT      O13447   6.376   0.474   5.084  0.2590  0.7179  0.3916
 3182WAT     H113448   6.425   0.535   5.120 -0.6257  0.4180  2.1896
 3182WAT     H213449   6.309   0.518   5.050  0.2907  0.8533  0.5089
 3182WAT    EPW13450   6.373   0.489   5.084  0.1330  0.6936  0.6745
 3183WAT      O13451   5.859   7.153   2.453 -0.8810 -0.1334  0.1257
 3183WAT     H113452   5.878   7.116   2.376  0.3960 -1.0872  0.8618
 3183WAT     H213453   5.905   7.105   2.511  0.5010  2.3254  1.2016
 3183WAT    EPW13454   5.869   7.140   2.450 -0.4882  0.0889  0.3934
 3184WAT      O13455   6.725   7.612   3.868 -0.0593 -0.5091  0.7689
 3184WAT     H113456   6.782   7.590   3.806  0.3266  0.1489  0.8858
 3184WAT     H213457   6.775   7.634   3.936 -0.3785  1.3187  0.4630
 3184WAT    EPW13458   6.741   7.612   3.868 -0.0494 -0.1419  0.7410
 3185WAT      O13459   5.807   6.713   2.496 -0.1192 -0.6246 -0.0305
 3185WAT     H113460   5.782   6.634   2.470  4.3935 -2.5250  0.5164
 3185WAT     H213461   5.807   6.708   2.583 -0.8771  0.4602  0.0619
 3185WAT    EPW13462   5.804   6.701   2.505  0.4355 -0.7451  0.0639
 3186WAT      O13463   6.830   2.182   2.382  0.0209 -0.1012 -0.3156
 3186WAT     H113464   6.903   2.184   2.430 -0.8038  1.3527  0.9664
 3186WAT     H213465   6.779   2.242   2.419 -1.3455 -0.1462 -1.9786
 3186WAT    EPW13466   6.833   2.191   2.395 -0.3028  0.1069 -0.3719
 3187WAT      O13467   5.522   0.379   2.747 -0.4489  0.4041 -0.3410
 3187WAT     H113468   5.447   0.412   2.716 -0.5241 -0.5668 -1.2432
 3187WAT     H213469   5.581   0.439   2.726 -0.9071  0.9927  0.0198
 3187WAT    EPW13470   5.520   0.393   2.739 -0.5277  0.3477 -0.4210
 3188WAT      O13471   6.407   7.129   4.057 -0.5326 -0.3961  0.2927
 3188WAT     H113472   6.431   7.075   4.121 -1.5835 -1.3263 -0.0530
 3188WAT     H213473   6.467   7.192   4.059  0.1430 -1.0430  1.3871
 3188WAT    EPW13474   6.419   7.130   4.067 -0.5880 -0.6291  0.4033
 3189WAT      O13475   6.085   1.017   3.547  0.0410  0.4896  0.1054
 3189WAT     H113476   6.081   0.953   3.606 -0.4429 -0.1761 -0.6260
 3189WAT     H213477   6.167   1.046   3.554  0.1861 -0.0289  0.6312
 3189WAT    EPW13478   6.097   1.012   3.557 -0.0090  0.3146  0.0750
 3190WAT      O13479   5.970   7.419   4.398 -0.2083 -0.1043  0.0957
 3190WAT     H113480   5.898   7.433   4.351 -0.5950 -1.5724  0.1926
 3190WAT     H213481   6.035   7.441   4.344 -0.6906 -0.2436 -0.5489
 3190WAT    EPW13482   5.969   7.424   4.383 -0.3367 -0.3417  0.0148
 3191WAT      O13483   6.199   0.075   3.064 -0.0174 -0.2025 -0.2306
 3191WAT     H113484   6.171   0.005   3.020 -1.4651  0.2715 -0.1280
 3191WAT     H213485   6.146   0.138   3.037  0.4050  0.5593  0.6623
 3191WAT    EPW13486   6.187   0.074   3.054 -0.1688 -0.0200 -0.0835
 3192WAT      O13487   6.232   0.110   4.431 -0.0016 -0.4079 -0.2263
 3192WAT     H113488   6.234   0.065   4.506  2.2377 -1.9829 -1.1047
 3192WAT     H213489   6.242   0.193   4.456 -0.8886 -0.7232  1.2836
 3192WAT    EPW13490   6.234   0.115   4.446  0.1982 -0.6871 -0.1330
 3193WAT      O13491   6.829   1.042   1.270 -0.0758  0.0321 -0.0460
 3193WAT     H113492   6.750   1.025   1.236 -0.0383 -2.6926  1.0006
 3193WAT     H213493   6.880   0.982   1.234  1.0417  0.3427  0.9705
 3193WAT    EPW13494   6.825   1.030   1.260  0.0948 -0.3245  0.2588
 3194WAT      O13495   6.521   7.259   2.267  0.4979  0.4660 -0.2827
 3194WAT     H113496   6.603   7.278   2.244  0.5251 -0.1608 -0.6981
 3194WAT     H213497   6.528   7.244   2.353  0.5893  1.6627 -0.0633
 3194WAT    EPW13498   6.534   7.260   2.277  0.5154  0.5502 -0.3117
 3195WAT      O13499   7.099   0.504   4.044  0.3093  0.1134 -0.0810
 3195WAT     H113500   7.158   0.567   4.059 -1.5493  1.6925  1.0986
 3195WAT     H213501   7.043   0.512   4.110  0.2510 -3.2104  0.4267
 3195WAT    EPW13502   7.099   0.515   4.056  0.0262 -0.1444  0.1682
 3196WAT      O13503   5.925   1.921   1.068  0.6398  0.6618 -0.1599
 3196WAT     H113504   5.978   1.938   1.001  0.2537 -0.0260 -0.6534
 3196WAT     H213505   5.917   1.834   1.067  1.8752  0.4427  1.7551
 3196WAT    EPW13506   5.932   1.910   1.058  0.7652  0.5279  0.0501
 3197WAT      O13507   6.537   0.399   2.229  0.0468 -0.1730 -0.2316
 3197WAT     H113508   6.604   0.421   2.280 -0.9025  1.3054  0.4593
 3197WAT     H213509   6.516   0.475   2.190  0.2179 -1.0808 -2.2132
 3197WAT    EPW13510   6.544   0.414   2.231 -0.0682 -0.0887 -0.4222
 3198WAT      O13511   6.408   0.802   4.124 -0.2090  0.4610  0.0580
 3198WAT     H113512   6.369   0.852   4.063  0.4791  1.7412  0.6421
 3198WAT     H213513   6.419   0.725   4.083  1.6298  1.7054 -2.0133
 3198WAT    EPW13514   6.404   0.798   4.109  0.1643  0.8339 -0.1617
 3199WAT      O13515   6.713   0.585   3.490  0.1948 -0.0229 -0.0300
 3199WAT     H113516   6.646   0.596   3.436 -0.5828 -2.1590  0.3934
 3199WAT     H213517   6.704   0.650   3.547  0.5638  1.7872 -1.9274
 3199WAT    EPW13518   6.702   0.596   3.491  0.1345 -0.0711 -0.2477
 3200WAT      O13519   6.791   0.060   4.883  0.2053 -0.3235 -0.3907
 3200WAT     H113520   6.791   0.003   4.948  1.6991  0.6223  0.4951
 3200WAT     H213521   6.720   0.039   4.836 -0.2189 -1.7754  0.8558
 3200WAT    EPW13522   6.781   0.049   4.885  0.3633 -0.3983 -0.0757
 3201WAT      O13523   5.864   0.361   3.209 -0.6864  0.4455 -0.5052
 3201WAT     H113524   5.898   0.431   3.248  0.6577 -0.8970  0.8606
 3201WAT     H213525   5.800   0.394   3.159  0.3494  2.6863 -0.4492
 3201WAT    EPW13526   5.860   0.376   3.207 -0.3348  0.5782 -0.2951
 3202WAT      O13527   6.581   7.487   4.270  0.0870  0.2122  0.6725
 3202WAT     H113528   6.663   7.511   4.287  0.4865 -0.9505  0.4560
 3202WAT     H213529   6.540   7.562   4.256  1.3244  0.7583 -0.1572
 3202WAT    EPW13530   6.587   7.501   4.271  0.3288  0.1211  0.5180
 3203WAT      O13531   6.158   1.162   4.085 -0.3271  0.5725  0.1014
 3203WAT     H113532   6.112   1.234   4.106 -2.2825 -0.2655 -1.0334
 3203WAT     H213533   6.127   1.140   4.007 -1.5046 -2.7388  1.2943
 3203WAT    EPW13534   6.146   1.169   4.077 -0.7899 -0.0404  0.1100
 3204WAT      O13535   4.738   7.520   3.150 -0.1580  0.1201  0.0202
 3204WAT     H113536   4.791   7.566   3.202 -0.4105  2.0151 -1.3000
 3204WAT     H213537   4.792   7.463   3.112  0.8538  1.4860 -0.7000
 3204WAT    EPW13538   4.754   7.518   3.152 -0.0458  0.6018 -0.2812
 3205WAT      O13539   4.753   1.899   2.976 -0.3504 -0.5285  0.0952
 3205WAT     H113540   4.837   1.923   2.969 -0.1848  0.6385  3.9744
 3205WAT     H213541   4.753   1.842   3.041 -2.5100 -1.2016 -0.4247
 3205WAT    EPW13542   4.765   1.894   2.984 -0.6449 -0.4555  0.5915
 3206WAT      O13543   6.694   0.042   2.319  0.2503 -0.0712 -0.0506
 3206WAT     H113544   6.633  -0.019   2.307 -0.3535  0.5525 -0.2553
 3206WAT     H213545   6.678   0.071   2.400  1.8252 -1.5616  0.8526
 3206WAT    EPW13546   6.682   0.038   2.329  0.3937 -0.1992  0.0526
 3207WAT      O13547   6.143   7.666   1.397  0.1815  0.2387  0.2075
 3207WAT     H113548   6.116   7.733   1.348  0.0116  0.3173  0.4072
 3207WAT     H213549   6.154   7.702   1.476  0.7806  0.1880  0.1519
 3207WAT    EPW13550   6.140   7.682   1.402  0.2449  0.2428  0.2288
 3208WAT      O13551   6.293   7.264   4.826 -0.1251 -0.0629 -0.1725
 3208WAT     H113552   6.289   7.205   4.890 -0.0700  0.1343  0.0153
 3208WAT     H213553   6.362   7.313   4.848 -1.3281  1.3108  0.7821
 3208WAT    EPW13554   6.303   7.262   4.839 -0.2946  0.1691 -0.0038
 3209WAT      O13555   6.837   7.124   2.614 -0.3831 -0.5777 -0.0063
 3209WAT     H113556   6.806   7.054   2.656 -1.6665  0.0386  0.1440
 3209WAT     H213557   6.896   7.157   2.670 -1.5822 -0.1494  1.0665
 3209WAT    EPW13558   6.841   7.119   2.628 -0.7498 -0.4234  0.1743
 3210WAT      O13559   6.822   6.447   3.769 -0.0724 -0.5370 -0.1835
 3210WAT     H113560   6.808   6.483   3.692  0.9965 -1.5663 -0.8996
 3210WAT     H213561   6.777   6.372   3.766 -0.4038 -0.3701  0.3782
 3210WAT    EPW13562   6.814   6.441   3.757  0.0365 -0.6644 -0.2063
 3211WAT      O13563   6.148   0.583   2.176 -0.0478 -0.1571  0.0102
 3211WAT     H113564   6.200   0.602   2.243  0.3998  1.5459 -0.7626
 3211WAT     H213565   6.086   0.534   2.212  1.2039 -0.9035  1.2727
 3211WAT    EPW13566   6.147   0.579   2.191  0.2033 -0.0158  0.0825
 3212WAT      O13567   6.622   0.216   2.528 -0.1574 -0.5180 -0.4381
 3212WAT     H113568   6.610   0.193   2.611 -0.6241  0.5649 -0.1896
 3212WAT     H213569   6.662   0.293   2.534  0.6877 -0.8665 -1.2392
 3212WAT    EPW13570   6.626   0.224   2.541 -0.1015 -0.4095 -0.5197
 3213WAT      O13571   6.269   1.843   4.181 -0.3872  0.0041 -0.0585
 3213WAT     H113572   6.196   1.798   4.198  0.6391 -1.9132 -0.5158
 3213WAT     H213573   6.313   1.839   4.256 -0.2914  0.3141 -0.0957
 3213WAT    EPW13574   6.264   1.836   4.195 -0.2215 -0.2333 -0.1316
 3214WAT      O13575   2.913   0.358   0.121 -0.5602 -0.1274 -0.1359
 3214WAT     H113576   2.969   0.403   0.071 -0.0167  0.6884  1.1485
 3214WAT     H213577   2.883   0.418   0.176 -2.7978 -0.5306 -0.8213
 3214WAT    EPW13578   2.917   0.374   0.122 -0.8104 -0.0664 -0.0474
 3215WAT      O13579   5.860   6.804   0.650 -0.3462 -0.2037 -0.5405
 3215WAT     H113580   5.792   6.847   0.684  0.1612  0.3483 -0.2050
 3215WAT     H213581   5.922   6.810   0.712 -0.0133 -0.7677 -0.8046
 3215WAT    EPW13582   5.859   6.811   0.664 -0.2221 -0.2055 -0.5300
 3216WAT      O13583   6.166   7.066   0.140  0.3051  0.1204 -0.3418
 3216WAT     H113584   6.229   7.103   0.093  0.4318  0.5954  0.1987
 3216WAT     H213585   6.206   7.045   0.215 -0.1266  0.2245 -0.0809
 3216WAT    EPW13586   6.182   7.068   0.144  0.2600  0.2060 -0.2234
 3217WAT      O13587   5.923   7.315   0.522  0.4663 -0.1914 -0.3942
 3217WAT     H113588   5.948   7.314   0.439  0.2111  0.7516 -0.5009
 3217WAT     H213589   5.931   7.399   0.545 -0.0868 -0.3217  0.3347
 3217WAT    EPW13590   5.928   7.328   0.513  0.3469 -0.0714 -0.3023
 3218WAT      O13591   7.188   0.102   6.851  0.2593  0.4758  0.2776
 3218WAT     H113592   7.110   0.115   6.887 -0.1905  1.2898 -0.9017
 3218WAT     H213593   7.187   0.018   6.828 -0.7765  0.7581 -0.8070
 3218WAT    EPW13594   7.176   0.092   6.853  0.0399  0.6377 -0.0569
 3219WAT      O13595   6.768   0.957   1.982  0.3311 -0.5940  0.0631
 3219WAT     H113596   6.704   0.901   2.003  1.1254 -1.9010 -0.7936
 3219WAT     H213597   6.795   0.927   1.904  0.6562  1.1363 -0.5203
 3219WAT    EPW13598   6.763   0.944   1.973  0.4964 -0.5314 -0.1496
 3220WAT      O13599   4.383   1.547   1.662  0.1064 -0.0988 -0.0840
 3220WAT     H113600   4.343   1.616   1.697 -0.7937 -0.2325 -0.8205
 3220WAT     H213601   4.410   1.577   1.584 -0.6531 -0.6844 -0.5827
 3220WAT    EPW13602   4.381   1.562   1.656 -0.1387 -0.2051 -0.2665
 3221WAT      O13603   4.162   0.414   1.933  0.1380  0.0044  0.3994
 3221WAT     H113604   4.142   0.432   1.851 -1.8402  0.6908  0.9870
 3221WAT     H213605   4.226   0.470   1.952 -0.5797  1.0181 -0.1528
 3221WAT    EPW13606   4.169   0.425   1.924 -0.2603  0.2556  0.4047
 3222WAT      O13607   5.864   7.651   7.513  0.1206  0.1377 -0.1360
 3222WAT     H113608   5.847   7.648   7.598  1.0529  0.4227  0.0750
 3222WAT     H213609   5.938   7.605   7.506 -1.5542 -2.6388 -1.2579
 3222WAT    EPW13610   5.873   7.644   7.524  0.0109 -0.2304 -0.2705
 3223WAT      O13611   6.397   0.516   1.853  0.1537 -0.1152 -0.6926
 3223WAT     H113612   6.427   0.566   1.918  0.7746 -1.1613 -0.1428
 3223WAT     H213613   6.313   0.505   1.873  0.2347 -0.0569 -0.3137
 3223WAT    EPW13614   6.389   0.522   1.866  0.2574 -0.2611 -0.5554
 3224WAT      O13615   5.405   1.566   0.060 -0.4262  0.5083  0.4849
 3224WAT     H113616   5.461   1.510   0.095 -0.2661 -0.4389 -1.1546
 3224WAT     H213617   5.378   1.525  -0.012 -2.8249  1.1646  0.9367
 3224WAT    EPW13618   5.409   1.552   0.054 -0.7569  0.4653  0.3094
 3225WAT      O13619   6.595   0.629   6.798  0.3585 -0.8787  0.0850
 3225WAT     H113620   6.667   0.678   6.811  0.4078 -0.1774 -2.3363
 3225WAT     H213621   6.615   0.552   6.833  1.8703 -0.3538  0.4312
 3225WAT    EPW13622   6.609   0.625   6.805  0.5892 -0.6976 -0.2215
 3226WAT      O13623   6.038   0.288   0.389 -0.2851  0.0743 -0.3528
 3226WAT     H113624   6.048   0.358   0.440  0.5158 -0.3899  0.1483
 3226WAT     H213625   5.952   0.283   0.377 -0.4676  0.3323  0.7512
 3226WAT    EPW13626   6.027   0.298   0.394 -0.1938  0.0439 -0.1157
 3227WAT      O13627   6.181   0.109   0.532  0.0796  0.2164  0.2865
 3227WAT     H113628   6.125   0.173   0.516 -0.5613  0.6044  3.4017
 3227WAT     H213629   6.130   0.038   0.536  0.4009 -0.0714 -0.6269
 3227WAT    EPW13630   6.165   0.108   0.531  0.0324  0.2312  0.6118
 3228WAT      O13631   5.624   1.091   0.304  0.4841  0.1305 -0.0337
 3228WAT     H113632   5.542   1.084   0.277  0.4769  0.9885 -0.2502
 3228WAT     H213633   5.669   1.106   0.230  0.5937  1.4638  0.2850
 3228WAT    EPW13634   5.619   1.092   0.289  0.4992  0.4542 -0.0186
 3229WAT      O13635   6.993   0.227   2.982  0.7045 -0.0831  0.4062
 3229WAT     H113636   7.080   0.232   2.985  1.0969 -3.1543 -1.5364
 3229WAT     H213637   6.973   0.264   2.905  0.5698 -1.2299 -0.1337
 3229WAT    EPW13638   7.003   0.233   2.971  0.7425 -0.7062  0.0395
 3230WAT      O13639   6.186   0.680   1.487  0.4685 -0.2032  0.6519
 3230WAT     H113640   6.202   0.729   1.416 -0.6371 -0.0838  0.4623
 3230WAT     H213641   6.262   0.640   1.502  0.5860 -0.6247 -0.9161
 3230WAT    EPW13642   6.200   0.682   1.478  0.3225 -0.2478  0.3923
 3231WAT      O13643   5.239   0.242   7.687  0.3210 -0.0828  0.4553
 3231WAT     H113644   5.172   0.188   7.671  0.5276  0.3307 -2.2546
 3231WAT     H213645   5.271   0.260   7.608  0.6081  3.6131  1.2062
 3231WAT    EPW13646   5.234   0.237   7.673  0.3939  0.5242  0.1659
 3232WAT      O13647   4.671   0.976   7.152 -0.1955 -0.0029 -0.1597
 3232WAT     H113648   4.728   1.001   7.213 -0.6655 -0.0922  0.3181
 3232WAT     H213649   4.712   0.995   7.077 -1.2559  4.2398  0.0518
 3232WAT    EPW13650   4.685   0.983   7.150 -0.4216  0.6107 -0.0579
 3233WAT      O13651   6.062   1.448   1.111  0.2640 -0.5336 -0.1329
 3233WAT     H113652   6.040   1.404   1.183  0.3683 -0.6030 -0.1435
 3233WAT     H213653   6.037   1.394   1.047  0.8818 -0.8140 -0.1409
 3233WAT    EPW13654   6.055   1.434   1.112  0.3707 -0.5853 -0.1357
 3234WAT      O13655   6.637   5.803   0.065 -0.2122  0.1913 -0.3822
 3234WAT     H113656   6.648   5.834  -0.016  1.4545  1.1816  0.1827
 3234WAT     H213657   6.625   5.875   0.113 -0.7337 -0.3576  0.3337
 3234WAT    EPW13658   6.637   5.818   0.060 -0.0430  0.2565 -0.1930
 3235WAT      O13659   6.407   0.625   7.363 -0.1412  0.3948  0.2873
 3235WAT     H113660   6.484   0.590   7.342  0.1427  1.7141 -0.9756
 3235WAT     H213661   6.353   0.596   7.301 -0.1943  1.0961 -0.0066
 3235WAT    EPW13662   6.411   0.615   7.351 -0.1071  0.6933  0.0573
 3236WAT      O13663   6.232   7.621   7.864 -0.7543  0.3688 -0.7129
 3236WAT     H113664   6.253   7.537   7.877  0.0758  0.4385 -1.4672
 3236WAT     H213665   6.193   7.645   7.938 -0.7972 -0.6203 -0.4069
 3236WAT    EPW13666   6.229   7.612   7.877 -0.6380  0.2330 -0.7791
 3237WAT      O13667   6.826   7.379   2.800  0.0976  0.4381 -0.0668
 3237WAT     H113668   6.750   7.395   2.761 -0.2933  1.3929  1.0091
 3237WAT     H213669   6.855   7.459   2.821  1.8689  0.1718 -1.2709
 3237WAT    EPW13670   6.819   7.394   2.797  0.3015  0.5398 -0.0858
 3238WAT      O13671   6.792   0.846   2.910 -0.1073  0.1422  0.1692
 3238WAT     H113672   6.741   0.895   2.860 -3.0464 -1.9424  0.8115
 3238WAT     H213673   6.852   0.815   2.855  0.3268  2.3757 -0.7225
 3238WAT    EPW13674   6.794   0.848   2.895 -0.4773  0.1642  0.1323
 3239WAT      O13675   5.824   6.870   7.787 -0.0222 -0.4264 -0.2229
 3239WAT     H113676   5.791   6.878   7.867  1.4234  1.4167  0.2560
 3239WAT     H213677   5.791   6.794   7.759 -1.0039 -0.8580  1.8827
 3239WAT    EPW13678   5.814   6.860   7.795  0.0464 -0.2179  0.1589
 3240WAT      O13679   6.435   0.033   1.824  0.7346  0.0208  0.0702
 3240WAT     H113680   6.440   0.091   1.889 -0.5481  1.0087 -0.6416
 3240WAT     H213681   6.516   0.003   1.816  1.0013  0.2021  1.8198
 3240WAT    EPW13682   6.447   0.037   1.832  0.5845  0.1935  0.2235
 3241WAT      O13683   5.816   1.215   7.585  0.0514  0.2811  0.4880
 3241WAT     H113684   5.880   1.196   7.529 -0.1448  1.5022 -0.1893
 3241WAT     H213685   5.858   1.245   7.655  0.2947 -1.1657  0.9829
 3241WAT    EPW13686   5.832   1.217   7.587  0.0583  0.2477  0.4611
 3242WAT      O13687   4.718   1.639   7.847  0.1732 -0.5556  0.0991
 3242WAT     H113688   4.779   1.578   7.832  0.2375 -0.5179  0.2093
 3242WAT     H213689   4.757   1.713   7.824 -0.0063 -0.5885 -0.3174
 3242WAT    EPW13690   4.733   1.641   7.841  0.1562 -0.5549  0.0539
 3243WAT      O13691   5.304   0.704   1.992  0.2466 -0.3745 -0.0709
 3243WAT     H113692   5.329   0.642   2.048 -2.6464 -0.8587  0.8755
 3243WAT     H213693   5.372   0.758   1.989  1.4294 -1.6211  2.0093
 3243WAT    EPW13694   5.318   0.703   2.000 -0.0060 -0.6302  0.3762
 3244WAT      O13695   4.330   2.417   2.062  0.2184  0.2200  0.2796
 3244WAT     H113696   4.317   2.484   2.008  0.5314  1.1045  1.2643
 3244WAT     H213697   4.395   2.372   2.025  0.7596  1.0864  0.1447
 3244WAT    EPW13698   4.338   2.420   2.049  0.3445  0.4786  0.4051
 3245WAT      O13699   6.009   1.156   7.392 -0.8085  0.2166 -0.3065
 3245WAT     H113700   6.047   1.088   7.431 -0.4753  2.2177  3.2556
 3245WAT     H213701   6.072   1.188   7.340  0.8791  0.6963  1.8883
 3245WAT    EPW13702   6.024   1.151   7.390 -0.5100  0.5831  0.5439
 3246WAT      O13703   6.232   0.225   7.841  0.2473  0.2975 -0.1103
 3246WAT     H113704   6.276   0.214   7.766 -0.6671 -0.6142 -0.5331
 3246WAT     H213705   6.227   0.144   7.874  1.5704  0.8085  1.5210
 3246WAT    EPW13706   6.238   0.211   7.835  0.3077  0.2383  0.0682
 3247WAT      O13707   6.799   0.461   1.194  0.5545  0.1790 -0.0195
 3247WAT     H113708   6.813   0.409   1.125  0.3337 -1.5669  1.2046
 3247WAT     H213709   6.864   0.520   1.188  0.6829 -0.0628 -1.5537
 3247WAT    EPW13710   6.811   0.462   1.183  0.5408 -0.1146 -0.0653
 3248WAT      O13711   6.921   0.401   2.114 -0.1030  0.3136 -0.3300
 3248WAT     H113712   6.945   0.336   2.166  0.3517  0.3067 -0.5396
 3248WAT     H213713   6.995   0.446   2.102 -0.3042  0.5848 -0.5816
 3248WAT    EPW13714   6.935   0.398   2.120 -0.0655  0.3527 -0.3981
 3249WAT      O13715   5.774   5.968   7.675  0.1792 -0.1481  0.2881
 3249WAT     H113716   5.808   6.048   7.680 -0.2530  0.0197  0.6616
 3249WAT     H213717   5.757   5.947   7.758  0.8857 -0.8961  0.2532
 3249WAT    EPW13718   5.776   5.977   7.688  0.2197 -0.2338  0.3381
 3250WAT      O13719   5.697   0.179   0.804  0.1869 -0.0579  0.7522
 3250WAT     H113720   5.730   0.123   0.745  0.8588  0.8986  0.1831
 3250WAT     H213721   5.644   0.130   0.852  0.6971 -1.1614  0.2172
 3250WAT    EPW13722   5.694   0.164   0.802  0.3615 -0.0796  0.5891
 3251WAT      O13723   5.479   0.723   0.285 -0.3723 -0.0920 -0.1831
 3251WAT     H113724   5.539   0.784   0.305 -2.0109  1.3086  0.7959
 3251WAT     H213725   5.474   0.727   0.198  0.8892 -0.1881 -0.2777
 3251WAT    EPW13726   5.487   0.733   0.275 -0.4280  0.1007 -0.0524
 3252WAT      O13727   6.207   1.089   1.016 -0.0830 -0.6519  0.2664
 3252WAT     H113728   6.257   1.135   1.071 -0.7712  2.2410 -1.3286
 3252WAT     H213729   6.145   1.145   0.992 -0.6298 -2.1928 -2.3742
 3252WAT    EPW13730   6.205   1.104   1.021 -0.2654 -0.4522 -0.3593
 3253WAT      O13731   5.108   0.051   1.784  0.3642  0.4600  0.0492
 3253WAT     H113732   5.161   0.005   1.835  0.1677  0.5441  0.3317
 3253WAT     H213733   5.034   0.057   1.830  0.2236  0.6380 -0.1924
 3253WAT    EPW13734   5.105   0.045   1.798  0.3144  0.4987  0.0553
 3254WAT      O13735   5.907   7.458   2.204  0.4000 -0.1799  0.5069
 3254WAT     H113736   5.974   7.497   2.165  0.1107 -0.5594 -0.3888
 3254WAT     H213737   5.925   7.467   2.289  1.5264 -0.1853  0.2824
 3254WAT    EPW13738   5.919   7.465   2.211  0.5236 -0.2368  0.3414
 3255WAT      O13739   6.521   7.445   1.540 -0.3634 -0.3386 -0.5424
 3255WAT     H113740   6.516   7.521   1.499 -1.1559 -0.3515 -0.4941
 3255WAT     H213741   6.607   7.430   1.546 -0.2127 -0.3131 -2.1374
 3255WAT    EPW13742   6.533   7.454   1.535 -0.4582 -0.3368 -0.7708
 3256WAT      O13743   6.625   1.068   0.150  0.5435 -0.6312  0.0409
 3256WAT     H113744   6.587   0.994   0.126 -1.7575  0.2339  0.6830
 3256WAT     H213745   6.575   1.096   0.216  0.6004  2.0270 -0.9133
 3256WAT    EPW13746   6.612   1.061   0.156  0.2120 -0.1108 -0.0052
 3257WAT      O13747   6.572   0.304   0.898 -0.1051  0.1793 -0.4067
 3257WAT     H113748   6.640   0.281   0.947  0.4023 -0.5107 -1.3914
 3257WAT     H213749   6.609   0.341   0.828 -0.7895  0.8212 -0.4383
 3257WAT    EPW13750   6.588   0.306   0.895 -0.1313  0.1722 -0.5568
 3258WAT      O13751   6.793   0.097   2.033 -0.0626  0.0835 -0.0443
 3258WAT     H113752   6.840   0.171   2.034 -1.3977  0.9475  0.8651
 3258WAT     H213753   6.768   0.088   2.116 -1.8112 -0.1571 -0.5769
 3258WAT    EPW13754   6.796   0.106   2.045 -0.5181  0.1756  0.0113
 3259WAT      O13755   6.141   7.595   2.049 -0.2910  0.1328 -0.2214
 3259WAT     H113756   6.228   7.604   2.045 -0.3097  0.4377  0.0243
 3259WAT     H213757   6.111   7.661   2.001 -0.3789 -0.4320 -0.9638
 3259WAT    EPW13758   6.150   7.606   2.042 -0.3067  0.0944 -0.2948
 3260WAT      O13759   6.954   0.629   7.397  0.3084  0.2523 -0.5481
 3260WAT     H113760   6.997   0.679   7.340 -1.6122 -0.3421 -2.6643
 3260WAT     H213761   6.873   0.663   7.396 -1.1772 -2.9116 -2.3362
 3260WAT    EPW13762   6.948   0.641   7.388 -0.1948 -0.3029 -1.1248
 3261WAT      O13763   7.169   0.505   2.034  0.7008  0.5874  0.4797
 3261WAT     H113764   7.129   0.543   1.966 -0.2737  0.2599  0.8573
 3261WAT     H213765   7.244   0.549   2.040  0.2760  1.4245 -0.0648
 3261WAT    EPW13766   7.174   0.517   2.025  0.4941  0.6627  0.4550
 3262WAT      O13767   6.456   7.527   0.908 -0.3099 -0.5349 -0.1953
 3262WAT     H113768   6.417   7.498   0.836 -1.7027 -0.8862  0.6621
 3262WAT     H213769   6.451   7.614   0.901 -0.1059 -0.5579 -0.6767
 3262WAT    EPW13770   6.450   7.536   0.897 -0.4855 -0.5902 -0.1398
 3263WAT      O13771   5.617   0.770   7.141  0.0683  0.1410 -0.5075
 3263WAT     H113772   5.552   0.817   7.105  0.5339  0.1477 -1.3640
 3263WAT     H213773   5.579   0.694   7.158  0.1387 -0.3435 -2.2857
 3263WAT    EPW13774   5.601   0.766   7.138  0.1475  0.0704 -0.8967
 3264WAT      O13775   7.347   0.328   6.997  0.3390 -0.3726 -0.4871
 3264WAT     H113776   7.394   0.293   7.061  0.5657 -2.0191 -1.5034
 3264WAT     H213777   7.327   0.260   6.947 -0.5747  0.7468 -1.7002
 3264WAT    EPW13778   7.351   0.313   6.999  0.2375 -0.4504 -0.8164
 3265WAT      O13779   6.840   6.358   1.700 -0.1143 -0.6284  0.4856
 3265WAT     H113780   6.886   6.425   1.671 -1.9904  0.6485  0.2521
 3265WAT     H213781   6.876   6.339   1.777  1.7453 -0.7537 -0.3742
 3265WAT    EPW13782   6.852   6.365   1.707 -0.1167 -0.4583  0.3241
 3266WAT      O13783   6.724   1.820   3.434  0.1297 -0.0959 -0.1060
 3266WAT     H113784   6.676   1.763   3.479 -0.4930  0.5199  0.0240
 3266WAT     H213785   6.670   1.851   3.374  0.6392 -0.0825 -0.5668
 3266WAT    EPW13786   6.709   1.816   3.432  0.1130 -0.0030 -0.1549
 3267WAT      O13787   5.273   6.601   0.431  0.1464  0.3035  0.7321
 3267WAT     H113788   5.287   6.527   0.475 -2.4111 -1.7046 -1.4236
 3267WAT     H213789   5.209   6.639   0.475 -2.2245 -1.5691 -0.8239
 3267WAT    EPW13790   5.266   6.596   0.444 -0.5816 -0.2698  0.1839
 3268WAT      O13791   7.068   0.892   5.954  0.4000  0.4009  0.2260
 3268WAT     H113792   7.019   0.822   5.937  1.8930 -1.3900  2.6365
 3268WAT     H213793   7.142   0.876   5.910  0.5375  0.7870  0.3144
 3268WAT    EPW13794   7.072   0.879   5.945  0.6409  0.1934  0.5951
 3269WAT      O13795   4.904   7.050   1.530 -0.2936 -0.7552 -0.0186
 3269WAT     H113796   4.963   7.113   1.516  2.1422 -2.9592 -0.4312
 3269WAT     H213797   4.863   7.044   1.453 -0.1107 -0.1362 -0.1727
 3269WAT    EPW13798   4.906   7.059   1.516  0.0932 -0.9893 -0.1023
 3270WAT      O13799   4.714   5.898   0.326 -0.4036  0.3383 -0.4168
 3270WAT     H113800   4.798   5.885   0.310 -0.9676 -3.5378 -1.0335
 3270WAT     H213801   4.682   5.924   0.249 -0.3101 -1.6990 -1.1827
 3270WAT    EPW13802   4.721   5.900   0.312 -0.4731 -0.5352 -0.6210
 3271WAT      O13803   5.439   7.609   1.212  0.3554 -0.0095 -0.6949
 3271WAT     H113804   5.455   7.526   1.189 -3.5072 -0.5798 -2.1107
 3271WAT     H213805   5.444   7.653   1.137 -0.1687  0.5221 -0.4305
 3271WAT    EPW13806   5.442   7.603   1.197 -0.2926 -0.0152 -0.8650
 3272WAT      O13807   6.762   6.985   1.975 -0.4811  0.7999  0.3307
 3272WAT     H113808   6.678   7.004   1.958 -0.8844 -0.8103  0.3536
 3272WAT     H213809   6.758   6.939   2.049  0.3348  0.0958 -0.0394
 3272WAT    EPW13810   6.749   6.981   1.983 -0.4202  0.4580  0.2794
 3273WAT      O13811   5.535   6.995   7.600  0.2826 -0.1835 -0.0645
 3273WAT     H113812   5.471   7.041   7.562 -0.1308 -0.4747  0.2714
 3273WAT     H213813   5.497   6.919   7.620  0.8260 -0.4916 -0.1667
 3273WAT    EPW13814   5.520   6.990   7.597  0.3018 -0.2720 -0.0300
 3274WAT      O13815   6.841   0.971   7.790  0.1852  0.1420  0.5735
 3274WAT     H113816   6.880   1.050   7.788  0.1108  0.1701  0.0629
 3274WAT     H213817   6.886   0.924   7.732 -0.5010  0.1615  0.0022
 3274WAT    EPW13818   6.853   0.976   7.781  0.0729  0.1491  0.4137
 3275WAT      O13819   6.762   7.325   2.204 -0.3225  0.1695  0.5715
 3275WAT     H113820   6.753   7.340   2.119 -0.2525  1.4711  0.7733
 3275WAT     H213821   6.835   7.278   2.209 -1.0861 -1.1888 -0.1778
 3275WAT    EPW13822   6.771   7.320   2.192 -0.4249  0.1611  0.4906
 3276WAT      O13823   6.156   6.887   1.539  0.1454 -0.2065 -0.1160
 3276WAT     H113824   6.121   6.959   1.504  2.4069  1.9485  1.7267
 3276WAT     H213825   6.091   6.855   1.588 -0.6719  1.0146 -0.3538
 3276WAT    EPW13826   6.141   6.893   1.541  0.3587  0.2922  0.1211
 3277WAT      O13827   6.968   0.411   0.807  0.1015 -0.1260 -0.2226
 3277WAT     H113828   6.898   0.416   0.755 -0.9935 -1.4043  1.0506
 3277WAT     H213829   7.008   0.488   0.795 -2.0406  1.0581 -0.2485
 3277WAT    EPW13830   6.963   0.423   0.797 -0.3767 -0.1399 -0.0384
 3278WAT      O13831   6.310   7.487   0.694  0.2263 -0.3053 -0.0704
 3278WAT     H113832   6.249   7.541   0.662  0.1584 -0.1568  0.3117
 3278WAT     H213833   6.265   7.418   0.721  0.4249 -1.1380 -1.7395
 3278WAT    EPW13834   6.295   7.485   0.693  0.2456 -0.4063 -0.2605
 3279WAT      O13835   6.343   1.877   1.566  0.2296 -0.1002  0.3393
 3279WAT     H113836   6.386   1.828   1.623 -2.6252 -0.2664  2.5744
 3279WAT     H213837   6.337   1.955   1.605  1.8555  1.2063 -1.7298
 3279WAT    EPW13838   6.349   1.881   1.580  0.0481  0.0682  0.3638
 3280WAT      O13839   5.991   7.551   0.946 -0.1625  0.0810 -0.2504
 3280WAT     H113840   6.027   7.511   1.015 -1.8438 -1.9014 -0.4340
 3280WAT     H213841   5.905   7.547   0.963 -0.5716  0.2360 -2.0886
 3280WAT    EPW13842   5.983   7.545   0.959 -0.4713 -0.1890 -0.5490
 3281WAT      O13843   5.690   0.577   1.119  0.5567 -0.1948 -0.0209
 3281WAT     H113844   5.772   0.551   1.105  1.0978  0.6095  1.4139
 3281WAT     H213845   5.689   0.595   1.204 -1.0868 -0.0662 -0.0393
 3281WAT    EPW13846   5.702   0.576   1.129  0.3939 -0.0570  0.1884
 3282WAT      O13847   7.162   0.492   0.006 -0.2845  0.3725  0.3802
 3282WAT     H113848   7.217   0.448  -0.047  1.1593  0.2939  1.8466
 3282WAT     H213849   7.083   0.468  -0.022  0.4300 -0.3944 -1.1174
 3282WAT    EPW13850   7.159   0.482  -0.006  0.0343  0.2476  0.3756
 3283WAT      O13851   6.563   0.971   1.136 -0.1279  0.2987  0.0498
 3283WAT     H113852   6.574   0.885   1.148  0.6590  0.0809 -1.8004
 3283WAT     H213853   6.535   0.999   1.213 -0.8618 -1.6951  0.5757
 3283WAT    EPW13854   6.561   0.962   1.149 -0.1201 -0.0280 -0.1458
 3284WAT      O13855   5.865   7.000   7.530 -0.1267  0.2753 -0.0262
 3284WAT     H113856   5.942   6.980   7.566  0.2736 -0.9928 -1.4975
 3284WAT     H213857   5.807   6.970   7.588  0.4935 -0.1879  0.3640
 3284WAT    EPW13858   5.867   6.992   7.544  0.0240  0.0195 -0.1859
 3285WAT      O13859   6.502   1.643   1.667  0.0160 -0.1840 -0.3839
 3285WAT     H113860   6.505   1.607   1.587 -0.3402  1.5173 -1.2276
 3285WAT     H213861   6.511   1.576   1.721 -0.7814 -1.5335 -1.8503
 3285WAT    EPW13862   6.504   1.628   1.663 -0.1545 -0.1320 -0.7252
 3286WAT      O13863   4.636   6.532   0.595  0.5104  0.0440 -0.5058
 3286WAT     H113864   4.658   6.614   0.573  0.4882  0.5771  1.3345
 3286WAT     H213865   4.604   6.540   0.675  0.8560 -1.8490 -0.1330
 3286WAT    EPW13866   4.634   6.546   0.603  0.5582 -0.1569 -0.1789
 3287WAT      O13867   6.045   1.532   0.561 -0.1690 -0.0204  0.1050
 3287WAT     H113868   6.093   1.570   0.623  0.0929  0.1607 -0.2057
 3287WAT     H213869   6.021   1.456   0.598 -2.6156  1.3472  1.6132
 3287WAT    EPW13870   6.049   1.526   0.576 -0.4917  0.2084  0.2819
 3288WAT      O13871   4.559   1.320   1.166  0.3308  0.0804  0.7442
 3288WAT     H113872   4.536   1.288   1.089 -1.1684 -0.5398  1.4046
 3288WAT     H213873   4.630   1.275   1.187  0.6377  0.1197 -0.1800
 3288WAT    EPW13874   4.566   1.309   1.158  0.1547 -0.0054  0.7053
 3289WAT      O13875   5.799   6.545   7.551  0.4992 -0.3030  0.1427
 3289WAT     H113876   5.737   6.487   7.571  0.2969 -0.0668  0.2084
 3289WAT     H213877   5.755   6.613   7.520  0.8410 -0.9089 -1.7909
 3289WAT    EPW13878   5.784   6.546   7.550  0.5198 -0.3576 -0.1333
 3290WAT      O13879   6.748   7.690   1.556 -0.0005  0.1583 -0.0688
 3290WAT     H113880   6.697   7.760   1.545  0.4735  0.5742  0.3139
 3290WAT     H213881   6.740   7.672   1.641  1.2481  0.8375  0.2130
 3290WAT    EPW13882   6.739   7.698   1.567  0.2540  0.3201  0.0294
 3291WAT      O13883   7.001   0.776   1.258 -0.2617 -0.0102  0.2933
 3291WAT     H113884   7.048   0.804   1.190 -0.5123  0.3066  0.2503
 3291WAT     H213885   7.037   0.699   1.277  1.3199  0.9043  1.2566
 3291WAT    EPW13886   7.013   0.769   1.250 -0.0650  0.1717  0.4293
 3292WAT      O13887   5.838   7.647   0.248 -0.5587  0.1101 -0.3455
 3292WAT     H113888   5.846   7.576   0.199 -1.4932 -0.2197 -0.0399
 3292WAT     H213889   5.792   7.620   0.318 -2.0138  1.2339 -0.7920
 3292WAT    EPW13890   5.832   7.633   0.251 -0.9117  0.2274 -0.3663
 3293WAT      O13891   4.844   7.666   5.420 -0.4511  0.4418 -0.5726
 3293WAT     H113892   4.908   7.661   5.362 -0.0806 -1.4440 -0.0600
 3293WAT     H213893   4.824   7.583   5.436  0.1395  0.8072  2.7044
 3293WAT    EPW13894   4.850   7.653   5.414 -0.3091  0.2172 -0.0128
 3294WAT      O13895   6.889   0.819   0.793 -0.2775 -0.4425 -0.0235
 3294WAT     H113896   6.839   0.760   0.751  0.3853 -0.4729 -0.7978
 3294WAT     H213897   6.842   0.892   0.789 -0.2024 -0.4312 -0.8836
 3294WAT    EPW13898   6.874   0.821   0.786 -0.1685 -0.4453 -0.2649
 3295WAT      O13899   7.072   6.440   7.540 -0.3231  0.2681  0.2981
 3295WAT     H113900   6.993   6.473   7.555 -0.5859 -0.4068  0.4298
 3295WAT     H213901   7.099   6.480   7.468 -1.2619 -0.3322 -0.3986
 3295WAT    EPW13902   7.065   6.451   7.532 -0.5006  0.0797  0.2146
 3296WAT      O13903   5.247   7.641   6.770 -0.3926 -0.2778 -0.1998
 3296WAT     H113904   5.249   7.638   6.857 -1.1270 -1.1079 -0.2023
 3296WAT     H213905   5.219   7.562   6.747  1.6419 -0.7585 -1.2880
 3296WAT    EPW13906   5.243   7.629   6.779 -0.2005 -0.4714 -0.3609
 3297WAT      O13907   6.346   0.304   1.279  0.2584 -0.3988 -0.0050
 3297WAT     H113908   6.411   0.246   1.278  0.2024 -0.4658 -0.8201
 3297WAT     H213909   6.387   0.381   1.270  0.3012 -0.3333  0.6639
 3297WAT    EPW13910   6.362   0.307   1.277  0.2564 -0.3990 -0.0266
 3298WAT      O13911   6.583   1.261   2.376 -0.4142  0.3823 -0.2995
 3298WAT     H113912   6.610   1.333   2.418 -0.2321  0.2516 -0.1899
 3298WAT     H213913   6.585   1.200   2.438 -1.3249  0.4454 -0.1923
 3298WAT    EPW13914   6.587   1.263   2.392 -0.5218  0.3723 -0.2675
 3299WAT      O13915   6.890   0.848   1.734 -0.6910  0.7928  0.3491
 3299WAT     H113916   6.824   0.811   1.691 -0.4419  2.0365 -1.2469
 3299WAT     H213917   6.891   0.929   1.702  1.8126  0.7048  0.0096
 3299WAT    EPW13918   6.881   0.855   1.723 -0.2844  0.9635  0.0632
 3300WAT      O13919   6.129   1.973   0.890 -0.3939  0.4782  0.0456
 3300WAT     H113920   6.202   2.011   0.861  0.2489 -0.9281 -0.2683
 3300WAT     H213921   6.122   1.901   0.841  0.0363 -1.3364  2.4632
 3300WAT    EPW13922   6.138   1.968   0.878 -0.2354  0.0024  0.3564
 3301WAT      O13923   6.552   1.514   0.655 -0.3525 -0.5862 -0.1434
 3301WAT     H113924   6.602   1.455   0.616 -0.7087 -0.7510 -0.3481
 3301WAT     H213925   6.609   1.566   0.695 -0.0443 -1.2836  0.3519
 3301WAT    EPW13926   6.568   1.513   0.655 -0.3596 -0.7135 -0.1005
 3302WAT      O13927   3.849   2.099   2.065  0.3349 -0.4952  0.3550
 3302WAT     H113928   3.804   2.168   2.094 -0.7780 -1.4686  1.0447
 3302WAT     H213929   3.868   2.120   1.983 -1.4433 -0.0190  0.0040
 3302WAT    EPW13930   3.845   2.112   2.058 -0.0922 -0.5686  0.4050
 3303WAT      O13931   5.426   2.015   0.859  0.0979  0.0149  0.1790
 3303WAT     H113932   5.383   2.090   0.873 -0.8908 -0.4607 -0.2018
 3303WAT     H213933   5.473   2.004   0.932  0.3362  1.0449  0.1989
 3303WAT    EPW13934   5.427   2.025   0.872 -0.0129  0.0968  0.1257
 3304WAT      O13935   6.107   0.039   0.218 -0.1508  0.2996 -0.0408
 3304WAT     H113936   6.111   0.105   0.274 -1.1143 -0.7116  1.2699
 3304WAT     H213937   6.022   0.023   0.212  0.0718 -0.8023 -0.3886
 3304WAT    EPW13938   6.095   0.047   0.225 -0.2602 -0.0126  0.1014
 3305WAT      O13939   6.531   0.612   0.961  0.1196  0.5731  0.2349
 3305WAT     H113940   6.472   0.643   1.017  0.6368 -0.0533  1.1520
 3305WAT     H213941   6.522   0.525   0.968 -0.1147  0.4800 -0.9952
 3305WAT    EPW13942   6.521   0.604   0.970  0.1614  0.4668  0.1887
 3306WAT      O13943   5.525   2.716   0.920 -0.0317 -0.6667  0.4443
 3306WAT     H113944   5.556   2.651   0.870  1.3038 -0.6723  1.2088
 3306WAT     H213945   5.484   2.673   0.985 -0.4448 -0.7017  0.1613
 3306WAT    EPW13946   5.524   2.700   0.922  0.1046 -0.6727  0.5154
 3307WAT      O13947   6.609   0.237   1.224  0.2831  0.0798 -0.7845
 3307WAT     H113948   6.675   0.182   1.208  0.7009  0.2943  0.1493
 3307WAT     H213949   6.649   0.315   1.224 -0.1677  0.3123 -1.3165
 3307WAT    EPW13950   6.625   0.241   1.221  0.2782  0.1458 -0.7251
 3308WAT      O13951   6.649   0.670   0.708  0.2881  0.0943 -0.6767
 3308WAT     H113952   6.598   0.731   0.673 -1.2051 -0.5223  0.2989
 3308WAT     H213953   6.615   0.659   0.788  1.6110 -0.7721 -0.1974
 3308WAT    EPW13954   6.637   0.677   0.715  0.2630 -0.1247 -0.4618
 3309WAT      O13955   6.071   6.846   1.111 -0.3237  0.2305  0.0104
 3309WAT     H113956   6.045   6.896   1.044  0.3463 -0.0300 -0.4608
 3309WAT     H213957   6.152   6.876   1.128  0.1689 -0.8100 -0.4048
 3309WAT    EPW13958   6.079   6.858   1.104 -0.1520  0.0383 -0.1205
 3310WAT      O13959   4.642   1.687   7.560  0.2430  0.2400  0.0440
 3310WAT     H113960   4.667   1.720   7.483 -0.6389  0.0600 -0.3385
 3310WAT     H213961   4.602   1.754   7.599  1.9022  0.7384  0.9624
 3310WAT    EPW13962   4.640   1.702   7.554  0.3578  0.2870  0.1232
 3311WAT      O13963   6.156   1.762   7.853  0.9358 -0.6015  0.1361
 3311WAT     H113964   6.210   1.701   7.824 -0.6040 -1.9344 -0.0846
 3311WAT     H213965   6.189   1.784   7.931  1.7335 -1.4168  0.0417
 3311WAT    EPW13966   6.169   1.756   7.860  0.8262 -0.9188  0.0895
 3312WAT      O13967   5.752   0.604   7.823 -0.4654  0.5305  0.2343
 3312WAT     H113968   5.795   0.669   7.784 -0.0940  0.9041  1.2186
 3312WAT     H213969   5.810   0.575   7.882 -1.2497  0.4405  0.9693
 3312WAT    EPW13970   5.767   0.609   7.826 -0.5264  0.5724  0.4883
 3313WAT      O13971   4.056   6.591   6.383 -0.3620  0.4147  0.5588
 3313WAT     H113972   4.022   6.568   6.306 -0.7852  1.4458  0.4232
 3313WAT     H213973   4.127   6.541   6.390 -0.3464  0.2753 -0.4794
 3313WAT    EPW13974   4.062   6.580   6.373 -0.4222  0.5464  0.3854
 3314WAT      O13975   4.716   7.292   7.350 -0.1116  0.3204 -0.5350
 3314WAT     H113976   4.685   7.350   7.293  1.4189  0.7626 -0.9654
 3314WAT     H213977   4.696   7.327   7.428 -2.5821 -0.4874 -0.7197
 3314WAT    EPW13978   4.709   7.306   7.353 -0.2505  0.2664 -0.6258
 3315WAT      O13979   3.420   6.927   7.287  0.3971 -0.0865  0.1557
 3315WAT     H113980   3.407   6.968   7.363  2.6240  1.3849 -0.1782
 3315WAT     H213981   3.506   6.913   7.286  0.3412 -0.5220 -1.8694
 3315WAT    EPW13982   3.431   6.931   7.298  0.7178  0.0665 -0.1928
 3316WAT      O13983   3.792   7.458   7.002 -0.0416 -0.4269  0.1466
 3316WAT     H113984   3.877   7.442   7.004  0.2548  1.0506  0.5149
 3316WAT     H213985   3.767   7.427   6.924  0.7249 -1.3022  0.2375
 3316WAT    EPW13986   3.801   7.451   6.991  0.1154 -0.3380  0.2144
 3317WAT      O13987   4.227   6.977   6.968  0.1620 -0.6271  0.2168
 3317WAT     H113988   4.272   7.036   7.014  0.9016  0.1349 -1.3842
 3317WAT     H213989   4.153   7.018   6.948  0.4693 -0.3944 -0.4832
 3317WAT    EPW13990   4.223   6.992   6.972  0.3167 -0.4802 -0.1231
 3318WAT      O13991   3.219   7.677   6.113 -0.3150  1.2158 -0.1541
 3318WAT     H113992   3.218   7.761   6.091 -2.0390  0.7912 -2.0961
 3318WAT     H213993   3.136   7.660   6.134 -0.0129  0.0012  0.1519
 3318WAT    EPW13994   3.207   7.687   6.113 -0.5250  0.9736 -0.3958
 3319WAT      O13995   5.262   7.564   0.327 -0.0104 -0.0405  0.7398
 3319WAT     H113996   5.260   7.637   0.279  1.5770 -0.3685  0.1303
 3319WAT     H213997   5.291   7.591   0.404  0.7200 -0.0392  0.4698
 3319WAT    EPW13998   5.266   7.579   0.331  0.3320 -0.0887  0.6099
 3320WAT      O13999   2.653   6.197   6.479  0.1013 -0.4675 -0.2843
 3320WAT     H114000   2.600   6.199   6.410  1.6149 -1.7982 -1.5728
 3320WAT     H214001   2.714   6.255   6.459 -0.8163  1.0735  1.1974
 3320WAT    EPW14002   2.654   6.206   6.466  0.1893 -0.4364 -0.2557
 3321WAT      O14003   4.988   0.504   0.792  0.4754 -0.3959 -0.6421
 3321WAT     H114004   5.068   0.472   0.776  0.0942 -1.4663 -0.4798
 3321WAT     H214005   5.000   0.550   0.866  0.4677 -2.6724  0.8970
 3321WAT    EPW14006   5.002   0.506   0.801  0.4180 -0.8903 -0.3908
 3322WAT      O14007   4.067   6.869   6.348 -0.5553 -0.0752  0.4272
 3322WAT     H114008   3.989   6.903   6.330 -0.1503  1.1290  0.8037
 3322WAT     H214009   4.055   6.783   6.343 -1.2022  0.0837 -2.4468
 3322WAT    EPW14010   4.054   6.861   6.345 -0.5910  0.1261  0.0583
 3323WAT      O14011   6.448   0.114   0.544 -0.8471 -0.2465  0.1466
 3323WAT     H114012   6.363   0.121   0.526 -0.5874 -0.4483 -1.3549
 3323WAT     H214013   6.469   0.034   0.514  0.7558  1.4200 -4.0678
 3323WAT    EPW14014   6.439   0.103   0.537 -0.5719 -0.0301 -0.6978
 3324WAT      O14015   6.092   6.329   6.402  0.1687  0.6486 -0.1087
 3324WAT     H114016   6.062   6.286   6.471  0.9802  1.5765  0.8432
 3324WAT     H214017   6.021   6.365   6.366 -0.0321  1.9047  1.4650
 3324WAT    EPW14018   6.077   6.328   6.407  0.2589  0.9712  0.2643
 3325WAT      O14019   5.177   6.044   5.691 -0.2111 -0.1082 -0.0159
 3325WAT     H114020   5.095   6.030   5.664 -0.4598  0.5100  0.3899
 3325WAT     H214021   5.204   6.111   5.642  1.1592 -2.1737 -2.3310
 3325WAT    EPW14022   5.169   6.052   5.680 -0.0454 -0.3220 -0.2979
 3326WAT      O14023   3.953   0.108   6.836 -0.0556 -0.1987  0.0968
 3326WAT     H114024   3.878   0.104   6.880  0.9872  0.1251  1.9820
 3326WAT     H214025   3.975   0.192   6.840  2.5391 -0.8360  3.4949
 3326WAT    EPW14026   3.945   0.120   6.843  0.4817 -0.2450  0.8773
 3327WAT      O14027   4.018   6.607   7.173  0.4174 -0.4077 -0.3640
 3327WAT     H114028   4.037   6.545   7.114  0.7729 -0.7717  0.1213
 3327WAT     H214029   3.983   6.671   7.125  0.6806 -0.7060 -0.9701
 3327WAT    EPW14030   4.016   6.607   7.157  0.5088 -0.5056 -0.3818
 3328WAT      O14031   5.565   6.665   6.825  0.6385 -0.1521  0.2037
 3328WAT     H114032   5.554   6.660   6.739  0.6828 -0.5932  0.2199
 3328WAT     H214033   5.532   6.590   6.854  1.0130 -0.1925  0.5298
 3328WAT    EPW14034   5.559   6.653   6.817  0.7003 -0.2232  0.2542
 3329WAT      O14035   4.246   7.046   7.473 -0.0121  0.2543  0.2071
 3329WAT     H114036   4.211   6.990   7.416 -0.9523  0.6118  0.4145
 3329WAT     H214037   4.180   7.099   7.493  1.0568  2.0087 -0.6574
 3329WAT    EPW14038   4.232   7.046   7.468  0.0069  0.5663  0.1100
 3330WAT      O14039   4.929   5.580   0.901  0.1369 -0.5171  0.1100
 3330WAT     H114040   4.851   5.618   0.888 -0.0171 -1.5947 -2.8632
 3330WAT     H214041   4.910   5.513   0.954 -1.0342 -0.8638 -0.7051
 3330WAT    EPW14042   4.914   5.576   0.907 -0.0588 -0.7275 -0.4496
 3331WAT      O14043   4.564   0.657   6.098  0.3119  0.3580 -0.0765
 3331WAT     H114044   4.518   0.593   6.135  0.5504  0.0366 -0.3292
 3331WAT     H214045   4.557   0.640   6.012  0.3705  0.6739 -0.1469
 3331WAT    EPW14046   4.556   0.645   6.091  0.3558  0.3572 -0.1242
 3332WAT      O14047   5.475   0.258   5.918 -0.3322 -0.2926  0.1051
 3332WAT     H114048   5.447   0.227   5.842  2.6814 -0.0125 -1.2593
 3332WAT     H214049   5.465   0.345   5.911  0.9076 -0.1713 -0.4813
 3332WAT    EPW14050   5.470   0.266   5.906  0.2961 -0.2333 -0.1831
 3333WAT      O14051   5.298   7.381   7.659  0.2539  0.1333 -0.4794
 3333WAT     H114052   5.287   7.464   7.683  1.0899  0.2636 -0.5142
 3333WAT     H214053   5.253   7.374   7.585 -0.6826  0.2718  0.0615
 3333WAT    EPW14054   5.290   7.392   7.652  0.2391  0.1730 -0.4046
 3334WAT      O14055   3.036   7.407   5.618 -0.6136 -0.5891  0.2537
 3334WAT     H114056   3.098   7.444   5.569 -1.6578  0.0904 -0.5852
 3334WAT     H214057   3.045   7.322   5.601  0.0942 -0.5009  0.1571
 3334WAT    EPW14058   3.046   7.400   5.608 -0.6633 -0.4757  0.1155
 3335WAT      O14059   4.433   7.124   5.625  0.0936  0.4238  0.7618
 3335WAT     H114060   4.481   7.172   5.680  2.3453  0.0671 -0.7570
 3335WAT     H214061   4.471   7.046   5.627 -0.1927  0.2061 -0.7358
 3335WAT    EPW14062   4.446   7.120   5.633  0.3839  0.3390  0.3162
 3336WAT      O14063   5.149   4.751   5.667 -0.0891  0.3676 -0.1568
 3336WAT     H114064   5.224   4.778   5.632 -0.5465 -0.2599 -1.7356
 3336WAT     H214065   5.172   4.683   5.717  0.4992  0.7816  0.1372
 3336WAT    EPW14066   5.164   4.745   5.669 -0.0698  0.3360 -0.3466
 3337WAT      O14067   4.521   7.591   6.500  0.5001  0.8885  0.6590
 3337WAT     H114068   4.540   7.586   6.586  1.4344  0.2176  0.4267
 3337WAT     H214069   4.561   7.521   6.466 -0.2045  0.9230 -0.2738
 3337WAT    EPW14070   4.530   7.580   6.508  0.5340  0.7945  0.4869
 3338WAT      O14071   5.290   6.199   7.079  0.1792 -0.1756  0.0510
 3338WAT     H114072   5.230   6.167   7.134 -2.9287  1.5932 -2.0199
 3338WAT     H214073   5.269   6.163   7.003  2.2188  0.0420 -0.6564
 3338WAT    EPW14074   5.278   6.189   7.076  0.0214  0.1179 -0.3594
 3339WAT      O14075   3.140   6.516   6.339  0.1798 -0.3668 -0.8078
 3339WAT     H114076   3.165   6.593   6.308  0.9114 -0.0784  0.4607
 3339WAT     H214077   3.213   6.481   6.371 -0.3948 -0.9831 -0.1235
 3339WAT    EPW14078   3.154   6.522   6.339  0.2030 -0.4153 -0.5193
 3340WAT      O14079   5.942   5.911   6.784 -0.1506 -0.3220  0.1948
 3340WAT     H114080   6.017   5.877   6.755  0.9846  2.0456  0.2078
 3340WAT     H214081   5.883   5.877   6.729  0.9587 -1.7460 -0.1950
 3340WAT    EPW14082   5.944   5.901   6.771  0.1809 -0.1826  0.1391
 3341WAT      O14083   4.813   7.113   6.887 -0.2055 -0.2343 -0.2385
 3341WAT     H114084   4.804   7.078   6.966 -1.2356  0.6083  0.0441
 3341WAT     H214085   4.733   7.142   6.868  0.4359  1.3681 -0.7121
 3341WAT    EPW14086   4.800   7.112   6.895 -0.2629  0.1268 -0.2667
 3342WAT      O14087   4.919   6.583   5.381 -0.4185  0.1671  0.4467
 3342WAT     H114088   4.832   6.572   5.383 -0.4773  0.4520 -0.2496
 3342WAT     H214089   4.940   6.567   5.298  0.3831 -1.1575  0.8706
 3342WAT    EPW14090   4.909   6.579   5.369 -0.3087  0.0135  0.4065
 3343WAT      O14091   6.242   0.221   6.359  1.1182 -0.0787  0.1486
 3343WAT     H114092   6.215   0.171   6.293  1.3923  1.0767 -0.8818
 3343WAT     H214093   6.261   0.297   6.321 -0.9873  1.4450  1.8807
 3343WAT    EPW14094   6.241   0.225   6.344  0.8477  0.3170  0.2522
 3344WAT      O14095   2.908   7.244   6.097  0.1458  0.1818 -0.4511
 3344WAT     H114096   2.852   7.310   6.109  0.2944  0.0271  1.2466
 3344WAT     H214097   2.952   7.239   6.172  1.4128 -0.6788 -1.2073
 3344WAT    EPW14098   2.906   7.253   6.110  0.3549  0.0318 -0.3120
 3345WAT      O14099   5.181   7.082   6.319 -0.4225 -0.5047 -0.2805
 3345WAT     H114100   5.111   7.134   6.319  0.1037  0.2424 -1.3718
 3345WAT     H214101   5.156   7.015   6.369 -1.4399  0.3614  0.4327
 3345WAT    EPW14102   5.167   7.080   6.326 -0.4951 -0.2664 -0.3364
 3346WAT      O14103   5.263   6.862   6.505 -0.0125 -0.1691 -1.2147
 3346WAT     H114104   5.185   6.824   6.504  0.0362 -0.2572 -1.5417
 3346WAT     H214105   5.318   6.797   6.525 -0.0797  0.0009 -0.4241
 3346WAT    EPW14106   5.260   6.847   6.508 -0.0152 -0.1570 -1.1462
 3347WAT      O14107   6.041   7.094   5.815 -0.2588 -0.1156  0.0087
 3347WAT     H114108   5.959   7.091   5.846 -1.0497  0.3094 -1.8777
 3347WAT     H214109   6.074   7.166   5.852 -1.1963  0.4358 -0.1897
 3347WAT    EPW14110   6.033   7.104   5.825 -0.5141  0.0286 -0.2993
 3348WAT      O14111   5.638   7.582   0.441  0.1378  0.6442 -0.6130
 3348WAT     H114112   5.556   7.609   0.455 -1.6875 -3.9007 -0.9706
 3348WAT     H214113   5.643   7.506   0.483  3.4290 -0.3550 -2.4368
 3348WAT    EPW14114   5.626   7.575   0.449  0.3544 -0.1748 -0.9353
 3349WAT      O14115   6.218   6.875   5.768  0.1248 -0.1829 -0.0259
 3349WAT     H114116   6.154   6.934   5.770 -0.6884 -1.0542  0.9721
 3349WAT     H214117   6.278   6.912   5.718 -0.5220  1.3233  0.2495
 3349WAT    EPW14118   6.217   6.889   5.761 -0.0909 -0.0891  0.1622
 3350WAT      O14119   4.009   7.406   6.067 -0.1571  0.3417  0.1456
 3350WAT     H114120   4.010   7.436   6.149 -0.1446 -1.5438  0.8739
 3350WAT     H214121   3.942   7.350   6.066  0.3606 -0.3010 -0.8976
 3350WAT    EPW14122   3.999   7.402   6.079 -0.0788 -0.0317  0.0991
 3351WAT      O14123   1.712   0.744   6.854 -0.2255 -0.3942  0.1594
 3351WAT     H114124   1.630   0.772   6.840  0.0237  1.4891  2.0081
 3351WAT     H214125   1.711   0.719   6.937  0.7703 -1.7546 -0.2042
 3351WAT    EPW14126   1.699   0.745   6.864 -0.0416 -0.3169  0.3787
 3352WAT      O14127   4.802   7.225   6.553 -0.7769  0.4771 -0.1592
 3352WAT     H114128   4.774   7.271   6.622  0.2533  0.7545  0.0976
 3352WAT     H214129   4.804   7.143   6.582 -0.0613  0.6317  0.2477
 3352WAT    EPW14130   4.798   7.220   6.568 -0.5190  0.5409 -0.0612
 3353WAT      O14131   4.170   6.314   5.816  0.6495  0.1963 -0.6900
 3353WAT     H114132   4.113   6.259   5.781  0.8879 -1.2686  1.0886
 3353WAT     H214133   4.120   6.379   5.846 -0.2738 -1.3911  1.4581
 3353WAT    EPW14134   4.155   6.316   5.815  0.5483 -0.2546 -0.1099
 3354WAT      O14135   5.016   0.274   0.148  0.0961 -0.1698  0.0965
 3354WAT     H114136   4.930   0.266   0.159 -0.1916  1.9136 -0.2661
 3354WAT     H214137   5.041   0.325   0.214  0.7575  0.5915 -0.7134
 3354WAT    EPW14138   5.007   0.280   0.159  0.1513  0.2504 -0.0767
 3355WAT      O14139   3.945   6.878   7.457  0.2700  0.1041  0.2597
 3355WAT     H114140   4.006   6.882   7.394 -0.1579  1.4526 -0.1001
 3355WAT     H214141   3.955   6.953   7.500 -0.2963 -0.2388  0.9939
 3355WAT    EPW14142   3.956   6.890   7.454  0.1231  0.2527  0.3150
 3356WAT      O14143   6.143   7.497   7.183  0.1443 -0.5788 -0.1075
 3356WAT     H114144   6.175   7.492   7.264 -1.0728 -1.4573  0.3325
 3356WAT     H214145   6.062   7.526   7.194 -0.6734 -2.4260 -0.8337
 3356WAT    EPW14146   6.136   7.501   7.196 -0.1563 -0.9815 -0.1498
 3357WAT      O14147   4.035   0.333   0.119 -0.1487 -0.0979 -0.0539
 3357WAT     H114148   4.070   0.276   0.062 -0.2254 -0.8178  0.6106
 3357WAT     H214149   4.092   0.400   0.119  0.3954 -0.5543 -0.1838
 3357WAT    EPW14150   4.049   0.335   0.110 -0.0797 -0.2717  0.0251
 3358WAT      O14151   4.960   5.812   5.894  0.0457 -0.1197 -0.2910
 3358WAT     H114152   4.887   5.777   5.926  0.5944 -0.9831  0.0455
 3358WAT     H214153   4.962   5.892   5.928 -1.6265  0.5823 -1.6823
 3358WAT    EPW14154   4.950   5.819   5.903 -0.1203 -0.1435 -0.4468
 3359WAT      O14155   5.483   7.614   5.986 -0.2626  0.6875  0.0533
 3359WAT     H114156   5.452   7.604   5.904  0.4905  1.3845 -0.3314
 3359WAT     H214157   5.435   7.680   6.018  0.0149  0.9799 -0.1282
 3359WAT    EPW14158   5.471   7.622   5.978 -0.1104  0.8337 -0.0303
 3360WAT      O14159   3.221   0.843   6.006  0.4024  0.1543 -0.1995
 3360WAT     H114160   3.141   0.875   5.992 -0.4134 -2.0790 -1.0807
 3360WAT     H214161   3.217   0.811   6.087  0.6913  0.7870  0.0704
 3360WAT    EPW14162   3.209   0.843   6.016  0.3245 -0.0821 -0.2898
 3361WAT      O14163   5.732   7.680   5.905  0.6316  0.3058  0.0394
 3361WAT     H114164   5.651   7.660   5.931  0.5284  1.0242  0.2986
 3361WAT     H214165   5.732   7.658   5.821  0.3106 -0.1225  0.1467
 3361WAT    EPW14166   5.720   7.674   5.897  0.5689  0.3486  0.0935
 3362WAT      O14167   6.507   6.648   1.162  0.4004  0.2786  0.2046
 3362WAT     H114168   6.540   6.650   1.243  1.0473 -0.7020 -0.0222
 3362WAT     H214169   6.421   6.634   1.175  0.7234 -1.4841  0.7012
 3362WAT    EPW14170   6.499   6.646   1.176  0.5437 -0.1267  0.2444
 3363WAT      O14171   3.769   6.692   6.054 -0.3878  0.7011  0.6427
 3363WAT     H114172   3.780   6.681   5.968 -1.0292 -0.6988  0.7081
 3363WAT     H214173   3.691   6.731   6.061 -1.1577 -0.7714  0.6239
 3363WAT    EPW14174   3.759   6.696   6.042 -0.5963  0.2768  0.6496
 3364WAT      O14175   3.573   0.945   6.750  0.0605 -0.1220 -0.0527
 3364WAT     H114176   3.573   1.006   6.688 -1.4454 -1.1977 -1.1846
 3364WAT     H214177   3.624   0.883   6.718  0.0806 -0.2600  0.2427
 3364WAT    EPW14178   3.580   0.945   6.736 -0.1590 -0.3013 -0.1762
 3365WAT      O14179   3.510   7.640   4.652 -0.0594  0.0774 -0.1318
 3365WAT     H114180   3.565   7.682   4.599  0.3601  0.1322  0.3374
 3365WAT     H214181   3.547   7.649   4.731 -0.6643 -0.0188  0.1659
 3365WAT    EPW14182   3.524   7.647   4.656 -0.0868  0.0713 -0.0185
 3366WAT      O14183   3.404   0.442   6.884  0.2093 -0.0928 -0.0992
 3366WAT     H114184   3.345   0.479   6.937  1.0524  1.6079 -0.2980
 3366WAT     H214185   3.403   0.493   6.813  0.5958 -1.1311 -0.8788
 3366WAT    EPW14186   3.395   0.455   6.881  0.3910  0.0051 -0.2437
 3367WAT      O14187   3.962   6.239   4.505  0.3333 -0.4243 -0.3748
 3367WAT     H114188   4.000   6.234   4.427 -0.5458 -1.4409 -0.7628
 3367WAT     H214189   3.999   6.174   4.550 -0.6962 -1.2433 -0.6666
 3367WAT    EPW14190   3.973   6.229   4.500  0.0514 -0.6954 -0.4752
 3368WAT      O14191   4.325   0.208   5.865 -0.0585 -0.0882 -0.1033
 3368WAT     H114192   4.388   0.253   5.825 -0.9107  0.3250 -1.0231
 3368WAT     H214193   4.347   0.212   5.949  1.1361  0.0441 -0.3993
 3368WAT    EPW14194   4.338   0.215   5.871 -0.0079 -0.0076 -0.2829
 3369WAT      O14195   3.355   7.316   5.700 -0.4509 -0.7175  0.1941
 3369WAT     H114196   3.341   7.337   5.616  2.1729  3.1351  0.4159
 3369WAT     H214197   3.285   7.349   5.741 -1.3548 -1.8851 -0.3572
 3369WAT    EPW14198   3.343   7.324   5.693 -0.1968 -0.3209  0.1454
 3370WAT      O14199   6.527   6.019   1.145 -0.5754  0.2941 -0.2856
 3370WAT     H114200   6.561   6.033   1.066  0.8057 -1.5842 -0.0929
 3370WAT     H214201   6.522   6.099   1.180  1.0389  0.9222 -1.3809
 3370WAT    EPW14202   6.531   6.033   1.138 -0.1329  0.1094 -0.4189
 3371WAT      O14203   4.547   5.886   5.230  0.0628 -0.1106 -0.0439
 3371WAT     H114204   4.489   5.856   5.286 -0.5928  0.6907 -0.2645
 3371WAT     H214205   4.615   5.833   5.239 -0.3484 -0.4866  0.8983
 3371WAT    EPW14206   4.549   5.874   5.239 -0.0948 -0.0478  0.0627
 3372WAT      O14207   5.351   6.980   1.185  0.1756  0.0305 -0.5155
 3372WAT     H114208   5.272   6.945   1.199  0.0104  0.9117  0.9113
 3372WAT     H214209   5.393   6.968   1.260  1.2286  0.0555 -1.0812
 3372WAT    EPW14210   5.346   6.973   1.198  0.3068  0.1644 -0.3883
 3373WAT      O14211   4.412   7.157   0.311  0.0173  0.0359 -0.2815
 3373WAT     H114212   4.379   7.087   0.272 -0.7300  1.6062 -2.6986
 3373WAT     H214213   4.494   7.160   0.282 -0.1922  0.5897 -0.8219
 3373WAT    EPW14214   4.419   7.147   0.301 -0.1240  0.3497 -0.7184
 3374WAT      O14215   4.788   5.982   6.154 -0.6251  0.2098  0.3882
 3374WAT     H114216   4.863   5.978   6.197 -1.2458 -1.4709  1.4222
 3374WAT     H214217   4.767   5.898   6.141 -1.3198  0.6399 -1.7062
 3374WAT    EPW14218   4.796   5.969   6.158 -0.8194  0.0250  0.2315
 3375WAT      O14219   5.700   7.095   6.560 -0.2160 -0.1155 -0.3566
 3375WAT     H114220   5.620   7.089   6.526  0.8133 -1.3290 -2.7911
 3375WAT     H214221   5.744   7.143   6.502  1.1795 -0.5987  0.2552
 3375WAT    EPW14222   5.695   7.101   6.547  0.1422 -0.3661 -0.6258
 3376WAT      O14223   4.389   7.436   7.520 -0.2248 -0.2942  0.1970
 3376WAT     H114224   4.421   7.463   7.444  0.0254  0.3554  0.5236
 3376WAT     H214225   4.427   7.359   7.533  1.3826  0.5507  0.6748
 3376WAT    EPW14226   4.399   7.429   7.511  0.0496 -0.0734  0.3158
 3377WAT      O14227   6.066   6.807   0.036  0.0559  0.0871  0.1744
 3377WAT     H114228   6.102   6.875   0.075 -0.5629  0.7492 -0.3855
 3377WAT     H214229   5.983   6.831   0.023 -0.1761 -0.7600 -0.0445
 3377WAT    EPW14230   6.059   6.820   0.040 -0.0698  0.0597  0.0593
 3378WAT      O14231   3.335   7.618   7.517  0.1372 -0.3401  0.7427
 3378WAT     H114232   3.251   7.638   7.505 -0.1588 -1.5974  0.6246
 3378WAT     H214233   3.344   7.614   7.604 -0.0837 -0.8153  0.7461
 3378WAT    EPW14234   3.324   7.621   7.528  0.0609 -0.5960  0.7258
 3379WAT      O14235   5.167   7.532   6.296  0.5352 -0.9552 -0.2116
 3379WAT     H114236   5.196   7.603   6.337  0.3581 -0.8121 -0.3321
 3379WAT     H214237   5.240   7.488   6.276  0.6373 -0.8676 -0.0316
 3379WAT    EPW14238   5.182   7.536   6.299  0.5241 -0.9211 -0.2028
 3380WAT      O14239   4.437   7.596   7.303 -0.1941  0.3627 -0.6215
 3380WAT     H114240   4.416   7.671   7.264  1.0659  1.2950  0.3953
 3380WAT     H214241   4.516   7.578   7.272 -0.7097 -0.8785 -1.2852
 3380WAT    EPW14242   4.445   7.604   7.293 -0.0841  0.3170 -0.5694
 3381WAT      O14243   4.682   6.540   1.141  0.4482  0.3532  0.0627
 3381WAT     H114244   4.639   6.503   1.207  1.3450 -0.9021 -0.0007
 3381WAT     H214245   4.766   6.523   1.159  0.8254  1.4956 -0.5199
 3381WAT    EPW14246   4.688   6.532   1.153  0.6364  0.3366 -0.0328
 3382WAT      O14247   4.585   7.678   0.774  0.0281 -0.0033  0.1091
 3382WAT     H114248   4.599   7.751   0.820  0.0232  0.2252 -0.2482
 3382WAT     H214249   4.570   7.707   0.693 -2.3669 -0.1962  0.3959
 3382WAT    EPW14250   4.585   7.693   0.769 -0.3264  0.0020  0.0987
 3383WAT      O14251   5.375   7.389   6.131  0.2537  0.1441  0.0592
 3383WAT     H114252   5.337   7.335   6.074 -1.8881 -0.2332  1.7026
 3383WAT     H214253   5.389   7.461   6.084 -1.5631 -0.1008 -0.9691
 3383WAT    EPW14254   5.372   7.392   6.116 -0.3311  0.0522  0.1501
 3384WAT      O14255   3.691   6.318   5.402  0.6588 -0.6894  0.3017
 3384WAT     H114256   3.713   6.234   5.407 -0.2549 -0.9243  0.5181
 3384WAT     H214257   3.608   6.320   5.428  0.9261  0.4057  1.1706
 3384WAT    EPW14258   3.682   6.306   5.406  0.5633 -0.5624  0.4620
 3385WAT      O14259   5.081   5.741   5.644  0.4549 -0.8282 -0.5234
 3385WAT     H114260   5.058   5.758   5.726 -0.3836  0.6095 -1.0215
 3385WAT     H214261   5.162   5.773   5.638  0.2428 -0.2694 -0.4485
 3385WAT    EPW14262   5.089   5.748   5.655  0.2997 -0.5332 -0.5859
 3386WAT      O14263   3.785   6.671   1.209  0.4415  0.2325  0.4147
 3386WAT     H114264   3.762   6.755   1.209  0.7464  0.3634  2.4259
 3386WAT     H214265   3.732   6.635   1.149 -2.0522  1.2954  1.8341
 3386WAT    EPW14266   3.773   6.678   1.200  0.1182  0.4088  0.9215
 3387WAT      O14267   4.492   6.325   5.061  0.2164  0.1903  0.1543
 3387WAT     H114268   4.491   6.272   4.992 -1.8499 -0.4166  0.5822
 3387WAT     H214269   4.538   6.280   5.120 -0.9745 -0.9010  0.3031
 3387WAT    EPW14270   4.499   6.310   5.059 -0.2648 -0.0606  0.2395
 3388WAT      O14271   3.196   7.076   0.512  0.0203  0.0735 -0.0421
 3388WAT     H114272   3.139   7.140   0.524  0.1556  0.0816  0.5646
 3388WAT     H214273   3.148   7.003   0.517  0.1966  0.0253  1.4956
 3388WAT    EPW14274   3.180   7.075   0.514  0.0663  0.0676  0.2747
 3389WAT      O14275   4.899   6.881   0.621  0.3103  0.0456 -0.2319
 3389WAT     H114276   4.825   6.864   0.579  1.6112 -2.2981 -1.8128
 3389WAT     H214277   4.874   6.897   0.703 -1.9510  0.1328 -0.8932
 3389WAT    EPW14278   4.885   6.881   0.627  0.1684 -0.2877 -0.5631
 3390WAT      O14279   3.150   0.178   6.404  0.2013 -0.0357 -0.0868
 3390WAT     H114280   3.080   0.131   6.380  0.1005  1.0558 -2.2621
 3390WAT     H214281   3.215   0.121   6.404 -0.1993 -0.5101 -1.0611
 3390WAT    EPW14282   3.149   0.163   6.400  0.1272  0.0554 -0.5521
 3391WAT      O14283   4.490   4.993   7.289  0.2641  0.2850 -0.1758
 3391WAT     H114284   4.506   4.948   7.215 -0.6350  0.4890 -0.5092
 3391WAT     H214285   4.564   4.986   7.333  0.8072  0.1091 -1.0787
 3391WAT    EPW14286   4.503   4.985   7.284  0.2115  0.2892 -0.3584
 3392WAT      O14287   5.219   6.195   5.128  0.0285  0.0367  0.6213
 3392WAT     H114288   5.276   6.132   5.107  0.6569  0.5228  0.8118
 3392WAT     H214289   5.155   6.152   5.168  0.2205 -0.5393  0.3250
 3392WAT    EPW14290   5.218   6.180   5.131  0.1497  0.0234  0.6057
 3393WAT      O14291   5.169   6.857   7.368 -0.2617 -0.0706 -0.3278
 3393WAT     H114292   5.119   6.902   7.313 -0.6092  0.5394  0.4566
 3393WAT     H214293   5.225   6.917   7.399 -0.4359 -0.2636  0.3886
 3393WAT    EPW14294   5.170   6.873   7.365 -0.3388 -0.0090 -0.1061
 3394WAT      O14295   4.384   7.394   7.004  0.1050 -0.2361  0.7981
 3394WAT     H114296   4.382   7.367   6.921 -1.0592  0.6037  0.5280
 3394WAT     H214297   4.357   7.324   7.049 -3.7524  0.5487  0.0400
 3394WAT    EPW14298   4.380   7.380   6.999 -0.6368  0.0039  0.6462
 3395WAT      O14299   4.222   5.968   5.501  0.1566 -0.0781 -0.1464
 3395WAT     H114300   4.235   6.015   5.429  1.3540  0.1919  0.2196
 3395WAT     H214301   4.165   6.015   5.547  0.4616  0.4490 -0.2998
 3395WAT    EPW14302   4.215   5.982   5.497  0.3786  0.0397 -0.1150
 3396WAT      O14303   4.893   6.878   6.791  0.1193 -0.2630 -0.1623
 3396WAT     H114304   4.890   6.951   6.839  1.7806 -0.4643  0.3194
 3396WAT     H214305   4.853   6.900   6.717 -0.9963  0.5685  0.6612
 3396WAT    EPW14306   4.887   6.892   6.787  0.1999 -0.1699  0.0305
 3397WAT      O14307   5.465   6.947   6.881 -0.5380  0.1925  0.2436
 3397WAT     H114308   5.398   6.955   6.825 -0.0454 -0.5077 -0.4596
 3397WAT     H214309   5.499   6.870   6.861 -1.6427 -1.1324  2.9539
 3397WAT    EPW14310   5.460   6.937   6.869 -0.6284 -0.1066  0.5401
 3398WAT      O14311   4.563   0.275   5.312 -0.0450 -0.4896  0.3825
 3398WAT     H114312   4.554   0.199   5.271 -0.9962 -0.8817  1.2463
 3398WAT     H214313   4.489   0.282   5.358  1.5917 -0.9425  3.3709
 3398WAT    EPW14314   4.551   0.265   5.313  0.0563 -0.6144  0.9515
 3399WAT      O14315   4.839   7.497   5.731  0.1526 -0.2803  0.1514
 3399WAT     H114316   4.893   7.564   5.720 -0.7791  0.1081 -3.2177
 3399WAT     H214317   4.764   7.536   5.755 -0.2982 -0.1054 -1.4769
 3399WAT    EPW14318   4.836   7.513   5.733 -0.0516 -0.1971 -0.5868
 3400WAT      O14319   4.617   7.444   7.146 -0.0206  0.1934  0.4321
 3400WAT     H114320   4.683   7.450   7.089 -0.3297  0.7127  0.1230
 3400WAT     H214321   4.548   7.428   7.096 -0.2750  0.5417  0.6705
 3400WAT    EPW14322   4.617   7.443   7.130 -0.1038  0.3216  0.4217
 3401WAT      O14323   5.525   7.543   7.502  0.0423 -0.5542  0.0247
 3401WAT     H114324   5.545   7.497   7.430 -2.6668 -0.4701 -0.8953
 3401WAT     H214325   5.522   7.482   7.564  0.5471 -0.9480 -0.3220
 3401WAT    EPW14326   5.527   7.527   7.500 -0.2834 -0.5999 -0.1624
 3402WAT      O14327   5.427   1.195   6.632 -0.3983  0.3172  0.6138
 3402WAT     H114328   5.398   1.113   6.623 -1.3878  0.4041  2.4991
 3402WAT     H214329   5.512   1.185   6.650 -0.1397 -0.1750 -0.7474
 3402WAT    EPW14330   5.435   1.181   6.633 -0.5062  0.2573  0.6912
 3403WAT      O14331   4.727   6.671   7.598  0.8197  0.0966 -0.2723
 3403WAT     H114332   4.648   6.654   7.631  0.7091 -0.1296 -0.6550
 3403WAT     H214333   4.738   6.756   7.615  0.4233  0.1668 -0.3725
 3403WAT    EPW14334   4.717   6.681   7.606  0.7448  0.0735 -0.3436
 3404WAT      O14335   7.038   4.981   5.928 -0.3719 -0.0240 -0.0841
 3404WAT     H114336   7.094   4.967   5.862  1.3198  1.4727  0.9426
 3404WAT     H214337   6.999   5.056   5.906  0.0154  0.3481  0.4665
 3404WAT    EPW14338   7.040   4.990   5.915 -0.0648  0.2521  0.1489
 3405WAT      O14339   3.426   0.232   7.707 -0.2389 -0.1411 -0.1867
 3405WAT     H114340   3.498   0.241   7.659 -0.2224 -1.4092 -0.4353
 3405WAT     H214341   3.362   0.232   7.648 -0.6900  2.8526  0.1434
 3405WAT    EPW14342   3.427   0.234   7.692 -0.3031  0.1138 -0.1747
 3406WAT      O14343   5.010   6.547   6.561  0.6960 -0.4449  0.3675
 3406WAT     H114344   5.049   6.580   6.632  1.4965  1.7600 -1.0246
 3406WAT     H214345   5.075   6.507   6.519  0.8333  0.6468 -0.4759
 3406WAT    EPW14346   5.026   6.546   6.565  0.8346  0.0421  0.0373
 3407WAT      O14347   4.333   7.677   6.955 -0.2524  0.2857  0.8169
 3407WAT     H114348   4.307   7.721   7.026 -0.5248 -0.4811  1.2057
 3407WAT     H214349   4.341   7.595   6.984  1.5721  0.2990  0.4450
 3407WAT    EPW14350   4.330   7.671   6.970 -0.0231  0.1744  0.8194
 3408WAT      O14351   5.083   7.633   6.055 -0.7940 -1.1595 -0.7474
 3408WAT     H114352   5.077   7.584   6.127 -1.0025 -2.0585 -1.3528
 3408WAT     H214353   5.155   7.680   6.067  0.9590 -3.5380 -1.2578
 3408WAT    EPW14354   5.092   7.633   6.067 -0.5658 -1.6436 -0.9122
 3409WAT      O14355   5.490   6.988   5.137  0.1031 -0.3705  0.0590
 3409WAT     H114356   5.408   6.973   5.113 -0.0060  0.4180 -0.0781
 3409WAT     H214357   5.490   6.975   5.223 -0.4531  0.8173  0.2549
 3409WAT    EPW14358   5.478   6.984   5.146  0.0048 -0.0786  0.0677
 3410WAT      O14359   5.542   0.333   0.406  0.4219 -0.0445 -0.2047
 3410WAT     H114360   5.463   0.297   0.413  0.1637  0.7884  1.6287
 3410WAT     H214361   5.526   0.409   0.367  0.6167 -0.6827 -1.6024
 3410WAT    EPW14362   5.528   0.339   0.401  0.4125 -0.0157 -0.1403
 3411WAT      O14363   4.993   7.115   0.543 -0.5767 -0.0677  0.3026
 3411WAT     H114364   4.982   7.028   0.544 -0.1839 -0.1680 -1.2021
 3411WAT     H214365   4.917   7.146   0.573 -1.0037 -0.9215  0.1227
 3411WAT    EPW14366   4.980   7.107   0.547 -0.5818 -0.2086  0.0538
 3412WAT      O14367   4.972   7.162   7.322 -0.3366 -0.3865  0.3569
 3412WAT     H114368   4.974   7.119   7.397  0.5866 -0.3732  0.3508
 3412WAT     H214369   4.907   7.219   7.332 -1.8710 -2.0219  0.2137
 3412WAT    EPW14370   4.963   7.164   7.334 -0.4269 -0.6261  0.3348
 3413WAT      O14371   5.587   1.892   3.226  0.1186 -0.7080  0.4151
 3413WAT     H114372   5.543   1.880   3.152  1.0529 -1.1872 -0.0758
 3413WAT     H214373   5.535   1.945   3.272 -2.2388 -3.2722  0.9601
 3413WAT    EPW14374   5.573   1.898   3.222 -0.0916 -1.1576  0.4231
 3414WAT      O14375   3.984   6.614   4.497  0.0955 -0.0071 -0.1255
 3414WAT     H114376   4.050   6.570   4.534 -0.4066  0.5437  1.5646
 3414WAT     H214377   3.996   6.603   4.412  0.8239 -2.1515  0.1994
 3414WAT    EPW14378   3.995   6.606   4.490  0.1290 -0.2425  0.1721
 3415WAT      O14379   5.414   7.443   3.532 -0.9068 -0.0621  0.2818
 3415WAT     H114380   5.356   7.481   3.480 -1.9440 -0.4555  1.1135
 3415WAT     H214381   5.445   7.378   3.484  0.0891  1.1260 -0.7649
 3415WAT    EPW14382   5.410   7.439   3.517 -0.9129  0.0553  0.2500
 3416WAT      O14383   5.971   7.270   3.405  0.0660  0.2094  0.0358
 3416WAT     H114384   5.931   7.307   3.337  0.5561  0.7460  0.0349
 3416WAT     H214385   6.053   7.260   3.377  0.3957  0.9101  0.7220
 3416WAT    EPW14386   5.977   7.274   3.390  0.1871  0.3922  0.1370
 3417WAT      O14387   5.834   0.122   4.143  0.3542  0.2082 -0.4808
 3417WAT     H114388   5.879   0.097   4.213 -4.2643 -3.0542  1.8921
 3417WAT     H214389   5.845   0.056   4.087  1.4125  1.2421 -1.5522
 3417WAT    EPW14390   5.842   0.109   4.145 -0.1717 -0.1210 -0.2885
 3418WAT      O14391   3.360   0.480   5.365  0.2445  0.2269 -0.1017
 3418WAT     H114392   3.382   0.431   5.435  0.3798  0.6774  0.1744
 3418WAT     H214393   3.290   0.524   5.392 -1.2698 -1.4558 -1.0907
 3418WAT    EPW14394   3.353   0.479   5.380  0.0408  0.0449 -0.2070
 3419WAT      O14395   4.538   0.287   3.260  0.0383 -0.1960  0.8143
 3419WAT     H114396   4.558   0.363   3.299  1.1006  0.3827 -0.7657
 3419WAT     H214397   4.451   0.285   3.264 -0.1209  1.7595 -0.1996
 3419WAT    EPW14398   4.528   0.298   3.267  0.1717  0.1783  0.4311
 3420WAT      O14399   4.744   7.505   3.844  0.8796 -0.2057 -0.1575
 3420WAT     H114400   4.712   7.470   3.771  0.5351 -2.3221  0.9273
 3420WAT     H214401   4.783   7.437   3.883 -0.5689  0.3538  2.4915
 3420WAT    EPW14402   4.745   7.490   3.839  0.6147 -0.4357  0.3940
 3421WAT      O14403   3.897   7.289   5.454 -0.7070  0.0518 -0.3031
 3421WAT     H114404   3.874   7.369   5.481  0.8858  1.2294 -2.1986
 3421WAT     H214405   3.846   7.275   5.385 -1.5668 -0.9894  0.5007
 3421WAT    EPW14406   3.886   7.299   5.448 -0.5987  0.0719 -0.4644
 3422WAT      O14407   4.305   0.877   3.999 -0.5610 -0.2325  0.1963
 3422WAT     H114408   4.344   0.828   4.059  0.3459  0.3265  0.0903
 3422WAT     H214409   4.255   0.931   4.046  2.5140  2.3819  0.8332
 3422WAT    EPW14410   4.304   0.878   4.015  0.0273  0.2363  0.2747
 3423WAT      O14411   4.634   6.180   5.243 -0.4258 -0.2195  0.2781
 3423WAT     H114412   4.608   6.097   5.251 -0.4437 -0.0966  1.7242
 3423WAT     H214413   4.611   6.216   5.319  2.1269  0.3839  0.8735
 3423WAT    EPW14414   4.627   6.173   5.255 -0.0514 -0.1122  0.5797
 3424WAT      O14415   5.873   7.189   2.888 -0.2767 -0.4701 -0.1512
 3424WAT     H114416   5.926   7.258   2.879 -0.4916 -0.2745  0.0647
 3424WAT     H214417   5.794   7.222   2.873 -0.3118 -0.8402 -0.8543
 3424WAT    EPW14418   5.869   7.204   2.884 -0.3136 -0.4958 -0.2232
 3425WAT      O14419   3.439   7.653   5.715  0.1636 -0.0742  0.0776
 3425WAT     H114420   3.467   7.726   5.677  0.0870  0.6789  1.3831
 3425WAT     H214421   3.486   7.590   5.677  0.8591  0.7455 -0.4623
 3425WAT    EPW14422   3.450   7.655   5.704  0.2550  0.1581  0.1907
 3426WAT      O14423   3.442   7.060   5.756  0.2992 -0.1281 -0.9729
 3426WAT     H114424   3.527   7.046   5.740  0.2272 -0.1349 -1.3756
 3426WAT     H214425   3.430   7.143   5.732  0.4661  0.2851  0.2993
 3426WAT    EPW14426   3.453   7.070   5.750  0.3132 -0.0681 -0.8445
 3427WAT      O14427   4.512   7.205   5.346 -0.1870  0.2335  0.1373
 3427WAT     H114428   4.509   7.171   5.427  0.2857  0.7785  0.3873
 3427WAT     H214429   4.535   7.137   5.297  1.1656  0.2624  0.6917
 3427WAT    EPW14430   4.515   7.190   5.351  0.0826  0.3183  0.2562
 3428WAT      O14431   4.531   7.504   3.329 -0.5033 -0.0502  0.3066
 3428WAT     H114432   4.605   7.485   3.287 -0.5086  0.4258  0.0824
 3428WAT     H214433   4.549   7.578   3.372  0.0870 -1.4096  2.6085
 3428WAT    EPW14434   4.545   7.512   3.329 -0.4169 -0.1807  0.6136
 3429WAT      O14435   2.914   6.029   0.040  0.2813 -0.0195 -0.6015
 3429WAT     H114436   2.986   6.065   0.072  0.8198 -3.0166  2.0497
 3429WAT     H214437   2.944   5.962  -0.008 -0.4969 -2.4756  2.0305
 3429WAT    EPW14438   2.929   6.024   0.038  0.2459 -0.8250  0.1789
 3430WAT      O14439   3.556   7.044   5.049 -0.2202  0.3647  0.0553
 3430WAT     H114440   3.606   6.977   5.025 -0.9748  0.1109 -0.8390
 3430WAT     H214441   3.479   7.027   5.012 -0.5765  1.4584  0.2561
 3430WAT    EPW14442   3.552   7.032   5.040 -0.3843  0.4888 -0.0472
 3431WAT      O14443   5.232   7.437   4.551 -0.0851 -0.0076  0.6095
 3431WAT     H114444   5.283   7.370   4.574  0.4384  0.0838 -0.2779
 3431WAT     H214445   5.288   7.499   4.528 -0.5732  0.6736  1.2221
 3431WAT    EPW14446   5.248   7.436   4.551 -0.0799  0.1065  0.5689
 3432WAT      O14447   5.168   7.448   5.451 -0.3050  0.3935 -0.1960
 3432WAT     H114448   5.182   7.492   5.525  0.8125 -0.6440  0.2320
 3432WAT     H214449   5.082   7.433   5.453 -0.5982  1.9111 -0.0124
 3432WAT    EPW14450   5.157   7.452   5.463 -0.1832  0.4644 -0.1057
 3433WAT      O14451   5.048   6.203   3.686 -0.1340 -0.5686  0.5006
 3433WAT     H114452   5.013   6.124   3.699  2.2965 -1.9379 -0.5885
 3433WAT     H214453   5.134   6.187   3.684  0.3987  1.9873 -0.6444
 3433WAT    EPW14454   5.056   6.189   3.688  0.3037 -0.3933  0.1706
 3434WAT      O14455   4.489   6.628   5.144 -0.9194 -0.0277 -0.1322
 3434WAT     H114456   4.461   6.612   5.225 -0.8910  0.4156 -0.0364
 3434WAT     H214457   4.476   6.551   5.103  0.0839 -0.5886  0.5632
 3434WAT    EPW14458   4.483   6.614   5.150 -0.7670 -0.0451 -0.0153
 3435WAT      O14459   5.070   5.871   3.432  0.0596  0.5004  0.0146
 3435WAT     H114460   5.105   5.797   3.402  1.0455  0.1974  1.7691
 3435WAT     H214461   5.128   5.932   3.408  0.7084  0.2926  0.9642
 3435WAT    EPW14462   5.084   5.869   3.424  0.3011  0.4250  0.4140
 3436WAT      O14463   3.889   7.446   3.900 -0.1346 -0.3644  0.3575
 3436WAT     H114464   3.817   7.447   3.851 -0.8434  1.1276  1.3391
 3436WAT     H214465   3.945   7.497   3.856  0.2938 -1.3913 -0.3225
 3436WAT    EPW14466   3.887   7.454   3.886 -0.1760 -0.2957  0.4020
 3437WAT      O14467   5.608   7.632   4.411  0.2205 -0.0169  0.0888
 3437WAT     H114468   5.607   7.719   4.424 -0.1127  0.0362 -0.2606
 3437WAT     H214469   5.591   7.600   4.490 -0.1662  0.2548  0.1204
 3437WAT    EPW14470   5.605   7.640   4.424  0.1142  0.0311  0.0418
 3438WAT      O14471   4.997   7.204   4.471 -0.5894  0.4675 -0.3782
 3438WAT     H114472   4.937   7.153   4.434 -0.8259 -0.6953  1.4804
 3438WAT     H214473   5.025   7.254   4.405 -1.5816 -0.8833 -1.8997
 3438WAT    EPW14474   4.992   7.204   4.456 -0.7709  0.0962 -0.3284
 3439WAT      O14475   4.348   1.394   4.256 -0.4292 -0.1045 -0.0263
 3439WAT     H114476   4.423   1.380   4.299 -1.0292 -0.8611  0.7946
 3439WAT     H214477   4.291   1.344   4.297 -1.3304  0.2060 -0.8638
 3439WAT    EPW14478   4.351   1.385   4.268 -0.6510 -0.1704 -0.0288
 3440WAT      O14479   5.428   1.316   3.159 -0.4761 -0.7994  0.0339
 3440WAT     H114480   5.425   1.348   3.240  3.5932 -0.9772  0.4770
 3440WAT     H214481   5.392   1.378   3.110 -3.4745 -0.8890  1.8750
 3440WAT    EPW14482   5.422   1.330   3.164 -0.3179 -0.8389  0.3713
 3441WAT      O14483   5.670   0.505   4.531 -0.0632  0.1405  0.2260
 3441WAT     H114484   5.670   0.489   4.617  3.2420 -0.2807  0.2609
 3441WAT     H214485   5.708   0.583   4.524 -1.0598  0.5635 -0.8547
 3441WAT    EPW14486   5.675   0.514   4.543  0.2778  0.1408  0.0715
 3442WAT      O14487   4.520   5.048   4.251  0.2761  0.1083  0.6139
 3442WAT     H114488   4.564   4.984   4.211 -1.1712 -1.4227  1.3749
 3442WAT     H214489   4.450   5.060   4.201  0.4762  1.0555  0.5352
 3442WAT    EPW14490   4.516   5.040   4.238  0.0918  0.0221  0.7147
 3443WAT      O14491   4.432   7.265   4.889  1.0406 -0.3286 -0.2699
 3443WAT     H114492   4.499   7.318   4.901  0.5858 -0.1164  1.6983
 3443WAT     H214493   4.373   7.315   4.849  0.7838  0.5571  1.1503
 3443WAT    EPW14494   4.433   7.280   4.885  0.9355 -0.1664  0.2306
 3444WAT      O14495   4.586   6.323   3.236 -0.3298  1.5139  0.4757
 3444WAT     H114496   4.670   6.302   3.250 -0.5977  1.0788  1.5055
 3444WAT     H214497   4.590   6.408   3.215  0.3780  1.4722  0.3991
 3444WAT    EPW14498   4.599   6.333   3.235 -0.2648  1.4435  0.6165
 3445WAT      O14499   5.820   6.787   5.866 -0.3994 -0.1299  0.0147
 3445WAT     H114500   5.814   6.871   5.889 -0.9951  0.0745 -0.7991
 3445WAT     H214501   5.758   6.748   5.913 -1.2931  0.2012 -0.8466
 3445WAT    EPW14502   5.810   6.794   5.876 -0.6194 -0.0508 -0.2327
 3446WAT      O14503   4.956   6.977   3.025  0.1257  0.1750 -0.3783
 3446WAT     H114504   4.935   7.048   3.073  0.2063  0.1908 -0.3664
 3446WAT     H214505   4.902   6.983   2.956 -1.2960 -0.8260  0.5815
 3446WAT    EPW14506   4.945   6.989   3.022 -0.0724  0.0295 -0.2348
 3447WAT      O14507   4.882   0.106   4.323 -0.0177  0.2937  0.1342
 3447WAT     H114508   4.856   0.178   4.280  0.9033  0.8749  0.5264
 3447WAT     H214509   4.963   0.093   4.293  1.2824  1.6339  2.7532
 3447WAT    EPW14510   4.890   0.115   4.312  0.3104  0.5775  0.5790
 3448WAT      O14511   3.387   6.268   5.773  1.1289 -0.5505 -0.1767
 3448WAT     H114512   3.438   6.225   5.829 -1.1595 -1.5688  1.3008
 3448WAT     H214513   3.366   6.340   5.817  0.4940 -0.6464 -0.3144
 3448WAT    EPW14514   3.391   6.272   5.788  0.6971 -0.7151  0.0212
 3449WAT      O14515   5.738   5.756   5.622  0.6825  0.6746  0.0459
 3449WAT     H114516   5.705   5.680   5.649 -0.1095  0.1349 -2.2354
 3449WAT     H214517   5.706   5.813   5.679 -0.3254 -0.4684  0.6711
 3449WAT    EPW14518   5.728   5.753   5.634  0.4166  0.4261 -0.1988
 3450WAT      O14519   4.082   6.726   4.234  0.2265  0.1154 -0.2734
 3450WAT     H114520   4.030   6.786   4.270 -0.9591 -1.3678  0.5691
 3450WAT     H214521   4.155   6.770   4.218 -0.1722  1.5050  1.4125
 3450WAT    EPW14522   4.085   6.741   4.237 -0.0075  0.1016  0.1001
 3451WAT      O14523   5.754   1.417   4.718 -0.1770  0.2666  0.2127
 3451WAT     H114524   5.757   1.333   4.694 -0.8095  0.4015 -0.3680
 3451WAT     H214525   5.797   1.458   4.655  0.8981  0.3031  0.9417
 3451WAT    EPW14526   5.761   1.411   4.705 -0.1116  0.2919  0.2346
 3452WAT      O14527   4.420   0.075   3.818  0.6145 -0.3670 -0.4512
 3452WAT     H114528   4.363   0.139   3.803  1.5618  0.5862 -0.0782
 3452WAT     H214529   4.373   0.002   3.802 -0.5108  0.3939 -0.7613
 3452WAT    EPW14530   4.404   0.073   3.813  0.5882 -0.1138 -0.4419
 3453WAT      O14531   3.060   7.242   5.324 -0.2877 -0.4062 -0.6450
 3453WAT     H114532   3.099   7.318   5.343  2.0006 -1.2375 -1.6247
 3453WAT     H214533   3.066   7.198   5.399  0.6981 -0.5052 -0.7661
 3453WAT    EPW14534   3.067   7.247   5.338  0.1960 -0.5436 -0.8076
 3454WAT      O14535   4.846   0.508   3.786 -0.4346 -0.4618  0.3674
 3454WAT     H114536   4.800   0.455   3.838 -0.5445  1.4489  2.3265
 3454WAT     H214537   4.824   0.481   3.706 -3.0494 -1.2558  1.2411
 3454WAT    EPW14538   4.836   0.496   3.781 -0.8371 -0.2968  0.7858
 3455WAT      O14539   3.719   0.393   4.928 -0.5093 -0.6008  0.2340
 3455WAT     H114540   3.795   0.416   4.892 -0.2593 -1.2290  0.3469
 3455WAT     H214541   3.666   0.385   4.859 -0.3418 -0.6629  0.1124
 3455WAT    EPW14542   3.722   0.395   4.913 -0.4476 -0.7028  0.2327
 3456WAT      O14543   3.950   0.343   6.008  0.1539 -0.1725 -0.3436
 3456WAT     H114544   3.865   0.324   6.016 -0.0360  0.2685 -1.1851
 3456WAT     H214545   3.955   0.427   6.031  0.3032 -0.1007 -0.6287
 3456WAT    EPW14546   3.938   0.353   6.012  0.1479 -0.0967 -0.5100
 3457WAT      O14547   5.064   5.939   5.181 -0.3122 -0.0341 -0.3590
 3457WAT     H114548   5.030   5.916   5.258  0.8864 -0.5834  0.0285
 3457WAT     H214549   5.005   5.913   5.123 -0.8593 -0.3380  0.3252
 3457WAT    EPW14550   5.050   5.932   5.184 -0.2160 -0.1602 -0.2007
 3458WAT      O14551   5.383   5.923   6.342 -0.2944 -0.4180 -0.4163
 3458WAT     H114552   5.325   5.981   6.312  0.2661 -0.1529 -1.0336
 3458WAT     H214553   5.336   5.851   6.355 -0.5580 -0.5870 -2.0756
 3458WAT    EPW14554   5.368   5.921   6.339 -0.2505 -0.4038 -0.7526
 3459WAT      O14555   5.118   6.519   4.271  0.5293  0.1417 -0.1493
 3459WAT     H114556   5.122   6.445   4.317 -0.7377 -0.6922 -1.3171
 3459WAT     H214557   5.160   6.500   4.197  1.6310  1.1324  0.2028
 3459WAT    EPW14558   5.124   6.505   4.267  0.5049  0.1649 -0.2698
 3460WAT      O14559   4.173   6.111   4.679  0.5789 -0.0992  1.0492
 3460WAT     H114560   4.114   6.139   4.737 -0.5598 -1.4923  0.6226
 3460WAT     H214561   4.191   6.029   4.705  1.5622 -0.0550  0.5752
 3460WAT    EPW14562   4.167   6.103   4.692  0.5559 -0.2985  0.9162
 3461WAT      O14563   3.808   0.407   3.757 -0.0184  0.1610  0.1552
 3461WAT     H114564   3.728   0.435   3.780  0.1899 -0.7984  2.3737
 3461WAT     H214565   3.857   0.428   3.826  1.5027 -0.0026 -0.8299
 3461WAT    EPW14566   3.803   0.414   3.771  0.2371 -0.0049  0.3374
 3462WAT      O14567   4.975   6.823   4.061  0.3451 -0.1544  0.6988
 3462WAT     H114568   5.009   6.767   4.003  0.1994 -0.0355  0.4991
 3462WAT     H214569   4.910   6.861   4.017 -1.5972 -2.0321  1.7674
 3462WAT    EPW14570   4.970   6.820   4.046  0.0366 -0.4142  0.8271
 3463WAT      O14571   4.325   0.004   4.722 -0.0463 -0.0440  0.7319
 3463WAT     H114572   4.391  -0.009   4.666  0.2540  0.9411  0.8337
 3463WAT     H214573   4.269   0.053   4.676  0.0059  0.4122  1.1418
 3463WAT    EPW14574   4.326   0.009   4.707  0.0058  0.1689  0.8075
 3464WAT      O14575   4.696   7.623   4.693 -0.4313 -0.4159  0.2962
 3464WAT     H114576   4.643   7.634   4.624 -0.2079  1.0156  0.3128
 3464WAT     H214577   4.768   7.667   4.670 -0.2172 -0.2279  1.2933
 3464WAT    EPW14578   4.699   7.631   4.679 -0.3667 -0.1767  0.4460
 3465WAT      O14579   3.371   7.133   4.034 -0.7907  0.1579 -0.1354
 3465WAT     H114580   3.346   7.127   3.950  1.0464 -0.5224 -0.6855
 3465WAT     H214581   3.391   7.217   4.043 -1.0664  0.2499 -0.3402
 3465WAT    EPW14582   3.370   7.145   4.023 -0.5600  0.0710 -0.2469
 3466WAT      O14583   2.810   7.095   4.499  0.4240  0.0749  0.3284
 3466WAT     H114584   2.888   7.057   4.504  1.9669  2.9623  0.6955
 3466WAT     H214585   2.788   7.106   4.583  1.3015  2.1605  0.3638
 3466WAT    EPW14586   2.818   7.091   4.512  0.7815  0.8095  0.3878
 3467WAT      O14587   3.618   0.149   5.561 -0.4593  0.6993 -0.5922
 3467WAT     H114588   3.637   0.102   5.490  1.1807  1.2993 -0.5719
 3467WAT     H214589   3.680   0.127   5.617 -0.9888  1.2182  0.2082
 3467WAT    EPW14590   3.630   0.139   5.558 -0.2952  0.8646 -0.4710
 3468WAT      O14591   4.233   1.112   5.052 -0.0697  0.1277 -0.7874
 3468WAT     H114592   4.176   1.065   5.098 -0.4040  0.7838 -0.5244
 3468WAT     H214593   4.189   1.183   5.030  0.7495  0.8291 -0.2548
 3468WAT    EPW14594   4.218   1.116   5.056  0.0019  0.3282 -0.6699
 3469WAT      O14595   4.609   0.055   3.062 -0.2522 -0.5281 -0.0832
 3469WAT     H114596   4.638   0.096   3.134 -0.5131  0.3727 -0.4709
 3469WAT     H214597   4.653  -0.020   3.062  1.9216  0.6440 -0.4817
 3469WAT    EPW14598   4.620   0.050   3.073  0.0304 -0.2219 -0.1994
 3470WAT      O14599   5.895   0.257   4.549 -0.6394  0.0981  0.0132
 3470WAT     H114600   5.945   0.234   4.617  0.3993  3.0692  0.3855
 3470WAT     H214601   5.925   0.206   4.484  3.0579  1.7088  0.2152
 3470WAT    EPW14602   5.907   0.246   4.549  0.0602  0.7749  0.0981
 3471WAT      O14603   5.626   6.134   6.202 -0.0501  0.2842  0.3703
 3471WAT     H114604   5.586   6.058   6.188 -1.0591  0.8885 -0.1842
 3471WAT     H214605   5.609   6.180   6.129  0.9481  0.8728  0.4883
 3471WAT    EPW14606   5.617   6.130   6.189 -0.0517  0.4604  0.3058
 3472WAT      O14607   4.199   0.315   5.080  0.0228  0.7953 -0.4755
 3472WAT     H114608   4.165   0.315   4.999  2.2322 -0.3125 -1.4929
 3472WAT     H214609   4.283   0.331   5.066  0.6977 -0.7592  1.4841
 3472WAT    EPW14610   4.206   0.317   5.066  0.4489  0.4020 -0.3363
 3473WAT      O14611   5.254   6.009   6.091 -0.0430  0.2503 -0.0171
 3473WAT     H114612   5.266   5.926   6.067 -0.1156 -0.3624  1.9011
 3473WAT     H214613   5.193   6.038   6.036 -1.0208 -1.3933  0.1409
 3473WAT    EPW14614   5.247   6.001   6.080 -0.1982 -0.0830  0.2896
 3474WAT      O14615   4.454   6.581   5.664 -0.0193 -0.3382  0.2737
 3474WAT     H114616   4.507   6.568   5.733 -0.5508 -2.2046  0.4072
 3474WAT     H214617   4.375   6.565   5.697 -0.5078  0.8055 -0.3114
 3474WAT    EPW14618   4.450   6.577   5.679 -0.1699 -0.4449  0.2070
 3475WAT      O14619   4.146   7.495   5.186  0.2630  0.7098  0.0330
 3475WAT     H114620   4.207   7.514   5.246  1.7532 -0.3447 -1.0777
 3475WAT     H214621   4.167   7.415   5.160 -1.1500  0.6336 -0.9713
 3475WAT    EPW14622   4.158   7.486   5.191  0.2744  0.5428 -0.2794
 3476WAT      O14623   4.422   0.918   7.552 -0.1727 -0.4097 -0.5528
 3476WAT     H114624   4.494   0.873   7.534  0.9825  0.7568  0.9335
 3476WAT     H214625   4.444   1.000   7.534 -1.7118 -0.1999 -1.6788
 3476WAT    EPW14626   4.436   0.924   7.547 -0.2294 -0.2064 -0.4996
 3477WAT      O14627   5.736   1.104   4.628 -0.9778  0.2918 -0.2697
 3477WAT     H114628   5.760   1.066   4.553  0.9711 -1.9395  1.3330
 3477WAT     H214629   5.742   1.039   4.686 -1.8479  2.0755  1.9514
 3477WAT    EPW14630   5.740   1.089   4.626 -0.8184  0.2257  0.2951
 3478WAT      O14631   3.603   0.234   4.033 -0.0130  0.4950  0.0089
 3478WAT     H114632   3.601   0.282   3.960 -3.0927  0.4894 -0.0573
 3478WAT     H214633   3.678   0.190   4.027 -0.4534 -0.0554 -3.5680
 3478WAT    EPW14634   3.613   0.234   4.021 -0.5330  0.4129 -0.5293
 3479WAT      O14635   3.921   7.388   4.895 -0.3723  0.3200 -0.4186
 3479WAT     H114636   3.879   7.377   4.971  0.4839  1.5628  0.2602
 3479WAT     H214637   3.950   7.308   4.876 -1.0486 -0.1052  0.2947
 3479WAT    EPW14638   3.919   7.375   4.903 -0.3457  0.4408 -0.2129
 3480WAT      O14639   3.796   6.760   6.599 -0.5975  0.1294  0.0598
 3480WAT     H114640   3.778   6.744   6.683 -0.4329 -1.5251 -0.1800
 3480WAT     H214641   3.816   6.845   6.598  1.0241 -0.1662  1.9823
 3480WAT    EPW14642   3.796   6.770   6.611 -0.3336 -0.1587  0.3084
 3481WAT      O14643   5.200   7.146   5.520  0.3894 -0.0233 -0.1265
 3481WAT     H114644   5.201   7.233   5.515  0.7084 -0.0801 -1.2039
 3481WAT     H214645   5.175   7.131   5.602  0.9390  1.0836  0.2645
 3481WAT    EPW14646   5.196   7.157   5.531  0.5177  0.1318 -0.2279
 3482WAT      O14647   2.308   6.731   4.405  0.0628 -0.1784  0.1219
 3482WAT     H114648   2.333   6.803   4.361 -0.9375  1.0190  1.4268
 3482WAT     H214649   2.331   6.749   4.487 -2.1616 -0.3800  0.8478
 3482WAT    EPW14650   2.315   6.744   4.411 -0.4136 -0.0313  0.4219
 3483WAT      O14651   4.509   6.623   6.246 -0.0317  0.2192  0.0158
 3483WAT     H114652   4.431   6.598   6.215 -0.8837  3.7420 -1.2535
 3483WAT     H214653   4.497   6.626   6.332  0.2217 -3.4040  0.3114
 3483WAT    EPW14654   4.495   6.620   6.254 -0.1201  0.2044 -0.1281
 3484WAT      O14655   3.756   7.189   5.175  0.4543 -0.2019  0.6010
 3484WAT     H114656   3.681   7.158   5.145  1.8044 -1.9126 -1.3307
 3484WAT     H214657   3.800   7.116   5.198  1.7673  0.6849  1.0119
 3484WAT    EPW14658   3.752   7.173   5.174  0.8477 -0.3236  0.3764
 3485WAT      O14659   5.262   6.461   4.022 -0.0458 -0.1855  0.0894
 3485WAT     H114660   5.300   6.539   4.029  1.1851 -0.7404 -0.0316
 3485WAT     H214661   5.315   6.409   4.068 -1.5027 -0.7510  1.1941
 3485WAT    EPW14662   5.275   6.465   4.030 -0.0792 -0.3510  0.2347
 3486WAT      O14663   3.756   6.880   5.015 -0.1762  0.4645 -0.1750
 3486WAT     H114664   3.829   6.926   5.003 -0.2155  0.3608 -0.8490
 3486WAT     H214665   3.784   6.797   5.017 -0.1446  0.4818  0.7176
 3486WAT    EPW14666   3.771   6.874   5.014 -0.1773  0.4517 -0.1427
 3487WAT      O14667   6.416   0.520   4.084  0.2945  0.2566  0.4522
 3487WAT     H114668   6.351   0.465   4.064  0.1805  0.6549 -0.2804
 3487WAT     H214669   6.471   0.512   4.016  0.5720  0.6078  0.6337
 3487WAT    EPW14670   6.415   0.510   4.071  0.3187  0.3673  0.3708
 3488WAT      O14671   5.818   6.299   5.312 -0.0214  0.1808  0.1744
 3488WAT     H114672   5.776   6.365   5.274 -0.0963 -0.0059 -0.0681
 3488WAT     H214673   5.754   6.252   5.349  0.0380  0.2816  0.4064
 3488WAT    EPW14674   5.803   6.302   5.312 -0.0237  0.1681  0.1728
 3489WAT      O14675   5.375   6.941   4.173  0.0943 -0.3035 -0.3409
 3489WAT     H114676   5.404   6.859   4.169  2.2715  0.3694  0.3787
 3489WAT     H214677   5.326   6.943   4.245  0.3647 -0.8711 -0.1396
 3489WAT    EPW14678   5.372   6.929   4.183  0.4559 -0.2879 -0.2049
 3490WAT      O14679   5.326   6.692   5.450 -0.5376 -1.0556  0.0992
 3490WAT     H114680   5.409   6.666   5.460  0.5588  1.0012 -2.2764
 3490WAT     H214681   5.333   6.779   5.446 -3.0887 -0.7151  1.3731
 3490WAT    EPW14682   5.339   6.701   5.451 -0.7525 -0.7014 -0.0635
 3491WAT      O14683   5.343   6.916   6.173 -0.7136  0.0056 -0.3352
 3491WAT     H114684   5.277   6.953   6.218  0.3036  0.1911  1.0605
 3491WAT     H214685   5.341   6.833   6.197 -0.1089  0.1224  0.1387
 3491WAT    EPW14686   5.333   6.909   6.183 -0.4740  0.0503 -0.0590
 3492WAT      O14687   4.456   0.613   5.791  0.3044  0.2905  0.1969
 3492WAT     H114688   4.398   0.581   5.733  0.0526  1.0483  0.0254
 3492WAT     H214689   4.533   0.589   5.758  0.1327  0.1236 -0.0906
 3492WAT    EPW14690   4.459   0.604   5.778  0.2418  0.3778  0.1291
 3493WAT      O14691   4.417   0.443   3.674  0.3729  0.3608 -0.2340
 3493WAT     H114692   4.501   0.446   3.650  1.0725  1.9604  2.0478
 3493WAT     H214693   4.375   0.481   3.607  1.8001  1.8725 -0.3419
 3493WAT    EPW14694   4.424   0.449   3.661  0.6871  0.8204  0.0872
 3494WAT      O14695   5.307   7.124   4.861  0.1838 -0.1716  0.2662
 3494WAT     H114696   5.323   7.039   4.846  0.6693  0.3240 -2.6400
 3494WAT     H214697   5.221   7.132   4.845  0.5052  0.1634 -1.5772
 3494WAT    EPW14698   5.297   7.113   4.856  0.3030 -0.0489 -0.4354
 3495WAT      O14699   4.234   7.302   5.901 -0.0558  0.2242 -0.4191
 3495WAT     H114700   4.168   7.332   5.948  0.7192  0.1437  0.7520
 3495WAT     H214701   4.235   7.354   5.831 -0.2681  1.3375  0.3884
 3495WAT    EPW14702   4.224   7.314   5.897  0.0273  0.3768 -0.1268
 3496WAT      O14703   4.356   1.146   3.278 -0.0113 -0.3653 -0.2235
 3496WAT     H114704   4.358   1.218   3.327 -2.2207  0.3627 -1.0911
 3496WAT     H214705   4.278   1.149   3.240 -0.5950 -3.6980  0.4048
 3496WAT    EPW14706   4.345   1.157   3.280 -0.4239 -0.7501 -0.2588
 3497WAT      O14707   5.580   6.374   7.573  0.2550  0.4792 -0.8104
 3497WAT     H114708   5.564   6.295   7.606  0.3773  1.1863  1.1000
 3497WAT     H214709   5.567   6.364   7.487 -0.3247 -1.4428 -0.5455
 3497WAT    EPW14710   5.576   6.361   7.565  0.1874  0.2997 -0.4890
 3498WAT      O14711   3.841   0.029   4.880 -0.0762  0.2575 -0.1506
 3498WAT     H114712   3.924   0.018   4.906 -0.8373 -1.7903  1.7752
 3498WAT     H214713   3.809  -0.052   4.878 -1.4873  0.7486 -3.1250
 3498WAT    EPW14714   3.848   0.015   4.884 -0.3971  0.0275 -0.3055
 3499WAT      O14715   5.225   0.541   5.554 -0.0882 -0.2710  0.6379
 3499WAT     H114716   5.307   0.515   5.569 -0.2981 -0.8886  0.7317
 3499WAT     H214717   5.179   0.468   5.558 -0.3333 -0.3513 -2.0626
 3499WAT    EPW14718   5.231   0.527   5.557 -0.1554 -0.3741  0.2528
 3500WAT      O14719   3.586   0.625   4.983 -0.1063  0.4868  0.9263
 3500WAT     H114720   3.586   0.650   4.899 -2.6101  0.0872  0.7405
 3500WAT     H214721   3.624   0.547   4.981 -2.2767 -0.6154 -0.2888
 3500WAT    EPW14722   3.592   0.618   4.970 -0.7967  0.2649  0.7193
 3501WAT      O14723   4.338   6.902   5.265  0.1128 -0.4229 -0.7032
 3501WAT     H114724   4.408   6.952   5.250  0.9627 -1.3554  0.0191
 3501WAT     H214725   4.372   6.831   5.304 -1.4749  0.0612  1.7270
 3501WAT    EPW14726   4.354   6.899   5.269  0.0038 -0.4892 -0.2375
 3502WAT      O14727   5.117   6.489   3.647 -0.0620 -0.0076 -0.0098
 3502WAT     H114728   5.105   6.410   3.680  1.5824 -0.0409  0.5985
 3502WAT     H214729   5.078   6.542   3.705  0.0184 -0.2839  0.2991
 3502WAT    EPW14730   5.109   6.485   3.660  0.1928 -0.0533  0.1257
 3503WAT      O14731   4.685   5.903   3.597  0.1888  0.2244  0.0071
 3503WAT     H114732   4.701   5.833   3.548  0.4808  0.0370  0.3655
 3503WAT     H214733   4.598   5.901   3.607  0.3683 -1.4098  1.9119
 3503WAT    EPW14734   4.675   5.892   3.591  0.2584 -0.0447  0.3414
 3504WAT      O14735   3.841   7.685   5.265 -0.0281 -0.3177 -0.1484
 3504WAT     H114736   3.810   7.761   5.234 -0.7297 -0.1698  0.8688
 3504WAT     H214737   3.925   7.688   5.245 -0.4144 -0.1892 -1.9292
 3504WAT    EPW14738   3.849   7.697   5.258 -0.1888 -0.2769 -0.2612
 3505WAT      O14739   5.473   6.571   2.674 -0.5274  0.0727  0.0352
 3505WAT     H114740   5.393   6.597   2.651  0.2501  3.1450  0.4589
 3505WAT     H214741   5.493   6.621   2.743  1.5259 -1.0629  0.3645
 3505WAT    EPW14742   5.464   6.582   2.681 -0.1092  0.3588  0.1464
 3506WAT      O14743   4.194   7.075   5.732 -0.4038 -0.0413  0.2815
 3506WAT     H114744   4.181   7.148   5.777 -2.5785  1.4611 -2.4205
 3506WAT     H214745   4.271   7.088   5.693 -1.2616  1.4898 -1.0681
 3506WAT    EPW14746   4.203   7.088   5.733 -0.8517  0.4068 -0.3170
 3507WAT      O14747   5.425   6.670   4.211  0.3702  0.6227 -0.0357
 3507WAT     H114748   5.375   6.676   4.283 -1.1159  1.0920 -1.0468
 3507WAT     H214749   5.486   6.612   4.234 -0.7045 -0.0803  1.2542
 3507WAT    EPW14750   5.426   6.662   4.225 -0.0081  0.5882  0.0055
 3508WAT      O14751   3.299   7.283   4.905 -0.4745 -0.5203  0.6443
 3508WAT     H114752   3.295   7.352   4.852  0.7002 -0.5288  0.5337
 3508WAT     H214753   3.318   7.317   4.982  0.3138 -0.7334  0.5483
 3508WAT    EPW14754   3.301   7.298   4.908 -0.1846 -0.5530  0.6138
 3509WAT      O14755   3.383   6.987   5.482 -0.2900 -0.1141 -0.1788
 3509WAT     H114756   3.406   6.939   5.413 -1.3744 -2.2236  0.8532
 3509WAT     H214757   3.459   7.006   5.520  0.1376 -1.5479 -0.2809
 3509WAT    EPW14758   3.397   6.983   5.477 -0.3870 -0.6375 -0.0414
 3510WAT      O14759   5.829   1.568   4.482 -0.0254  0.0233 -0.0352
 3510WAT     H114760   5.806   1.581   4.399 -0.5463  0.0241  0.1048
 3510WAT     H214761   5.903   1.522   4.476 -0.1189 -0.0742 -0.4963
 3510WAT    EPW14762   5.837   1.563   4.469 -0.1162  0.0090 -0.0826
 3511WAT      O14763   5.688   7.159   6.864  0.1038  0.3147 -0.2458
 3511WAT     H114764   5.665   7.205   6.793  0.0200 -0.2906 -0.6232
 3511WAT     H214765   5.624   7.099   6.871  1.2889 -1.1134 -1.0442
 3511WAT    EPW14766   5.675   7.157   6.854  0.2665  0.0143 -0.4195
 3512WAT      O14767   4.085   7.641   3.819 -0.4321  0.1319 -0.5628
 3512WAT     H114768   4.027   7.704   3.801 -0.9055 -0.6254 -1.8051
 3512WAT     H214769   4.121   7.667   3.894 -1.1692  1.4836 -0.6497
 3512WAT    EPW14770   4.082   7.654   3.827 -0.6109  0.2197 -0.7591
 3513WAT      O14771   5.469   6.899   5.765  0.2370  0.4559 -0.3077
 3513WAT     H114772   5.432   6.875   5.690  1.6725  0.4181 -1.0377
 3513WAT     H214773   5.507   6.826   5.793  2.9042  1.2297 -1.5137
 3513WAT    EPW14774   5.469   6.885   5.758  0.8431  0.5646 -0.5937
 3514WAT      O14775   5.352   6.950   1.915 -0.9449 -0.1315  0.1508
 3514WAT     H114776   5.385   7.030   1.909  0.0198 -0.3734  1.7458
 3514WAT     H214777   5.344   6.924   1.832  0.0189  1.0860 -0.3426
 3514WAT    EPW14778   5.355   6.958   1.902 -0.6600  0.0126  0.3135
 3515WAT      O14779   5.798   0.668   1.992  0.0561 -0.0791  0.3037
 3515WAT     H114780   5.786   0.608   1.930  0.4695  0.1863 -0.0448
 3515WAT     H214781   5.718   0.700   2.006  0.1012  0.6981 -0.9624
 3515WAT    EPW14782   5.785   0.664   1.985  0.1238  0.0749  0.0652
 3516WAT      O14783   4.440   5.907   2.995  0.1859 -0.2642 -0.1435
 3516WAT     H114784   4.475   5.914   3.075 -1.3110 -0.7136  0.5756
 3516WAT     H214785   4.472   5.976   2.953 -0.1712  0.8045  1.2939
 3516WAT    EPW14786   4.450   5.918   3.001 -0.0880 -0.1727  0.1750
 3517WAT      O14787   5.098   7.372   3.710  0.0892  0.5823 -0.1401
 3517WAT     H114788   5.171   7.418   3.720  1.2059 -0.9216 -1.0588
 3517WAT     H214789   5.076   7.351   3.792  0.9745  0.6230  0.1173
 3517WAT    EPW14790   5.106   7.376   3.724  0.3849  0.3661 -0.2378
 3518WAT      O14791   5.566   5.614   1.854 -0.1005 -0.3341 -0.1884
 3518WAT     H114792   5.637   5.585   1.812  0.1875 -1.4055  0.9645
 3518WAT     H214793   5.556   5.695   1.824 -0.6181 -1.3872 -3.1584
 3518WAT    EPW14794   5.575   5.622   1.843 -0.1344 -0.6480 -0.4568
 3519WAT      O14795   4.785   0.548   2.369  0.1269  0.1733  0.5817
 3519WAT     H114796   4.720   0.561   2.313 -0.0063 -0.4535  0.5729
 3519WAT     H214797   4.855   0.542   2.318 -0.1205 -1.3436  0.3617
 3519WAT    EPW14798   4.786   0.549   2.353  0.0707 -0.1434  0.5479
 3520WAT      O14799   5.881   1.234   1.943 -0.8242 -0.4924  0.1926
 3520WAT     H114800   5.959   1.267   1.963 -0.2325 -1.9884  0.5331
 3520WAT     H214801   5.900   1.166   1.891 -1.9427 -0.5284 -0.2052
 3520WAT    EPW14802   5.895   1.229   1.938 -0.9020 -0.7187  0.1841
 3521WAT      O14803   5.713   1.204   1.654 -0.2372 -0.2542 -0.1583
 3521WAT     H114804   5.652   1.142   1.655  0.0323 -0.5152  0.0894
 3521WAT     H214805   5.676   1.269   1.699  0.0652 -0.8025  0.9315
 3521WAT    EPW14806   5.698   1.205   1.661 -0.1527 -0.3737  0.0393
 3522WAT      O14807   4.802   1.016   3.204  1.0577 -0.1008  0.0748
 3522WAT     H114808   4.772   0.956   3.260  2.6445 -1.8136 -0.8289
 3522WAT     H214809   4.861   0.973   3.156  1.4273  1.8919 -1.4030
 3522WAT    EPW14810   4.806   1.001   3.205  1.3467 -0.0594 -0.2770
 3523WAT      O14811   5.657   6.485   2.477  0.1496 -0.1750  0.0702
 3523WAT     H114812   5.614   6.509   2.549 -1.1370 -1.3934 -0.2514
 3523WAT     H214813   5.616   6.412   2.452  0.7830  0.0380 -1.7085
 3523WAT    EPW14814   5.644   6.478   2.484  0.0531 -0.3236 -0.2401
 3524WAT      O14815   4.451   6.309   4.267 -0.0165 -0.1567  0.6408
 3524WAT     H114816   4.406   6.277   4.199  0.2739  3.5215 -1.5777
 3524WAT     H214817   4.534   6.294   4.245  0.0627  0.6700  0.3336
 3524WAT    EPW14818   4.457   6.302   4.254  0.0381  0.5088  0.2677
 3525WAT      O14819   5.568   0.956   1.650  0.8044  0.3513 -0.4205
 3525WAT     H114820   5.529   0.935   1.574 -1.4130 -1.0306  0.9986
 3525WAT     H214821   5.614   0.884   1.669  0.9707  0.5169 -0.1929
 3525WAT    EPW14822   5.569   0.942   1.641  0.5014  0.1717 -0.1773
 3526WAT      O14823   6.241   7.560   3.363 -0.6413 -0.4852  0.5150
 3526WAT     H114824   6.215   7.493   3.312 -0.2936  1.0025 -1.7808
 3526WAT     H214825   6.207   7.630   3.323  0.6652  0.8845  1.7055
 3526WAT    EPW14826   6.232   7.560   3.349 -0.3969 -0.0631  0.3517
 3527WAT      O14827   3.612   6.962   4.005  0.0732 -0.0474  0.5456
 3527WAT     H114828   3.610   6.890   3.956 -1.5349 -0.5485  1.2752
 3527WAT     H214829   3.542   7.007   3.978  0.0838  0.4294  1.2720
 3527WAT    EPW14830   3.601   6.958   3.993 -0.1628 -0.0510  0.7607
 3528WAT      O14831   3.196   7.497   3.585 -0.2128 -0.0382  0.0928
 3528WAT     H114832   3.261   7.504   3.643 -0.8588 -0.4374  0.8948
 3528WAT     H214833   3.191   7.411   3.570 -1.4717 -0.1915  1.1591
 3528WAT    EPW14834   3.205   7.485   3.591 -0.4942 -0.1198  0.3688
 3529WAT      O14835   4.125   6.178   3.818  0.3393 -0.4360  0.4139
 3529WAT     H114836   4.052   6.196   3.863 -1.1587 -0.6484 -1.7563
 3529WAT     H214837   4.100   6.114   3.765  2.5131 -1.3902  0.4726
 3529WAT    EPW14838   4.110   6.171   3.817  0.4391 -0.6083  0.1020
 3530WAT      O14839   4.639   0.071   2.248  0.2625  0.8811  0.5195
 3530WAT     H114840   4.584   0.003   2.246 -0.5163  1.4520  1.6575
 3530WAT     H214841   4.606   0.122   2.310  1.3203  1.9029  0.2678
 3530WAT    EPW14842   4.626   0.068   2.257  0.3037  1.1164  0.6504
 3531WAT      O14843   4.504   0.329   4.170  0.0163  0.3714 -0.5071
 3531WAT     H114844   4.561   0.337   4.105 -0.3269 -0.3884 -0.9179
 3531WAT     H214845   4.507   0.244   4.189  0.4868  0.6743  0.8262
 3531WAT    EPW14846   4.512   0.318   4.163  0.0351  0.3039 -0.3709
 3532WAT      O14847   4.654   7.438   4.902 -0.4459 -0.5828 -0.0134
 3532WAT     H114848   4.674   7.484   4.974 -0.5186  0.8390 -0.8517
 3532WAT     H214849   4.682   7.489   4.837 -0.1970 -1.9248 -1.0016
 3532WAT    EPW14850   4.661   7.452   4.903 -0.4199 -0.5710 -0.2832
 3533WAT      O14851   4.352   0.363   2.269 -0.5211 -0.1055  0.4275
 3533WAT     H114852   4.355   0.297   2.213 -2.8344 -0.8020  1.0464
 3533WAT     H214853   4.418   0.347   2.324  0.3612 -0.6177 -0.7606
 3533WAT    EPW14854   4.362   0.351   2.269 -0.7325 -0.2841  0.3434
 3534WAT      O14855   4.027   6.705   3.084 -0.0106  0.1707 -0.1608
 3534WAT     H114856   4.000   6.625   3.106 -0.8066  0.5779  0.3923
 3534WAT     H214857   4.102   6.713   3.126  1.2724 -1.1307 -2.0360
 3534WAT    EPW14858   4.034   6.694   3.093  0.0613  0.0386 -0.3561
 3535WAT      O14859   4.671   5.488   1.458  0.3317  0.0284  0.0172
 3535WAT     H114860   4.705   5.488   1.539  1.5909 -4.3943 -0.2547
 3535WAT     H214861   4.740   5.470   1.407 -0.9665 -0.5392 -1.6202
 3535WAT    EPW14862   4.686   5.485   1.463  0.3260 -0.7087 -0.2648
 3536WAT      O14863   3.616   0.041   3.652  0.5753  0.1121 -0.1756
 3536WAT     H114864   3.634   0.064   3.570 -1.3239  0.9531 -0.3990
 3536WAT     H214865   3.537   0.075   3.666  0.4326 -0.8720  1.6771
 3536WAT    EPW14866   3.607   0.050   3.642  0.2737  0.0909  0.0651
 3537WAT      O14867   5.396   5.223   1.407 -0.0823 -0.8086  0.0526
 3537WAT     H114868   5.397   5.237   1.321 -1.7343 -2.1605 -0.2576
 3537WAT     H214869   5.386   5.137   1.413 -1.7714 -0.5669  1.5398
 3537WAT    EPW14870   5.394   5.212   1.395 -0.5758 -0.9726  0.2265
 3538WAT      O14871   4.059   6.193   1.663  0.7624 -0.2179  0.1425
 3538WAT     H114872   3.992   6.202   1.719  0.7245 -2.4362  0.5706
 3538WAT     H214873   4.021   6.200   1.584  0.5197  1.2199  0.3722
 3538WAT    EPW14874   4.043   6.195   1.659  0.7210 -0.3332  0.2397
 3539WAT      O14875   4.024   7.149   2.574  0.1919 -0.2357 -0.2578
 3539WAT     H114876   4.048   7.066   2.580 -0.4307 -0.3224  1.7158
 3539WAT     H214877   4.032   7.179   2.656  0.6738  1.7363 -0.9549
 3539WAT    EPW14878   4.029   7.141   2.587  0.1711  0.0428 -0.0692
 3540WAT      O14879   6.147   6.445   2.494  0.0333 -0.5468  0.0060
 3540WAT     H114880   6.183   6.525   2.488  0.0317 -0.5387  0.0993
 3540WAT     H214881   6.124   6.427   2.412  0.6474 -0.7392 -0.1281
 3540WAT    EPW14882   6.149   6.454   2.481  0.1238 -0.5740 -0.0001
 3541WAT      O14883   5.283   1.326   2.471 -0.5461  0.1766 -0.1192
 3541WAT     H114884   5.269   1.240   2.473 -3.0528  0.5132 -0.4369
 3541WAT     H214885   5.337   1.336   2.403  0.6106 -1.1901  0.5361
 3541WAT    EPW14886   5.289   1.315   2.461 -0.7455  0.0244 -0.0693
 3542WAT      O14887   2.248   6.647   2.297  0.1402  0.4392  0.0750
 3542WAT     H114888   2.255   6.647   2.211 -1.7563 -0.0383 -0.1352
 3542WAT     H214889   2.315   6.598   2.324  1.2223  1.2439 -1.0374
 3542WAT    EPW14890   2.259   6.640   2.289  0.0199  0.4875 -0.1204
 3543WAT      O14891   3.869   0.818   2.075 -0.2270  0.2414 -0.2806
 3543WAT     H114892   3.933   0.780   2.029  0.2793 -0.3456  0.8754
 3543WAT     H214893   3.804   0.824   2.017  0.7120  0.4400 -1.3562
 3543WAT    EPW14894   3.869   0.813   2.060 -0.0135  0.1840 -0.2687
 3544WAT      O14895   4.239   6.593   1.782 -0.3346  0.4216 -0.2695
 3544WAT     H114896   4.184   6.553   1.728  0.1899 -0.1172 -0.4282
 3544WAT     H214897   4.246   6.674   1.750 -0.0058  0.1006 -1.0415
 3544WAT    EPW14898   4.232   6.599   1.770 -0.2085  0.2946 -0.4070
 3545WAT      O14899   5.229   6.923   3.483  0.5671 -0.4750 -0.2426
 3545WAT     H114900   5.289   6.923   3.546  0.8430  3.6690 -0.1752
 3545WAT     H214901   5.166   6.975   3.516 -0.1935  0.1752 -2.5516
 3545WAT    EPW14902   5.229   6.931   3.497  0.4955  0.2332 -0.5737
 3546WAT      O14903   5.058   6.610   2.836  0.8001 -0.0261  0.7311
 3546WAT     H114904   5.104   6.556   2.886  1.0904 -0.9080 -0.4443
 3546WAT     H214905   5.108   6.621   2.765  0.0130  0.4731  0.2355
 3546WAT    EPW14906   5.072   6.604   2.833  0.7267 -0.0826  0.4842
 3547WAT      O14907   3.102   0.206   3.630  0.4085  0.2320 -0.0278
 3547WAT     H114908   3.108   0.157   3.558  1.8451  0.6876 -0.2363
 3547WAT     H214909   3.049   0.271   3.606  2.0722  1.2123 -1.1886
 3547WAT    EPW14910   3.095   0.208   3.616  0.8665  0.4441 -0.2301
 3548WAT      O14911   5.733   7.547   1.073  0.4638 -0.0429 -0.1556
 3548WAT     H114912   5.739   7.463   1.097  0.0599  0.2137  0.9126
 3548WAT     H214913   5.744   7.591   1.148 -2.2673  0.7779 -0.1371
 3548WAT    EPW14914   5.736   7.541   1.088  0.0007  0.1162  0.0049
 3549WAT      O14915   4.655   6.273   0.966  0.1365  0.4750 -0.4684
 3549WAT     H114916   4.689   6.235   0.894  0.2796  1.2804 -0.8421
 3549WAT     H214917   4.703   6.346   0.975 -0.4095  0.7903 -0.0270
 3549WAT    EPW14918   4.667   6.278   0.956  0.0770  0.6406 -0.4584
 3550WAT      O14919   4.220   7.621   4.320 -0.3029  0.2074 -0.3514
 3550WAT     H114920   4.154   7.565   4.320  0.6303 -0.9177  0.0289
 3550WAT     H214921   4.185   7.693   4.355 -0.9712 -0.8073  1.1840
 3550WAT    EPW14922   4.205   7.624   4.325 -0.2637 -0.1087 -0.0684
 3551WAT      O14923   6.003   1.248   0.921  0.9251  0.3916 -0.5766
 3551WAT     H114924   6.023   1.288   0.846  0.8772  1.6662  0.0583
 3551WAT     H214925   5.919   1.226   0.910  1.1267 -0.0948 -1.1778
 3551WAT    EPW14926   5.993   1.251   0.908  0.9478  0.5081 -0.5716
 3552WAT      O14927   4.783   7.482   1.766  0.1925  0.2827  0.1822
 3552WAT     H114928   4.811   7.544   1.821  0.2939 -0.8494  1.4609
 3552WAT     H214929   4.780   7.411   1.816 -0.1065 -0.7092 -1.2036
 3552WAT    EPW14930   4.787   7.481   1.782  0.1633 -0.0311  0.1663
 3553WAT      O14931   4.941   0.963   2.447  0.0288 -0.3100 -0.3151
 3553WAT     H114932   4.962   1.031   2.497 -0.8296  0.7502 -1.3355
 3553WAT     H214933   5.017   0.921   2.437  0.5348  0.3772  0.5176
 3553WAT    EPW14934   4.956   0.967   2.453 -0.0233 -0.0519 -0.3428
 3554WAT      O14935   5.103   6.368   2.186  0.2178  0.3390 -0.1400
 3554WAT     H114936   5.035   6.318   2.163  0.4452 -0.5956  1.1024
 3554WAT     H214937   5.159   6.359   2.119 -0.8203  1.0309 -1.1190
 3554WAT    EPW14938   5.101   6.359   2.173  0.0981  0.3032 -0.1011
 3555WAT      O14939   3.371   7.545   3.780  0.3265 -0.3535  0.0865
 3555WAT     H114940   3.368   7.523   3.865  0.4563 -0.3911  0.0814
 3555WAT     H214941   3.363   7.632   3.782 -2.7390 -0.4941 -0.0168
 3555WAT    EPW14942   3.369   7.554   3.793 -0.1072 -0.3798  0.0705
 3556WAT      O14943   3.873   0.623   1.136 -0.1080  0.0091 -0.8118
 3556WAT     H114944   3.838   0.544   1.124  2.0330 -1.3238  0.9292
 3556WAT     H214945   3.830   0.654   1.206  0.2271 -0.3680 -0.4382
 3556WAT    EPW14946   3.861   0.616   1.144  0.2578 -0.2435 -0.4994
 3557WAT      O14947   3.221   7.183   4.577  0.1886  0.3955  0.1127
 3557WAT     H114948   3.210   7.268   4.562  1.6485  0.5336 -0.2543
 3557WAT     H214949   3.155   7.164   4.631 -0.7073  1.5411 -0.5181
 3557WAT    EPW14950   3.209   7.193   4.582  0.2719  0.5851 -0.0347
 3558WAT      O14951   3.144   0.218   4.255 -0.1112 -0.2964  0.1537
 3558WAT     H114952   3.221   0.243   4.288 -0.4764  1.0729  0.0573
 3558WAT     H214953   3.159   0.138   4.224  0.9032 -0.6082  1.3683
 3558WAT    EPW14954   3.158   0.210   4.256 -0.0153 -0.1402  0.3189
 3559WAT      O14955   3.847   6.699   2.638 -0.1010 -0.5759  0.0446
 3559WAT     H114956   3.863   6.627   2.591  1.8935  0.1226 -0.4488
 3559WAT     H214957   3.926   6.721   2.669 -0.6921  1.3274  0.3010
 3559WAT    EPW14958   3.861   6.692   2.636  0.1063 -0.1916  0.0096
 3560WAT      O14959   5.519   6.285   2.758  0.1154 -0.5980  0.0436
 3560WAT     H114960   5.432   6.281   2.758 -0.0234  0.6854 -2.1252
 3560WAT     H214961   5.536   6.359   2.714  2.3272  0.7565  2.8770
 3560WAT    EPW14962   5.509   6.295   2.751  0.4216 -0.2084  0.1418
 3561WAT      O14963   4.201   7.537   2.168  0.1306 -0.4927 -0.0768
 3561WAT     H114964   4.164   7.460   2.187 -0.0101 -0.1252  1.2284
 3561WAT     H214965   4.162   7.593   2.222  3.4552 -0.3007  2.4346
 3561WAT    EPW14966   4.190   7.534   2.179  0.6010 -0.4100  0.4870
 3562WAT      O14967   5.546   7.392   3.139 -0.0063  0.5759 -0.0673
 3562WAT     H114968   5.523   7.351   3.212 -0.5910  2.5568  0.9224
 3562WAT     H214969   5.488   7.362   3.080  0.4311 -0.9891  0.2355
 3562WAT    EPW14970   5.534   7.381   3.141 -0.0280  0.6373  0.1237
 3563WAT      O14971   4.476   7.560   2.256  0.3108 -0.4450  0.2015
 3563WAT     H114972   4.392   7.572   2.236  0.2854 -0.6188  0.2068
 3563WAT     H214973   4.475   7.491   2.310  0.2269  0.7345  1.7945
 3563WAT    EPW14974   4.463   7.552   2.261  0.2947 -0.2964  0.4376
 3564WAT      O14975   3.429   7.001   0.975  0.7761 -0.0668 -0.6484
 3564WAT     H114976   3.396   7.048   1.041 -0.6726 -0.8896 -0.7454
 3564WAT     H214977   3.469   7.060   0.925  0.2140  0.8470 -0.0347
 3564WAT    EPW14978   3.430   7.016   0.978  0.4790 -0.0533 -0.5721
 3565WAT      O14979   5.912   6.604   3.286 -0.8684 -0.8852 -0.0560
 3565WAT     H114980   5.969   6.590   3.222  0.3244 -0.7021  0.9375
 3565WAT     H214981   5.910   6.529   3.330 -0.4155 -0.4961  0.6545
 3565WAT    EPW14982   5.920   6.591   3.283 -0.6253 -0.8007  0.1957
 3566WAT      O14983   5.817   6.293   1.405  0.3925  0.0914  0.0457
 3566WAT     H114984   5.785   6.272   1.483  2.5958 -1.5061  0.6019
 3566WAT     H214985   5.872   6.359   1.422  0.6402 -0.0467 -0.2081
 3566WAT    EPW14986   5.820   6.300   1.419  0.7546 -0.1650  0.0904
 3567WAT      O14987   4.418   6.974   2.363 -0.0494 -0.0153  0.4136
 3567WAT     H114988   4.383   6.921   2.302  0.0247  0.3992  0.0011
 3567WAT     H214989   4.360   6.971   2.428  0.9515 -2.2479  1.3017
 3567WAT    EPW14990   4.404   6.966   2.363  0.1094 -0.2839  0.4839
 3568WAT      O14991   4.886   7.336   2.499 -0.0793  0.4284 -0.0444
 3568WAT     H114992   4.857   7.285   2.435  0.4074 -0.4946  0.4493
 3568WAT     H214993   4.969   7.313   2.508  0.5235  2.2079 -0.6468
 3568WAT    EPW14994   4.894   7.325   2.491  0.0816  0.5549 -0.0604
 3569WAT      O14995   5.085   0.361   2.437 -0.4491 -0.2944 -0.0611
 3569WAT     H114996   5.029   0.423   2.461 -1.8678 -1.3426 -0.4922
 3569WAT     H214997   5.049   0.288   2.470  0.8127 -0.9732 -0.1425
 3569WAT    EPW14998   5.071   0.359   2.446 -0.4723 -0.5495 -0.1368
 3570WAT      O14999   4.824   6.924   7.728 -0.3492 -0.0940  0.7375
 3570WAT     H115000   4.756   6.977   7.743 -0.8586 -0.8684  1.2749
 3570WAT     H215001   4.830   6.878   7.802 -0.1430 -1.0142  0.1568
 3570WAT    EPW15002   4.815   6.925   7.741 -0.3940 -0.3443  0.7311
 3571WAT      O15003   3.804   7.221   7.853  0.0287 -0.1872 -0.6158
 3571WAT     H115004   3.861   7.173   7.898 -1.1324 -0.3065  0.8250
 3571WAT     H215005   3.768   7.273   7.914 -1.6699 -0.4060 -1.3586
 3571WAT    EPW15006   3.807   7.222   7.869 -0.3938 -0.2371 -0.5127
 3572WAT      O15007   5.837   6.852   1.310  0.1240  0.1053 -0.4515
 3572WAT     H115008   5.920   6.863   1.285  0.0579 -0.6186 -0.9886
 3572WAT     H215009   5.792   6.850   1.235 -0.3512  0.2199 -0.1782
 3572WAT    EPW15010   5.842   6.854   1.295  0.0441  0.0153 -0.4905
 3573WAT      O15011   6.522   0.249   3.075 -0.1015 -0.5861  0.0654
 3573WAT     H115012   6.540   0.306   3.011 -0.6595 -1.1182 -0.5758
 3573WAT     H215013   6.601   0.226   3.105  0.1471  1.5712  1.3169
 3573WAT    EPW15014   6.536   0.254   3.070 -0.1472 -0.3460  0.1556
 3574WAT      O15015   3.489   6.282   1.592  0.0700  0.3390  0.1679
 3574WAT     H115016   3.536   6.353   1.570  0.7549 -0.1802 -0.0585
 3574WAT     H215017   3.421   6.316   1.636 -0.0924  1.2091 -0.7167
 3574WAT    EPW15018   3.486   6.298   1.595  0.1472  0.3909  0.0038
 3575WAT      O15019   4.990   0.387   5.027 -0.2855 -0.3776  0.5279
 3575WAT     H115020   4.924   0.336   5.000  0.2014 -0.8765  0.2655
 3575WAT     H215021   4.961   0.468   5.011 -0.5991 -0.6114 -0.1244
 3575WAT    EPW15022   4.976   0.392   5.021 -0.2599 -0.4858  0.3928
 3576WAT      O15023   6.218   7.319   3.208  0.5139  0.1959 -0.4531
 3576WAT     H115024   6.260   7.244   3.192  1.8426  0.1268  2.6367
 3576WAT     H215025   6.185   7.341   3.130  1.6887 -2.5797 -1.8855
 3576WAT    EPW15026   6.219   7.311   3.194  0.8837 -0.2244 -0.2083
 3577WAT      O15027   5.589   6.563   4.792 -0.4965  0.0022 -0.4326
 3577WAT     H115028   5.548   6.522   4.727  2.6820  0.5121 -3.0117
 3577WAT     H215029   5.624   6.499   4.839 -1.7368 -0.3384  0.0621
 3577WAT    EPW15030   5.588   6.548   4.789 -0.2102  0.0272 -0.7405
 3578WAT      O15031   5.151   0.443   3.012  0.3144 -0.6749  0.7283
 3578WAT     H115032   5.225   0.465   2.971 -0.4228 -1.6193 -1.2365
 3578WAT     H215033   5.167   0.462   3.095  1.6608  2.0312 -0.0412
 3578WAT    EPW15034   5.164   0.449   3.018  0.4044 -0.4147  0.3244
 3579WAT      O15035   5.425   6.671   3.805 -0.3824 -0.2314 -0.0989
 3579WAT     H115036   5.478   6.729   3.766  1.7771 -0.8892  1.6035
 3579WAT     H215037   5.351   6.715   3.816  0.9298  2.0308  0.4882
 3579WAT    EPW15038   5.422   6.686   3.801  0.1304  0.0056  0.2393
 3580WAT      O15039   3.847   7.222   3.287 -0.1550  0.3995  0.2851
 3580WAT     H115040   3.769   7.183   3.276 -0.0784 -0.1267  1.4083
 3580WAT     H215041   3.830   7.286   3.344  0.2983 -0.0224  0.9210
 3580WAT    EPW15042   3.833   7.225   3.294 -0.0767  0.2595  0.5449
 3581WAT      O15043   5.339   6.656   3.200  0.0495  0.0774  0.0587
 3581WAT     H115044   5.277   6.663   3.261  0.4879  0.2027  0.4990
 3581WAT     H215045   5.302   6.689   3.128 -0.2778  0.4655  0.4000
 3581WAT    EPW15046   5.325   6.662   3.198  0.0659  0.1533  0.1742
 3582WAT      O15047   4.488   0.181   2.834 -0.0872 -0.5466 -0.0567
 3582WAT     H115048   4.515   0.170   2.917  3.4159  2.0973 -0.6193
 3582WAT     H215049   4.561   0.174   2.787 -1.3344  1.3912 -2.5411
 3582WAT    EPW15050   4.503   0.179   2.840  0.2461  0.1302 -0.5068
 3583WAT      O15051   5.296   7.620   2.929  0.4478  0.0120 -0.1010
 3583WAT     H115052   5.377   7.644   2.949  0.3653 -0.9452  1.4996
 3583WAT     H215053   5.248   7.689   2.951  0.7441  0.3422 -0.4654
 3583WAT    EPW15054   5.301   7.634   2.935  0.4794 -0.0806  0.0816
 3584WAT      O15055   3.708   7.102   4.655 -0.6545 -0.0747 -0.0704
 3584WAT     H115056   3.638   7.130   4.700 -1.1469  0.4561 -1.1196
 3584WAT     H215057   3.722   7.166   4.598  1.4966  0.4181  0.9074
 3584WAT    EPW15058   3.699   7.116   4.653 -0.4095  0.0766 -0.0810
 3585WAT      O15059   5.751   6.933   2.877  0.5355  0.3884  0.7009
 3585WAT     H115060   5.786   7.013   2.872 -3.4054  2.2979 -0.6843
 3585WAT     H215061   5.685   6.936   2.820  1.5392 -4.7817 -1.3301
 3585WAT    EPW15062   5.746   6.945   2.868  0.1016 -0.0933  0.1963
 3586WAT      O15063   4.541   6.956   2.927 -0.2743 -0.2943 -0.1484
 3586WAT     H115064   4.551   7.002   3.000 -1.4351  1.0629 -0.8011
 3586WAT     H215065   4.519   6.877   2.956 -2.3703  0.6349  1.0013
 3586WAT    EPW15066   4.540   6.951   2.942 -0.7554  0.0435 -0.0750
 3587WAT      O15067   5.843   1.707   0.789 -0.4404  0.4882 -0.1432
 3587WAT     H115068   5.842   1.664   0.865  0.0242 -0.5844 -0.7219
 3587WAT     H215069   5.927   1.707   0.767 -0.7215 -0.3692 -1.2883
 3587WAT    EPW15070   5.855   1.701   0.797 -0.4133  0.2031 -0.3979
 3588WAT      O15071   4.215   6.550   3.426 -0.4846  0.0640 -0.0768
 3588WAT     H115072   4.235   6.476   3.385 -0.6811 -1.0051  1.6700
 3588WAT     H215073   4.244   6.612   3.372  2.0915 -1.3011 -0.4099
 3588WAT    EPW15074   4.222   6.548   3.412 -0.1331 -0.2956  0.1321
 3589WAT      O15075   5.814   7.382   3.810  0.1921  1.0792 -0.1143
 3589WAT     H115076   5.847   7.312   3.770  0.3910  0.8073  0.5111
 3589WAT     H215077   5.730   7.362   3.821  0.6643 -0.0265  2.0111
 3589WAT    EPW15078   5.807   7.369   3.806  0.2913  0.8757  0.2920
 3590WAT      O15079   4.053   6.484   3.791  0.0712  1.1719  0.1649
 3590WAT     H115080   4.140   6.492   3.794  0.4605 -1.9848  1.2816
 3590WAT     H215081   4.028   6.508   3.871  0.5080 -1.8181  1.3183
 3590WAT    EPW15082   4.062   6.489   3.803  0.1932  0.2639  0.5002
 3591WAT      O15083   4.962   0.132   2.560 -0.6197 -0.1189  0.0826
 3591WAT     H115084   4.960   0.077   2.492 -0.1469 -1.4034  1.0515
 3591WAT     H215085   5.002   0.085   2.622 -0.2864  1.3177  0.9861
 3591WAT    EPW15086   4.967   0.117   2.559 -0.5006 -0.0964  0.3592
 3592WAT      O15087   5.937   0.343   4.019  0.0044  0.1494 -0.0977
 3592WAT     H115088   5.876   0.290   4.050 -0.9154  0.6434 -0.9992
 3592WAT     H215089   5.936   0.328   3.933  0.2895  1.0409 -0.2697
 3592WAT    EPW15090   5.928   0.333   4.011 -0.0894  0.3540 -0.2563
 3593WAT      O15091   3.931   0.491   3.185 -0.2161  0.6111  0.0876
 3593WAT     H115092   3.919   0.456   3.264 -0.9470  0.0056 -0.2723
 3593WAT     H215093   3.944   0.576   3.202 -2.7263  0.9659  0.7698
 3593WAT    EPW15094   3.931   0.498   3.199 -0.6948  0.5740  0.1352
 3594WAT      O15095   3.535   0.241   4.340 -0.0785 -0.2908  0.6969
 3594WAT     H115096   3.618   0.216   4.347 -0.6105 -2.1939  0.8133
 3594WAT     H215097   3.527   0.264   4.256  1.1331  2.3681  1.2129
 3594WAT    EPW15098   3.546   0.240   4.328  0.0219 -0.1792  0.7903
 3595WAT      O15099   4.176   0.301   3.996 -0.1539 -0.2333  0.3764
 3595WAT     H115100   4.110   0.359   3.997  0.0486 -0.0124  0.8890
 3595WAT     H215101   4.240   0.342   4.038  0.0171 -0.7997  0.6689
 3595WAT    EPW15102   4.175   0.316   4.002 -0.0987 -0.2843  0.4954
 3596WAT      O15103   5.466   7.366   1.082 -0.6255  0.2667  0.7265
 3596WAT     H115104   5.492   7.382   1.000 -0.7449 -2.3973  0.0946
 3596WAT     H215105   5.404   7.305   1.072 -0.3218 -0.4455  2.8297
 3596WAT    EPW15106   5.461   7.360   1.068 -0.5983 -0.2320  0.9438
 3597WAT      O15107   3.043   7.517   3.823 -0.2185 -0.0310 -0.5582
 3597WAT     H115108   2.972   7.562   3.801  0.4007  0.5856 -1.3985
 3597WAT     H215109   3.086   7.509   3.747  0.1181 -1.2776 -0.2619
 3597WAT    EPW15110   3.039   7.522   3.808 -0.0773 -0.1241 -0.6385
 3598WAT      O15111   4.694   0.839   1.744 -0.0927 -0.3590  0.1967
 3598WAT     H115112   4.775   0.827   1.714 -0.1542 -1.9046  0.5550
 3598WAT     H215113   4.646   0.785   1.697 -0.6918 -0.4768  0.9166
 3598WAT    EPW15114   4.699   0.829   1.733 -0.1903 -0.6047  0.3560
 3599WAT      O15115   2.729   7.425   0.081 -0.8836 -0.3904 -0.4722
 3599WAT     H115116   2.803   7.404   0.123  0.1169 -0.1607 -2.0196
 3599WAT     H215117   2.715   7.508   0.104 -1.8735 -1.0506  1.4764
 3599WAT    EPW15118   2.738   7.435   0.090 -0.8820 -0.4540 -0.4129
 3600WAT      O15119   4.176   7.212   2.155  0.0337 -0.7339  0.1432
 3600WAT     H115120   4.197   7.154   2.093 -0.6348  0.2268 -1.0262
 3600WAT     H215121   4.211   7.178   2.228  1.5995 -1.4809 -0.8942
 3600WAT    EPW15122   4.185   7.199   2.157  0.1662 -0.7023 -0.1828
 3601WAT      O15123   4.377   6.908   1.367  0.0783  0.0335 -0.0903
 3601WAT     H115124   4.349   6.871   1.293 -1.5081  1.4194 -0.2486
 3601WAT     H215125   4.464   6.905   1.359 -0.0442 -0.4663 -1.7068
 3601WAT    EPW15126   4.385   6.902   1.355 -0.1741  0.1644 -0.3525
 3602WAT      O15127   4.830   6.960   2.779 -0.2944 -0.0473  0.3467
 3602WAT     H115128   4.749   6.929   2.792 -0.4187  0.5743  1.0896
 3602WAT     H215129   4.848   6.935   2.697 -2.2436  2.0061 -0.8251
 3602WAT    EPW15130   4.820   6.952   2.769 -0.6007  0.3479  0.2833
 3603WAT      O15131   5.577   0.162   1.610  0.4550  0.2678 -0.6587
 3603WAT     H115132   5.607   0.225   1.558  1.5853  0.9227  0.6955
 3603WAT     H215133   5.509   0.200   1.650  0.3331  0.1833 -0.7869
 3603WAT    EPW15134   5.572   0.177   1.608  0.6040  0.3520 -0.4776
 3604WAT      O15135   3.458   7.338   2.768  0.2567  0.1039 -0.0739
 3604WAT     H115136   3.485   7.271   2.718 -1.5679  0.1090 -1.1348
 3604WAT     H215137   3.484   7.315   2.849 -0.0894 -1.7777 -0.4511
 3604WAT    EPW15138   3.466   7.325   2.773 -0.0639 -0.1733 -0.2863
 3605WAT      O15139   6.377   0.001   3.584  1.0323  0.3157 -0.3330
 3605WAT     H115140   6.455  -0.034   3.564  0.7211  0.0694 -1.1737
 3605WAT     H215141   6.326  -0.023   3.517 -0.2912 -1.2022  1.1286
 3605WAT    EPW15142   6.381  -0.008   3.571  0.7908  0.0551 -0.2413
 3606WAT      O15143   4.859   7.388   2.953 -0.0562 -0.7775 -0.1844
 3606WAT     H115144   4.940   7.403   2.926  1.0660 -2.7927  1.7785
 3606WAT     H215145   4.818   7.361   2.881  1.0469  0.0516 -1.1586
 3606WAT    EPW15146   4.865   7.386   2.939  0.2725 -0.9527 -0.0383
 3607WAT      O15147   4.316   6.539   3.686 -0.4503  0.0513 -0.3595
 3607WAT     H115148   4.378   6.598   3.671 -2.1155  2.0665  0.2169
 3607WAT     H215149   4.276   6.532   3.609  0.9746 -1.9667 -0.9955
 3607WAT    EPW15150   4.319   6.547   3.673 -0.4858  0.0509 -0.3683
 3608WAT      O15151   4.586   6.873   0.294  0.5731 -1.1465 -0.0737
 3608WAT     H115152   4.520   6.866   0.237  0.4361  2.4944 -0.5596
 3608WAT     H215153   4.656   6.847   0.248 -0.0621 -2.0098 -0.5805
 3608WAT    EPW15154   4.586   6.868   0.279  0.4591 -0.7362 -0.2204
 3609WAT      O15155   3.308   7.173   3.081  0.4390  0.1708 -0.1303
 3609WAT     H115156   3.241   7.210   3.123 -0.2685 -0.0545 -1.0307
 3609WAT     H215157   3.282   7.090   3.069  1.1281 -0.0791  0.0166
 3609WAT    EPW15158   3.294   7.166   3.086  0.4363  0.1006 -0.2416
 3610WAT      O15159   5.384   7.371   2.474  0.0908 -0.4926 -0.8408
 3610WAT     H115160   5.468   7.348   2.466 -0.1170 -1.7279  0.2353
 3610WAT     H215161   5.344   7.325   2.411  0.1881 -0.0113 -1.2616
 3610WAT    EPW15162   5.390   7.361   2.464  0.0744 -0.6040 -0.7440
 3611WAT      O15163   5.521   0.145   2.546 -0.4427  0.0240 -0.5042
 3611WAT     H115164   5.606   0.137   2.529 -0.6236 -0.6840 -1.1325
 3611WAT     H215165   5.518   0.208   2.606  0.3954  1.1930 -1.6345
 3611WAT    EPW15166   5.533   0.153   2.552 -0.3456  0.0921 -0.7640
 3612WAT      O15167   4.134   0.548   1.105  0.2425 -0.4963  0.5307
 3612WAT     H115168   4.181   0.520   1.173 -0.1948 -0.6949  0.7595
 3612WAT     H215169   4.055   0.562   1.139 -0.0296 -0.7685  0.0337
 3612WAT    EPW15170   4.129   0.546   1.120  0.1377 -0.5659  0.4911
 3613WAT      O15171   4.906   0.757   4.149  0.1428  0.1439  0.1144
 3613WAT     H115172   4.839   0.722   4.194 -0.9425  1.3614 -0.4840
 3613WAT     H215173   4.884   0.841   4.142  1.5249  0.4728 -0.5313
 3613WAT    EPW15174   4.893   0.764   4.155  0.1866  0.3723 -0.0694
 3614WAT      O15175   5.303   7.539   3.285 -0.0445  0.0719 -0.1265
 3614WAT     H115176   5.257   7.611   3.266 -0.4029 -0.6096 -2.0801
 3614WAT     H215177   5.380   7.554   3.247  0.1328 -0.2803  0.0889
 3614WAT    EPW15178   5.308   7.552   3.277 -0.0712 -0.0808 -0.3833
 3615WAT      O15179   5.484   7.238   3.362  0.2386 -0.5549 -0.1825
 3615WAT     H115180   5.414   7.192   3.338  0.0873 -0.1420 -0.5401
 3615WAT     H215181   5.541   7.177   3.388 -0.2193 -0.8987  0.0301
 3615WAT    EPW15182   5.482   7.222   3.362  0.1486 -0.5447 -0.2039
 3616WAT      O15183   4.724   0.330   3.044  0.3578  0.3261  0.8491
 3616WAT     H115184   4.653   0.316   3.093 -1.3967 -0.2537 -1.6644
 3616WAT     H215185   4.710   0.408   3.008  0.7559  0.0110 -0.0305
 3616WAT    EPW15186   4.712   0.340   3.046  0.1574  0.1939  0.3479
 3617WAT      O15187   4.816   5.786   1.228 -0.4355  0.4174  0.0788
 3617WAT     H115188   4.783   5.860   1.197 -0.2716  0.1680 -0.6963
 3617WAT     H215189   4.758   5.726   1.204 -1.3277  0.4547  1.9563
 3617WAT    EPW15190   4.803   5.788   1.220 -0.5431  0.3861  0.2416
 3618WAT      O15191   4.206   6.883   0.909 -0.4158 -0.0183  0.2936
 3618WAT     H115192   4.233   6.965   0.919 -1.3387  0.4156 -0.5878
 3618WAT     H215193   4.119   6.889   0.914 -0.5556 -0.7791 -0.7859
 3618WAT    EPW15194   4.197   6.896   0.911 -0.5728 -0.0666  0.0040
 3619WAT      O15195   6.069   6.509   0.311  0.1428 -0.2249 -0.8365
 3619WAT     H115196   6.038   6.435   0.344  1.2212 -0.6548 -0.7402
 3619WAT     H215197   5.997   6.557   0.298 -0.4422 -0.5388  0.8907
 3619WAT    EPW15198   6.054   6.505   0.314  0.2157 -0.3347 -0.5672
 3620WAT      O15199   4.838   7.333   1.127 -0.2174  0.1137  0.5586
 3620WAT     H115200   4.874   7.369   1.198 -0.3840  0.5956  0.4009
 3620WAT     H215201   4.754   7.355   1.133  0.0132  1.4075 -0.5294
 3620WAT    EPW15202   4.831   7.342   1.138 -0.2079  0.3760  0.3746
 3621WAT      O15203   4.627   6.697   7.141  0.4261  0.2647 -0.2091
 3621WAT     H115204   4.656   6.641   7.081  0.9811  0.5009 -0.1641
 3621WAT     H215205   4.646   6.658   7.216 -0.8939 -0.3565 -0.1653
 3621WAT    EPW15206   4.634   6.683   7.143  0.3131  0.2078 -0.1960
 3622WAT      O15207   5.026   0.615   7.617  0.2139  0.2555  0.4959
 3622WAT     H115208   5.036   0.576   7.540  1.8989  0.1062  0.7561
 3622WAT     H215209   5.086   0.678   7.616  0.7234 -0.1702  1.9358
 3622WAT    EPW15210   5.036   0.618   7.605  0.5381  0.1705  0.7471
 3623WAT      O15211   3.512   7.185   0.362  0.2013 -0.0618  0.0989
 3623WAT     H115212   3.584   7.230   0.381  0.6787 -0.7057 -0.1568
 3623WAT     H215213   3.478   7.167   0.440  0.7432 -0.4336  0.2549
 3623WAT    EPW15214   3.518   7.189   0.376  0.3519 -0.2118  0.0842
 3624WAT      O15215   4.628   7.680   6.203  0.0116 -0.7035 -0.6081
 3624WAT     H115216   4.599   7.741   6.258 -1.2106 -1.3776 -0.4681
 3624WAT     H215217   4.706   7.709   6.179 -0.2062  0.5026  0.0861
 3624WAT    EPW15218   4.635   7.693   6.207 -0.2011 -0.6249 -0.4849
 3625WAT      O15219   3.558   0.397   1.373 -0.1875  0.0632  0.0936
 3625WAT     H115220   3.567   0.393   1.286  1.2347  0.5374  0.2039
 3625WAT     H215221   3.640   0.390   1.403 -0.7571 -1.3607  1.4660
 3625WAT    EPW15222   3.571   0.395   1.364 -0.0616 -0.0771  0.3127
 3626WAT      O15223   5.565   6.649   0.406 -0.0795 -0.7425  0.3224
 3626WAT     H115224   5.490   6.624   0.443  0.2027 -1.4540  0.4237
 3626WAT     H215225   5.572   6.733   0.429 -0.1845 -1.0173  1.4409
 3626WAT    EPW15226   5.555   6.658   0.415 -0.0533 -0.8882  0.5026
 3627WAT      O15227   4.471   5.171   2.387  0.4066 -0.1021  0.0785
 3627WAT     H115228   4.543   5.183   2.339 -0.4106  1.6568 -0.7939
 3627WAT     H215229   4.476   5.234   2.447 -0.6107  0.3182 -0.2634
 3627WAT    EPW15230   4.482   5.182   2.389  0.1356  0.2198 -0.1009
 3628WAT      O15231   3.078   7.544   1.397 -1.1143 -0.3161 -0.6909
 3628WAT     H115232   3.089   7.492   1.467 -0.2933  2.0367  1.0491
 3628WAT     H215233   3.159   7.568   1.377 -1.3848 -0.5995 -2.2170
 3628WAT    EPW15234   3.092   7.539   1.404 -1.0330 -0.0104 -0.6593
 3629WAT      O15235   4.421   0.724   0.545  0.1548 -0.2793 -0.3839
 3629WAT     H115236   4.470   0.652   0.539  1.1208  0.2455  0.7106
 3629WAT     H215237   4.457   0.778   0.487  1.2766  0.2921  0.7849
 3629WAT    EPW15238   4.433   0.722   0.536  0.4632 -0.1173 -0.0496
 3630WAT      O15239   4.679   5.994   7.749 -0.2887 -0.2542  0.2732
 3630WAT     H115240   4.642   5.923   7.784 -0.2094 -0.3251  0.2160
 3630WAT     H215241   4.742   6.015   7.806  1.5060 -1.8401 -1.0072
 3630WAT    EPW15242   4.683   5.987   7.762 -0.0119 -0.4990  0.0756
 3631WAT      O15243   4.723   5.658   3.473 -0.6624 -0.2405  0.2018
 3631WAT     H115244   4.796   5.628   3.510 -1.4084  0.3296  2.2720
 3631WAT     H215245   4.659   5.619   3.519 -1.6455  0.7415 -0.2819
 3631WAT    EPW15246   4.724   5.648   3.486 -0.9178 -0.0112  0.4362
 3632WAT      O15247   5.079   6.456   0.136 -0.5691 -0.0386 -0.0965
 3632WAT     H115248   5.154   6.455   0.092 -1.0604  0.5308 -0.9678
 3632WAT     H215249   5.101   6.420   0.213  0.8711  1.1810  0.1144
 3632WAT    EPW15250   5.094   6.450   0.141 -0.4289  0.2257 -0.1941
 3633WAT      O15251   3.218   0.435   0.984  0.3090 -0.1335  0.1772
 3633WAT     H115252   3.144   0.410   1.023  0.2058 -0.4873 -0.2434
 3633WAT     H215253   3.193   0.500   0.932  0.2155 -0.5509 -0.3013
 3633WAT    EPW15254   3.204   0.441   0.982  0.2799 -0.2474  0.0443
 3634WAT      O15255   4.369   6.620   2.542  0.4319  0.4233 -0.4631
 3634WAT     H115256   4.314   6.687   2.541  0.2154  0.3331  1.4725
 3634WAT     H215257   4.440   6.653   2.581  0.2521 -0.4764  0.6875
 3634WAT    EPW15258   4.371   6.635   2.548  0.3733  0.2771 -0.0072
 3635WAT      O15259   4.305   7.139   0.954 -0.4031  0.3130  0.5258
 3635WAT     H115260   4.285   7.178   0.878 -0.5533  0.6942  0.7607
 3635WAT     H215261   4.278   7.196   1.014  1.2226  0.7647  0.8694
 3635WAT    EPW15262   4.298   7.153   0.951 -0.1851  0.4360  0.6113
 3636WAT      O15263   4.335   7.443   0.398  0.2366  0.7299  0.3308
 3636WAT     H115264   4.411   7.483   0.382  0.8971 -0.3632  0.6558
 3636WAT     H215265   4.355   7.358   0.398 -0.7579  0.4488  1.5245
 3636WAT    EPW15266   4.349   7.437   0.396  0.1873  0.5269  0.5552
 3637WAT      O15267   4.015   0.568   2.793 -0.1098 -0.0164 -0.5297
 3637WAT     H115268   4.048   0.512   2.851  2.4569  0.0805 -1.7373
 3637WAT     H215269   4.023   0.526   2.717  0.5110  1.3882 -1.2768
 3637WAT    EPW15270   4.021   0.554   2.790  0.3611  0.2054 -0.8184
 3638WAT      O15271   2.812   0.166   1.398 -0.5434 -0.1372 -0.1446
 3638WAT     H115272   2.813   0.082   1.421  0.6741 -0.1535 -0.1982
 3638WAT     H215273   2.839   0.165   1.315 -1.9728  0.1947 -0.6403
 3638WAT    EPW15274   2.816   0.153   1.389 -0.5747 -0.0906 -0.2258
 3639WAT      O15275   5.543   7.249   7.766 -0.3417 -0.2971 -0.2383
 3639WAT     H115276   5.518   7.190   7.825 -2.2495  0.7238  0.0619
 3639WAT     H215277   5.472   7.260   7.717  0.5099  0.5179 -1.3409
 3639WAT    EPW15278   5.529   7.242   7.767 -0.4977 -0.0259 -0.3568
 3640WAT      O15279   3.663   6.662   6.375  0.1958  0.1554 -0.7640
 3640WAT     H115280   3.698   6.683   6.452 -0.0591 -3.0163  0.3499
 3640WAT     H215281   3.656   6.575   6.378 -1.3599  0.0411 -3.7328
 3640WAT    EPW15282   3.667   6.652   6.387 -0.0717 -0.3300 -1.0380
 3641WAT      O15283   4.781   0.943   0.783 -0.0737  0.0017 -0.0647
 3641WAT     H115284   4.817   0.973   0.856 -0.1649 -0.3064  0.1094
 3641WAT     H215285   4.772   1.014   0.733 -0.5972  0.3132  0.4719
 3641WAT    EPW15286   4.785   0.958   0.786 -0.1645  0.0022  0.0403
 3642WAT      O15287   5.589   7.035   1.045 -0.1612  0.2630  0.2158
 3642WAT     H115288   5.614   6.956   1.070 -0.0312  0.7317  1.6441
 3642WAT     H215289   5.504   7.038   1.066 -0.6108 -0.0590 -1.3736
 3642WAT    EPW15290   5.580   7.024   1.052 -0.2084  0.2846  0.1920
 3643WAT      O15291   3.862   6.963   1.581  0.3412 -0.4651 -0.3052
 3643WAT     H115292   3.775   6.963   1.580  0.2092  1.0035  2.5056
 3643WAT     H215293   3.883   6.879   1.584 -1.0226 -0.8172 -0.3168
 3643WAT    EPW15294   3.852   6.951   1.581  0.1203 -0.3001  0.1083
 3644WAT      O15295   3.867   6.609   2.045 -0.5319  1.2506 -0.4963
 3644WAT     H115296   3.838   6.644   1.971 -0.0931  0.7906 -0.8982
 3644WAT     H215297   3.921   6.546   2.018 -2.1729 -0.5315  0.1482
 3644WAT    EPW15298   3.871   6.605   2.030 -0.7095  0.9194 -0.4605
 3645WAT      O15299   5.987   0.332   1.636  0.5196  0.8304 -0.1750
 3645WAT     H115300   6.072   0.342   1.620  0.5445 -0.1725 -0.7899
 3645WAT     H215301   5.951   0.327   1.557  0.3582 -2.0390 -0.0225
 3645WAT    EPW15302   5.994   0.332   1.622  0.4994  0.2584 -0.2433
 3646WAT      O15303   5.737   5.812   0.872  0.0626  0.0688 -0.0081
 3646WAT     H115304   5.675   5.849   0.921  0.4372  1.0438 -0.2527
 3646WAT     H215305   5.769   5.878   0.826  1.1454 -0.4675 -0.0483
 3646WAT    EPW15306   5.732   5.827   0.872  0.2779  0.1336 -0.0502
 3647WAT      O15307   5.761   0.203   0.371  0.4101  0.6525  0.0141
 3647WAT     H115308   5.685   0.243   0.387  0.1250 -0.2770  1.0815
 3647WAT     H215309   5.766   0.204   0.284 -1.5089 -0.4666 -0.1672
 3647WAT    EPW15310   5.750   0.209   0.360  0.0845  0.3499  0.1450
 3648WAT      O15311   4.311   7.313   6.734  0.0608  0.0649  0.2291
 3648WAT     H115312   4.285   7.367   6.670 -0.6886  2.0102  2.0251
 3648WAT     H215313   4.235   7.285   6.768  0.3150  1.2356  1.9007
 3648WAT    EPW15314   4.296   7.317   6.730 -0.0124  0.5252  0.7413
 3649WAT      O15315   4.297   1.786   7.754  0.1857 -0.4653  0.9778
 3649WAT     H115316   4.244   1.786   7.824  1.2410 -2.2912  1.8659
 3649WAT     H215317   4.293   1.704   7.726  1.6379 -0.3539  0.3592
 3649WAT    EPW15318   4.288   1.774   7.761  0.5561 -0.7186  1.0176
 3650WAT      O15319   4.694   7.220   0.167  0.0860  0.4582 -0.1573
 3650WAT     H115320   4.683   7.172   0.095 -0.4239 -1.1456  0.9403
 3650WAT     H215321   4.774   7.197   0.195 -0.2094  0.1382  0.4411
 3650WAT    EPW15322   4.704   7.210   0.161 -0.0330  0.1740  0.0932
 3651WAT      O15323   4.313   7.658   7.794 -0.2124  0.3293  0.5350
 3651WAT     H115324   4.274   7.628   7.722 -0.6011  3.0560 -0.4760
 3651WAT     H215325   4.260   7.722   7.822  2.7046  3.2788 -0.1168
 3651WAT    EPW15326   4.299   7.663   7.788  0.1611  1.1678  0.2894
 3652WAT      O15327   5.309   0.437   2.142 -0.4521 -0.5123 -0.5520
 3652WAT     H115328   5.231   0.403   2.124  0.0224 -1.5097 -0.7838
 3652WAT     H215329   5.344   0.382   2.200  0.4956 -0.6617 -1.2315
 3652WAT    EPW15330   5.303   0.424   2.148 -0.2420 -0.6817 -0.6866
 3653WAT      O15331   6.327   1.002   2.029  0.5482 -0.4825  0.0318
 3653WAT     H115332   6.245   0.973   2.030  0.7060 -0.9270  1.3813
 3653WAT     H215333   6.375   0.930   2.027  0.9126 -0.2741  0.7694
 3653WAT    EPW15334   6.322   0.987   2.029  0.6253 -0.5173  0.3401
 3654WAT      O15335   5.553   6.431   0.094 -0.3535 -0.4894  0.2496
 3654WAT     H115336   5.597   6.483   0.040  1.5495 -1.1696  1.0924
 3654WAT     H215337   5.521   6.486   0.154  0.0793 -0.0930  0.1159
 3654WAT    EPW15338   5.555   6.447   0.095 -0.0085 -0.5313  0.3544
 3655WAT      O15339   4.871   7.031   0.892 -0.5979  0.0424  0.8796
 3655WAT     H115340   4.790   7.056   0.914 -2.1491 -1.7701 -2.1049
 3655WAT     H215341   4.907   7.104   0.862 -1.7419  0.5717  0.7299
 3655WAT    EPW15342   4.864   7.045   0.891 -0.9961 -0.1472  0.4166
 3656WAT      O15343   5.122   6.436   7.486  0.2658 -0.6644  0.4712
 3656WAT     H115344   5.065   6.481   7.536  1.0326 -0.3766  1.0999
 3656WAT     H215345   5.105   6.465   7.405  0.1486  0.1066  0.7623
 3656WAT    EPW15346   5.111   6.447   7.481  0.3617 -0.5080  0.6071
 3657WAT      O15347   5.209   0.306   0.949 -0.0170  0.2126  0.1120
 3657WAT     H115348   5.165   0.273   0.882 -2.5090  0.9964  1.2256
 3657WAT     H215349   5.267   0.359   0.912 -0.3602 -0.4388 -1.4403
 3657WAT    EPW15350   5.211   0.309   0.934 -0.4359  0.2322  0.0472
 3658WAT      O15351   4.597   7.443   0.009  0.0372  0.0798  0.0018
 3658WAT     H115352   4.627   7.442  -0.074  0.3340  0.2937  0.1046
 3658WAT     H215353   4.635   7.373   0.045 -0.7323 -0.4875 -0.2592
 3658WAT    EPW15354   4.607   7.432   0.002 -0.0326  0.0276 -0.0216
 3659WAT      O15355   2.586   0.742   1.025  0.1081 -0.2204  0.0143
 3659WAT     H115356   2.598   0.766   1.108  2.0265  0.4346 -0.4134
 3659WAT     H215357   2.573   0.817   0.984 -0.4685 -0.5154 -0.3626
 3659WAT    EPW15358   2.586   0.757   1.031  0.3063 -0.1672 -0.1046
 3660WAT      O15359   4.546   7.623   1.726  0.2523 -0.1873 -0.1046
 3660WAT     H115360   4.557   7.696   1.773  0.2568 -0.8598  0.9793
 3660WAT     H215361   4.625   7.587   1.724 -0.0520 -0.9896  0.8357
 3660WAT    EPW15362   4.559   7.628   1.733  0.2080 -0.4052  0.1944
 3661WAT      O15363   5.052   1.259   0.992 -0.6896 -0.1498  0.0130
 3661WAT     H115364   5.029   1.325   1.044 -3.4652  0.2048 -1.4667
 3661WAT     H215365   5.027   1.188   1.037 -0.6850  0.0002  0.2528
 3661WAT    EPW15366   5.045   1.258   1.007 -1.0990 -0.0753 -0.1701
 3662WAT      O15367   6.159   7.428   1.116 -0.2727 -0.0532 -0.2440
 3662WAT     H115368   6.196   7.394   1.044 -0.4689 -0.5007 -0.1316
 3662WAT     H215369   6.204   7.392   1.181  0.3941  0.9106 -0.1478
 3662WAT    EPW15370   6.171   7.418   1.115 -0.2032  0.0231 -0.2132
 3663WAT      O15371   4.265   0.483   0.236 -0.1231  0.2690  0.3319
 3663WAT     H115372   4.208   0.486   0.301 -1.1786  0.2562 -0.5650
 3663WAT     H215373   4.286   0.567   0.224 -1.1160  0.4444 -0.3070
 3663WAT    EPW15374   4.260   0.496   0.244 -0.4257  0.2930  0.1050
 3664WAT      O15375   3.712   6.428   0.952 -0.7461 -0.3107  0.3920
 3664WAT     H115376   3.784   6.476   0.946  0.4030 -1.9776  0.0499
 3664WAT     H215377   3.732   6.356   0.906 -2.4435 -1.0178  0.6958
 3664WAT    EPW15378   3.726   6.424   0.944 -0.8271 -0.6614  0.3863
 3665WAT      O15379   5.024   7.565   0.001 -0.4568  0.0903 -0.2408
 3665WAT     H115380   5.014   7.489  -0.040  0.5367 -1.2707  1.8833
 3665WAT     H215381   5.031   7.623  -0.065  0.0281 -1.8057 -1.9469
 3665WAT    EPW15382   5.024   7.563  -0.015 -0.2384 -0.3908 -0.1791
 3666WAT      O15383   5.325   7.093   7.438  0.1190 -0.2939 -0.1583
 3666WAT     H115384   5.255   7.143   7.453  0.5857  0.2450  0.2945
 3666WAT     H215385   5.383   7.149   7.404  0.4085 -0.6839 -0.3129
 3666WAT    EPW15386   5.323   7.109   7.435  0.2307 -0.2719 -0.1143
 3667WAT      O15387   5.228   6.262   1.204  0.7090  0.0181  0.1990
 3667WAT     H115388   5.195   6.202   1.257  0.5230 -0.0562 -0.0010
 3667WAT     H215389   5.237   6.220   1.128 -1.6850  0.8677 -0.6426
 3667WAT    EPW15390   5.225   6.247   1.200  0.3279  0.1326  0.0451
 3668WAT      O15391   4.621   7.403   0.947 -0.0641 -0.7177  0.4521
 3668WAT     H115392   4.602   7.423   0.865 -0.0811 -0.6661  0.4683
 3668WAT     H215393   4.624   7.481   0.987  1.6633 -0.6003  0.1399
 3668WAT    EPW15394   4.618   7.418   0.941  0.1886 -0.6927  0.4084
 3669WAT      O15395   4.783   6.949   7.123 -0.0912 -0.2193  0.3519
 3669WAT     H115396   4.745   6.872   7.110 -0.8135  0.2516 -0.4482
 3669WAT     H215397   4.867   6.929   7.134 -0.3581 -1.1622  0.7441
 3669WAT    EPW15398   4.790   6.935   7.123 -0.2373 -0.2890  0.2916
 3670WAT      O15399   5.802   7.229   7.306 -0.4622 -0.3206 -0.1506
 3670WAT     H115400   5.850   7.267   7.368 -0.3729 -0.8070  0.0841
 3670WAT     H215401   5.773   7.156   7.345 -0.4644 -0.5924 -0.6556
 3670WAT    EPW15402   5.805   7.224   7.321 -0.4494 -0.4326 -0.1905
 3671WAT      O15403   3.279   6.073   1.168 -0.0804 -0.0008  1.0339
 3671WAT     H115404   3.339   6.102   1.224 -1.6658 -0.1668  2.9426
 3671WAT     H215405   3.300   5.990   1.155  0.6734  0.2153  0.8451
 3671WAT    EPW15406   3.291   6.065   1.174 -0.2032  0.0066  1.2879
 3672WAT      O15407   3.472   6.835   0.491 -0.5529  0.0492 -0.3384
 3672WAT     H115408   3.410   6.811   0.547  0.0200 -0.2521  0.1656
 3672WAT     H215409   3.494   6.915   0.517 -2.6655  1.3485 -2.1897
 3672WAT    EPW15410   3.466   6.843   0.503 -0.7803  0.1966 -0.5374
 3673WAT      O15411   3.740   1.121   0.406 -0.3697 -0.2753  0.1483
 3673WAT     H115412   3.799   1.058   0.409 -1.0764 -1.0748 -1.6151
 3673WAT     H215413   3.712   1.120   0.323 -3.4009 -0.4760  1.0560
 3673WAT    EPW15414   3.744   1.112   0.394 -0.9218 -0.4230  0.0219
 3674WAT      O15415   5.248   6.404   1.615  0.7046  0.3437 -0.9840
 3674WAT     H115416   5.296   6.465   1.654 -2.4517  1.8303  0.9734
 3674WAT     H215417   5.241   6.342   1.677  1.6554 -0.8230 -1.9903
 3674WAT    EPW15418   5.254   6.404   1.630  0.3788  0.3910 -0.8435
 3675WAT      O15419   3.241   0.283   0.169  0.8282 -0.2240  0.0219
 3675WAT     H115420   3.165   0.312   0.202  0.8515 -0.5503  0.3604
 3675WAT     H215421   3.281   0.249   0.237  0.0150 -2.7764 -0.6746
 3675WAT    EPW15422   3.235   0.282   0.184  0.7115 -0.6492 -0.0310
 3676WAT      O15423   5.728   1.471   1.899  0.2986 -0.8997 -0.1744
 3676WAT     H115424   5.660   1.472   1.953  0.2147 -1.7711 -0.2523
 3676WAT     H215425   5.767   1.394   1.916  2.5218  0.4420  1.4277
 3676WAT    EPW15426   5.724   1.460   1.909  0.6147 -0.8302  0.0507
 3677WAT      O15427   5.056   1.770   0.749 -1.0613  0.0650  0.3452
 3677WAT     H115428   5.008   1.743   0.681 -2.1409  2.2190  0.1752
 3677WAT     H215429   4.997   1.797   0.807 -0.1148  2.0328  0.4760
 3677WAT    EPW15430   5.041   1.770   0.747 -1.0810  0.6739  0.3394
 3678WAT      O15431   2.987   7.260   0.560 -0.3773  0.2666  0.2759
 3678WAT     H115432   2.983   7.337   0.601 -2.5954 -0.5250  1.7300
 3678WAT     H215433   2.911   7.255   0.518 -0.9081 -1.6965  1.3557
 3678WAT    EPW15434   2.975   7.271   0.559 -0.7834 -0.1403  0.6502
 3679WAT      O15435   5.648   6.608   2.190 -0.1446  0.0239  0.0673
 3679WAT     H115436   5.567   6.626   2.163  0.1268 -0.2037 -0.9392
 3679WAT     H215437   5.636   6.560   2.262 -0.9388 -1.4424 -0.9953
 3679WAT    EPW15438   5.635   6.604   2.197 -0.2218 -0.2263 -0.2383
 3680WAT      O15439   4.176   7.217   1.687  0.8053  0.4180 -0.1066
 3680WAT     H115440   4.187   7.198   1.602  1.9703  0.6898 -0.0299
 3680WAT     H215441   4.091   7.200   1.700  0.7525 -0.2735 -1.1601
 3680WAT    EPW15442   4.165   7.212   1.676  0.9696  0.3560 -0.2509
 3681WAT      O15443   4.105   6.459   1.587  0.2535  0.0120 -0.7062
 3681WAT     H115444   4.136   6.449   1.506  0.7091 -0.1500 -0.5167
 3681WAT     H215445   4.074   6.379   1.606 -4.7136  1.0842 -2.6272
 3681WAT    EPW15446   4.105   6.445   1.578 -0.4129  0.1465 -0.9620
 3682WAT      O15447   3.973   6.550   0.957 -0.6462  0.3199 -0.1588
 3682WAT     H115448   4.026   6.549   0.888 -1.2135 -2.3341 -0.6914
 3682WAT     H215449   4.015   6.501   1.016 -1.7300 -0.4489  0.0127
 3682WAT    EPW15450   3.987   6.543   0.956 -0.8901 -0.1857 -0.2121
 3683WAT      O15451   5.385   1.611   1.336  0.0605 -0.0634  0.2262
 3683WAT     H115452   5.444   1.549   1.320  0.7839  0.1866  1.7581
 3683WAT     H215453   5.336   1.577   1.399  1.8322  1.6465  2.7239
 3683WAT    EPW15454   5.387   1.597   1.343  0.4291  0.2261  0.8215
 3684WAT      O15455   4.527   0.767   7.020 -0.2904 -0.7639  0.0445
 3684WAT     H115456   4.499   0.786   6.939 -0.2183  2.3373  0.6630
 3684WAT     H215457   4.543   0.844   7.056  1.9958 -2.1136  2.2795
 3684WAT    EPW15458   4.525   0.781   7.013  0.0580 -0.5052  0.4660
 3685WAT      O15459   5.641   1.633   7.522 -0.2877  0.3230  0.4142
 3685WAT     H115460   5.597   1.560   7.539 -0.0883  0.4569  1.6304
 3685WAT     H215461   5.725   1.608   7.521 -0.3447  0.0026 -2.2490
 3685WAT    EPW15462   5.647   1.619   7.525 -0.2667  0.2954  0.2005
 3686WAT      O15463   6.463   0.268   1.991  0.4397 -0.3965 -0.1058
 3686WAT     H115464   6.516   0.316   2.041  0.2618 -1.1391  0.8074
 3686WAT     H215465   6.417   0.328   1.947  0.6565  0.2613  0.5422
 3686WAT    EPW15466   6.464   0.284   1.992  0.4454 -0.4090  0.1248
 3687WAT      O15467   2.134   0.063   0.689  0.1515 -0.3831 -0.0880
 3687WAT     H115468   2.188   0.003   0.656  1.2102 -0.3840  1.5201
 3687WAT     H215469   2.154   0.135   0.645  0.7019 -0.6500 -0.2873
 3687WAT    EPW15470   2.145   0.064   0.678  0.3892 -0.4226  0.1201
 3688WAT      O15471   6.389   7.010   1.598  0.4700  0.4998 -0.7362
 3688WAT     H115472   6.329   6.947   1.596  0.5714  0.3257  0.6347
 3688WAT     H215473   6.344   7.082   1.580  0.1106  0.2003 -1.0509
 3688WAT    EPW15474   6.374   7.012   1.595  0.4319  0.4299 -0.5802
 3689WAT      O15475   4.156   0.114   1.196  0.1746  0.5038  0.9387
 3689WAT     H115476   4.090   0.056   1.192  0.5039  0.0587 -3.5796
 3689WAT     H215477   4.121   0.186   1.162  1.5860  0.6389 -0.3371
 3689WAT    EPW15478   4.141   0.116   1.190  0.4318  0.4580  0.0828
 3690WAT      O15479   7.009   5.715   0.372  0.0025  0.0021  0.5953
 3690WAT     H115480   7.043   5.794   0.355  0.5270 -0.1655  0.8551
 3690WAT     H215481   6.958   5.729   0.441  1.1806 -0.1574  1.5124
 3690WAT    EPW15482   7.006   5.729   0.380  0.2540 -0.0462  0.7691
 3691WAT      O15483   3.189   6.967   0.799 -0.4302  0.2072  0.6208
 3691WAT     H115484   3.259   6.993   0.843 -0.9705 -0.1280  1.7179
 3691WAT     H215485   3.217   6.898   0.754 -0.2208 -0.3853  1.6317
 3691WAT    EPW15486   3.203   6.961   0.799 -0.4791  0.0702  0.9322
 3692WAT      O15487   5.646   7.340   0.563  0.1885  0.0143  0.2092
 3692WAT     H115488   5.729   7.322   0.543  0.1053  0.5440 -0.6335
 3692WAT     H215489   5.602   7.276   0.524  0.0292  1.0265 -1.3363
 3692WAT    EPW15490   5.652   7.328   0.555  0.1527  0.2420 -0.1436
 3693WAT      O15491   5.884   7.435   1.385  0.2437 -0.1320 -0.3226
 3693WAT     H115492   5.814   7.486   1.383  0.4967  0.6242  3.5266
 3693WAT     H215493   5.951   7.491   1.391  1.0002 -0.8898 -1.2650
 3693WAT    EPW15494   5.884   7.451   1.386  0.3928 -0.1322  0.1068
 3694WAT      O15495   5.994   0.579   1.305 -0.2034  0.0440  0.0225
 3694WAT     H115496   6.048   0.567   1.238 -0.3304  1.6973 -0.4183
 3694WAT     H215497   6.046   0.610   1.368 -0.1590 -1.1038  0.5763
 3694WAT    EPW15498   6.009   0.582   1.305 -0.2156  0.1186  0.0392
 3695WAT      O15499   4.335   7.137   0.629 -0.3275 -0.2017 -0.1994
 3695WAT     H115500   4.369   7.161   0.553  1.2165  0.5253  0.6842
 3695WAT     H215501   4.270   7.083   0.606  0.3739 -0.3377 -1.9945
 3695WAT    EPW15502   4.330   7.133   0.614  0.0042 -0.1144 -0.3341
 3696WAT      O15503   3.944   0.278   0.453  0.7926 -0.9747 -0.2506
 3696WAT     H115504   3.945   0.305   0.536  0.8229 -1.4070 -0.1108
 3696WAT     H215505   3.961   0.351   0.408  0.6013 -0.7029  0.1111
 3696WAT    EPW15506   3.946   0.293   0.459  0.7688 -0.9984 -0.1765
 3697WAT      O15507   4.910   0.681   6.941 -0.3651 -0.0447 -0.2342
 3697WAT     H115508   4.886   0.597   6.941 -2.6795  0.5419 -0.2063
 3697WAT     H215509   4.853   0.718   6.886 -0.0487  1.6763  0.5282
 3697WAT    EPW15510   4.898   0.674   6.933 -0.6602  0.2962 -0.1174
 3698WAT      O15511   4.367   0.341   0.606  0.4988 -0.2752  0.1759
 3698WAT     H115512   4.313   0.286   0.566  0.4819  0.6923 -1.2233
 3698WAT     H215513   4.428   0.357   0.546  1.2680  0.1437  1.0505
 3698WAT    EPW15514   4.368   0.336   0.591  0.6100 -0.0704  0.0984
 3699WAT      O15515   6.393   1.238   1.881  0.1322 -0.5377  0.0399
 3699WAT     H115516   6.363   1.161   1.909 -1.6372  0.3390  0.7322
 3699WAT     H215517   6.393   1.287   1.953 -2.8258  1.2793 -0.9875
 3699WAT    EPW15518   6.389   1.234   1.896 -0.5661 -0.1398 -0.0096
 3700WAT      O15519   4.312   6.843   1.667  0.1098  0.3497  0.8981
 3700WAT     H115520   4.309   6.840   1.580  1.5644  0.1164  0.8355
 3700WAT     H215521   4.367   6.908   1.684 -0.0183  0.2741  1.6428
 3700WAT    EPW15522   4.319   6.852   1.657  0.3058  0.3041  0.9988
 3701WAT      O15523   5.585   7.355   0.847 -0.4548  0.1129 -0.2158
 3701WAT     H115524   5.586   7.365   0.760  2.0293  3.1204 -0.0501
 3701WAT     H215525   5.644   7.292   0.860 -0.3454  0.1036 -0.7128
 3701WAT    EPW15526   5.594   7.347   0.836 -0.0717  0.5558 -0.2647
 3702WAT      O15527   4.852   7.176   2.267 -0.5404 -0.3779 -0.5934
 3702WAT     H115528   4.781   7.138   2.234  0.4062 -0.3655 -2.7666
 3702WAT     H215529   4.907   7.110   2.281 -0.5635 -0.2700  0.0791
 3702WAT    EPW15530   4.850   7.161   2.264 -0.4040 -0.3601 -0.8151
 3703WAT      O15531   4.494   6.402   0.001 -0.4683  0.3293 -0.5107
 3703WAT     H115532   4.443   6.332  -0.012  0.3440 -0.5107  0.5364
 3703WAT     H215533   4.546   6.376   0.066  0.5293  1.5710 -0.7915
 3703WAT    EPW15534   4.494   6.388   0.009 -0.2009  0.3887 -0.3975
 3704WAT      O15535   3.057   7.610   0.326  0.4195  0.5640  0.1523
 3704WAT     H115536   3.066   7.643   0.245 -0.2295 -2.4062 -1.2656
 3704WAT     H215537   3.139   7.588   0.347  0.2907 -1.6144 -1.2096
 3704WAT    EPW15538   3.071   7.612   0.317  0.3046 -0.1966 -0.2583
 3705WAT      O15539   5.005   7.367   1.646  0.1250  0.3240  0.4936
 3705WAT     H115540   4.943   7.414   1.686 -0.3362  0.4210 -0.3174
 3705WAT     H215541   5.072   7.423   1.640 -0.2593  0.7450 -0.0453
 3705WAT    EPW15542   5.006   7.382   1.651  0.0001  0.4005  0.2942
 3706WAT      O15543   4.415   7.192   7.622 -0.3702 -0.0424 -0.5059
 3706WAT     H115544   4.365   7.203   7.693  0.6526 -2.5745  0.7503
 3706WAT     H215545   4.364   7.145   7.569 -0.5340  0.4018 -0.7490
 3706WAT    EPW15546   4.400   7.186   7.625 -0.2433 -0.3509 -0.3562
 3707WAT      O15547   5.282   7.501   1.629 -0.4811  0.8164 -0.7484
 3707WAT     H115548   5.337   7.479   1.693  0.3066 -1.4446 -2.0699
 3707WAT     H215549   5.290   7.587   1.623  2.2414  0.6839 -0.2227
 3707WAT    EPW15550   5.291   7.510   1.637  0.0374  0.4628 -0.8659
 3708WAT      O15551   2.889   0.706   0.746  0.5693 -0.1855 -0.0442
 3708WAT     H115552   2.891   0.782   0.703  1.0184  0.1282  0.5180
 3708WAT     H215553   2.817   0.667   0.716  0.3430  0.4583 -0.3479
 3708WAT    EPW15554   2.878   0.712   0.736  0.6022 -0.0440 -0.0060
 3709WAT      O15555   4.021   7.381   1.326 -0.4349  1.0475 -0.9185
 3709WAT     H115556   4.060   7.384   1.404  0.0950  1.6063 -1.2074
 3709WAT     H215557   3.953   7.328   1.340  0.3172  0.1999 -0.3692
 3709WAT    EPW15558   4.016   7.373   1.340 -0.2455  1.0049 -0.8800
 3710WAT      O15559   4.940   7.310   0.849  0.0554 -0.0285  0.1928
 3710WAT     H115560   4.912   7.362   0.913  0.1104  0.3816 -0.1145
 3710WAT     H215561   4.891   7.333   0.781  1.5465  1.1633 -0.5319
 3710WAT    EPW15562   4.928   7.321   0.849  0.2838  0.2081  0.0403
 3711WAT      O15563   3.316   7.128   1.198  0.4705  0.1515 -0.6201
 3711WAT     H115564   3.298   7.059   1.248  1.8183  0.3275  0.1451
 3711WAT     H215565   3.243   7.175   1.200 -0.4542 -1.2035 -1.1075
 3711WAT    EPW15566   3.303   7.124   1.206  0.5330 -0.0226 -0.5791
 3712WAT      O15567   4.995   0.578   2.194  0.1575 -0.1090  0.1107
 3712WAT     H115568   5.034   0.641   2.241 -0.1192  0.0977  0.0653
 3712WAT     H215569   4.949   0.622   2.135  1.8872 -0.3680 -1.5374
 3712WAT    EPW15570   4.994   0.594   2.192  0.3722 -0.1167 -0.1395
 3713WAT      O15571   6.466   0.017   2.957  0.0502  0.0174 -0.4398
 3713WAT     H115572   6.399  -0.015   3.003  0.4405  0.4928  0.4892
 3713WAT     H215573   6.489   0.088   3.002  0.5622  0.3939 -1.2850
 3713WAT    EPW15574   6.459   0.023   2.970  0.1835  0.1433 -0.4275
 3714WAT      O15575   6.752   6.927   0.397 -0.0827  0.2299  0.0286
 3714WAT     H115576   6.729   6.934   0.313 -1.6552  1.2422  0.5001
 3714WAT     H215577   6.792   7.003   0.413  0.1318  0.0771  0.2296
 3714WAT    EPW15578   6.755   6.940   0.387 -0.2833  0.3568  0.1279
 3715WAT      O15579   3.840   6.195   0.800  0.4355  0.2831  0.0186
 3715WAT     H115580   3.882   6.250   0.747  0.4925  0.9029  0.6833
 3715WAT     H215581   3.891   6.125   0.801  0.8906  0.6046 -0.0542
 3715WAT    EPW15582   3.854   6.193   0.792  0.5112  0.4222  0.1060
 3716WAT      O15583   3.407   5.395   6.283  0.3722  0.3201 -0.0203
 3716WAT     H115584   3.433   5.477   6.300  1.7407  0.0390 -0.6727
 3716WAT     H215585   3.420   5.386   6.198  0.4804 -0.6623  0.0881
 3716WAT    EPW15586   3.412   5.406   6.273  0.5904  0.1335 -0.1007
 3717WAT      O15587   6.652   5.910   7.128  0.0518  0.0518  0.0085
 3717WAT     H115588   6.681   5.932   7.049 -0.6959  2.2657  0.2910
 3717WAT     H215589   6.566   5.922   7.123 -0.1639 -0.9560  0.8282
 3717WAT    EPW15590   6.644   5.915   7.116 -0.0905  0.2300  0.1713
 3718WAT      O15591   4.045   6.848   5.542 -0.3553  0.1103 -0.3301
 3718WAT     H115592   4.120   6.891   5.556 -0.0717 -0.3757 -0.3129
 3718WAT     H215593   3.991   6.883   5.600  0.1285 -0.1779  0.3110
 3718WAT    EPW15594   4.048   6.859   5.553 -0.2420 -0.0041 -0.2329
 3719WAT      O15595   4.706   5.609   6.296  0.2127 -0.5534 -0.5782
 3719WAT     H115596   4.686   5.528   6.321 -0.8498 -0.4586 -1.0543
 3719WAT     H215597   4.793   5.613   6.306  0.1680 -1.4511  0.2908
 3719WAT    EPW15598   4.716   5.598   6.301  0.0492 -0.6720 -0.5202
 3720WAT      O15599   3.512   7.621   5.378  0.6009 -0.0853  0.3668
 3720WAT     H115600   3.551   7.584   5.309 -0.4590  0.2996 -0.4574
 3720WAT     H215601   3.475   7.693   5.345 -2.5304 -1.4116  0.6118
 3720WAT    EPW15602   3.512   7.626   5.363 -0.0182 -0.2244  0.2813
 3721WAT      O15603   5.819   4.627   5.707 -0.5354 -0.0305 -0.2178
 3721WAT     H115604   5.782   4.637   5.629  1.9802 -1.2010 -1.6680
 3721WAT     H215605   5.902   4.650   5.694  0.1919 -1.2462  1.8281
 3721WAT    EPW15606   5.826   4.632   5.694 -0.0563 -0.3830 -0.1298
 3722WAT      O15607   4.435   7.092   5.989 -0.2534 -0.0207 -0.7035
 3722WAT     H115608   4.373   7.127   5.940 -1.0106  1.1246  0.9537
 3722WAT     H215609   4.391   7.050   6.052  0.6219  0.3857  0.2158
 3722WAT    EPW15610   4.420   7.091   5.991 -0.2359  0.2085 -0.3229
 3723WAT      O15611   3.934   4.861   7.712 -0.5355 -0.1429 -0.3656
 3723WAT     H115612   3.929   4.904   7.637  0.5003 -0.4239 -0.6205
 3723WAT     H215613   3.857   4.821   7.719 -1.7070  2.0533  0.1045
 3723WAT    EPW15614   3.922   4.861   7.702 -0.5556  0.1400 -0.3338
 3724WAT      O15615   5.346   6.671   4.952  0.0329 -0.0468  0.5182
 3724WAT     H115616   5.336   6.633   5.030 -1.8608 -0.5139  0.0909
 3724WAT     H215617   5.390   6.611   4.906 -0.0223 -0.3282  0.8317
 3724WAT    EPW15618   5.351   6.656   4.957 -0.2550 -0.1573  0.5014
 3725WAT      O15619   4.923   5.600   7.044  0.0877 -0.5237  0.0329
 3725WAT     H115620   4.882   5.676   7.030  0.7410 -0.1604  0.0381
 3725WAT     H215621   4.977   5.594   6.976  1.9871  0.3617  1.3867
 3725WAT    EPW15622   4.925   5.610   7.031  0.4648 -0.3392  0.2336
 3726WAT      O15623   4.155   5.703   5.992 -0.4225 -0.5714 -0.2172
 3726WAT     H115624   4.119   5.772   5.953  0.7610 -1.0154 -2.2626
 3726WAT     H215625   4.174   5.733   6.072 -0.2405  1.3883 -0.9223
 3726WAT    EPW15626   4.153   5.718   5.999 -0.2208 -0.3475 -0.6235
 3727WAT      O15627   2.808   5.936   1.640  0.4346  0.4296  1.0236
 3727WAT     H115628   2.777   6.013   1.611 -0.4334 -0.7305 -1.4539
 3727WAT     H215629   2.893   5.939   1.618  0.3586  0.6167  0.7383
 3727WAT    EPW15630   2.816   5.948   1.632  0.2952  0.2859  0.6155
 3728WAT      O15631   4.172   6.258   0.152  0.3651 -0.5106  0.0576
 3728WAT     H115632   4.170   6.339   0.122  0.3571 -1.2817 -2.2318
 3728WAT     H215633   4.128   6.262   0.228 -0.2342  1.4625 -0.3562
 3728WAT    EPW15634   4.165   6.270   0.159  0.2754 -0.3330 -0.3417
 3729WAT      O15635   2.352   5.959   6.755  0.1743 -0.4554 -0.6390
 3729WAT     H115636   2.386   6.023   6.707 -0.2525 -1.2223 -2.0238
 3729WAT     H215637   2.409   5.893   6.744  0.2233 -0.5575  0.1562
 3729WAT    EPW15638   2.366   5.959   6.746  0.1185 -0.5838 -0.7261
 3730WAT      O15639   5.378   6.456   6.233 -0.2314 -0.0445 -0.5384
 3730WAT     H115640   5.450   6.467   6.281 -0.0153  0.4517 -0.9678
 3730WAT     H215641   5.323   6.416   6.288  0.6502 -1.2106 -0.4615
 3730WAT    EPW15642   5.381   6.451   6.248 -0.0692 -0.1435 -0.5905
 3731WAT      O15643   5.377   5.465   6.211  0.2296 -0.6305 -0.4651
 3731WAT     H115644   5.454   5.505   6.203 -0.6103  1.1857  0.0291
 3731WAT     H215645   5.391   5.407   6.276  0.8750  0.4957  0.4443
 3731WAT    EPW15646   5.391   5.462   6.220  0.2009 -0.1958 -0.2577
 3732WAT      O15647   5.368   5.170   7.797 -0.1564 -0.6021 -0.4889
 3732WAT     H115648   5.322   5.237   7.829 -0.0728 -0.3608 -0.8697
 3732WAT     H215649   5.363   5.110   7.860 -1.5517 -0.8274 -0.7872
 3732WAT    EPW15650   5.360   5.171   7.811 -0.3501 -0.5997 -0.5892
 3733WAT      O15651   3.497   5.872   7.319  0.6899  0.2441  0.0759
 3733WAT     H115652   3.476   5.833   7.244  0.9920  0.7804 -0.2946
 3733WAT     H215653   3.483   5.957   7.302  0.3640  0.3311  0.7586
 3733WAT    EPW15654   3.492   5.879   7.305  0.6864  0.3362  0.1220
 3734WAT      O15655   4.095   5.489   7.151 -0.0763 -0.3108 -0.5481
 3734WAT     H115656   4.153   5.481   7.215  0.7868 -0.9962 -1.3829
 3734WAT     H215657   4.096   5.410   7.113 -1.4054 -0.2746 -0.7097
 3734WAT    EPW15658   4.104   5.476   7.155 -0.1452 -0.4067 -0.6953
 3735WAT      O15659   4.480   5.662   7.258  0.0979  0.6502 -0.1510
 3735WAT     H115660   4.505   5.740   7.288  0.9738  0.5291 -0.5386
 3735WAT     H215661   4.503   5.664   7.174  0.5031 -0.1828 -0.0647
 3735WAT    EPW15662   4.487   5.674   7.250  0.2871  0.5092 -0.1955
 3736WAT      O15663   5.676   5.186   4.575  0.1824  0.4647 -0.1446
 3736WAT     H115664   5.732   5.245   4.603 -0.0117  1.1271 -1.0948
 3736WAT     H215665   5.603   5.203   4.620  0.1138  0.9822 -0.4506
 3736WAT    EPW15666   5.673   5.197   4.585  0.1436  0.6390 -0.3302
 3737WAT      O15667   5.814   5.232   6.371  0.6671 -0.0958  0.5036
 3737WAT     H115668   5.881   5.177   6.385  0.5500 -0.6224 -0.8588
 3737WAT     H215669   5.833   5.300   6.422  1.6125 -0.7567  1.0675
 3737WAT    EPW15670   5.827   5.234   6.380  0.7895 -0.2712  0.3857
 3738WAT      O15671   2.482   6.200   6.704  0.2613  0.1614 -0.1508
 3738WAT     H115672   2.529   6.236   6.768  1.0274 -0.9418 -0.0696
 3738WAT     H215673   2.533   6.208   6.634 -0.0247  0.2122 -0.3526
 3738WAT    EPW15674   2.497   6.206   6.703  0.3322  0.0059 -0.1686
 3739WAT      O15675   3.900   5.794   4.473 -0.0285 -0.0806  0.5884
 3739WAT     H115676   3.826   5.769   4.512 -1.3596 -0.7505 -2.1333
 3739WAT     H215677   3.893   5.761   4.393  1.7789  2.4453 -0.7566
 3739WAT    EPW15678   3.888   5.785   4.467  0.0418  0.1936 -0.0123
 3740WAT      O15679   5.614   5.519   5.717  0.0230  0.1208 -0.0872
 3740WAT     H115680   5.599   5.453   5.661  0.7717 -1.3773  1.3680
 3740WAT     H215681   5.541   5.522   5.765 -0.8731  1.8131 -1.4304
 3740WAT    EPW15682   5.601   5.509   5.716  0.0012  0.1495 -0.0706
 3741WAT      O15683   4.943   6.823   5.730  0.2811 -0.0401  0.2859
 3741WAT     H115684   4.998   6.888   5.749  1.1211 -0.3551 -0.9865
 3741WAT     H215685   4.994   6.760   5.699 -0.5099 -1.3744  1.5414
 3741WAT    EPW15686   4.958   6.823   5.728  0.2883 -0.2837  0.2834
 3742WAT      O15687   5.321   5.166   6.757  0.2431 -0.4663  0.0763
 3742WAT     H115688   5.372   5.236   6.749  0.2867 -0.5006  0.0480
 3742WAT     H215689   5.358   5.108   6.703  0.5321 -0.6965  0.5066
 3742WAT    EPW15690   5.334   5.168   6.748  0.2923 -0.5054  0.1357
 3743WAT      O15691   4.842   5.269   5.170 -0.3480  0.1535 -0.7202
 3743WAT     H115692   4.781   5.262   5.107  0.0804  1.5043 -1.3331
 3743WAT     H215693   4.818   5.341   5.213 -0.5785 -0.7145  0.6263
 3743WAT    EPW15694   4.829   5.279   5.167 -0.3187  0.2248 -0.6118
 3744WAT      O15695   6.173   5.357   6.524  0.0755  0.1875 -0.4156
 3744WAT     H115696   6.218   5.430   6.509  1.4649 -0.6228 -0.3821
 3744WAT     H215697   6.178   5.314   6.448  1.8622 -1.1894  0.4166
 3744WAT    EPW15698   6.180   5.361   6.511  0.5447 -0.1356 -0.2877
 3745WAT      O15699   3.976   6.607   5.648  0.2069  0.0253  0.3207
 3745WAT     H115700   3.987   6.558   5.576  1.3863 -0.6088  0.9083
 3745WAT     H215701   4.007   6.685   5.625 -0.1312  0.0401 -0.0947
 3745WAT    EPW15702   3.982   6.611   5.634  0.3312 -0.0662  0.3462
 3746WAT      O15703   5.922   6.265   0.410 -0.2527 -0.3721  0.3964
 3746WAT     H115704   5.841   6.262   0.377 -0.1174 -0.1344  0.0428
 3746WAT     H215705   5.969   6.217   0.355 -0.2508 -0.9643  0.8984
 3746WAT    EPW15706   5.917   6.257   0.397 -0.2324 -0.4245  0.4183
 3747WAT      O15707   3.880   6.442   7.336 -0.1779 -0.4219 -0.5629
 3747WAT     H115708   3.914   6.514   7.301  1.2429  0.6308  2.6154
 3747WAT     H215709   3.948   6.387   7.340 -0.1104 -0.2713  0.9923
 3747WAT    EPW15710   3.895   6.444   7.332  0.0420 -0.2441  0.1363
 3748WAT      O15711   3.984   7.107   6.915 -0.3316  0.0981  0.1241
 3748WAT     H115712   3.921   7.113   6.975 -0.4306 -0.8515  0.1219
 3748WAT     H215713   3.987   7.188   6.882  0.0965  0.8028  1.7545
 3748WAT    EPW15714   3.975   7.120   6.919 -0.2830  0.0619  0.3646
 3749WAT      O15715   6.032   4.721   1.439  0.5452  0.0678  0.2655
 3749WAT     H115716   5.978   4.783   1.413  1.3705  0.3476 -0.8568
 3749WAT     H215717   6.103   4.732   1.389  1.1576 -1.0576  0.8215
 3749WAT    EPW15718   6.035   4.731   1.428  0.7576 -0.0571  0.1818
 3750WAT      O15719   4.342   6.039   6.891  0.0906  0.3491  0.0084
 3750WAT     H115720   4.339   6.079   6.968  0.6860  0.2356  0.0925
 3750WAT     H215721   4.262   6.053   6.858  0.6346  2.5950 -0.4917
 3750WAT    EPW15722   4.330   6.047   6.898  0.2589  0.6641 -0.0531
 3751WAT      O15723   5.328   7.086   5.934  0.0541 -0.3845 -0.3656
 3751WAT     H115724   5.368   7.028   5.883  0.6106 -0.7815  0.4997
 3751WAT     H215725   5.305   7.040   6.004 -0.1769  0.2714  0.0071
 3751WAT    EPW15726   5.331   7.071   5.937  0.1022 -0.3462 -0.1827
 3752WAT      O15727   5.571   6.591   5.485  0.4240 -0.3999  0.4792
 3752WAT     H115728   5.637   6.646   5.501 -1.0097  1.2784  0.9292
 3752WAT     H215729   5.559   6.551   5.562  0.1388  0.2161  0.7687
 3752WAT    EPW15730   5.579   6.593   5.499  0.1701 -0.0609  0.5884
 3753WAT      O15731   4.876   6.317   6.617 -0.1837 -0.0109  0.6308
 3753WAT     H115732   4.913   6.393   6.596  0.7104 -0.7917 -0.8457
 3753WAT     H215733   4.793   6.327   6.593  0.5738 -0.5049 -2.7495
 3753WAT    EPW15734   4.869   6.329   6.610  0.0603 -0.1992 -0.0867
 3754WAT      O15735   4.999   4.480   0.131  0.2859  0.4958  0.6811
 3754WAT     H115736   4.992   4.445   0.051  1.4190  2.4050 -0.3182
 3754WAT     H215737   4.917   4.481   0.160  0.0059 -1.5153  0.1777
 3754WAT    EPW15738   4.986   4.475   0.123  0.4119  0.4808  0.4591
 3755WAT      O15739   3.387   6.967   6.784 -0.3570 -0.5214  0.4344
 3755WAT     H115740   3.356   6.965   6.866 -2.1494  0.1998 -0.1960
 3755WAT     H215741   3.469   6.996   6.795  0.1246 -2.2298  2.1154
 3755WAT    EPW15742   3.395   6.971   6.798 -0.5507 -0.6672  0.5896
 3756WAT      O15743   5.050   6.914   7.092 -0.3333 -0.1596 -0.0735
 3756WAT     H115744   5.063   6.828   7.084  0.1104 -0.1024  0.0249
 3756WAT     H215745   5.131   6.947   7.097 -0.3881  0.4674 -2.1915
 3756WAT    EPW15746   5.064   6.906   7.091 -0.2758 -0.0585 -0.3718
 3757WAT      O15747   4.866   5.918   4.651  0.1134 -0.6065 -0.7250
 3757WAT     H115748   4.791   5.961   4.645  0.4236 -0.2190 -2.4706
 3757WAT     H215749   4.844   5.835   4.637  0.0283 -0.4383 -1.7012
 3757WAT    EPW15750   4.852   5.912   4.648  0.1467 -0.5244 -1.1270
 3758WAT      O15751   3.931   5.355   0.059 -0.0855  0.7881 -0.0607
 3758WAT     H115752   3.933   5.268   0.061 -1.4197  0.7344 -0.0747
 3758WAT     H215753   3.852   5.373   0.026 -0.2232  2.0053  0.8680
 3758WAT    EPW15754   3.920   5.345   0.054 -0.3029  0.9600  0.0744
 3759WAT      O15755   4.239   5.355   5.630 -0.4453  0.4103  0.0537
 3759WAT     H115756   4.298   5.416   5.651 -0.1575 -0.0356  0.5514
 3759WAT     H215757   4.185   5.397   5.575 -1.3330  1.6947  1.7815
 3759WAT    EPW15758   4.240   5.370   5.625 -0.5339  0.5342  0.3825
 3760WAT      O15759   5.630   6.551   6.316 -0.2035 -0.2943 -0.5780
 3760WAT     H115760   5.693   6.491   6.326  1.2436  1.4103  1.9921
 3760WAT     H215761   5.663   6.605   6.256  0.2690 -0.0560 -0.1139
 3760WAT    EPW15762   5.644   6.550   6.309  0.0801 -0.0073 -0.1298
 3761WAT      O15763   4.549   5.404   6.974  0.3502  0.0981 -0.4685
 3761WAT     H115764   4.606   5.389   6.910  0.6108  0.7969 -0.4051
 3761WAT     H215765   4.475   5.366   6.945  0.9139 -1.0732 -0.4141
 3761WAT    EPW15766   4.546   5.396   6.960  0.4720  0.0283 -0.4511
 3762WAT      O15767   4.137   6.861   5.909 -0.3213  0.7741 -0.0413
 3762WAT     H115768   4.198   6.863   5.971  0.4681  0.1372 -0.7762
 3762WAT     H215769   4.165   6.919   5.851  1.0517 -1.3326 -1.6572
 3762WAT    EPW15770   4.150   6.870   5.910 -0.0019  0.3688 -0.3886
 3763WAT      O15771   4.498   6.603   6.525 -0.0402 -0.3742 -0.3637
 3763WAT     H115772   4.556   6.538   6.521  1.0961  0.4380  1.5893
 3763WAT     H215773   4.520   6.646   6.598 -0.2932  2.6065 -1.8835
 3763WAT    EPW15774   4.510   6.600   6.535  0.0903  0.1861 -0.2997
 3764WAT      O15775   6.107   6.781   6.140 -0.6434  0.1307  0.0519
 3764WAT     H115776   6.060   6.738   6.200 -1.1615  0.9178  0.2242
 3764WAT     H215777   6.080   6.747   6.065 -0.2851 -0.5806  0.2407
 3764WAT    EPW15778   6.096   6.770   6.138 -0.6670  0.1419  0.1053
 3765WAT      O15779   4.227   6.526   1.332  0.5818 -0.1216 -0.1731
 3765WAT     H115780   4.173   6.594   1.335 -0.1245 -0.6475 -0.5395
 3765WAT     H215781   4.194   6.476   1.268  0.4093 -1.3608  0.8432
 3765WAT    EPW15782   4.214   6.529   1.323  0.4520 -0.3824 -0.0771
 3766WAT      O15783   5.149   5.808   6.676  0.1271 -0.3129 -0.8054
 3766WAT     H115784   5.174   5.769   6.602  1.3610 -0.3162 -0.4065
 3766WAT     H215785   5.098   5.873   6.649 -1.8655 -2.0180 -1.5057
 3766WAT    EPW15786   5.145   5.812   6.661  0.0150 -0.5653 -0.8499
 3767WAT      O15787   5.088   6.597   5.599  0.2910 -0.1664 -0.1451
 3767WAT     H115788   5.159   6.627   5.558  0.4990 -0.9263 -0.3534
 3767WAT     H215789   5.028   6.596   5.536  0.2147  0.0323 -0.0780
 3767WAT    EPW15790   5.090   6.602   5.584  0.3104 -0.2493 -0.1660
 3768WAT      O15791   3.083   4.897   6.579 -0.1526 -0.1028 -0.8119
 3768WAT     H115792   3.150   4.890   6.524 -0.7410  1.4970 -1.8091
 3768WAT     H215793   3.121   4.910   6.656  0.6717 -0.2209 -1.1849
 3768WAT    EPW15794   3.098   4.898   6.582 -0.1178  0.1161 -1.0143
 3769WAT      O15795   4.647   6.401   6.151 -0.7951  0.1176 -0.0072
 3769WAT     H115796   4.612   6.474   6.184  1.1827  0.8678  0.6084
 3769WAT     H215797   4.730   6.404   6.179 -0.6633 -2.4135  0.0989
 3769WAT    EPW15798   4.654   6.412   6.160 -0.4834 -0.1455  0.0994
 3770WAT      O15799   4.849   6.299   5.883  0.7518  0.0589 -0.8625
 3770WAT     H115800   4.777   6.250   5.881  2.9532 -3.7184  0.7127
 3770WAT     H215801   4.852   6.328   5.966  0.3321  1.6018 -1.3449
 3770WAT    EPW15802   4.839   6.296   5.895  1.0150 -0.2712 -0.7010
 3771WAT      O15803   4.088   6.097   6.785 -0.1771  0.6894 -0.2905
 3771WAT     H115804   4.014   6.053   6.793  0.9601 -1.2148  0.4746
 3771WAT     H215805   4.133   6.053   6.724  0.9064  0.8923  0.3243
 3771WAT    EPW15806   4.084   6.084   6.777  0.1509  0.4381 -0.0867
 3772WAT      O15807   5.018   5.946   7.598  0.7746 -0.9333  0.0744
 3772WAT     H115808   4.964   6.014   7.593  1.8871 -0.1261 -2.0615
 3772WAT     H215809   5.073   5.968   7.663  1.8995  0.8811 -1.3927
 3772WAT    EPW15810   5.018   5.959   7.607  1.1051 -0.5460 -0.4578
 3773WAT      O15811   3.672   5.577   6.201 -0.0914  0.0925  0.0232
 3773WAT     H115812   3.682   5.527   6.130  0.7195  0.3373 -0.0512
 3773WAT     H215813   3.730   5.641   6.188 -2.1561  1.9516 -0.6257
 3773WAT    EPW15814   3.682   5.579   6.188 -0.2766  0.4033 -0.0836
 3774WAT      O15815   4.395   4.939   7.574 -0.2310  0.0635  0.7005
 3774WAT     H115816   4.400   4.938   7.661  0.6216  0.8381  0.6712
 3774WAT     H215817   4.460   4.992   7.550 -0.6672  0.1285 -0.3965
 3774WAT    EPW15818   4.406   4.946   7.584 -0.1695  0.1875  0.5341
 3775WAT      O15819   4.130   4.014   6.143  0.0565 -0.3490  0.3101
 3775WAT     H115820   4.049   4.037   6.121 -0.0605 -0.8728  0.1937
 3775WAT     H215821   4.168   3.996   6.066  0.3339  0.0396  0.3485
 3775WAT    EPW15822   4.124   4.015   6.129  0.0802 -0.3690  0.2986
 3776WAT      O15823   5.656   5.565   6.164  0.4082 -0.3674  0.3148
 3776WAT     H115824   5.707   5.521   6.108  0.1298 -0.8070  0.3950
 3776WAT     H215825   5.714   5.609   6.213  0.5884  2.5851 -2.2726
 3776WAT    EPW15826   5.672   5.565   6.163  0.3937  0.0038 -0.0556
 3777WAT      O15827   6.700   5.661   6.098 -0.3552 -0.3765  0.3283
 3777WAT     H115828   6.685   5.691   6.179 -1.8586 -0.0744 -0.0270
 3777WAT     H215829   6.774   5.617   6.106  1.0047  1.9096  1.2662
 3777WAT    EPW15830   6.708   5.659   6.112 -0.3764  0.0059  0.4144
 3778WAT      O15831   3.378   6.258   4.776 -0.0382 -0.4730  0.2044
 3778WAT     H115832   3.334   6.277   4.849  1.6316  0.9855  0.8897
 3778WAT     H215833   3.398   6.173   4.786  0.4806 -0.2043  1.6314
 3778WAT    EPW15834   3.375   6.248   4.788  0.2851 -0.2179  0.5164
 3779WAT      O15835   3.093   5.726   6.847  0.2694 -0.1904 -0.5613
 3779WAT     H115836   3.121   5.707   6.927 -3.0860  0.8611  1.0024
 3779WAT     H215837   3.107   5.811   6.840  0.4746 -0.2612 -1.1087
 3779WAT    EPW15838   3.099   5.735   6.858 -0.1960 -0.0455 -0.4112
 3780WAT      O15839   4.849   6.618   0.900  0.2127  0.6892 -0.2340
 3780WAT     H115840   4.859   6.665   0.972 -2.0745  0.3524  0.3820
 3780WAT     H215841   4.763   6.610   0.893  0.4537 -1.8012 -1.3445
 3780WAT    EPW15842   4.838   6.624   0.910 -0.0896  0.2716 -0.3071
 3781WAT      O15843   5.923   6.537   6.227  0.1650 -0.2968  1.0327
 3781WAT     H115844   5.925   6.545   6.314 -0.6453 -0.9684  1.1152
 3781WAT     H215845   5.905   6.453   6.214 -3.9222  0.4834  0.2912
 3781WAT    EPW15846   5.921   6.526   6.238 -0.5584 -0.2808  0.9353
 3782WAT      O15847   4.585   5.652   6.671 -0.1181  0.2970 -0.5371
 3782WAT     H115848   4.560   5.638   6.753 -2.0584  0.9485 -0.9701
 3782WAT     H215849   4.660   5.607   6.664  0.6732  1.1134  1.8678
 3782WAT    EPW15850   4.592   5.643   6.682 -0.2878  0.5139 -0.2458
 3783WAT      O15851   3.933   6.689   5.172  0.3427 -0.1326 -0.4358
 3783WAT     H115852   3.886   6.616   5.171  0.5004 -0.3085  1.7563
 3783WAT     H215853   4.000   6.670   5.224  0.9475  1.2531 -0.6709
 3783WAT    EPW15854   3.936   6.675   5.179  0.4553  0.0461 -0.1467
 3784WAT      O15855   4.262   6.113   7.493  0.3766 -0.2790  0.8279
 3784WAT     H115856   4.349   6.113   7.488  0.3681 -1.9970 -0.5763
 3784WAT     H215857   4.240   6.036   7.457 -1.6900 -0.2149  1.8065
 3784WAT    EPW15858   4.272   6.101   7.487  0.0701 -0.5233  0.7650
 3785WAT      O15859   4.887   6.033   5.630 -0.3090 -0.2951  0.0454
 3785WAT     H115860   4.847   6.111   5.629 -0.3288 -0.2316 -2.6454
 3785WAT     H215861   4.835   5.983   5.678 -0.9130  1.0483  0.8435
 3785WAT    EPW15862   4.874   6.037   5.637 -0.4012 -0.0873 -0.2342
 3786WAT      O15863   5.222   6.920   5.160  0.5348  0.3197  0.9811
 3786WAT     H115864   5.165   6.902   5.097  1.0285  1.9998  0.0129
 3786WAT     H215865   5.172   6.950   5.225  0.1866  0.2715  0.7407
 3786WAT    EPW15866   5.206   6.922   5.161  0.5563  0.5608  0.8026
 3787WAT      O15867   3.193   6.812   7.734  0.2289  0.2542 -0.3447
 3787WAT     H115868   3.225   6.731   7.740 -1.7666 -0.4707  1.5976
 3787WAT     H215869   3.183   6.823   7.648  2.9722 -0.4701 -0.8653
 3787WAT    EPW15870   3.196   6.801   7.722  0.3393  0.0401 -0.1347
 3788WAT      O15871   5.465   6.170   5.972 -0.1951 -0.8021 -0.4222
 3788WAT     H115872   5.428   6.249   5.967 -0.4121 -0.9748 -2.6584
 3788WAT     H215873   5.415   6.128   6.029  0.4529  0.8986  1.5332
 3788WAT    EPW15874   5.452   6.176   5.980 -0.1315 -0.5764 -0.4637
 3789WAT      O15875   2.570   6.361   7.437  0.5391 -0.4671  0.4126
 3789WAT     H115876   2.490   6.395   7.448  0.1485 -2.0232  3.2812
 3789WAT     H215877   2.594   6.392   7.359 -2.9729 -0.1835 -0.7505
 3789WAT    EPW15878   2.561   6.371   7.427 -0.0374 -0.6551  0.6645
 3790WAT      O15879   5.248   6.096   6.806 -0.0378 -0.8834 -0.0291
 3790WAT     H115880   5.171   6.118   6.769  0.2613  0.3211  0.0069
 3790WAT     H215881   5.266   6.018   6.771 -0.0729 -0.0852 -2.0066
 3790WAT    EPW15882   5.239   6.088   6.795  0.0012 -0.5876 -0.3159
 3791WAT      O15883   6.702   5.687   6.391 -0.0073  0.5762  0.3119
 3791WAT     H115884   6.631   5.736   6.402 -1.2183 -1.0886  0.3512
 3791WAT     H215885   6.670   5.612   6.359  2.0705  1.0153 -3.4184
 3791WAT    EPW15886   6.687   5.683   6.388  0.1208  0.3952 -0.2333
 3792WAT      O15887   3.635   6.061   6.552  0.0863  0.0555 -0.0089
 3792WAT     H115888   3.583   5.998   6.583  0.8627  0.9761  3.6268
 3792WAT     H215889   3.715   6.036   6.576  1.0195  0.3700 -2.4354
 3792WAT    EPW15890   3.639   6.048   6.560  0.3388  0.2379  0.1697
 3793WAT      O15891   4.270   6.291   0.634  0.2100  0.5330 -0.2038
 3793WAT     H115892   4.313   6.269   0.707  0.4447 -0.6424 -0.6624
 3793WAT     H215893   4.329   6.278   0.571 -0.9986 -2.0176 -0.9431
 3793WAT    EPW15894   4.285   6.286   0.635  0.0661 -0.0174 -0.3808
 3794WAT      O15895   4.486   4.450   5.999  0.0867 -0.2107  0.0106
 3794WAT     H115896   4.507   4.367   5.978  0.9838 -0.0975  0.3931
 3794WAT     H215897   4.433   4.441   6.068  0.3645 -0.4651  0.1964
 3794WAT    EPW15898   4.482   4.436   6.006  0.2603 -0.2316  0.0946
 3795WAT      O15899   4.562   7.046   7.310 -0.3636 -0.2166 -0.0526
 3795WAT     H115900   4.599   7.017   7.237 -1.8031 -2.4282  0.0145
 3795WAT     H215901   4.609   7.117   7.329  2.6779 -1.8019 -0.8941
 3795WAT    EPW15902   4.575   7.052   7.302 -0.1269 -0.7775 -0.1670
 3796WAT      O15903   4.765   5.248   6.423  0.6622  0.7657 -0.1185
 3796WAT     H115904   4.715   5.273   6.490  0.0309  0.1530 -0.3389
 3796WAT     H215905   4.764   5.161   6.428  2.2245  0.7482  0.2248
 3796WAT    EPW15906   4.757   5.239   6.433  0.7997  0.6726 -0.1004
 3797WAT      O15907   4.620   6.034   7.191  0.5604 -0.1326 -0.0446
 3797WAT     H115908   4.669   6.090   7.146 -1.0173  1.4463  0.0951
 3797WAT     H215909   4.538   6.058   7.173 -0.1580 -0.4778  2.3216
 3797WAT    EPW15910   4.615   6.045   7.182  0.2212  0.0497  0.3256
 3798WAT      O15911   4.415   5.839   5.668  0.1250  0.5080 -0.0824
 3798WAT     H115912   4.376   5.861   5.742 -0.7923  1.3757 -0.7974
 3798WAT     H215913   4.365   5.874   5.606  0.3356 -0.9656 -1.1723
 3798WAT    EPW15914   4.402   5.847   5.670  0.0206  0.4185 -0.3490
 3799WAT      O15915   3.833   5.363   6.757  0.4403  0.4089  0.0418
 3799WAT     H115916   3.788   5.320   6.818  0.3533 -0.4881 -0.6376
 3799WAT     H215917   3.873   5.300   6.712  2.5400  1.1616  0.7147
 3799WAT    EPW15918   3.833   5.347   6.759  0.7377  0.3876  0.0408
 3800WAT      O15919   3.695   7.471   6.720 -0.4910 -0.1443 -0.0227
 3800WAT     H115920   3.660   7.408   6.671 -0.5600 -1.3548  1.4645
 3800WAT     H215921   3.628   7.521   6.742 -0.8344 -0.8433  0.5575
 3800WAT    EPW15922   3.680   7.469   6.716 -0.5520 -0.4264  0.2827
 3801WAT      O15923   5.097   5.270   7.328 -0.0801  0.0832  0.5242
 3801WAT     H115924   5.101   5.326   7.394 -0.9465 -0.3995  1.0032
 3801WAT     H215925   5.036   5.302   7.276 -1.5257 -1.0407  1.4443
 3801WAT    EPW15926   5.089   5.283   7.330 -0.4216 -0.1542  0.7309
 3802WAT      O15927   3.924   7.405   7.386 -0.2539 -0.1882 -0.0106
 3802WAT     H115928   3.964   7.332   7.358 -1.8100 -0.7023 -0.9817
 3802WAT     H215929   3.892   7.381   7.464  1.2191  0.2172  0.7599
 3802WAT    EPW15930   3.925   7.390   7.394 -0.2662 -0.2042 -0.0402
 3803WAT      O15931   4.193   4.392   1.110 -0.4199  0.5010 -0.4787
 3803WAT     H115932   4.250   4.441   1.064 -1.4590 -0.2901 -2.7539
 3803WAT     H215933   4.130   4.449   1.131 -1.0993  0.4348 -2.1864
 3803WAT    EPW15934   4.192   4.408   1.106 -0.6738  0.3744 -1.0671
 3804WAT      O15935   5.524   5.108   5.913 -0.4548 -0.2072  0.2292
 3804WAT     H115936   5.571   5.162   5.962 -1.2395  0.7621 -0.0686
 3804WAT     H215937   5.449   5.150   5.901 -0.6323 -0.8285 -1.0302
 3804WAT    EPW15938   5.520   5.122   5.919 -0.5969 -0.1558 -0.0008
 3805WAT      O15939   4.641   6.137   0.468  0.3625  0.4221  0.4632
 3805WAT     H115940   4.687   6.068   0.441 -0.0818  0.3765 -0.1972
 3805WAT     H215941   4.699   6.201   0.471  0.5037  0.3302 -0.2143
 3805WAT    EPW15942   4.656   6.136   0.464  0.3177  0.4018  0.2656
 3806WAT      O15943   4.318   6.547   0.363 -0.4438 -0.6544 -0.1303
 3806WAT     H115944   4.330   6.462   0.381 -1.4909 -1.2826 -2.1440
 3806WAT     H215945   4.237   6.551   0.332 -0.1446  0.9562 -0.8307
 3806WAT    EPW15946   4.308   6.535   0.361 -0.5543 -0.5093 -0.5313
 3807WAT      O15947   4.173   6.827   7.317 -0.1622 -0.3084 -0.2142
 3807WAT     H115948   4.252   6.802   7.289  0.2484 -0.1845  0.8005
 3807WAT     H215949   4.121   6.762   7.290  0.4479 -0.8857 -0.0248
 3807WAT    EPW15950   4.177   6.814   7.309 -0.0115 -0.3754 -0.0363
 3808WAT      O15951   4.827   4.750   4.713 -0.1396  0.2329  0.7523
 3808WAT     H115952   4.767   4.692   4.738 -0.1960 -0.1918 -0.3197
 3808WAT     H215953   4.900   4.703   4.707 -0.1611  0.2837 -0.0196
 3808WAT    EPW15954   4.829   4.735   4.715 -0.1511  0.1777  0.4799
 3809WAT      O15955   5.077   5.578   6.814  0.4891 -0.0690 -0.1011
 3809WAT     H115956   5.147   5.535   6.844  1.5508  0.1694 -2.0661
 3809WAT     H215957   5.110   5.651   6.781 -0.6369 -0.0904 -1.3654
 3809WAT    EPW15958   5.092   5.583   6.814  0.4796 -0.0370 -0.5781
 3810WAT      O15959   5.501   5.935   6.672 -0.3095  0.1156  0.2085
 3810WAT     H115960   5.458   5.867   6.639  0.7059 -0.7564  0.6126
 3810WAT     H215961   5.490   5.928   6.758 -2.8679  2.3320  0.2189
 3810WAT    EPW15962   5.493   5.924   6.680 -0.5374  0.3142  0.2697
 3811WAT      O15963   5.559   7.443   6.763  0.4395  0.0783 -0.1276
 3811WAT     H115964   5.567   7.468   6.846 -0.4298 -0.0004 -0.0129
 3811WAT     H215965   5.631   7.475   6.725  0.9848 -0.1387  0.7099
 3811WAT    EPW15966   5.571   7.452   6.770  0.3916  0.0346  0.0131
 3812WAT      O15967   4.991   6.804   6.438 -0.0680  0.6621 -0.5360
 3812WAT     H115968   4.988   6.730   6.485  1.4576  1.3213  0.6864
 3812WAT     H215969   5.010   6.776   6.357 -0.5821 -0.3345 -0.3396
 3812WAT    EPW15970   4.993   6.789   6.433  0.0814  0.6123 -0.3264
 3813WAT      O15971   5.447   6.936   5.412 -0.0212  0.6501 -0.0448
 3813WAT     H115972   5.526   6.955   5.443 -0.5697  0.2504  1.7392
 3813WAT     H215973   5.399   7.006   5.432 -0.3469  0.4617 -0.1484
 3813WAT    EPW15974   5.451   6.949   5.420 -0.1503  0.5632  0.2035
 3814WAT      O15975   4.229   6.431   5.360  0.3738  0.1371 -0.2449
 3814WAT     H115976   4.145   6.424   5.383  0.2310 -0.3121 -0.8866
 3814WAT     H215977   4.230   6.404   5.277  1.2251 -0.3073 -0.1012
 3814WAT    EPW15978   4.217   6.426   5.351  0.4785  0.0051 -0.3185
 3815WAT      O15979   4.244   6.787   5.010  0.1412  0.4454 -0.2494
 3815WAT     H115980   4.304   6.836   4.970  1.5011  0.4409  1.6562
 3815WAT     H215981   4.271   6.785   5.093 -2.0292 -0.3243  0.5036
 3815WAT    EPW15982   4.257   6.794   5.016  0.0214  0.3311  0.1434
 3816WAT      O15983   4.036   6.376   6.759 -0.3094 -0.0400 -0.4356
 3816WAT     H115984   3.984   6.392   6.690 -0.1441  1.8679 -0.1719
 3816WAT     H215985   4.070   6.298   6.741 -0.3019  0.3745 -2.5402
 3816WAT    EPW15986   4.034   6.367   6.746 -0.2838  0.3031 -0.7076
 3817WAT      O15987   4.959   4.614   1.161  0.1671  0.3001  0.0065
 3817WAT     H115988   5.024   4.657   1.123  0.4672 -0.4151 -0.3168
 3817WAT     H215989   4.897   4.674   1.171  0.7709  0.9249  0.0571
 3817WAT    EPW15990   4.960   4.629   1.157  0.3006  0.2867 -0.0338
 3818WAT      O15991   2.982   5.936   6.591 -0.4045  0.2195  0.2204
 3818WAT     H115992   2.986   5.864   6.542  1.1669  0.1924  0.3391
 3818WAT     H215993   2.918   5.919   6.648  0.3547 -1.3668  0.6559
 3818WAT    EPW15994   2.973   5.923   6.592 -0.0602 -0.0188  0.3023
 3819WAT      O15995   4.835   4.724   7.643  0.0516  0.2787 -0.4570
 3819WAT     H115996   4.809   4.660   7.590 -0.5449 -0.8252  1.0692
 3819WAT     H215997   4.917   4.739   7.619  0.8588 -2.4108  0.3025
 3819WAT    EPW15998   4.843   4.717   7.632  0.0827 -0.2816 -0.1193
 3820WAT      O15999   3.806   4.716   6.149 -0.0492 -0.0833 -0.4545
 3820WAT     H116000   3.725   4.718   6.116 -0.2441 -0.8674 -0.0423
 3820WAT     H216001   3.850   4.670   6.089  0.4639  1.6061 -1.4358
 3820WAT    EPW16002   3.800   4.709   6.135 -0.0022  0.0504 -0.5386
 3821WAT      O16003   4.336   4.990   6.871  0.4598 -0.3085 -0.8859
 3821WAT     H116004   4.395   4.945   6.916  0.6511  0.7473 -0.0388
 3821WAT     H216005   4.351   5.073   6.893 -0.5617  0.0961 -1.5792
 3821WAT    EPW16006   4.347   4.995   6.881  0.3372 -0.0928 -0.8631
 3822WAT      O16007   6.208   7.131   7.599  0.0662  0.5227  0.3297
 3822WAT     H116008   6.194   7.048   7.576 -0.6034  0.4232  1.0626
 3822WAT     H216009   6.241   7.167   7.527  0.1993 -0.3395 -0.0490
 3822WAT    EPW16010   6.211   7.124   7.585 -0.0131  0.3806  0.3820
 3823WAT      O16011   4.436   5.494   6.232  0.6581  0.0810 -0.3485
 3823WAT     H116012   4.422   5.508   6.317  3.9023  1.0161  0.1916
 3823WAT     H216013   4.443   5.407   6.227  4.3765  0.0926  1.3176
 3823WAT    EPW16014   4.435   5.483   6.244  1.6866  0.2209 -0.0226
 3824WAT      O16015   4.073   5.752   7.090 -0.1960 -0.2835 -0.1871
 3824WAT     H116016   4.088   5.678   7.134 -0.8724  1.2445  2.8992
 3824WAT     H216017   4.128   5.748   7.023  1.9341 -2.2364  1.5262
 3824WAT    EPW16018   4.083   5.740   7.087  0.0188 -0.3463  0.5219
 3825WAT      O16019   2.781   4.933   7.284  0.4377 -0.0785  0.0018
 3825WAT     H116020   2.787   5.010   7.325  0.6964  0.2560 -0.6589
 3825WAT     H216021   2.697   4.928   7.262  0.0457 -0.7437  1.4706
 3825WAT    EPW16022   2.770   4.944   7.287  0.4180 -0.1273  0.1212
 3826WAT      O16023   3.863   7.022   6.645 -0.5998 -0.2993 -0.0056
 3826WAT     H116024   3.934   6.995   6.686 -0.9009 -2.0905 -0.5995
 3826WAT     H216025   3.893   7.082   6.589 -0.1460  1.9757  2.4632
 3826WAT    EPW16026   3.878   7.027   6.643 -0.5772 -0.2279  0.2714
 3827WAT      O16027   4.533   5.609   5.458  0.9313  0.1141 -0.6865
 3827WAT     H116028   4.470   5.616   5.398 -0.1975  0.0220  0.4635
 3827WAT     H216029   4.490   5.609   5.534  2.2646 -0.5519  0.1082
 3827WAT    EPW16030   4.518   5.610   5.460  0.9615  0.0021 -0.3992
 3828WAT      O16031   6.141   7.357   5.874 -0.2900 -0.2244  0.2593
 3828WAT     H116032   6.123   7.427   5.825 -0.2114  0.1219  0.7148
 3828WAT     H216033   6.225   7.366   5.893 -0.1694 -0.6807 -0.0469
 3828WAT    EPW16034   6.151   7.369   5.869 -0.2606 -0.2406  0.2813
 3829WAT      O16035   4.012   6.280   4.862 -0.3210  0.3188 -0.4969
 3829WAT     H116036   4.023   6.243   4.941  1.3815  0.0430 -0.8244
 3829WAT     H216037   4.070   6.345   4.862  0.7936 -0.6149 -2.0631
 3829WAT    EPW16038   4.022   6.284   4.874  0.0951  0.1401 -0.7766
 3830WAT      O16039   4.152   5.436   1.329  0.8011 -0.3605  0.1147
 3830WAT     H116040   4.086   5.400   1.283  0.1682  0.0585  0.6662
 3830WAT     H216041   4.201   5.473   1.268  1.6933 -2.4562 -0.5110
 3830WAT    EPW16042   4.149   5.436   1.313  0.8394 -0.6082  0.1037
 3831WAT      O16043   3.739   5.728   0.056  0.2533 -0.3410  0.3510
 3831WAT     H116044   3.816   5.768   0.054  0.1741 -0.1727  0.5733
 3831WAT     H216045   3.698   5.767   0.123  0.4094 -1.2307  0.9771
 3831WAT    EPW16046   3.744   5.740   0.065  0.2646 -0.4476  0.4763
 3832WAT      O16047   4.942   5.691   7.699 -0.6824 -0.1136 -0.3219
 3832WAT     H116048   4.942   5.762   7.647 -1.5448  0.3791  0.3153
 3832WAT     H216049   4.875   5.644   7.670  0.6527 -1.3449 -1.5742
 3832WAT    EPW16050   4.932   5.695   7.687 -0.6126 -0.2227 -0.4128
 3833WAT      O16051   5.289   5.792   5.158  0.0875 -0.2651  0.0727
 3833WAT     H116052   5.232   5.856   5.176 -1.6651 -1.7541  0.1319
 3833WAT     H216053   5.335   5.784   5.231  1.1528  1.6556 -0.3228
 3833WAT    EPW16054   5.287   5.800   5.171 -0.0140 -0.2013  0.0230
 3834WAT      O16055   5.937   2.679   0.446  1.2233  0.3979  0.3764
 3834WAT     H116056   5.861   2.638   0.455  0.7554  0.8932 -1.0864
 3834WAT     H216057   5.930   2.748   0.499 -0.6955  2.2299 -2.0286
 3834WAT    EPW16058   5.925   2.683   0.455  0.8707  0.7417 -0.1950
 3835WAT      O16059   2.699   4.907   0.309 -0.6344 -0.1239 -0.0645
 3835WAT     H116060   2.749   4.838   0.327 -1.3991 -0.3595  1.3550
 3835WAT     H216061   2.703   4.954   0.382  1.8991  2.7252 -1.8021
 3835WAT    EPW16062   2.707   4.904   0.323 -0.3731  0.2622 -0.1115
 3836WAT      O16063   5.518   6.673   5.915 -0.5813 -0.2242  0.0943
 3836WAT     H116064   5.576   6.663   5.980  0.2080  1.0672 -0.3741
 3836WAT     H216065   5.480   6.595   5.910  0.4965 -0.8475  1.0139
 3836WAT    EPW16066   5.521   6.660   5.924 -0.3055 -0.1255  0.1610
 3837WAT      O16067   4.450   6.286   1.150  0.2346 -0.5880 -0.5012
 3837WAT     H116068   4.520   6.282   1.097 -0.2923 -1.2759 -1.1757
 3837WAT     H216069   4.413   6.362   1.129  2.1608  1.0894  1.7166
 3837WAT    EPW16070   4.455   6.297   1.139  0.4413 -0.4418 -0.2732
 3838WAT      O16071   5.785   5.465   5.929  0.2492 -0.4805  0.3207
 3838WAT     H116072   5.727   5.491   5.869  0.9576 -1.2346 -0.7212
 3838WAT     H216073   5.831   5.537   5.946  0.9581 -0.5553 -1.1279
 3838WAT    EPW16074   5.783   5.480   5.923  0.4585 -0.6030 -0.0472
 3839WAT      O16075   4.779   7.155   5.628 -0.4492  0.3429 -0.0943
 3839WAT     H116076   4.720   7.182   5.687 -0.3597  0.6137 -0.1301
 3839WAT     H216077   4.855   7.169   5.668 -0.4328 -1.6125  0.6664
 3839WAT    EPW16078   4.781   7.161   5.643 -0.4335  0.0940  0.0128
 3840WAT      O16079   5.464   4.097   6.541  0.4731 -0.5370  0.2504
 3840WAT     H116080   5.421   4.077   6.614  1.5144 -0.0270  1.0313
 3840WAT     H216081   5.475   4.184   6.547 -2.2508  0.1312 -2.1105
 3840WAT    EPW16082   5.459   4.107   6.553  0.2246 -0.3630  0.0170
 3841WAT      O16083   5.291   6.335   7.860  0.2232  0.2365 -0.1219
 3841WAT     H116084   5.289   6.392   7.794 -0.1124  0.8779  0.4282
 3841WAT     H216085   5.369   6.349   7.896 -0.2986  1.1536  0.6905
 3841WAT    EPW16086   5.302   6.345   7.855  0.0965  0.4667  0.0794
 3842WAT      O16087   7.135   5.022   6.204  0.3205  0.1104  0.0440
 3842WAT     H116088   7.095   4.998   6.130  1.1609 -1.2816 -0.0079
 3842WAT     H216089   7.199   4.963   6.212  1.0596  1.0332  1.2000
 3842WAT    EPW16090   7.138   5.010   6.194  0.5538  0.0411  0.2071
 3843WAT      O16091   4.160   0.142   7.511 -0.1936 -0.4055  0.2391
 3843WAT     H116092   4.099   0.173   7.457  0.0646 -0.6989 -0.2407
 3843WAT     H216093   4.142   0.057   7.516  0.6040 -0.6396 -0.5126
 3843WAT    EPW16094   4.149   0.134   7.503 -0.0377 -0.4834  0.0572
 3844WAT      O16095   4.330   6.760   6.862 -0.6583 -0.6571 -0.0227
 3844WAT     H116096   4.298   6.833   6.898  1.0518  0.3068 -0.3071
 3844WAT     H216097   4.260   6.721   6.829 -1.3783  2.4528 -2.7267
 3844WAT    EPW16098   4.315   6.765   6.863 -0.5120 -0.0553 -0.4641
 3845WAT      O16099   4.575   5.719   7.610 -0.4030 -0.2121  0.5105
 3845WAT     H116100   4.508   5.758   7.651 -0.4085  2.1050 -1.4868
 3845WAT     H216101   4.597   5.776   7.548  1.0235 -2.5327 -1.2963
 3845WAT    EPW16102   4.568   5.733   7.607 -0.1931 -0.2126 -0.0514
 3846WAT      O16103   4.484   6.386   7.400 -0.0147 -0.1114  0.5314
 3846WAT     H116104   4.466   6.445   7.463  0.0217 -2.0351  2.4602
 3846WAT     H216105   4.471   6.310   7.440  0.4705 -1.4442 -1.7221
 3846WAT    EPW16106   4.479   6.384   7.415  0.0624 -0.5924  0.4834
 3847WAT      O16107   3.939   5.763   1.802 -0.4630  0.6452 -0.4718
 3847WAT     H116108   3.870   5.740   1.754 -0.2764 -1.7082  0.2712
 3847WAT     H216109   3.960   5.690   1.844  1.2536  1.8365  0.8762
 3847WAT    EPW16110   3.932   5.749   1.801 -0.1819  0.4735 -0.1629
 3848WAT      O16111   4.715   6.523   6.946 -0.0399  0.1128  0.3069
 3848WAT     H116112   4.732   6.565   6.871 -2.4183 -1.3572 -1.1822
 3848WAT     H216113   4.775   6.459   6.947  0.2904  0.4075 -0.0965
 3848WAT    EPW16114   4.726   6.520   6.935 -0.3425 -0.0608  0.0273
 3849WAT      O16115   4.125   5.709   6.654 -0.1450 -0.3304 -0.1651
 3849WAT     H116116   4.123   5.668   6.577  0.7583  1.2086 -1.0787
 3849WAT     H216117   4.046   5.695   6.687  0.1772 -2.8914 -0.3194
 3849WAT    EPW16118   4.113   5.701   6.648  0.0361 -0.4814 -0.3228
 3850WAT      O16119   4.729   5.348   6.781  0.7670  0.0774  0.1534
 3850WAT     H116120   4.780   5.396   6.730 -0.4021  1.7723  0.5229
 3850WAT     H216121   4.785   5.290   6.816  1.7921 -0.4334 -2.1072
 3850WAT    EPW16122   4.745   5.346   6.779  0.7457  0.2523 -0.1259
 3851WAT      O16123   4.986   5.836   0.746 -0.1548  0.1627 -0.4115
 3851WAT     H116124   4.970   5.766   0.795  0.8916 -0.2350 -0.6156
 3851WAT     H216125   4.977   5.902   0.802  3.4249 -0.3862  1.0549
 3851WAT    EPW16126   4.982   5.835   0.762  0.5285  0.0229 -0.2251
 3852WAT      O16127   4.844   5.349   7.224 -0.2181 -0.0198 -0.2872
 3852WAT     H116128   4.867   5.382   7.147  1.2232 -1.4683 -0.5258
 3852WAT     H216129   4.760   5.326   7.213 -0.6251  1.5868 -0.7473
 3852WAT    EPW16130   4.835   5.350   7.211 -0.0653  0.0036 -0.3904
 3853WAT      O16131   5.800   6.581   7.223 -0.2254  0.1155 -0.1485
 3853WAT     H116132   5.825   6.630   7.290  0.7659 -1.6712  0.8819
 3853WAT     H216133   5.778   6.639   7.161 -2.4597  1.8722  2.0891
 3853WAT    EPW16134   5.800   6.597   7.224 -0.4090  0.1111  0.3343
 3854WAT      O16135   4.223   6.541   4.608 -1.0247 -0.4903  0.7726
 3854WAT     H116136   4.222   6.531   4.694  1.4887 -0.2855  0.8900
 3854WAT     H216137   4.252   6.463   4.579 -1.2367 -0.3499  0.1689
 3854WAT    EPW16138   4.227   6.528   4.616 -0.6847 -0.4393  0.7008
 3855WAT      O16139   4.080   6.652   6.788  1.0015 -0.0424  0.0479
 3855WAT     H116140   4.081   6.656   6.701  0.5385 -0.2951  0.0316
 3855WAT     H216141   4.075   6.566   6.804  1.3896 -0.0175  0.3308
 3855WAT    EPW16142   4.080   6.640   6.777  0.9904 -0.0760  0.0873
 3856WAT      O16143   4.584   6.906   6.344 -0.0721  0.4402  0.4945
 3856WAT     H116144   4.563   6.824   6.326  0.1999 -0.3530  3.3135
 3856WAT     H216145   4.617   6.936   6.269  0.1449 -2.1028 -0.5161
 3856WAT    EPW16146   4.585   6.899   6.330  0.0001 -0.0526  0.7616
 3857WAT      O16147   4.561   5.025   1.068 -0.0179 -0.0366  0.2258
 3857WAT     H116148   4.634   5.012   1.023  0.8509  0.0597  1.5494
 3857WAT     H216149   4.521   4.947   1.066 -0.4196  0.1829 -1.3758
 3857WAT    EPW16150   4.566   5.011   1.061  0.0511  0.0101  0.1847
 3858WAT      O16151   4.481   6.378   6.955  0.5170  0.3974 -1.0080
 3858WAT     H116152   4.546   6.435   6.963  0.0549  1.3387 -3.2388
 3858WAT     H216153   4.434   6.390   7.028  1.3722  1.6087 -0.6228
 3858WAT    EPW16154   4.483   6.388   6.967  0.5751  0.7154 -1.2806
 3859WAT      O16155   5.397   6.771   7.692 -0.2050 -0.5638  0.1621
 3859WAT     H116156   5.370   6.691   7.670  0.1160 -1.0658  1.4940
 3859WAT     H216157   5.443   6.758   7.765 -0.7710  0.9136  0.8294
 3859WAT    EPW16158   5.400   6.757   7.700 -0.2412 -0.4197  0.4574
 3860WAT      O16159   4.671   5.364   5.796 -0.1798 -0.1069 -0.8507
 3860WAT     H116160   4.730   5.423   5.771 -2.0352  1.2989 -2.1359
 3860WAT     H216161   4.685   5.356   5.882  1.7396  0.2965 -1.0815
 3860WAT    EPW16162   4.682   5.371   5.805 -0.1703  0.1604 -1.0746
 3861WAT      O16163   4.299   4.230   7.236  0.4318 -0.5930  0.8300
 3861WAT     H116164   4.242   4.297   7.242  0.0708 -0.8230  0.1399
 3861WAT     H216165   4.271   4.174   7.296 -1.2759 -1.5559 -0.7740
 3861WAT    EPW16166   4.286   4.232   7.245  0.1262 -0.7693  0.4911
 3862WAT      O16167   4.001   5.564   6.415  0.3173  0.0156 -0.2715
 3862WAT     H116168   4.042   5.491   6.390  0.6917  0.4369 -0.9205
 3862WAT     H216169   3.917   5.542   6.413  0.4938 -1.1884  2.1162
 3862WAT    EPW16170   3.995   5.550   6.411  0.3987 -0.1000 -0.0146
 3863WAT      O16171   5.408   5.023   6.249 -0.2770  0.2202  0.2213
 3863WAT     H116172   5.431   4.987   6.325 -2.0822  1.1727  1.2880
 3863WAT     H216173   5.383   4.955   6.200  1.8567 -0.5116  0.0410
 3863WAT    EPW16174   5.408   5.007   6.253 -0.2284  0.2528  0.3522
 3864WAT      O16175   6.102   5.324   5.712  0.3355  0.2408 -0.0374
 3864WAT     H116176   6.099   5.286   5.790  0.3379  0.8827  0.2852
 3864WAT     H216177   6.114   5.408   5.731  0.8068  0.3426 -0.7452
 3864WAT    EPW16178   6.103   5.331   5.726  0.4055  0.3506 -0.0943
 3865WAT      O16179   4.107   4.806   0.740 -0.0179 -0.3897  0.2105
 3865WAT     H116180   4.175   4.753   0.727  0.3805 -0.2254  1.4356
 3865WAT     H216181   4.115   4.867   0.678 -0.1112 -1.3885 -0.8025
 3865WAT    EPW16182   4.118   4.807   0.729  0.0272 -0.5130  0.2418
 3866WAT      O16183   4.317   6.928   0.209  0.3846  0.1117 -0.0013
 3866WAT     H116184   4.331   6.930   0.123  0.8177  1.4954  0.0674
 3866WAT     H216185   4.244   6.880   0.218  0.6871 -0.5636 -1.0738
 3866WAT    EPW16186   4.308   6.921   0.198  0.4933  0.2164 -0.1496
 3867WAT      O16187   3.462   5.328   6.764 -0.1089  0.2331  0.4210
 3867WAT     H116188   3.384   5.354   6.735  0.3260  0.4009 -0.6517
 3867WAT     H216189   3.500   5.402   6.789 -0.0547  0.2354  0.3325
 3867WAT    EPW16190   3.456   5.343   6.763 -0.0366  0.2582  0.2494
 3868WAT      O16191   4.699   6.965   6.102  0.2749  0.1757  0.1972
 3868WAT     H116192   4.752   7.033   6.117  0.2315  0.6885 -1.6686
 3868WAT     H216193   4.633   7.000   6.058 -0.1802 -0.9359 -0.0298
 3868WAT    EPW16194   4.697   6.980   6.097  0.2013  0.0873 -0.1119
 3869WAT      O16195   6.565   4.929   6.619  0.0466  0.5065 -0.0410
 3869WAT     H116196   6.626   4.987   6.643 -0.8259  1.4022  0.0951
 3869WAT     H216197   6.516   4.974   6.562  1.5961 -1.2792 -3.0742
 3869WAT    EPW16198   6.567   4.944   6.614  0.1466  0.3750 -0.4690
 3870WAT      O16199   4.276   6.427   6.350 -0.4583 -0.1057 -0.3812
 3870WAT     H116200   4.296   6.348   6.321  0.4666 -0.4202  1.0396
 3870WAT     H216201   4.345   6.450   6.398 -0.7447  1.5246 -0.6770
 3870WAT    EPW16202   4.289   6.419   6.353 -0.3640  0.0887 -0.2150
 3871WAT      O16203   5.324   5.608   7.651 -0.0767  0.1910 -0.6113
 3871WAT     H116204   5.283   5.618   7.574 -0.9006 -0.5471 -0.2886
 3871WAT     H216205   5.377   5.541   7.638 -0.7141 -0.3807 -0.3625
 3871WAT    EPW16206   5.326   5.600   7.638 -0.2926 -0.0025 -0.5269
 3872WAT      O16207   4.290   5.425   0.786 -0.3488  0.7196 -0.0715
 3872WAT     H116208   4.342   5.421   0.716 -0.7943  0.5302 -0.3991
 3872WAT     H216209   4.314   5.355   0.833 -0.5788  0.3950 -0.4221
 3872WAT    EPW16210   4.301   5.414   0.783 -0.4486  0.6437 -0.1717
 3873WAT      O16211   4.964   7.162   0.263 -0.7837 -0.2005 -0.1817
 3873WAT     H116212   4.980   7.145   0.347  0.2359 -1.5414 -0.6122
 3873WAT     H216213   4.994   7.242   0.252  3.5482 -1.6162 -0.2992
 3873WAT    EPW16214   4.971   7.171   0.274  0.0068 -0.6077 -0.2627
 3874WAT      O16215   4.424   6.901   7.809  0.0259  0.1523 -0.1654
 3874WAT     H116216   4.448   6.898   7.726  1.6613 -0.0103  0.2696
 3874WAT     H216217   4.436   6.819   7.837  0.9717  0.5232  0.5766
 3874WAT    EPW16218   4.429   6.888   7.801  0.4072  0.1831  0.0085
 3875WAT      O16219   6.138   5.496   1.184  0.4514 -0.1276  0.3613
 3875WAT     H116220   6.156   5.469   1.265 -1.4267  0.2401  0.9500
 3875WAT     H216221   6.107   5.577   1.195 -1.1421 -0.5727 -0.5426
 3875WAT    EPW16222   6.136   5.504   1.198 -0.0614 -0.1390  0.3147
 3876WAT      O16223   3.777   7.060   7.096  0.1858  0.3046  0.8719
 3876WAT     H116224   3.724   7.073   7.028  1.3821  2.4359  0.2229
 3876WAT     H216225   3.759   6.979   7.122  0.4251 -1.0455 -2.6815
 3876WAT    EPW16226   3.767   7.050   7.090  0.3979  0.4200  0.2511
 3877WAT      O16227   3.017   6.689   0.228  0.4858  0.0024  0.5666
 3877WAT     H116228   3.017   6.711   0.144 -0.1276  3.5114  1.3150
 3877WAT     H216229   3.091   6.723   0.258  0.6479 -1.1090  1.5199
 3877WAT    EPW16230   3.028   6.697   0.220  0.4191  0.3566  0.8180
 3878WAT      O16231   3.951   6.010   7.499 -0.0280  1.2509  0.1711
 3878WAT     H116232   4.017   6.038   7.449  0.0443  0.8169  0.0176
 3878WAT     H216233   3.975   6.032   7.580  0.0956  1.4944  0.0686
 3878WAT    EPW16234   3.964   6.018   7.504  0.0010  1.2228  0.1333
 3879WAT      O16235   7.067   6.163   7.577  0.2525 -0.6915 -0.6581
 3879WAT     H116236   7.134   6.126   7.618 -0.4327 -1.8935 -0.5407
 3879WAT     H216237   7.091   6.246   7.567  0.7227 -0.4990  1.5712
 3879WAT    EPW16238   7.080   6.170   7.581  0.2208 -0.8406 -0.3115
 3880WAT      O16239   5.498   4.981   0.118 -0.3807  0.3085  0.3427
 3880WAT     H116240   5.558   5.026   0.163 -0.1365 -0.6639  1.0266
 3880WAT     H216241   5.499   4.902   0.157 -1.4527  0.0061 -0.2239
 3880WAT    EPW16242   5.507   4.976   0.131 -0.5030  0.1202  0.3600
 3881WAT      O16243   5.379   5.511   6.902 -0.0888  0.5603 -0.1228
 3881WAT     H116244   5.398   5.463   6.972 -0.7751  0.2496 -0.1367
 3881WAT     H216245   5.436   5.483   6.842 -1.9436 -1.9971 -0.8793
 3881WAT    EPW16246   5.390   5.500   6.903 -0.4642  0.1366 -0.2366
 3882WAT      O16247   5.857   5.509   7.795 -0.1072  0.7505  0.2201
 3882WAT     H116248   5.916   5.573   7.789  1.0309 -0.3601 -1.1000
 3882WAT     H216249   5.858   5.488   7.880  0.8931  1.2252  0.3373
 3882WAT    EPW16250   5.866   5.515   7.807  0.2087  0.6565  0.0424
 3883WAT      O16251   5.885   6.634   1.021  0.2355  0.5341 -0.0108
 3883WAT     H116252   5.937   6.688   1.065  1.5001 -1.4650  1.1089
 3883WAT     H216253   5.938   6.567   1.000 -0.7032  0.5994 -3.1969
 3883WAT    EPW16254   5.901   6.632   1.024  0.2837  0.2484 -0.3161
 3884WAT      O16255   4.896   6.296   6.891 -0.3963  1.1657 -0.1615
 3884WAT     H116256   4.830   6.241   6.884  0.5564  0.1357 -1.6548
 3884WAT     H216257   4.911   6.321   6.809  1.0009  1.4292  0.1392
 3884WAT    EPW16258   4.889   6.292   6.878 -0.0492  1.0525 -0.3376
 3885WAT      O16259   4.394   6.180   5.672 -0.0229 -0.1895  0.0812
 3885WAT     H116260   4.334   6.219   5.722 -0.3987  0.1021 -0.5835
 3885WAT     H216261   4.349   6.117   5.632 -0.0513  0.4516 -0.9231
 3885WAT    EPW16262   4.379   6.176   5.674 -0.0826 -0.0517 -0.1653
 3886WAT      O16263   4.118   0.130   5.273  0.1099 -0.0280 -0.1622
 3886WAT     H116264   4.143   0.178   5.205  1.2036 -0.4802 -0.0965
 3886WAT     H216265   4.109   0.189   5.337 -1.6881  0.5147 -0.8410
 3886WAT    EPW16266   4.120   0.146   5.273  0.0058 -0.0146 -0.2528
 3887WAT      O16267   3.219   5.187   6.513  0.5477 -0.1713  0.0578
 3887WAT     H116268   3.199   5.185   6.429  1.1418  2.1430 -0.2105
 3887WAT     H216269   3.142   5.184   6.554  0.3112 -2.7848 -0.4469
 3887WAT    EPW16270   3.205   5.187   6.507  0.6005 -0.2155 -0.0564
 3888WAT      O16271   5.933   4.339   7.122 -0.1828  0.0926  0.3929
 3888WAT     H116272   5.998   4.394   7.101 -1.3238  1.7453  0.9794
 3888WAT     H216273   5.970   4.283   7.177  1.2918 -0.4235 -1.0585
 3888WAT    EPW16274   5.948   4.339   7.127 -0.1335  0.2605  0.2651
 3889WAT      O16275   5.345   5.502   7.391  0.0943  0.0670  0.2647
 3889WAT     H116276   5.349   5.425   7.350 -1.5455 -0.7844  1.6158
 3889WAT     H216277   5.333   5.559   7.325  2.0153 -0.6800 -0.8205
 3889WAT    EPW16278   5.344   5.499   7.375  0.1359 -0.1691  0.3040
 3890WAT      O16279   5.099   6.157   6.289 -0.1201  0.3152 -0.2443
 3890WAT     H116280   5.129   6.118   6.217 -0.4096  1.9625 -1.3205
 3890WAT     H216281   5.052   6.095   6.328 -1.1280 -0.2598 -2.2208
 3890WAT    EPW16282   5.096   6.142   6.284 -0.3118  0.4736 -0.6952
 3891WAT      O16283   5.566   4.866   7.165  0.1625 -0.4893  0.4125
 3891WAT     H116284   5.597   4.785   7.173  1.3624 -0.1083 -0.1353
 3891WAT     H216285   5.508   4.860   7.100  1.7446 -0.5453 -1.0692
 3891WAT    EPW16286   5.562   4.853   7.157  0.5735 -0.4413  0.1127
 3892WAT      O16287   4.736   7.182   4.981  0.0556 -0.3357  0.2622
 3892WAT     H116288   4.712   7.262   4.957  1.8361  0.0940 -0.2470
 3892WAT     H216289   4.745   7.140   4.905  1.1576 -0.3674  0.3903
 3892WAT    EPW16290   4.734   7.187   4.966  0.4814 -0.2769  0.2059
 3893WAT      O16291   3.609   4.825   7.383  0.1294 -0.2824  0.2963
 3893WAT     H116292   3.583   4.765   7.325 -0.6043 -0.1145  0.4360
 3893WAT     H216293   3.572   4.899   7.353 -0.6246 -0.2687  1.2096
 3893WAT    EPW16294   3.600   4.827   7.370 -0.0904 -0.2556  0.4519
 3894WAT      O16295   5.336   3.196   6.837  0.3048 -0.3618 -0.0225
 3894WAT     H116296   5.304   3.134   6.889  2.1905 -0.7559  0.7549
 3894WAT     H216297   5.268   3.249   6.824 -0.4256 -0.6381  2.2610
 3894WAT    EPW16298   5.321   3.194   6.843  0.4755 -0.4608  0.4296
 3895WAT      O16299   4.109   5.220   7.105 -0.2471 -0.2670 -0.8133
 3895WAT     H116300   4.157   5.199   7.175  1.1130  1.6103 -1.0961
 3895WAT     H216301   4.045   5.161   7.106  1.2043 -1.9448  0.4693
 3895WAT    EPW16302   4.106   5.208   7.116  0.1682 -0.2376 -0.6656
 3896WAT      O16303   4.334   6.448   7.183  0.4656  0.0173 -0.3434
 3896WAT     H116304   4.331   6.532   7.161  0.5949 -0.4979 -2.5703
 3896WAT     H216305   4.391   6.446   7.249 -0.7617  1.8444  0.8543
 3896WAT    EPW16306   4.342   6.460   7.190  0.3034  0.2111 -0.4955
 3897WAT      O16307   6.186   0.072   1.675 -0.3342 -0.0560  0.2233
 3897WAT     H116308   6.262   0.042   1.707  0.5816  2.4940  0.6412
 3897WAT     H216309   6.147   0.106   1.745 -1.0422  0.2679 -0.3201
 3897WAT    EPW16310   6.192   0.072   1.690 -0.3035  0.3685  0.2047
 3898WAT      O16311   4.994   4.779   0.147 -0.1870 -0.0337 -0.4263
 3898WAT     H116312   4.933   4.808   0.092  1.7704  0.0739 -2.6777
 3898WAT     H216313   5.009   4.697   0.121  2.6236  0.8381 -1.9429
 3898WAT    EPW16314   4.987   4.771   0.135  0.5173  0.1110 -0.9829
 3899WAT      O16315   4.277   5.083   5.764 -0.6197  0.1777  0.3026
 3899WAT     H116316   4.223   5.145   5.736 -0.4940  0.1319 -0.0462
 3899WAT     H216317   4.232   5.009   5.750 -0.8423  0.1973  0.8846
 3899WAT    EPW16318   4.262   5.081   5.757 -0.6340  0.1738  0.3371
 3900WAT      O16319   4.284   5.510   7.373  0.1795 -0.2187  0.4056
 3900WAT     H116320   4.232   5.571   7.408 -1.2611  0.7759 -3.0104
 3900WAT     H216321   4.355   5.555   7.348  0.6797 -0.6713  0.9901
 3900WAT    EPW16322   4.287   5.526   7.374  0.0406 -0.1386 -0.0126
 3901WAT      O16323   5.501   6.714   6.549 -0.0084  0.2406  0.1016
 3901WAT     H116324   5.505   6.642   6.500  0.0955 -0.1921  0.7414
 3901WAT     H216325   5.562   6.766   6.514  1.9712 -1.0731  1.3761
 3901WAT    EPW16326   5.511   6.711   6.537  0.2994 -0.0174  0.3844
 3902WAT      O16327   4.056   6.508   0.258  0.3816  0.3313 -0.0339
 3902WAT     H116328   3.978   6.471   0.268  1.1933 -1.2863  0.7287
 3902WAT     H216329   4.068   6.508   0.171 -0.4144  0.5241 -0.1489
 3902WAT    EPW16330   4.046   6.503   0.247  0.3840  0.1208  0.0617
 3903WAT      O16331   4.953   6.386   6.159 -0.1003  0.0271  0.0461
 3903WAT     H116332   5.011   6.325   6.183  0.3136  0.9088  1.3745
 3903WAT     H216333   4.992   6.461   6.178 -0.2506  0.7977 -2.3891
 3903WAT    EPW16334   4.967   6.388   6.165 -0.0613  0.2712 -0.1174
 3904WAT      O16335   3.880   6.435   6.521  0.3141  0.1872  0.1851
 3904WAT     H116336   3.864   6.378   6.457 -0.3566 -0.8350  1.2184
 3904WAT     H216337   3.938   6.489   6.486 -1.1666  0.6088 -1.8213
 3904WAT    EPW16338   3.886   6.434   6.506 -0.0037  0.0984  0.0413
 3905WAT      O16339   4.092   7.461   0.547 -0.0027 -0.2177 -0.4816
 3905WAT     H116340   4.086   7.540   0.584  1.0630  0.0377 -0.8290
 3905WAT     H216341   4.171   7.461   0.511  0.9476 -2.2393  1.3763
 3905WAT    EPW16342   4.102   7.473   0.547  0.2951 -0.4786 -0.2584
 3906WAT      O16343   4.697   5.271   0.502 -0.7336 -0.3045 -0.0431
 3906WAT     H116344   4.711   5.355   0.486  1.9062 -0.1321  2.3871
 3906WAT     H216345   4.611   5.266   0.514 -0.7048  2.6914  2.5543
 3906WAT    EPW16346   4.687   5.282   0.501 -0.3394  0.1635  0.6996
 3907WAT      O16347   3.722   6.241   5.004 -0.6244 -0.3554 -1.0467
 3907WAT     H116348   3.777   6.176   5.023  0.0961 -0.1762 -2.4305
 3907WAT     H216349   3.731   6.251   4.918 -0.8605  1.4627 -0.8926
 3907WAT    EPW16350   3.731   6.233   4.994 -0.5528 -0.0603 -1.2284
 3908WAT      O16351   4.307   6.528   6.070 -0.0148  0.0555  0.2051
 3908WAT     H116352   4.333   6.446   6.078  0.0669 -0.0576 -1.0907
 3908WAT     H216353   4.299   6.540   5.984 -0.7619  1.1705  0.3974
 3908WAT    EPW16354   4.310   6.518   6.059 -0.1131  0.2035  0.0421
 3909WAT      O16355   3.841   5.798   6.104 -0.2328 -0.0445  0.0992
 3909WAT     H116356   3.780   5.849   6.068  1.2233  1.7368  0.0140
 3909WAT     H216357   3.900   5.789   6.041  0.9739  0.7085  1.0744
 3909WAT    EPW16358   3.840   5.804   6.089  0.1606  0.3299  0.2307
 3910WAT      O16359   5.741   5.591   6.880  0.0711  0.0897  0.4385
 3910WAT     H116360   5.826   5.596   6.861 -0.2607  1.4808 -0.9001
 3910WAT     H216361   5.729   5.657   6.935  0.2213 -1.4199  2.3828
 3910WAT    EPW16362   5.752   5.601   6.885  0.0443  0.0722  0.5280
 3911WAT      O16363   5.632   6.024   5.214  0.1604  0.1600  0.4103
 3911WAT     H116364   5.632   5.952   5.264  1.0548 -0.2948 -0.2195
 3911WAT     H216365   5.625   6.089   5.271  2.1879 -0.2925  1.2422
 3911WAT    EPW16366   5.631   6.023   5.230  0.5920  0.0260  0.4402
 3912WAT      O16367   6.223   5.078   0.679  0.1600  0.2289 -0.1615
 3912WAT     H116368   6.288   5.020   0.688 -0.4646 -0.4146  0.3231
 3912WAT     H216369   6.198   5.094   0.762 -0.3864  0.3617 -0.3464
 3912WAT    EPW16370   6.229   5.072   0.693 -0.0130  0.1535 -0.1172
 3913WAT      O16371   6.368   5.534   5.828  0.1434 -0.1045  0.1555
 3913WAT     H116372   6.451   5.553   5.806 -0.6735  2.0110 -1.4379
 3913WAT     H216373   6.368   5.542   5.915  1.8640 -1.4862  0.3491
 3913WAT    EPW16374   6.380   5.538   5.838  0.2769  0.0039 -0.0513
 3914WAT      O16375   6.002   4.167   7.345 -0.2945  0.3462 -0.7293
 3914WAT     H116376   5.994   4.085   7.318 -0.7507 -0.2428  1.0286
 3914WAT     H216377   5.946   4.172   7.412  0.5859  1.7395 -0.0436
 3914WAT    EPW16378   5.992   4.155   7.351 -0.2318  0.4650 -0.3683
 3915WAT      O16379   6.970   5.355   6.986 -0.0672 -0.5984 -0.5258
 3915WAT     H116380   6.981   5.273   7.015 -1.8752 -1.0489 -0.9629
 3915WAT     H216381   6.886   5.372   7.004 -0.3242  0.3454 -2.3984
 3915WAT    EPW16382   6.960   5.345   6.993 -0.3722 -0.5255 -0.8670
 3916WAT      O16383   5.836   5.816   0.292  0.1564  0.3040  0.0445
 3916WAT     H116384   5.822   5.889   0.338 -0.9519 -0.1986  0.5301
 3916WAT     H216385   5.783   5.824   0.224  0.8573  0.4553 -0.4939
 3916WAT    EPW16386   5.826   5.828   0.289  0.0962  0.2521  0.0367
 3917WAT      O16387   2.316   7.101   0.555  0.1973  0.0088 -0.2609
 3917WAT     H116388   2.274   7.177   0.545 -0.5649 -0.3028  0.5279
 3917WAT     H216389   2.380   7.122   0.611 -1.7310 -0.5049  2.3148
 3917WAT    EPW16390   2.320   7.116   0.562 -0.2001 -0.1131  0.2361
 3918WAT      O16391   3.319   7.565   7.120  0.7282 -0.2692 -0.2741
 3918WAT     H116392   3.305   7.482   7.099  0.7953 -0.4193  0.2795
 3918WAT     H216393   3.357   7.561   7.198  0.9418  0.2702 -0.3449
 3918WAT    EPW16394   3.323   7.552   7.128  0.7696 -0.2117 -0.2027
 3919WAT      O16395   5.023   6.337   3.959 -0.2190  0.0099  0.4513
 3919WAT     H116396   5.098   6.365   3.994  0.3950 -0.0011 -0.7703
 3919WAT     H216397   5.049   6.277   3.901 -1.0823  0.6519 -0.6537
 3919WAT    EPW16398   5.038   6.332   3.955 -0.2558  0.1031  0.1076
 3920WAT      O16399   3.265   7.043   0.075  0.0775 -0.1836  0.6860
 3920WAT     H116400   3.263   7.123   0.038  0.4009 -1.0855 -1.4427
 3920WAT     H216401   3.223   6.994   0.017 -0.2909 -1.5566  2.0678
 3920WAT    EPW16402   3.258   7.048   0.061  0.0708 -0.5197  0.5756
 3921WAT      O16403   5.821   5.221   5.755 -0.5037  0.4152 -0.2771
 3921WAT     H116404   5.902   5.243   5.731 -0.2927  1.1327  0.9812
 3921WAT     H216405   5.806   5.272   5.824 -1.5827 -0.5397  0.2299
 3921WAT    EPW16406   5.831   5.232   5.762 -0.6320  0.3801 -0.0163
 3922WAT      O16407   4.881   5.535   5.742  0.2456 -0.7993  0.0668
 3922WAT     H116408   4.917   5.511   5.667 -1.9199  0.6774 -1.5771
 3922WAT     H216409   4.949   5.560   5.791  1.7069 -1.7382 -1.4173
 3922WAT    EPW16410   4.896   5.535   5.738  0.1416 -0.7199 -0.3953
 3923WAT      O16411   3.818   6.226   3.383 -0.8557  0.1270 -0.6408
 3923WAT     H116412   3.821   6.279   3.452 -0.7696  0.1669 -0.6751
 3923WAT     H216413   3.785   6.277   3.320  0.4202  0.5242 -1.0173
 3923WAT    EPW16414   3.814   6.241   3.384 -0.6545  0.1916 -0.7015
 3924WAT      O16415   4.601   6.571   3.127 -0.0464  0.0491  0.4351
 3924WAT     H116416   4.631   6.563   3.045 -0.8779 -1.0747  0.2144
 3924WAT     H216417   4.666   6.610   3.169  0.5678  0.2574 -0.6628
 3924WAT    EPW16418   4.615   6.576   3.121 -0.0785 -0.0862  0.2403
 3925WAT      O16419   3.733   5.550   3.396  0.2746 -0.2106 -0.2282
 3925WAT     H116420   3.734   5.478   3.348  0.2891  0.1047 -0.7044
 3925WAT     H216421   3.652   5.581   3.385  0.0826 -0.4464  0.4261
 3925WAT    EPW16422   3.721   5.544   3.387  0.2484 -0.1989 -0.2019
 3926WAT      O16423   5.825   6.105   3.926 -0.3009 -0.0301  0.2496
 3926WAT     H116424   5.871   6.043   3.885  0.6087  0.7249  0.1022
 3926WAT     H216425   5.879   6.132   3.989  0.1788  2.0467 -0.9659
 3926WAT    EPW16426   5.839   6.100   3.930 -0.0957  0.3882  0.0483
 3927WAT      O16427   3.709   6.411   3.156 -0.3272 -0.1956  0.0853
 3927WAT     H116428   3.681   6.493   3.146 -0.9467 -0.2804  0.9572
 3927WAT     H216429   3.673   6.369   3.089  0.8649  0.4339 -0.9810
 3927WAT    EPW16430   3.699   6.417   3.145 -0.2426 -0.1151  0.0566
 3928WAT      O16431   4.929   5.006   4.187  0.3952 -0.1502 -0.1810
 3928WAT     H116432   5.001   4.961   4.167  0.2401 -0.0085 -1.1280
 3928WAT     H216433   4.867   4.945   4.192  0.3231 -0.1259 -0.7412
 3928WAT    EPW16434   4.931   4.990   4.185  0.3616 -0.1257 -0.4036
 3929WAT      O16435   4.848   6.895   2.506 -0.3788 -0.0273 -0.0179
 3929WAT     H116436   4.877   6.819   2.475  0.1883 -0.0861  0.6533
 3929WAT     H216437   4.895   6.954   2.461 -1.0803 -0.0432 -0.8103
 3929WAT    EPW16438   4.859   6.892   2.495 -0.3986 -0.0384 -0.0358
 3930WAT      O16439   4.989   7.205   5.139  0.5273 -0.3764 -0.5586
 3930WAT     H116440   4.992   7.127   5.178  1.2561 -0.4915 -0.8432
 3930WAT     H216441   4.936   7.192   5.071  0.0705 -0.4349 -0.1949
 3930WAT    EPW16442   4.981   7.191   5.135  0.5674 -0.4021 -0.5469
 3931WAT      O16443   4.813   6.729   5.972 -0.2858  0.4044 -0.5456
 3931WAT     H116444   4.777   6.790   6.024  1.3741  1.2628 -0.3387
 3931WAT     H216445   4.820   6.770   5.895  0.2181  0.2563 -0.5840
 3931WAT    EPW16446   4.809   6.744   5.968  0.0338  0.5093 -0.5207
 3932WAT      O16447   4.711   6.628   3.969  0.3318  0.2813 -0.2965
 3932WAT     H116448   4.719   6.643   4.054 -2.1924  0.4160  0.0045
 3932WAT     H216449   4.658   6.692   3.942  0.6225 -0.0808 -1.8603
 3932WAT    EPW16450   4.704   6.640   3.977  0.0018  0.2477 -0.4830
 3933WAT      O16451   4.407   6.014   4.461 -0.3118 -0.2375 -0.1065
 3933WAT     H116452   4.448   6.002   4.384  0.8199  1.4302  0.1998
 3933WAT     H216453   4.327   5.982   4.446  0.4137 -1.5838 -1.4069
 3933WAT    EPW16454   4.402   6.007   4.447 -0.0374 -0.1900 -0.2534
 3934WAT      O16455   3.258   5.080   3.217 -0.6617 -0.9803  0.0507
 3934WAT     H116456   3.213   5.083   3.143  1.0452  0.0152 -1.0083
 3934WAT     H216457   3.304   5.006   3.210  1.9989  0.6781 -1.5230
 3934WAT    EPW16458   3.258   5.070   3.205 -0.0165 -0.5882 -0.3382
 3935WAT      O16459   4.946   5.938   4.904  0.1411 -0.0225 -0.0356
 3935WAT     H116460   4.950   6.021   4.931 -1.5446  0.0165  0.1601
 3935WAT     H216461   4.903   5.943   4.828  1.4400 -0.5660 -0.8506
 3935WAT    EPW16462   4.940   5.951   4.897  0.0840 -0.0971 -0.1271
 3936WAT      O16463   4.777   4.683   4.432  0.4520  0.3732 -0.1663
 3936WAT     H116464   4.696   4.653   4.448  0.1817  1.3206  0.2933
 3936WAT     H216465   4.802   4.717   4.508  1.0369  0.6685 -0.4822
 3936WAT    EPW16466   4.769   4.683   4.445  0.4985  0.5567 -0.1451
 3937WAT      O16467   4.225   7.144   3.591 -0.2519  0.5437  0.7831
 3937WAT     H116468   4.184   7.172   3.662  1.2892  1.4244  1.3878
 3937WAT     H216469   4.267   7.215   3.562 -1.0779  0.2831 -1.2047
 3937WAT    EPW16470   4.225   7.159   3.597 -0.1462  0.6353  0.5788
 3938WAT      O16471   4.292   5.444   4.868 -0.2321 -0.1451  0.3140
 3938WAT     H116472   4.330   5.423   4.793 -0.4426  1.4853 -0.2809
 3938WAT     H216473   4.269   5.367   4.902  0.0431 -0.9123 -1.1835
 3938WAT    EPW16474   4.294   5.429   4.862 -0.2225 -0.0176  0.0049
 3939WAT      O16475   4.764   5.725   5.259  0.3855 -0.2225  0.0740
 3939WAT     H116476   4.728   5.651   5.289  0.3451  0.0760  0.7706
 3939WAT     H216477   4.801   5.760   5.330 -0.3062  0.8444 -0.0791
 3939WAT    EPW16478   4.764   5.719   5.274  0.2774 -0.0208  0.1543
 3940WAT      O16479   4.462   5.736   3.835 -0.0188  0.6922  0.7069
 3940WAT     H116480   4.458   5.801   3.776 -1.7331  0.0577  0.0671
 3940WAT     H216481   4.479   5.666   3.786  0.7745  0.4763  1.2726
 3940WAT    EPW16482   4.464   5.735   3.819 -0.1548  0.5666  0.6959
 3941WAT      O16483   5.415   4.826   5.560  0.2838  0.0430  0.1607
 3941WAT     H116484   5.478   4.845   5.617 -0.4276 -0.1315  1.0271
 3941WAT     H216485   5.457   4.826   5.483  1.5111 -0.8232  0.7829
 3941WAT    EPW16486   5.431   4.829   5.557  0.3600 -0.1107  0.3806
 3942WAT      O16487   3.448   6.361   5.513 -0.1034 -0.0013 -0.4698
 3942WAT     H116488   3.430   6.347   5.597  1.5848  0.4000 -0.0132
 3942WAT     H216489   3.372   6.343   5.473 -0.5232 -1.6730  0.9603
 3942WAT    EPW16490   3.434   6.356   5.520  0.0840 -0.1889 -0.1911
 3943WAT      O16491   4.181   5.763   3.423  0.4589  0.0995  0.2711
 3943WAT     H116492   4.227   5.691   3.443 -0.8015 -0.4326  1.4043
 3943WAT     H216493   4.098   5.735   3.423  0.0932  0.9070 -2.2139
 3943WAT    EPW16494   4.176   5.748   3.426  0.2187  0.1402  0.0714
 3944WAT      O16495   4.677   1.324   4.482 -0.1450 -0.1381  0.7533
 3944WAT     H116496   4.685   1.237   4.487  0.1287 -0.2363 -1.0036
 3944WAT     H216497   4.605   1.340   4.530  0.7715 -1.1083  2.5397
 3944WAT    EPW16498   4.667   1.314   4.490  0.0308 -0.2959  0.7576
 3945WAT      O16499   4.712   5.753   3.983 -0.0113  0.5869 -0.2137
 3945WAT     H116500   4.705   5.671   4.013 -1.2827  0.0952 -1.7728
 3945WAT     H216501   4.636   5.768   3.943 -0.1216  2.8328  0.6555
 3945WAT    EPW16502   4.700   5.743   3.982 -0.2154  0.8461 -0.3156
 3946WAT      O16503   3.922   6.063   5.125 -0.3553  0.3912  0.1053
 3946WAT     H116504   3.909   5.991   5.077 -1.1802  0.2999  0.4350
 3946WAT     H216505   3.910   6.035   5.207 -3.5803  1.3947  0.1265
 3946WAT    EPW16506   3.918   6.048   5.130 -0.9535  0.5260  0.1571
 3947WAT      O16507   3.867   6.946   5.292 -0.3783 -0.2718 -0.3582
 3947WAT     H116508   3.939   6.968   5.335 -0.9481 -1.4540  1.2935
 3947WAT     H216509   3.884   6.866   5.263 -0.9954 -0.5515  0.0246
 3947WAT    EPW16510   3.880   6.938   5.294 -0.5536 -0.4878 -0.0576
 3948WAT      O16511   5.364   5.848   5.669  0.0992  0.3651  1.0295
 3948WAT     H116512   5.369   5.826   5.753  0.3159  1.6605  1.3693
 3948WAT     H216513   5.319   5.922   5.669  1.1144  1.0097  0.1265
 3948WAT    EPW16514   5.358   5.856   5.681  0.2812  0.6517  0.9463
 3949WAT      O16515   4.993   6.773   4.327 -0.0271 -0.1147 -0.2324
 3949WAT     H116516   5.019   6.690   4.325 -2.7291 -1.0676 -1.1785
 3949WAT     H216517   5.004   6.800   4.245  0.3324  0.2966 -0.0526
 3949WAT    EPW16518   4.998   6.764   4.315 -0.3731 -0.1947 -0.3456
 3950WAT      O16519   3.987   7.146   4.744  0.7998  0.1299  0.8532
 3950WAT     H116520   3.905   7.126   4.721  1.4862 -1.8714 -0.0805
 3950WAT     H216521   4.002   7.093   4.812  1.3085  0.5214  1.0494
 3950WAT    EPW16522   3.977   7.135   4.751  0.9764 -0.1079  0.7442
 3951WAT      O16523   4.435   0.418   4.971 -0.4759  0.4458 -0.2540
 3951WAT     H116524   4.501   0.458   5.012 -0.1670 -0.4661  0.1739
 3951WAT     H216525   4.429   0.461   4.896 -1.0780  2.1776  0.7400
 3951WAT    EPW16526   4.444   0.430   4.966 -0.5192  0.5669 -0.0439
 3952WAT      O16527   4.649   5.235   4.957 -1.0455 -0.4028 -0.0363
 3952WAT     H116528   4.625   5.188   4.888 -1.6757 -2.0916  1.2554
 3952WAT     H216529   4.585   5.221   5.015 -0.0888  0.1793  1.2246
 3952WAT    EPW16530   4.636   5.226   4.956 -0.9973 -0.5663  0.3408
 3953WAT      O16531   5.564   6.257   4.606  0.5496 -0.4998  0.3126
 3953WAT     H116532   5.531   6.198   4.661  1.1945 -0.4473  0.7529
 3953WAT     H216533   5.593   6.209   4.539  2.4863 -0.8484  1.3533
 3953WAT    EPW16534   5.563   6.241   4.604  0.9310 -0.5435  0.5314
 3954WAT      O16535   4.416   6.627   4.178 -0.4354  0.1026 -0.1653
 3954WAT     H116536   4.350   6.578   4.149  0.1255 -0.4530 -0.5324
 3954WAT     H216537   4.439   6.589   4.253  2.0039 -2.1974 -1.8621
 3954WAT    EPW16538   4.410   6.614   4.185  0.0078 -0.3192 -0.4702
 3955WAT      O16539   6.211   6.871   4.165 -0.4209  0.0744  0.6628
 3955WAT     H116540   6.261   6.819   4.214  1.0783 -0.3364 -1.1654
 3955WAT     H216541   6.218   6.949   4.204  0.5375 -0.2739  1.2260
 3955WAT    EPW16542   6.220   6.875   4.178 -0.0578 -0.0378  0.4759
 3956WAT      O16543   3.209   6.996   5.877 -0.2890 -0.2494  0.0956
 3956WAT     H116544   3.290   7.026   5.864 -0.9584  1.2096 -0.9644
 3956WAT     H216545   3.158   7.066   5.864 -1.8258 -1.4647 -0.8657
 3956WAT    EPW16546   3.213   7.011   5.873 -0.6149 -0.2134 -0.2030
 3957WAT      O16547   6.271   5.846   6.070 -0.0850  0.2970 -0.4409
 3957WAT     H116548   6.338   5.871   6.119  0.5195 -0.3563 -0.9133
 3957WAT     H216549   6.292   5.875   5.990 -0.4523  0.2424 -0.5596
 3957WAT    EPW16550   6.284   5.854   6.065 -0.0500  0.1924 -0.5282
 3958WAT      O16551   5.185   5.015   5.365  0.0320 -0.2916 -0.6661
 3958WAT     H116552   5.177   4.929   5.374  2.0563 -0.3431  1.5340
 3958WAT     H216553   5.106   5.040   5.338 -0.4550 -2.8587 -1.8975
 3958WAT    EPW16554   5.172   5.006   5.362  0.2591 -0.6784 -0.5230
 3959WAT      O16555   6.278   6.648   3.559  0.1324 -0.1202  0.2257
 3959WAT     H116556   6.310   6.716   3.514 -0.6165  0.4294  0.5017
 3959WAT     H216557   6.201   6.677   3.588 -1.0166 -1.6696 -1.1085
 3959WAT    EPW16558   6.271   6.662   3.557 -0.1479 -0.2679  0.0694
 3960WAT      O16559   6.323   6.218   3.148 -0.7004  0.4931  0.0895
 3960WAT     H116560   6.356   6.208   3.227 -3.3321  0.2537  1.2698
 3960WAT     H216561   6.333   6.304   3.132  0.6018  0.3899  0.2779
 3960WAT    EPW16562   6.329   6.230   3.157 -0.8968  0.4425  0.2917
 3961WAT      O16563   4.264   7.209   4.276  0.6210 -0.6675  0.3171
 3961WAT     H116564   4.271   7.282   4.325  1.1956 -0.6815  0.2668
 3961WAT     H216565   4.269   7.239   4.194  2.0282 -0.8637  0.3128
 3961WAT    EPW16566   4.266   7.225   4.271  0.9138 -0.6986  0.3090
 3962WAT      O16567   5.168   4.630   3.482  0.1992  0.3981 -0.3446
 3962WAT     H116568   5.255   4.636   3.488  0.1873  1.3111 -0.9360
 3962WAT     H216569   5.156   4.573   3.417  0.3597  0.5834 -0.5387
 3962WAT    EPW16570   5.179   4.622   3.473  0.2212  0.5603 -0.4606
 3963WAT      O16571   2.324   7.050   5.532  0.3037  0.8411 -0.2261
 3963WAT     H116572   2.349   7.021   5.454 -1.5839  0.9145 -0.9094
 3963WAT     H216573   2.282   7.124   5.514  0.0351  0.9742  0.8810
 3963WAT    EPW16574   2.322   7.056   5.518 -0.0148  0.8716 -0.1635
 3964WAT      O16575   4.467   4.321   4.791 -0.6877 -0.5951 -0.0499
 3964WAT     H116576   4.518   4.302   4.723 -1.1527 -0.3326 -0.4774
 3964WAT     H216577   4.524   4.336   4.855 -0.2504 -1.0375 -0.3270
 3964WAT    EPW16578   4.483   4.320   4.790 -0.6918 -0.6217 -0.1540
 3965WAT      O16579   4.836   6.377   4.776 -0.5470 -0.1533  0.1350
 3965WAT     H116580   4.878   6.314   4.820  2.4191  1.8462  0.5496
 3965WAT     H216581   4.859   6.450   4.819 -1.7727  1.4336 -1.7159
 3965WAT    EPW16582   4.846   6.379   4.789 -0.2899  0.3765 -0.0771
 3966WAT      O16583   4.026   6.994   5.002 -0.1891  0.0655  0.4535
 3966WAT     H116584   4.077   6.924   4.994  1.2407  1.1695 -0.7111
 3966WAT     H216585   4.034   7.016   5.086 -0.1806 -0.8277  0.6908
 3966WAT    EPW16586   4.035   6.987   5.013  0.0234  0.0967  0.3165
 3967WAT      O16587   5.538   7.388   5.760  0.0367  0.0394  0.2478
 3967WAT     H116588   5.531   7.330   5.825  2.5103  0.1699  0.7249
 3967WAT     H216589   5.528   7.340   5.688  0.2222 -0.6448  0.6739
 3967WAT    EPW16590   5.535   7.373   5.759  0.4295 -0.0424  0.3812
 3968WAT      O16591   3.417   5.967   3.920 -0.9277 -0.1297  0.1253
 3968WAT     H116592   3.383   5.913   3.980  1.0306  0.4838  1.8987
 3968WAT     H216593   3.465   5.914   3.869  1.1363 -0.1775  1.9681
 3968WAT    EPW16594   3.419   5.951   3.921 -0.3335 -0.0461  0.6595
 3969WAT      O16595   5.035   6.095   5.947 -0.1666 -0.5732 -0.2177
 3969WAT     H116596   5.074   6.089   5.869 -1.5387 -3.3061 -0.8321
 3969WAT     H216597   4.985   6.166   5.939 -0.9252 -1.2343 -2.2314
 3969WAT    EPW16598   5.033   6.105   5.934 -0.4814 -1.0746 -0.6059
 3970WAT      O16599   6.098   5.538   6.217 -0.5159  0.4033 -0.0913
 3970WAT     H116600   6.077   5.453   6.214 -0.3836  0.2780  1.5554
 3970WAT     H216601   6.037   5.572   6.269 -0.3082  1.2308 -0.3840
 3970WAT    EPW16602   6.086   5.530   6.224 -0.4657  0.5070  0.1087
 3971WAT      O16603   4.090   5.775   3.913  0.1364 -0.8245 -0.4923
 3971WAT     H116604   4.125   5.698   3.935  0.1877 -0.8448 -0.6455
 3971WAT     H216605   4.121   5.829   3.973  2.1054 -0.4192 -1.7725
 3971WAT    EPW16606   4.100   5.771   3.925  0.4348 -0.7676 -0.7041
 3972WAT      O16607   4.491   6.530   4.431  0.0845  0.3869 -0.1111
 3972WAT     H116608   4.472   6.451   4.398 -0.8393 -0.0024  1.2689
 3972WAT     H216609   4.431   6.541   4.494  1.8165  1.0302  1.5192
 3972WAT    EPW16610   4.479   6.520   4.435  0.2039  0.4244  0.3336
 3973WAT      O16611   4.386   5.354   4.603  0.2957 -0.0450  0.5962
 3973WAT     H116612   4.309   5.381   4.571  0.5593  0.6295  0.5188
 3973WAT     H216613   4.370   5.271   4.625 -0.5074  0.1346  0.7495
 3973WAT    EPW16614   4.372   5.345   4.602  0.2160  0.0812  0.6074
 3974WAT      O16615   3.452   6.663   5.138 -0.6099  0.3384 -0.3292
 3974WAT     H116616   3.405   6.705   5.078  0.2503  0.4488 -0.9569
 3974WAT     H216617   3.503   6.611   5.090 -1.5144 -1.3090  0.4072
 3974WAT    EPW16618   3.453   6.661   5.122 -0.6164  0.1113 -0.3131
 3975WAT      O16619   4.123   7.077   5.257 -0.4005 -0.0686 -0.5657
 3975WAT     H116620   4.161   7.132   5.201 -1.1676  2.4263  1.1595
 3975WAT     H216621   4.184   7.016   5.270  0.7024  0.5903 -2.2296
 3975WAT    EPW16622   4.138   7.076   5.251 -0.3509  0.3973 -0.5566
 3976WAT      O16623   4.962   5.149   3.959  0.6993 -0.3828  0.4422
 3976WAT     H116624   5.046   5.151   3.983  1.2211 -2.2644 -1.0055
 3976WAT     H216625   4.922   5.114   4.028  0.5619  2.8645  2.2269
 3976WAT    EPW16626   4.968   5.144   3.973  0.7561 -0.1810  0.4920
 3977WAT      O16627   4.289   7.276   2.988  0.0601  0.3658 -0.4038
 3977WAT     H116628   4.350   7.255   2.928 -0.5961 -0.0423 -0.9451
 3977WAT     H216629   4.312   7.356   3.013  1.5981 -0.2736  0.3968
 3977WAT    EPW16630   4.301   7.285   2.983  0.1903  0.2110 -0.3655
 3978WAT      O16631   5.290   6.122   3.798 -0.5158 -0.3140 -0.1789
 3978WAT     H116632   5.292   6.085   3.878  1.5809  0.2345  0.0696
 3978WAT     H216633   5.362   6.171   3.796 -1.4355  1.0721 -1.7894
 3978WAT    EPW16634   5.301   6.124   3.810 -0.3420 -0.0282 -0.3801
 3979WAT      O16635   4.416   6.171   4.837 -0.2467  0.4800 -0.2133
 3979WAT     H116636   4.406   6.098   4.884  0.0864 -0.2437 -1.2522
 3979WAT     H216637   4.344   6.173   4.787  0.4131  0.1138 -1.1858
 3979WAT    EPW16638   4.404   6.160   4.837 -0.1000  0.3190 -0.5104
 3980WAT      O16639   4.423   5.734   4.127 -0.4799 -0.0258 -0.5032
 3980WAT     H116640   4.427   5.689   4.052  1.9803  0.0072 -0.4731
 3980WAT     H216641   4.429   5.672   4.188 -1.1427  0.0572 -0.3459
 3980WAT    EPW16642   4.424   5.718   4.125 -0.2144 -0.0087 -0.4755
 3981WAT      O16643   6.477   4.742   3.474 -0.4659 -0.2961 -0.5900
 3981WAT     H116644   6.441   4.816   3.502 -0.7762 -0.5583 -0.3035
 3981WAT     H216645   6.433   4.680   3.516  0.4847 -0.6148 -0.0322
 3981WAT    EPW16646   6.465   4.744   3.484 -0.3713 -0.3819 -0.4653
 3982WAT      O16647   4.935   5.944   3.675 -0.6881  0.2596  0.2422
 3982WAT     H116648   4.854   5.943   3.642 -0.8667 -0.9711  0.6833
 3982WAT     H216649   4.985   5.921   3.607 -0.7074  0.8691  0.0116
 3982WAT    EPW16650   4.931   5.940   3.660 -0.7173  0.1678  0.2733
 3983WAT      O16651   3.510   6.684   4.612  0.4265  0.0301  0.0274
 3983WAT     H116652   3.570   6.741   4.638  0.0289  0.3894  0.1627
 3983WAT     H216653   3.458   6.675   4.681  0.8563 -0.9936  0.2256
 3983WAT    EPW16654   3.511   6.691   4.626  0.4312 -0.0681  0.0767
 3984WAT      O16655   5.390   5.518   5.887 -0.1054  0.1510 -0.5588
 3984WAT     H116656   5.342   5.458   5.846 -0.1007  0.4125 -0.9506
 3984WAT     H216657   5.416   5.478   5.960 -0.9320  0.0038 -0.3350
 3984WAT    EPW16658   5.386   5.503   5.892 -0.2268  0.1679 -0.5837
 3985WAT      O16659   4.210   5.886   4.123 -0.0141  0.0118  0.4790
 3985WAT     H116660   4.235   5.961   4.085 -0.2568  0.0390  0.3679
 3985WAT     H216661   4.280   5.835   4.115 -0.1877 -0.1213 -0.3884
 3985WAT    EPW16662   4.224   5.889   4.116 -0.0756 -0.0038  0.3345
 3986WAT      O16663   5.472   4.113   2.990  0.3943 -0.3979 -0.3264
 3986WAT     H116664   5.436   4.190   2.971 -1.0617 -0.8240  0.5579
 3986WAT     H216665   5.471   4.111   3.077 -1.4666 -2.2224 -0.3229
 3986WAT    EPW16666   5.467   4.124   3.000 -0.0957 -0.7304 -0.1952
 3987WAT      O16667   3.666   7.527   4.865  0.0619  0.5193 -0.3264
 3987WAT     H116668   3.638   7.517   4.947 -0.3620 -0.1456 -0.5433
 3987WAT     H216669   3.680   7.445   4.838 -0.0030  0.7195 -0.9845
 3987WAT    EPW16670   3.664   7.513   4.873 -0.0103  0.4506 -0.4556
 3988WAT      O16671   3.249   7.079   4.326 -0.4085  0.2659 -0.2820
 3988WAT     H116672   3.230   7.112   4.404 -1.8027 -0.8000 -0.1294
 3988WAT     H216673   3.336   7.069   4.328 -0.2196  1.8707  0.4522
 3988WAT    EPW16674   3.259   7.082   4.338 -0.5865  0.3455 -0.1510
 3989WAT      O16675   4.024   6.846   4.657 -0.1897  0.0494  0.1071
 3989WAT     H116676   4.026   6.763   4.629  1.5776 -1.1104  3.1766
 3989WAT     H216677   4.102   6.877   4.634  0.6139 -0.3913  2.0689
 3989WAT    EPW16678   4.036   6.838   4.649  0.1901 -0.1870  0.8504
 3990WAT      O16679   4.331   6.278   4.529  0.5078 -0.3538  0.4951
 3990WAT     H116680   4.280   6.216   4.564 -0.4119  0.9528  1.5621
 3990WAT     H216681   4.395   6.233   4.490 -2.0962 -2.1754 -2.1027
 3990WAT    EPW16682   4.333   6.262   4.528 -0.0127 -0.4299  0.2689
 3991WAT      O16683   4.151   6.251   4.305 -0.0956 -0.0261  0.3252
 3991WAT     H116684   4.194   6.244   4.229 -0.6341 -0.3987  0.0525
 3991WAT     H216685   4.215   6.267   4.363  0.3099  0.3594 -0.2134
 3991WAT    EPW16686   4.167   6.252   4.302 -0.1152 -0.0242  0.2054
 3992WAT      O16687   3.720   6.390   4.222 -0.2466 -1.0072 -0.2882
 3992WAT     H116688   3.704   6.388   4.137  0.9953  1.3550 -0.6585
 3992WAT     H216689   3.743   6.473   4.237  0.0858 -1.4689  2.2551
 3992WAT    EPW16690   3.721   6.402   4.212 -0.0141 -0.7265  0.0328
 3993WAT      O16691   4.120   5.944   4.447  0.7673  0.4311 -0.9097
 3993WAT     H116692   4.135   5.962   4.363 -1.2876  1.0020 -1.1917
 3993WAT     H216693   4.041   5.907   4.447  0.3830  1.1283  0.8437
 3993WAT    EPW16694   4.111   5.941   4.435  0.4070  0.6184 -0.6923
 3994WAT      O16695   5.601   7.186   5.935  0.3769 -0.2416 -0.2443
 3994WAT     H116696   5.524   7.148   5.949 -0.5271  1.7574  0.6044
 3994WAT     H216697   5.619   7.225   6.011  2.1091 -0.4324 -0.5144
 3994WAT    EPW16698   5.592   7.186   5.948  0.4993  0.0255 -0.1588
 3995WAT      O16699   4.244   5.628   4.480 -0.4259  0.0449 -0.1312
 3995WAT     H116700   4.204   5.705   4.469 -0.5377  0.3049  1.7906
 3995WAT     H216701   4.178   5.572   4.489 -0.3660 -0.4952 -2.3297
 3995WAT    EPW16702   4.228   5.631   4.479 -0.4336  0.0036 -0.1721
 3996WAT      O16703   4.620   5.321   3.675  0.4255 -0.2738  0.1813
 3996WAT     H116704   4.680   5.350   3.731 -0.4533  2.3061 -0.0452
 3996WAT     H216705   4.664   5.316   3.599  0.4511  1.5199  0.0305
 3996WAT    EPW16706   4.635   5.325   3.672  0.2995  0.3722  0.1256
 3997WAT      O16707   4.501   5.550   3.615 -0.1383  0.0102 -0.0531
 3997WAT     H116708   4.525   5.470   3.639 -0.8902 -0.2146 -0.0136
 3997WAT     H216709   4.441   5.536   3.553  0.4528  0.5622 -0.7690
 3997WAT    EPW16710   4.496   5.536   3.609 -0.1621  0.0585 -0.1530
 3998WAT      O16711   5.153   4.897   5.070  0.1244 -0.1299 -0.1369
 3998WAT     H116712   5.199   4.828   5.098  0.8513 -0.2116 -1.4627
 3998WAT     H216713   5.146   4.883   4.984  1.5367  2.1313 -0.6971
 3998WAT    EPW16714   5.159   4.885   5.061  0.4404  0.1921 -0.4155
 3999WAT      O16715   4.185   5.325   4.214  0.2562 -0.3777  0.0371
 3999WAT     H116716   4.186   5.362   4.136 -1.2553  1.6005  0.8836
 3999WAT     H216717   4.144   5.249   4.200 -0.5797  0.2331 -0.9926
 3999WAT    EPW16718   4.179   5.319   4.201 -0.0906  0.0047  0.0100
 4000WAT      O16719   4.595   5.196   4.456 -0.1544 -0.5202  0.1360
 4000WAT     H116720   4.574   5.161   4.379  0.6524  1.5692 -1.1267
 4000WAT     H216721   4.526   5.246   4.475  0.2778  0.1546 -0.0247
 4000WAT    EPW16722   4.582   5.198   4.447  0.0287 -0.1118 -0.0743
 4001WAT      O16723   5.413   5.038   4.190  0.4739 -0.6758 -0.1250
 4001WAT     H116724   5.494   5.031   4.223  0.8337  0.2538 -0.7741
 4001WAT     H216725   5.370   4.973   4.229  2.3334 -3.4074 -2.1695
 4001WAT    EPW16726   5.419   5.028   4.200  0.8017 -0.9420 -0.5229
 4002WAT      O16727   4.344   4.395   3.689  0.3370  0.4896  0.7479
 4002WAT     H116728   4.328   4.310   3.700  1.4103  0.2153  0.3881
 4002WAT     H216729   4.283   4.435   3.737 -0.7343 -0.4590  0.1871
 4002WAT    EPW16730   4.333   4.389   3.698  0.3373  0.3089  0.6119
 4003WAT      O16731   3.742   6.302   4.751  0.0673  0.3774  0.3700
 4003WAT     H116732   3.695   6.373   4.733  0.3595  0.1525 -1.4928
 4003WAT     H216733   3.824   6.333   4.757  0.3290  0.0994 -1.4152
 4003WAT    EPW16734   3.747   6.317   4.749  0.1491  0.3031 -0.1689
 4004WAT      O16735   6.390   5.974   7.070  0.0369  0.0073  0.3254
 4004WAT     H116736   6.316   5.931   7.088 -0.2836  0.0722 -0.7547
 4004WAT     H216737   6.389   5.981   6.983  0.4053  1.6131  0.4207
 4004WAT    EPW16738   6.379   5.969   7.060  0.0439  0.2541  0.1799
 4005WAT      O16739   4.672   6.682   4.608  0.7024 -0.0762 -0.1322
 4005WAT     H116740   4.629   6.625   4.558  1.7764 -0.0405 -1.1299
 4005WAT     H216741   4.611   6.741   4.629  0.3943  0.3868 -2.1330
 4005WAT    EPW16742   4.656   6.683   4.604  0.8155 -0.0025 -0.5751
 4006WAT      O16743   4.984   6.787   3.624 -0.4741  0.0911  0.1475
 4006WAT     H116744   4.976   6.740   3.551 -1.5628 -0.8903  0.8797
 4006WAT     H216745   4.992   6.727   3.686  0.3660  0.9193  0.8644
 4006WAT    EPW16746   4.984   6.772   3.622 -0.5108  0.0685  0.3615
 4007WAT      O16747   4.422   5.487   3.993  0.3445  0.3336 -0.2561
 4007WAT     H116748   4.407   5.402   3.976  0.5886 -0.1945  1.8580
 4007WAT     H216749   4.507   5.490   4.011  0.3116  1.0143 -0.1877
 4007WAT    EPW16750   4.432   5.475   3.993  0.3757  0.3561  0.0663
 4008WAT      O16751   4.638   6.506   5.398 -0.2413  0.2663  0.0493
 4008WAT     H116752   4.594   6.430   5.400  1.4205 -0.7392  1.7100
 4008WAT     H216753   4.583   6.563   5.435 -0.8936 -0.4923  0.2775
 4008WAT    EPW16754   4.623   6.503   5.403 -0.0922  0.0057  0.3283
 4009WAT      O16755   5.091   5.182   4.780  0.1804  0.0131 -0.1442
 4009WAT     H116756   5.177   5.199   4.783  0.0480  1.0079 -1.4464
 4009WAT     H216757   5.055   5.261   4.779 -0.7672 -0.3998  0.4114
 4009WAT    EPW16758   5.099   5.196   4.781  0.0208  0.0991 -0.2545
 4010WAT      O16759   4.270   0.568   4.587  0.4235  0.3908 -0.1148
 4010WAT     H116760   4.205   0.542   4.637 -0.0695  0.2804 -0.7957
 4010WAT     H216761   4.337   0.517   4.610  0.1055  0.1095  0.1716
 4010WAT    EPW16762   4.271   0.557   4.598  0.3037  0.3329 -0.1731
 4011WAT      O16763   6.526   5.490   4.248  0.5075 -0.2946  0.2488
 4011WAT     H116764   6.542   5.521   4.168 -0.7168 -0.8511 -0.2392
 4011WAT     H216765   6.602   5.452   4.271  0.1012 -2.5663 -1.8177
 4011WAT    EPW16766   6.540   5.489   4.240  0.2667 -0.7124 -0.1286
 4012WAT      O16767   3.722   0.144   3.416  0.3191  0.2311  0.1179
 4012WAT     H116768   3.769   0.082   3.378 -0.8589 -0.3219 -0.4507
 4012WAT     H216769   3.782   0.204   3.437  1.1879 -0.0973 -1.2937
 4012WAT    EPW16770   3.738   0.144   3.414  0.2734  0.1009 -0.1746
 4013WAT      O16771   4.351   5.353   5.249 -0.2083  0.1431  0.2088
 4013WAT     H116772   4.267   5.329   5.240  0.1293 -0.8080 -0.6516
 4013WAT     H216773   4.347   5.440   5.251 -1.2798  0.0963  0.9881
 4013WAT    EPW16774   4.338   5.363   5.248 -0.3167 -0.0043  0.1968
 4014WAT      O16775   5.328   6.315   5.355 -0.1167 -0.7552  0.1743
 4014WAT     H116776   5.299   6.263   5.291 -1.3122  0.3780 -0.2430
 4014WAT     H216777   5.265   6.308   5.416 -0.9825  1.1829 -0.4379
 4014WAT    EPW16778   5.314   6.306   5.354 -0.4212 -0.3015  0.0222
 4015WAT      O16779   5.437   5.026   6.553 -0.6785  0.7983 -0.3743
 4015WAT     H116780   5.508   4.986   6.583 -0.6993  0.0837 -1.2507
 4015WAT     H216781   5.380   4.961   6.542 -1.2157  1.2654 -0.3990
 4015WAT    EPW16782   5.439   5.011   6.556 -0.7610  0.7618 -0.5074
 4016WAT      O16783   3.935   5.649   3.222  0.3749 -0.3069 -0.1055
 4016WAT     H116784   3.863   5.627   3.266  0.1651 -1.0121 -0.7765
 4016WAT     H216785   3.926   5.607   3.146  1.2382  0.0298 -0.4043
 4016WAT    EPW16786   3.923   5.639   3.217  0.4714 -0.3614 -0.2487
 4017WAT      O16787   4.840   5.334   4.494 -0.0039 -0.6603  0.3359
 4017WAT     H116788   4.891   5.265   4.480  0.0006 -0.9926  1.7898
 4017WAT     H216789   4.760   5.300   4.498  0.0315 -0.6583  1.3998
 4017WAT    EPW16790   4.836   5.319   4.493  0.0020 -0.7091  0.7078
 4018WAT      O16791   5.451   6.370   3.219 -0.2935  0.4860  0.2452
 4018WAT     H116792   5.409   6.430   3.172  0.9883  1.4638  0.2624
 4018WAT     H216793   5.526   6.358   3.175  0.0558 -0.0922  0.9658
 4018WAT    EPW16794   5.456   6.377   3.206 -0.0525  0.5451  0.3542
 4019WAT      O16795   4.627   6.077   3.928  0.2334 -0.1809 -0.3331
 4019WAT     H116796   4.612   6.027   3.858 -1.9793  0.1354 -0.1638
 4019WAT     H216797   4.642   6.156   3.895 -0.7464 -0.0457 -0.4968
 4019WAT    EPW16798   4.627   6.081   3.913 -0.2382 -0.1142 -0.3323
 4020WAT      O16799   5.461   4.977   4.911  0.3031  0.3421  0.1617
 4020WAT     H116800   5.547   4.972   4.897 -0.0118 -1.1705 -1.8057
 4020WAT     H216801   5.427   4.961   4.832 -1.7960 -0.2076  1.1074
 4020WAT    EPW16802   5.469   4.974   4.897 -0.0535  0.0374  0.0108
 4021WAT      O16803   4.366   7.534   3.086  0.0527  0.0464 -0.1531
 4021WAT     H116804   4.419   7.539   3.155 -0.3745 -0.8357  0.2620
 4021WAT     H216805   4.308   7.598   3.100  0.3285  0.2728 -0.0223
 4021WAT    EPW16806   4.366   7.544   3.099  0.0304 -0.0505 -0.0724
 4022WAT      O16807   4.746   5.727   4.985  0.1318 -1.1634 -0.3188
 4022WAT     H116808   4.816   5.779   4.980  0.9031 -2.1127  0.3435
 4022WAT     H216809   4.733   5.718   5.071 -0.0413 -1.9816 -0.4208
 4022WAT    EPW16810   4.754   5.733   4.997  0.2201 -1.4245 -0.2360
 4023WAT      O16811   4.796   7.519   4.390  0.1754 -0.5305 -0.2102
 4023WAT     H116812   4.816   7.603   4.376  3.6580 -1.0053  0.8292
 4023WAT     H216813   4.744   7.498   4.323 -0.5873  2.3309 -0.6423
 4023WAT    EPW16814   4.791   7.528   4.378  0.5772 -0.1779 -0.1205
 4024WAT      O16815   5.558   6.223   3.866 -0.1908  0.0621 -0.5424
 4024WAT     H116816   5.564   6.309   3.854  0.4423  0.0729 -0.2434
 4024WAT     H216817   5.641   6.198   3.873 -0.4016 -0.3118  1.0517
 4024WAT    EPW16818   5.571   6.232   3.866 -0.1284  0.0085 -0.2628
 4025WAT      O16819   6.307   5.440   5.017 -0.4802 -0.5365 -0.2134
 4025WAT     H116820   6.285   5.468   4.937 -1.0089 -0.1450  0.0640
 4025WAT     H216821   6.339   5.360   5.003 -0.6644 -0.5097 -0.8041
 4025WAT    EPW16822   6.308   5.432   5.003 -0.5855 -0.4747 -0.2597
 4026WAT      O16823   4.367   6.235   3.695  0.0106  0.6477  0.8763
 4026WAT     H116824   4.353   6.313   3.658 -0.1033  0.0651 -0.3843
 4026WAT     H216825   4.292   6.217   3.734 -0.6311  0.3681 -0.4224
 4026WAT    EPW16826   4.354   6.244   3.695 -0.1010  0.5203  0.4982
 4027WAT      O16827   3.925   5.776   5.096 -0.2109  0.4062 -0.3857
 4027WAT     H116828   3.996   5.772   5.147 -0.0064 -2.3067 -0.7722
 4027WAT     H216829   3.940   5.717   5.034 -2.9731 -0.6103 -0.2336
 4027WAT    EPW16830   3.937   5.767   5.095 -0.5887 -0.1447 -0.4203
 4028WAT      O16831   5.851   5.438   4.378 -0.4489  0.3561 -0.7252
 4028WAT     H116832   5.926   5.470   4.347  0.5492 -0.7761  0.4018
 4028WAT     H216833   5.864   5.437   4.465  0.2202 -4.2648 -0.6168
 4028WAT    EPW16834   5.864   5.443   4.386 -0.2026 -0.4938 -0.5427
 4029WAT      O16835   5.988   5.902   3.846 -0.2093  0.1737 -0.2732
 4029WAT     H116836   5.958   5.835   3.799 -0.4738 -0.7251  1.1293
 4029WAT     H216837   6.071   5.909   3.820  0.0806 -1.2861  0.1766
 4029WAT    EPW16838   5.996   5.893   3.835 -0.2055 -0.1747  0.0004
 4030WAT      O16839   6.015   5.598   7.130 -0.2363 -0.3469  0.0448
 4030WAT     H116840   5.932   5.622   7.139 -0.2276 -0.5164  0.6037
 4030WAT     H216841   6.013   5.511   7.139  0.1763 -0.2357  1.5151
 4030WAT    EPW16842   6.003   5.589   7.133 -0.1741 -0.3555  0.3446
 4031WAT      O16843   5.498   6.854   3.586 -0.0051  0.0269  0.1374
 4031WAT     H116844   5.521   6.937   3.577  0.3518 -0.2671 -2.5542
 4031WAT     H216845   5.508   6.821   3.505  1.1344 -2.9466  1.3417
 4031WAT    EPW16846   5.503   6.861   3.573  0.2160 -0.4558 -0.0823
 4032WAT      O16847   4.363   4.610   5.045 -0.0600 -0.1316 -0.2864
 4032WAT     H116848   4.350   4.564   5.118 -2.7092  0.4831 -0.2860
 4032WAT     H216849   4.318   4.683   5.058 -1.3999 -0.3725 -2.8558
 4032WAT    EPW16850   4.354   4.614   5.057 -0.6493 -0.0764 -0.6659
 4033WAT      O16851   5.337   5.294   4.686 -0.4412 -0.2149 -0.7637
 4033WAT     H116852   5.407   5.301   4.736  0.2537 -0.8481 -1.6185
 4033WAT     H216853   5.334   5.371   4.644 -2.0494  1.0570  1.4515
 4033WAT    EPW16854   5.347   5.307   4.687 -0.5761 -0.1205 -0.5628
 4034WAT      O16855   4.807   6.327   3.559 -0.6209  0.1015  0.0951
 4034WAT     H116856   4.880   6.301   3.598 -0.8914 -0.5361  0.1975
 4034WAT     H216857   4.752   6.341   3.625 -0.6357  0.4405  0.0119
 4034WAT    EPW16858   4.809   6.325   3.574 -0.6630  0.0574  0.0979
 4035WAT      O16859   4.996   4.917   3.766  0.1543 -0.2036  0.3117
 4035WAT     H116860   4.946   4.971   3.813  0.5009  0.2691  0.1467
 4035WAT     H216861   5.044   4.970   3.717 -0.6162 -0.6967 -1.0416
 4035WAT    EPW16862   4.996   4.932   3.766  0.0917 -0.2066  0.0874
 4036WAT      O16863   6.569   5.300   6.834  0.0570 -0.0895  0.3923
 4036WAT     H116864   6.490   5.337   6.846 -0.0079 -0.3316  0.7258
 4036WAT     H216865   6.616   5.334   6.899  0.4099  0.5425 -0.1745
 4036WAT    EPW16866   6.564   5.311   6.846  0.0995 -0.0319  0.3578
 4037WAT      O16867   4.964   5.981   4.372  0.3926  0.3328  0.1203
 4037WAT     H116868   5.016   5.917   4.400 -0.5771 -0.9832 -0.9620
 4037WAT     H216869   4.921   6.006   4.443  0.9383 -0.0557  0.5947
 4037WAT    EPW16870   4.966   5.975   4.386  0.3300  0.0810  0.0305
 4038WAT      O16871   2.996   6.599   5.082 -0.2358  0.1334 -0.4834
 4038WAT     H116872   3.023   6.660   5.025  1.7697 -0.6891 -0.4517
 4038WAT     H216873   3.067   6.581   5.129 -1.2708 -0.9096  0.7491
 4038WAT    EPW16874   3.010   6.605   5.080 -0.0924 -0.1422 -0.2966
 4039WAT      O16875   4.535   6.842   4.023 -0.1002  0.4359 -0.2131
 4039WAT     H116876   4.497   6.789   4.081 -0.2091 -1.0808 -1.6145
 4039WAT     H216877   4.468   6.889   3.991 -1.0917 -2.4323 -2.8935
 4039WAT    EPW16878   4.519   6.841   4.027 -0.2628 -0.2118 -0.8160
 4040WAT      O16879   4.036   5.446   5.908 -0.1248 -0.2475 -0.2201
 4040WAT     H116880   4.009   5.427   5.827 -1.0235  0.2130 -0.0433
 4040WAT     H216881   4.036   5.533   5.910  2.1775 -0.1662 -0.4457
 4040WAT    EPW16882   4.032   5.456   5.896  0.0826 -0.1674 -0.2273
 4041WAT      O16883   5.255   5.694   6.390 -0.2782 -0.3140 -0.7701
 4041WAT     H116884   5.291   5.619   6.364 -1.3333 -0.5653 -1.6184
 4041WAT     H216885   5.171   5.686   6.365 -0.6823  0.6544  0.1988
 4041WAT    EPW16886   5.248   5.682   6.382 -0.4937 -0.2081 -0.7523
 4042WAT      O16887   4.151   5.905   3.686 -0.2582 -0.3360  0.2364
 4042WAT     H116888   4.123   5.859   3.618 -1.1389  0.7916 -0.1933
 4042WAT     H216889   4.116   5.864   3.754  0.1413 -1.1197 -0.0116
 4042WAT    EPW16890   4.142   5.892   3.686 -0.3293 -0.2852  0.1363
 4043WAT      O16891   6.220   4.260   5.813 -0.2409  0.3964  0.2959
 4043WAT     H116892   6.262   4.337   5.811  1.2121 -0.3698 -0.0845
 4043WAT     H216893   6.283   4.203   5.830 -1.1884 -0.7917 -0.0461
 4043WAT    EPW16894   6.235   4.263   5.815 -0.1662  0.1077  0.1891
 4044WAT      O16895   3.911   6.455   3.537  0.6250 -0.5792 -0.4687
 4044WAT     H116896   3.975   6.493   3.493 -0.1215  0.2197 -0.8947
 4044WAT     H216897   3.924   6.480   3.620  1.1331 -0.8183 -0.4751
 4044WAT    EPW16898   3.922   6.464   3.543  0.5898 -0.4965 -0.5326
 4045WAT      O16899   4.431   5.713   4.692  0.5357  0.3192 -0.1667
 4045WAT     H116900   4.388   5.694   4.618  0.0273  1.0057 -0.0592
 4045WAT     H216901   4.475   5.640   4.709 -0.8521 -0.5418 -0.1045
 4045WAT    EPW16902   4.431   5.699   4.683  0.2556  0.2934 -0.1416
 4046WAT      O16903   4.914   4.899   6.138  0.6859 -0.1163 -0.1303
 4046WAT     H116904   4.963   4.855   6.195  1.3351  1.0401  0.2345
 4046WAT     H216905   4.911   4.846   6.068  1.2983 -0.8001  0.3453
 4046WAT    EPW16906   4.921   4.884   6.136  0.8722 -0.0465 -0.0062
 4047WAT      O16907   4.735   6.895   3.670  0.3352  0.5303 -0.0499
 4047WAT     H116908   4.725   6.980   3.653 -0.4037  0.3669 -0.4417
 4047WAT     H216909   4.816   6.878   3.642  0.1151  0.8698 -0.9051
 4047WAT    EPW16910   4.746   6.905   3.664  0.1936  0.5563 -0.2341
 4048WAT      O16911   4.922   7.687   3.329 -0.7261  0.6631  0.0687
 4048WAT     H116912   4.844   7.716   3.353 -0.2380  0.8742  1.5227
 4048WAT     H216913   4.943   7.629   3.391  0.2738  0.6054 -0.2872
 4048WAT    EPW16914   4.914   7.683   3.342 -0.5063  0.6857  0.2309
 4049WAT      O16915   4.597   6.101   5.922  0.6536 -0.0009 -0.1028
 4049WAT     H116916   4.628   6.053   5.988  1.4346 -0.4125 -0.7508
 4049WAT     H216917   4.590   6.044   5.856 -3.8579 -0.5613  0.5675
 4049WAT    EPW16918   4.601   6.085   5.922  0.1026 -0.1445 -0.0995
 4050WAT      O16919   5.798   4.685   5.044  0.2491  0.8904 -0.3301
 4050WAT     H116920   5.734   4.663   4.989  0.9879 -1.8525 -0.2504
 4050WAT     H216921   5.759   4.738   5.101 -1.2278  1.5100 -1.8261
 4050WAT    EPW16922   5.783   4.690   5.044  0.1401  0.5767 -0.5393
 4051WAT      O16923   3.767   7.633   2.611 -0.2263 -0.0891 -0.0206
 4051WAT     H116924   3.801   7.713   2.607 -0.3001  0.1936  2.7761
 4051WAT     H216925   3.836   7.582   2.628 -0.2121 -0.6433 -1.5733
 4051WAT    EPW16926   3.782   7.637   2.613 -0.2351 -0.1292  0.1631
 4052WAT      O16927   4.411   5.124   5.066 -0.3624  0.1564 -0.4120
 4052WAT     H116928   4.394   5.182   5.129  1.2359  1.6086 -1.2461
 4052WAT     H216929   4.333   5.111   5.029 -0.8865  1.1467  0.3028
 4052WAT    EPW16930   4.397   5.130   5.070 -0.2037  0.5172 -0.4297
 4053WAT      O16931   5.835   5.480   5.216  0.2520  0.9957 -0.4013
 4053WAT     H116932   5.915   5.445   5.220  0.4520  1.5319  0.8698
 4053WAT     H216933   5.849   5.564   5.235 -0.7091  0.9251  0.7308
 4053WAT    EPW16934   5.849   5.488   5.219  0.1395  1.0645 -0.0463
 4054WAT      O16935   4.884   4.843   5.673 -0.2524 -0.4767  0.4428
 4054WAT     H116936   4.844   4.838   5.596 -1.1728 -1.3224  0.9491
 4054WAT     H216937   4.965   4.815   5.657 -0.7414 -1.6647 -0.0163
 4054WAT    EPW16938   4.890   4.838   5.659 -0.4606 -0.7771  0.4498
 4055WAT      O16939   5.124   0.081   3.955 -0.0572  0.6580 -0.3192
 4055WAT     H116940   5.134   0.061   4.039  0.9165  0.5676 -0.4455
 4055WAT     H216941   5.140   0.167   3.952 -1.4602  0.9450 -0.2120
 4055WAT    EPW16942   5.127   0.091   3.967 -0.1206  0.6870 -0.3220
 4056WAT      O16943   6.086   5.251   4.460  0.1808  0.9209 -0.1385
 4056WAT     H116944   6.111   5.316   4.406 -1.2423  1.9891  0.4238
 4056WAT     H216945   6.001   5.242   4.443 -1.0048  3.0193  3.4791
 4056WAT    EPW16946   6.078   5.259   4.450 -0.2046  1.3887  0.4789
 4057WAT      O16947   4.271   4.845   4.847 -0.0195 -0.1455  0.3006
 4057WAT     H116948   4.184   4.837   4.841 -0.1743  1.2793  0.4685
 4057WAT     H216949   4.284   4.867   4.930  0.2871  1.8964 -0.2383
 4057WAT    EPW16950   4.260   4.847   4.858  0.0029  0.3666  0.2458
 4058WAT      O16951   6.157   5.153   4.726 -0.3021  0.0197 -0.0194
 4058WAT     H116952   6.124   5.186   4.653  0.6886  0.8536 -0.1154
 4058WAT     H216953   6.243   5.162   4.716 -0.1361  0.0144  1.1710
 4058WAT    EPW16954   6.165   5.159   4.714 -0.1312  0.1421  0.1423
 4059WAT      O16955   4.849   5.281   3.479  0.1048  0.5373  0.1111
 4059WAT     H116956   4.864   5.225   3.413 -1.1437  0.7162 -0.3413
 4059WAT     H216957   4.928   5.291   3.514  0.9828  1.0586 -1.8512
 4059WAT    EPW16958   4.863   5.274   3.474  0.0501  0.6408 -0.2456
 4060WAT      O16959   5.128   5.752   4.426  0.7235  0.2757  0.2649
 4060WAT     H116960   5.088   5.720   4.356  1.1928 -0.1364  0.1783
 4060WAT     H216961   5.186   5.809   4.392 -0.9585  2.2237  0.4741
 4060WAT    EPW16962   5.131   5.756   4.411  0.5444  0.5026  0.2830
 4061WAT      O16963   4.312   6.011   3.303 -0.6883  0.3189  0.0193
 4061WAT     H116964   4.270   5.953   3.354 -0.7955 -0.6318 -1.1087
 4061WAT     H216965   4.392   5.978   3.296 -1.2024 -0.6402 -1.9773
 4061WAT    EPW16966   4.317   5.998   3.310 -0.7801  0.0368 -0.4422
 4062WAT      O16967   4.001   7.450   4.376  0.1464  0.6571  0.0201
 4062WAT     H116968   4.057   7.386   4.395 -1.3598 -0.5882  0.4603
 4062WAT     H216969   3.955   7.460   4.450 -1.1247  0.6625 -0.7470
 4062WAT    EPW16970   4.002   7.442   4.390 -0.2639  0.4739 -0.0282
 4063WAT      O16971   5.194   5.943   4.759  0.2692 -0.4855  0.2739
 4063WAT     H116972   5.120   5.954   4.804 -0.4456  0.1849 -1.0111
 4063WAT     H216973   5.175   5.974   4.680  2.2827  0.7164  0.2074
 4063WAT    EPW16974   5.180   5.949   4.754  0.4610 -0.2089  0.0742
 4064WAT      O16975   4.362   5.612   5.257  0.5448  0.2199 -0.2473
 4064WAT     H116976   4.387   5.615   5.174  1.3514  1.0293  0.0084
 4064WAT     H216977   4.290   5.662   5.259  0.7306  0.4955 -0.3936
 4064WAT    EPW16978   4.355   5.620   5.245  0.6914  0.3802 -0.2311
 4065WAT      O16979   5.387   5.290   6.435  0.2671  0.0656  0.3720
 4065WAT     H116980   5.431   5.216   6.420  0.2521  0.2329 -0.5361
 4065WAT     H216981   5.319   5.263   6.484  0.1695 -0.5589 -0.0936
 4065WAT    EPW16982   5.383   5.275   6.440  0.2505 -0.0020  0.1691
 4066WAT      O16983   4.355   5.965   5.025 -0.4202 -0.4774 -0.0318
 4066WAT     H116984   4.303   5.896   5.010 -0.9780 -0.2768  0.8892
 4066WAT     H216985   4.413   5.935   5.083 -2.1545  0.4377  2.3179
 4066WAT    EPW16986   4.356   5.950   5.031 -0.7588 -0.3126  0.4513
 4067WAT      O16987   5.067   7.303   4.036  0.1305  0.3620  0.0497
 4067WAT     H116988   5.084   7.332   4.116  0.4008 -0.9376  0.4855
 4067WAT     H216989   5.099   7.222   4.036 -0.6860  0.0150 -1.0813
 4067WAT    EPW16990   5.075   7.296   4.048  0.0498  0.1188 -0.0530
 4068WAT      O16991   4.394   6.275   5.999  0.1910 -0.3350 -0.1978
 4068WAT     H116992   4.337   6.282   5.933 -0.3102  1.8444  0.3951
 4068WAT     H216993   4.464   6.238   5.961 -1.2671 -2.3282 -1.1044
 4068WAT    EPW16994   4.396   6.270   5.983 -0.0984 -0.3075 -0.2441
 4069WAT      O16995   4.732   6.785   5.221  0.9032 -0.2836  0.2111
 4069WAT     H116996   4.668   6.730   5.200  1.0759 -0.7767  0.9534
 4069WAT     H216997   4.744   6.773   5.306 -0.2229  2.1517  0.8079
 4069WAT    EPW16998   4.724   6.776   5.230  0.7624  0.0033  0.4089
 4070WAT      O16999   5.478   5.701   4.516  0.2988 -0.0969  0.2340
 4070WAT     H117000   5.524   5.729   4.585 -0.9175 -1.1748  1.5314
 4070WAT     H217001   5.538   5.699   4.452  1.8479 -0.5594  1.6185
 4070WAT    EPW17002   5.494   5.705   4.517  0.3480 -0.3245  0.6302
 4071WAT      O17003   4.650   6.166   6.867  0.2812 -0.5401  0.2584
 4071WAT     H117004   4.595   6.103   6.844  1.0442 -0.3161 -2.6023
 4071WAT     H217005   4.600   6.225   6.907 -0.6909 -2.2797  1.6894
 4071WAT    EPW17006   4.635   6.166   6.869  0.2503 -0.7640  0.0472
 4072WAT      O17007   4.940   5.639   3.658 -0.6323 -0.0675  0.7950
 4072WAT     H117008   5.022   5.653   3.632 -0.1692 -0.5651  1.8882
 4072WAT     H217009   4.921   5.709   3.707 -1.2195  0.5034 -0.2211
 4072WAT    EPW17010   4.949   5.651   3.661 -0.6506 -0.0566  0.8064
 4073WAT      O17011   3.631   0.553   3.384  0.2750  0.1963 -0.1687
 4073WAT     H117012   3.690   0.489   3.375  1.8022  1.6734 -1.6057
 4073WAT     H217013   3.674   0.614   3.429 -0.4006  1.0053 -0.5914
 4073WAT    EPW17014   3.646   0.552   3.389  0.4008  0.5340 -0.4434
 4074WAT      O17015   5.362   5.863   2.815 -0.1152  0.3217  0.0110
 4074WAT     H117016   5.382   5.827   2.892  1.5110 -0.9362 -0.9069
 4074WAT     H217017   5.292   5.819   2.789  1.2357 -1.6153 -0.6162
 4074WAT    EPW17018   5.355   5.851   2.823  0.3246 -0.1503 -0.2172
 4075WAT      O17019   5.168   4.844   6.585 -0.2293  0.0329  0.1149
 4075WAT     H117020   5.141   4.833   6.503 -0.0846 -0.3103  0.1118
 4075WAT     H217021   5.105   4.893   6.621  0.6534  1.8861 -0.7305
 4075WAT    EPW17022   5.155   4.850   6.578 -0.0775  0.2559 -0.0104
 4076WAT      O17023   4.325   4.705   4.078  0.0402 -0.0008  1.0492
 4076WAT     H117024   4.325   4.678   4.161 -2.5416  0.5723  1.3309
 4076WAT     H217025   4.264   4.767   4.077 -0.7872 -0.7380 -1.4832
 4076WAT    EPW17026   4.316   4.710   4.090 -0.4634 -0.0251  0.7167
 4077WAT      O17027   5.054   5.521   4.029  0.3011  0.1070  0.0712
 4077WAT     H117028   4.996   5.479   3.979  0.5097 -0.8148  0.5736
 4077WAT     H217029   5.092   5.577   3.974  1.5400 -1.8692 -1.2085
 4077WAT    EPW17030   5.051   5.523   4.014  0.5150 -0.3211 -0.0437
 4078WAT      O17031   5.818   4.784   4.324  0.0612 -0.1685 -0.1301
 4078WAT     H117032   5.836   4.701   4.347  0.8526 -0.0634 -0.3359
 4078WAT     H217033   5.883   4.829   4.360  1.7713 -0.0581 -3.0576
 4078WAT    EPW17034   5.830   4.778   4.333  0.4307 -0.1366 -0.5930
 4079WAT      O17035   4.137   5.121   6.006 -0.2153 -0.0634  0.2763
 4079WAT     H117036   4.185   5.125   5.933  2.4722 -0.9813  1.8399
 4079WAT     H217037   4.127   5.205   6.028 -0.5488  0.2036 -0.7997
 4079WAT    EPW17038   4.143   5.134   5.998  0.1325 -0.1596  0.3483
 4080WAT      O17039   4.871   6.662   4.862 -0.4497  0.6607 -0.1209
 4080WAT     H117040   4.814   6.655   4.797 -0.5843  0.9637 -0.0368
 4080WAT     H217041   4.945   6.630   4.829  0.1199  2.9220 -1.2102
 4080WAT    EPW17042   4.874   6.656   4.848 -0.3854  1.0395 -0.2694
 4081WAT      O17043   3.919   0.509   4.248 -0.4124 -0.0868 -0.0871
 4081WAT     H117044   3.959   0.545   4.318 -0.6899  0.2268 -0.0865
 4081WAT     H217045   3.837   0.537   4.255 -0.7696 -1.1483  0.1963
 4081WAT    EPW17046   3.913   0.519   4.260 -0.5062 -0.1973 -0.0451
 4082WAT      O17047   4.020   6.746   3.674  0.3477 -0.5130  0.1923
 4082WAT     H117048   3.996   6.726   3.593 -3.0348  0.4178  0.7933
 4082WAT     H217049   4.043   6.669   3.708 -0.1866 -1.2598 -1.0716
 4082WAT    EPW17050   4.020   6.731   3.667 -0.2309 -0.4858  0.0944
 4083WAT      O17051   4.511   5.183   3.384 -0.3393 -0.5705  0.4184
 4083WAT     H117052   4.488   5.234   3.318 -0.7324 -0.7802  0.3923
 4083WAT     H217053   4.445   5.190   3.440  0.0315 -0.3221  0.8349
 4083WAT    EPW17054   4.498   5.191   3.383 -0.3426 -0.5648  0.4761
 4084WAT      O17055   4.697   5.327   6.055  0.2126 -0.6232  0.0623
 4084WAT     H117056   4.774   5.290   6.070  0.3446 -0.2577  0.2734
 4084WAT     H217057   4.647   5.298   6.120  0.6698  0.6187  0.9929
 4084WAT    EPW17058   4.701   5.317   6.067  0.2996 -0.3857  0.2310
 4085WAT      O17059   5.351   5.536   5.094  0.4493  0.3453  0.3316
 4085WAT     H117060   5.331   5.618   5.117 -3.1241  0.1884 -1.4453
 4085WAT     H217061   5.364   5.543   5.008 -0.0170 -0.9449  0.1411
 4085WAT    EPW17062   5.350   5.549   5.084 -0.1474  0.1316  0.0410
 4086WAT      O17063   4.728   0.323   4.006  0.1798  0.1719  0.1091
 4086WAT     H117064   4.769   0.251   3.978  1.0471  1.6864 -2.9546
 4086WAT     H217065   4.775   0.347   4.075  0.0909 -1.9225  0.9812
 4086WAT    EPW17066   4.741   0.316   4.012  0.2948  0.0863 -0.2147
 4087WAT      O17067   5.624   6.579   4.398 -0.0371 -0.2919  0.2690
 4087WAT     H117068   5.626   6.663   4.423 -0.9788 -0.7235  2.0039
 4087WAT     H217069   5.707   6.554   4.404  0.2450  0.5098 -0.2384
 4087WAT    EPW17070   5.636   6.587   4.403 -0.1346 -0.2372  0.4503
 4088WAT      O17071   6.570   5.642   4.840 -0.2286 -0.0344  0.1508
 4088WAT     H117072   6.610   5.628   4.917 -0.4568  0.5441  0.3774
 4088WAT     H217073   6.624   5.696   4.798 -0.9699  1.1351  0.6455
 4088WAT    EPW17074   6.584   5.648   4.845 -0.3718  0.2238  0.2573
 4089WAT      O17075   4.272   4.409   4.112 -0.1975 -0.2945  0.1612
 4089WAT     H117076   4.219   4.467   4.076  2.2924  0.2065 -3.1615
 4089WAT     H217077   4.295   4.446   4.187 -0.0065  2.2889 -1.0738
 4089WAT    EPW17078   4.268   4.423   4.118  0.1986  0.1611 -0.5120
 4090WAT      O17079   4.072   5.618   4.820  0.1911 -0.1773  0.3336
 4090WAT     H117080   4.009   5.563   4.795  0.3925 -0.7782  1.0952
 4090WAT     H217081   4.142   5.566   4.828  0.2266  0.0380  1.7346
 4090WAT    EPW17082   4.073   5.602   4.818  0.2261 -0.2342  0.6530
 4091WAT      O17083   2.503   6.927   5.244  0.0653  0.0022 -0.1014
 4091WAT     H117084   2.444   6.981   5.210  0.0613 -0.5596 -1.0313
 4091WAT     H217085   2.462   6.850   5.245  0.8774 -0.4808 -1.1300
 4091WAT    EPW17086   2.488   6.923   5.239  0.1847 -0.1521 -0.3907
 4092WAT      O17087   5.394   5.709   5.418  0.3606 -0.0713  0.2352
 4092WAT     H117088   5.395   5.732   5.502 -0.2653 -0.9452  0.4927
 4092WAT     H217089   5.477   5.722   5.393  0.6878 -0.3056  1.1338
 4092WAT    EPW17090   5.407   5.714   5.427  0.3164 -0.2350  0.4060
 4093WAT      O17091   4.681   5.513   4.836  0.2271  0.0602  0.0176
 4093WAT     H117092   4.650   5.458   4.895 -2.5330  0.7862 -0.6278
 4093WAT     H217093   4.705   5.583   4.883 -0.2995 -0.0517  0.4632
 4093WAT    EPW17094   4.680   5.515   4.851 -0.2584  0.1509 -0.0119
 4094WAT      O17095   4.201   6.380   5.080  0.1011 -0.2951  0.9829
 4094WAT     H117096   4.283   6.351   5.077 -0.1610 -1.0938  1.2932
 4094WAT     H217097   4.203   6.452   5.030  1.1646  0.1712  1.6550
 4094WAT    EPW17098   4.213   6.387   5.072  0.2194 -0.3442  1.1280
 4095WAT      O17099   5.118   5.270   5.062  0.0929  0.0733  0.4142
 4095WAT     H117100   5.130   5.331   5.000  0.2686 -0.6007 -0.2385
 4095WAT     H217101   5.047   5.298   5.104  0.4372  0.9677  0.4393
 4095WAT    EPW17102   5.109   5.283   5.059  0.1697  0.1059  0.3215
 4096WAT      O17103   4.295   7.547   3.668  0.2402 -0.2286  0.3592
 4096WAT     H117104   4.266   7.553   3.586  1.5521  1.9274 -0.0059
 4096WAT     H217105   4.227   7.573   3.716 -0.0095  0.0707 -0.1548
 4096WAT    EPW17106   4.281   7.552   3.663  0.3971  0.1341  0.2293
 4097WAT      O17107   5.245   6.413   2.952  0.2856 -0.5595  0.0948
 4097WAT     H117108   5.247   6.353   2.889 -0.6570 -0.6179  0.1014
 4097WAT     H217109   5.192   6.377   3.012 -0.0294  0.1341  0.2414
 4097WAT    EPW17110   5.237   6.399   2.952  0.0998 -0.4657  0.1175
 4098WAT      O17111   4.884   0.376   4.215 -0.5529 -0.7719  0.4280
 4098WAT     H117112   4.967   0.395   4.195 -0.5018 -0.3190  1.0138
 4098WAT     H217113   4.865   0.434   4.278 -1.1838 -1.1340  0.5805
 4098WAT    EPW17114   4.893   0.388   4.221 -0.6386 -0.7585  0.5371
 4099WAT      O17115   4.728   6.679   4.264 -0.6528  0.3786  0.0710
 4099WAT     H117116   4.673   6.721   4.316  0.5448  1.0547  0.8225
 4099WAT     H217117   4.807   6.695   4.298 -0.1287 -3.3836  1.1352
 4099WAT    EPW17118   4.732   6.688   4.277 -0.3985 -0.0773  0.3393
 4100WAT      O17119   4.895   6.205   4.159 -0.4998  0.2784  0.5728
 4100WAT     H117120   4.933   6.230   4.084  1.5179 -0.3516  1.3253
 4100WAT     H217121   4.831   6.263   4.169 -1.2696 -0.0038 -1.9513
 4100WAT    EPW17122   4.891   6.218   4.149 -0.3154  0.1437  0.3111
 4101WAT      O17123   5.872   5.917   5.979 -0.4996 -0.7875  0.4527
 4101WAT     H117124   5.899   5.837   6.000 -2.0214 -1.0133  1.6897
 4101WAT     H217125   5.877   5.961   6.055  0.1691  0.2732 -0.1687
 4101WAT    EPW17126   5.877   5.912   5.993 -0.6256 -0.6642  0.5436
 4102WAT      O17127   4.036   5.902   2.843  0.0443 -0.0017  0.5550
 4102WAT     H117128   4.009   5.819   2.839  0.2934 -0.1184  1.1708
 4102WAT     H217129   3.962   5.948   2.839 -0.2669 -0.3154  2.1766
 4102WAT    EPW17130   4.021   5.897   2.842  0.0351 -0.0653  0.8855
 4103WAT      O17131   4.439   5.525   5.731  0.2486 -0.1998 -0.2346
 4103WAT     H117132   4.507   5.472   5.746  0.3610 -0.2521 -0.8738
 4103WAT     H217133   4.433   5.573   5.804  1.8451  0.7701 -0.6864
 4103WAT    EPW17134   4.448   5.524   5.744  0.5010 -0.0642 -0.3957
 4104WAT      O17135   5.316   5.214   5.553 -0.0929 -0.2073 -0.2424
 4104WAT     H117136   5.305   5.279   5.496 -0.2864 -0.5670 -0.6266
 4104WAT     H217137   5.275   5.147   5.515 -1.5596 -0.0884  1.0292
 4104WAT    EPW17138   5.308   5.213   5.539 -0.3381 -0.2429 -0.1113
 4105WAT      O17139   4.149   5.177   4.987 -0.3616  1.0486 -0.4598
 4105WAT     H117140   4.108   5.100   4.982  0.1590  0.7639 -0.4091
 4105WAT     H217141   4.105   5.220   5.049 -0.0142  0.3966  0.2562
 4105WAT    EPW17142   4.136   5.172   4.995 -0.2334  0.9102 -0.3465
 4106WAT      O17143   4.994   5.662   6.287 -0.3133 -0.3860 -0.3470
 4106WAT     H117144   4.988   5.578   6.309 -0.9651 -0.2618 -0.0340
 4106WAT     H217145   4.989   5.661   6.200 -0.5155 -0.6531 -0.3325
 4106WAT    EPW17146   4.992   5.649   6.277 -0.4395 -0.4071 -0.2986
 4107WAT      O17147   5.864   5.568   3.980 -0.2064 -0.1646  0.3441
 4107WAT     H117148   5.805   5.622   3.946 -0.6685  0.3186  1.8419
 4107WAT     H217149   5.912   5.544   3.911 -0.6773  1.2765 -0.5228
 4107WAT    EPW17150   5.862   5.572   3.965 -0.3442  0.1197  0.4373
 4108WAT      O17151   4.785   6.814   3.163 -0.6550 -0.2973 -0.3653
 4108WAT     H117152   4.839   6.877   3.136 -0.4179  0.1775  1.0907
 4108WAT     H217153   4.835   6.743   3.165 -0.5628 -0.2422 -0.7365
 4108WAT    EPW17154   4.800   6.813   3.159 -0.6064 -0.2190 -0.2050
 4109WAT      O17155   2.978   5.511   5.479  0.1890  0.3525 -0.3527
 4109WAT     H117156   3.012   5.563   5.417 -0.2007  0.1214 -0.7738
 4109WAT     H217157   2.921   5.563   5.520 -0.9573  0.0151 -1.4367
 4109WAT    EPW17158   2.975   5.526   5.476 -0.0379  0.2685 -0.5750
 4110WAT      O17159   4.443   4.578   1.815  0.5681 -0.2844 -0.4885
 4110WAT     H117160   4.480   4.556   1.891  0.3412  1.6471  0.2453
 4110WAT     H217161   4.365   4.609   1.839  0.4296  0.1829 -1.5093
 4110WAT    EPW17162   4.437   4.580   1.830  0.5141  0.0700 -0.5309
 4111WAT      O17163   2.444   6.477   1.669 -0.3707 -0.6939  0.3686
 4111WAT     H117164   2.462   6.393   1.654  0.4775 -0.4335 -0.2025
 4111WAT     H217165   2.520   6.516   1.652 -1.5490  0.5828 -2.7389
 4111WAT    EPW17166   2.458   6.470   1.664 -0.4194 -0.4668 -0.1748
 4112WAT      O17167   4.796   5.072   2.470  0.0234 -0.3758  0.4851
 4112WAT     H117168   4.871   5.031   2.453  0.9379  0.6175  1.8319
 4112WAT     H217169   4.812   5.112   2.546 -2.2918 -1.1063  1.4375
 4112WAT    EPW17170   4.809   5.072   2.479 -0.1835 -0.3370  0.8247
 4113WAT      O17171   6.167   6.356   2.205  0.1624 -0.4776  0.4159
 4113WAT     H117172   6.187   6.417   2.146  1.2914 -1.5608 -0.3675
 4113WAT     H217173   6.096   6.318   2.172  0.2115 -0.4292  0.2522
 4113WAT    EPW17174   6.160   6.359   2.191  0.3364 -0.6304  0.2760
 4114WAT      O17175   3.673   6.398   1.807  0.2801 -0.2148  0.7320
 4114WAT     H117176   3.629   6.332   1.844  0.2445 -0.3398  0.4623
 4114WAT     H217177   3.645   6.399   1.725 -1.6700  1.7313  1.2974
 4114WAT    EPW17178   3.662   6.389   1.801 -0.0133  0.0542  0.7757
 4115WAT      O17179   3.048   6.525   2.285 -0.1724 -0.8338  0.6489
 4115WAT     H117180   3.066   6.610   2.277 -1.9349 -0.4907 -0.1742
 4115WAT     H217181   3.025   6.517   2.369  2.6975 -1.1314  1.5130
 4115WAT    EPW17182   3.047   6.536   2.297 -0.0089 -0.8271  0.6549
 4116WAT      O17183   2.876   3.921   1.924 -0.0753  0.5152  0.2253
 4116WAT     H117184   2.797   3.892   1.947  0.1095 -0.3992 -0.2601
 4116WAT     H217185   2.918   3.849   1.898  0.6931  1.0894 -0.1668
 4116WAT    EPW17186   2.870   3.906   1.924  0.0655  0.4649  0.0956
 4117WAT      O17187   4.172   5.662   3.056  0.0750 -0.4602  0.4571
 4117WAT     H117188   4.228   5.645   2.991 -1.5931 -0.0724 -1.1896
 4117WAT     H217189   4.140   5.584   3.076 -0.4966 -0.4348 -0.2879
 4117WAT    EPW17190   4.176   5.648   3.049 -0.2558 -0.3992  0.1038
 4118WAT      O17191   5.603   4.854   2.943  0.2455  0.2202  0.3220
 4118WAT     H117192   5.649   4.916   2.903  0.9832  0.2454  1.1836
 4118WAT     H217193   5.662   4.813   2.992 -0.1751 -1.3308 -0.4020
 4118WAT    EPW17194   5.619   4.857   2.944  0.2924 -0.0052  0.3423
 4119WAT      O17195   3.559   7.260   0.923 -0.1006 -0.4656  0.1883
 4119WAT     H117196   3.608   7.250   0.995  2.9148 -1.3787 -1.7970
 4119WAT     H217197   3.511   7.331   0.941  1.4705  0.1202  2.6015
 4119WAT    EPW17198   3.559   7.269   0.936  0.5769 -0.5139  0.2515
 4120WAT      O17199   3.787   5.682   2.564  0.2719 -0.3644 -0.7133
 4120WAT     H117200   3.764   5.725   2.492  3.6432  2.6551 -0.2554
 4120WAT     H217201   3.718   5.694   2.617 -0.9272  0.1181 -2.3005
 4120WAT    EPW17202   3.773   5.690   2.561  0.5928  0.1529 -0.8801
 4121WAT      O17203   3.304   6.301   1.991  0.2835  0.5279 -0.2160
 4121WAT     H117204   3.301   6.347   2.065  1.0278  1.9428 -1.0231
 4121WAT     H217205   3.231   6.253   1.993 -0.7662  2.0863  0.4581
 4121WAT    EPW17206   3.293   6.301   2.002  0.2384  0.9671 -0.2356
 4122WAT      O17207   3.644   4.519   1.762  0.1358  0.1920 -0.3208
 4122WAT     H117208   3.666   4.588   1.812  2.3138 -0.2885 -0.5148
 4122WAT     H217209   3.703   4.459   1.784  0.0270 -0.6420 -2.1721
 4122WAT    EPW17210   3.656   4.521   1.773  0.4414 -0.0022 -0.6229
 4123WAT      O17211   5.405   3.893   3.554 -0.0859 -0.6808  0.3719
 4123WAT     H117212   5.427   3.816   3.590  0.1953 -0.7421  0.0808
 4123WAT     H217213   5.324   3.879   3.524  0.4106 -1.2613 -0.7564
 4123WAT    EPW17214   5.396   3.880   3.555  0.0289 -0.7756  0.1622
 4124WAT      O17215   3.712   6.030   3.779 -0.2653 -0.5253 -0.5854
 4124WAT     H117216   3.758   6.018   3.706 -0.1467 -2.7523 -0.2098
 4124WAT     H217217   3.771   6.057   3.836 -0.4321  1.6635 -1.3345
 4124WAT    EPW17218   3.727   6.032   3.776 -0.2725 -0.5309 -0.6406
 4125WAT      O17219   2.866   5.429   2.688  0.4007  0.0975 -0.1123
 4125WAT     H117220   2.885   5.480   2.756  0.1076 -1.2662  1.0465
 4125WAT     H217221   2.934   5.375   2.684  0.8882  0.7758 -1.5584
 4125WAT    EPW17222   2.879   5.428   2.697  0.4294 -0.0037 -0.1547
 4126WAT      O17223   5.705   5.049   2.730 -0.3786 -0.5817  0.3796
 4126WAT     H117224   5.636   5.101   2.714  0.0301 -0.8387 -2.9341
 4126WAT     H217225   5.769   5.106   2.748 -0.8368 -0.1827  0.7699
 4126WAT    EPW17226   5.704   5.065   2.730 -0.3859 -0.5607 -0.0522
 4127WAT      O17227   3.704   3.763   1.738 -0.4672 -0.0334 -0.3474
 4127WAT     H117228   3.713   3.821   1.674 -2.8339  0.1940 -0.5482
 4127WAT     H217229   3.665   3.809   1.801  3.2787  0.2536  2.1054
 4127WAT    EPW17230   3.700   3.778   1.738 -0.2634  0.0426 -0.0147
 4128WAT      O17231   4.247   5.217   3.482  0.3021  0.4240  0.0031
 4128WAT     H117232   4.227   5.194   3.564  1.4201 -0.6885 -0.0071
 4128WAT     H217233   4.181   5.185   3.435  0.1028  0.2833  0.3741
 4128WAT    EPW17234   4.234   5.209   3.488  0.4378  0.2389  0.0564
 4129WAT      O17235   5.044   4.682   1.583  0.3660  0.0758 -0.1209
 4129WAT     H117236   5.129   4.690   1.596  0.6089  0.8677 -1.8259
 4129WAT     H217237   5.038   4.619   1.523 -0.1210  0.8983 -0.9721
 4129WAT    EPW17238   5.055   4.674   1.576  0.3299  0.3142 -0.4985
 4130WAT      O17239   4.664   5.421   3.000 -0.1762  0.6227 -0.9118
 4130WAT     H117240   4.685   5.443   3.082 -1.1496 -0.0131 -0.4731
 4130WAT     H217241   4.716   5.471   2.952  1.7646 -0.3200  0.0853
 4130WAT    EPW17242   4.675   5.432   3.005 -0.0333  0.3895 -0.6997
 4131WAT      O17243   4.601   4.934   2.580 -0.3689  0.4335 -0.1684
 4131WAT     H117244   4.640   4.926   2.658 -0.3235  1.1411 -0.1129
 4131WAT     H217245   4.658   4.982   2.534 -0.8619  0.8951 -0.3053
 4131WAT    EPW17246   4.615   4.940   2.585 -0.4350  0.6062 -0.1804
 4132WAT      O17247   4.944   3.898   2.497 -0.0046  0.7185  0.3640
 4132WAT     H117248   4.903   3.920   2.423 -1.5414  0.6047  1.1379
 4132WAT     H217249   4.884   3.851   2.540  1.0859  0.2299  1.4022
 4132WAT    EPW17250   4.929   3.894   2.492 -0.0705  0.6295  0.6317
 4133WAT      O17251   3.543   4.921   2.489 -0.2326 -0.0867  0.0696
 4133WAT     H117252   3.601   4.860   2.465 -0.3676 -0.5008  0.7512
 4133WAT     H217253   3.593   4.985   2.520 -0.1173 -0.1939  0.1075
 4133WAT    EPW17254   3.559   4.922   2.490 -0.2355 -0.1637  0.1759
 4134WAT      O17255   4.312   7.257   3.978 -0.0893  0.5759  0.3564
 4134WAT     H117256   4.233   7.267   3.943 -0.0365 -0.9668 -0.2531
 4134WAT     H217257   4.366   7.290   3.918 -0.0407 -1.5839 -0.8897
 4134WAT    EPW17258   4.308   7.263   3.964 -0.0744  0.0289  0.0823
 4135WAT      O17259   2.906   5.811   4.069 -0.0235 -0.0858  0.5567
 4135WAT     H117260   2.917   5.725   4.068  0.9241  0.0151  0.1071
 4135WAT     H217261   2.889   5.830   3.985 -2.2441 -0.0309  0.9638
 4135WAT    EPW17262   2.905   5.801   4.056 -0.2115 -0.0628  0.5504
 4136WAT      O17263   4.873   7.089   1.244  0.1245  0.0870 -0.0525
 4136WAT     H117264   4.957   7.097   1.265  0.0291 -0.5770  0.6637
 4136WAT     H217265   4.852   7.166   1.209  1.2038  0.0190 -0.8974
 4136WAT    EPW17266   4.882   7.101   1.242  0.2699 -0.0211 -0.0715
 4137WAT      O17267   3.351   7.580   1.643  0.4657  0.7490 -0.4236
 4137WAT     H117268   3.387   7.546   1.715  0.2758  0.0235 -0.6679
 4137WAT     H217269   3.279   7.620   1.673  0.5789  0.7623 -0.1681
 4137WAT    EPW17270   3.345   7.581   1.658  0.4544  0.6438 -0.4220
 4138WAT      O17271   3.456   4.454   2.406  0.1353  0.4981 -0.1109
 4138WAT     H117272   3.449   4.370   2.382  1.6049 -0.3730  2.2170
 4138WAT     H217273   3.511   4.488   2.347  2.0541 -1.0345  0.6945
 4138WAT    EPW17274   3.463   4.447   2.394  0.6358  0.1430  0.3520
 4139WAT      O17275   4.539   5.069   3.776 -0.3961  0.0635 -0.4765
 4139WAT     H117276   4.591   5.126   3.735 -1.0047 -0.1179 -1.5376
 4139WAT     H217277   4.491   5.119   3.829 -1.5273  0.7077 -2.0181
 4139WAT    EPW17278   4.540   5.085   3.778 -0.6531  0.1319 -0.8610
 4140WAT      O17279   2.705   6.876   1.759  0.2663  0.0090  0.0924
 4140WAT     H117280   2.740   6.907   1.833 -0.1303 -2.3971  1.3955
 4140WAT     H217281   2.642   6.823   1.787  0.2001 -1.1057 -1.9836
 4140WAT    EPW17282   2.701   6.873   1.774  0.1980 -0.5111 -0.0218
 4141WAT      O17283   4.582   4.972   3.084 -0.1107 -0.6073 -0.2436
 4141WAT     H117284   4.618   4.910   3.034  0.6939  0.4166 -0.9606
 4141WAT     H217285   4.498   4.949   3.088  0.4234 -2.7056  0.9278
 4141WAT    EPW17286   4.575   4.959   3.077  0.0871 -0.7660 -0.1765
 4142WAT      O17287   4.985   6.700   1.662 -0.6400  0.1178 -0.3179
 4142WAT     H117288   4.996   6.738   1.740  0.0545 -2.5927  1.0483
 4142WAT     H217289   4.899   6.700   1.651 -0.6408  2.9223 -0.9297
 4142WAT    EPW17290   4.974   6.705   1.672 -0.5375  0.1316 -0.2065
 4143WAT      O17291   4.729   7.253   2.735  0.0603 -0.4429  0.1852
 4143WAT     H117292   4.757   7.170   2.737 -1.2509 -1.0640 -2.5184
 4143WAT     H217293   4.780   7.291   2.676  0.9092  0.8732  1.6776
 4143WAT    EPW17294   4.740   7.246   2.727 -0.0080 -0.3402  0.0063
 4144WAT      O17295   3.560   6.193   2.056 -0.5965 -0.4786  0.0006
 4144WAT     H117296   3.476   6.212   2.043 -0.4064 -0.5530 -1.5394
 4144WAT     H217297   3.568   6.112   2.025 -0.0226 -0.6277  0.4987
 4144WAT    EPW17298   3.549   6.184   2.050 -0.4836 -0.5116 -0.1533
 4145WAT      O17299   4.136   4.174   4.018  0.1644  0.0265 -0.1956
 4145WAT     H117300   4.170   4.246   4.053  3.1461 -0.8891 -0.9074
 4145WAT     H217301   4.075   4.149   4.076  0.1887  2.2023  0.8452
 4145WAT    EPW17302   4.132   4.181   4.032  0.6084  0.2127 -0.1470
 4146WAT      O17303   4.906   4.574   1.811  0.3640  0.1093  0.0046
 4146WAT     H117304   4.822   4.591   1.795  0.0881 -2.3639 -1.8514
 4146WAT     H217305   4.948   4.615   1.746  0.4111 -0.1955 -0.1572
 4146WAT    EPW17306   4.900   4.583   1.799  0.3302 -0.3011 -0.2935
 4147WAT      O17307   3.489   5.022   2.222  0.0376  0.8532 -0.6086
 4147WAT     H117308   3.459   5.104   2.217  0.5024  1.1094  0.7117
 4147WAT     H217309   3.505   5.010   2.306 -0.2853 -0.7051 -0.7343
 4147WAT    EPW17310   3.487   5.032   2.233  0.0586  0.6609 -0.4322
 4148WAT      O17311   5.043   4.560   4.678  0.0798  0.2228  0.2085
 4148WAT     H117312   5.099   4.556   4.611 -1.3314 -0.4416 -0.9860
 4148WAT     H217313   5.020   4.477   4.690  0.3889  0.3182  1.6376
 4148WAT    EPW17314   5.048   4.547   4.670 -0.0830  0.1387  0.2431
 4149WAT      O17315   4.757   7.146   3.554 -0.3027  0.5887 -0.0436
 4149WAT     H117316   4.843   7.162   3.556 -0.6031  2.3481  0.0330
 4149WAT     H217317   4.747   7.102   3.479  0.6451  0.4277 -0.0908
 4149WAT    EPW17318   4.768   7.141   3.543 -0.2071  0.8248 -0.0392
 4150WAT      O17319   5.134   5.646   2.056 -0.0738 -0.3881 -0.0022
 4150WAT     H117320   5.133   5.560   2.071 -1.5082 -0.3267  0.4032
 4150WAT     H217321   5.178   5.678   2.124 -2.2400 -0.5664  1.5958
 4150WAT    EPW17322   5.140   5.638   2.068 -0.6057 -0.4054  0.2938
 4151WAT      O17323   4.670   6.365   2.862  0.3058 -0.1076 -0.1969
 4151WAT     H117324   4.721   6.433   2.882 -1.3581  0.5776  2.1944
 4151WAT     H217325   4.597   6.402   2.832  1.0563 -1.0702 -3.5255
 4151WAT    EPW17326   4.667   6.381   2.861  0.1709 -0.1485 -0.3354
 4152WAT      O17327   4.097   7.467   1.611  0.0614 -0.2427 -0.3525
 4152WAT     H117328   4.163   7.524   1.602 -0.9659  1.0565 -0.0362
 4152WAT     H217329   4.134   7.400   1.653  1.0289  0.7530  0.4641
 4152WAT    EPW17330   4.112   7.466   1.616  0.0525  0.0963 -0.1851
 4153WAT      O17331   5.072   5.379   2.128 -0.1575 -0.3795 -0.2549
 4153WAT     H117332   5.019   5.375   2.198 -1.6425  2.0489 -1.1286
 4153WAT     H217333   5.102   5.297   2.121  0.3607 -0.6768  3.3851
 4153WAT    EPW17334   5.069   5.366   2.137 -0.3003 -0.0647  0.1538
 4154WAT      O17335   2.602   4.407   1.085 -0.1396  0.0089 -0.2165
 4154WAT     H117336   2.538   4.460   1.062 -1.1538 -0.3870  1.5285
 4154WAT     H217337   2.587   4.391   1.170  0.8974 -1.9612 -0.3361
 4154WAT    EPW17338   2.591   4.412   1.094 -0.1362 -0.3406  0.0236
 4155WAT      O17339   4.418   5.960   3.675 -0.1001  0.2188 -0.6630
 4155WAT     H117340   4.333   5.940   3.666 -0.7863  1.7180  1.6901
 4155WAT     H217341   4.417   6.044   3.695  1.7608 -0.2029  1.5907
 4155WAT    EPW17342   4.405   5.969   3.676  0.0734  0.3779  0.0175
 4156WAT      O17343   5.416   6.005   2.300 -0.2132 -0.0447 -0.2153
 4156WAT     H117344   5.502   5.990   2.293 -0.2299 -0.0023 -0.5080
 4156WAT     H217345   5.395   6.040   2.223 -0.4636  0.0883 -0.0858
 4156WAT    EPW17346   5.425   6.008   2.287 -0.2526 -0.0188 -0.2394
 4157WAT      O17347   4.626   6.347   3.825  0.0150 -0.4254 -0.5802
 4157WAT     H117348   4.540   6.363   3.825  0.0878 -0.0167 -1.3891
 4157WAT     H217349   4.656   6.400   3.888  0.1979  2.5178 -2.9186
 4157WAT    EPW17350   4.618   6.357   3.835  0.0528  0.0697 -1.0451
 4158WAT      O17351   4.443   5.649   2.888 -0.0401 -0.4870  0.5485
 4158WAT     H117352   4.450   5.710   2.951  0.2356 -0.6828  0.7107
 4158WAT     H217353   4.426   5.695   2.816 -1.6050 -0.3358  0.9706
 4158WAT    EPW17354   4.441   5.665   2.887 -0.2305 -0.4936  0.6348
 4159WAT      O17355   5.179   7.655   2.645 -0.6418 -0.7860 -0.3600
 4159WAT     H117356   5.240   7.644   2.706  1.0075  1.1132 -1.5803
 4159WAT     H217357   5.222   7.647   2.570 -1.6777  1.4569 -1.2674
 4159WAT    EPW17358   5.194   7.652   2.643 -0.5512 -0.1741 -0.6743
 4160WAT      O17359   3.032   6.946   4.468  0.7247 -0.2981  0.0479
 4160WAT     H117360   3.100   6.963   4.416  0.4414  0.5372 -0.0724
 4160WAT     H217361   3.054   6.872   4.509  1.9258  0.2433  0.3928
 4160WAT    EPW17362   3.045   6.937   4.466  0.8603 -0.0948  0.0810
 4161WAT      O17363   4.112   6.698   2.799  0.2694 -0.4322 -0.0064
 4161WAT     H117364   4.120   6.702   2.886 -1.9424 -0.5872  0.2606
 4161WAT     H217365   4.088   6.615   2.784  1.5811 -0.6812 -0.8912
 4161WAT    EPW17366   4.109   6.686   2.809  0.1365 -0.4919 -0.0977
 4162WAT      O17367   2.655   7.621   4.362 -0.2499  0.1679 -0.1411
 4162WAT     H117368   2.633   7.671   4.294 -0.7028  0.3602  0.1443
 4162WAT     H217369   2.591   7.562   4.366  0.2207 -0.3716 -0.4029
 4162WAT    EPW17370   2.642   7.620   4.352 -0.2473  0.1166 -0.1376
 4163WAT      O17371   2.535   4.956   3.863 -0.0338  0.0089  0.0213
 4163WAT     H117372   2.572   4.999   3.796 -1.5487 -0.1565 -0.9823
 4163WAT     H217373   2.452   4.948   3.838 -0.0566 -2.5277  0.6701
 4163WAT    EPW17374   2.529   4.961   3.849 -0.2610 -0.3902 -0.0311
 4164WAT      O17375   5.111   6.647   2.119  0.1842 -0.2209 -0.2350
 4164WAT     H117376   5.063   6.690   2.060  0.7080 -0.3267 -0.7554
 4164WAT     H217377   5.094   6.563   2.102  2.1256 -0.3816 -1.8832
 4164WAT    EPW17378   5.102   6.641   2.108  0.5484 -0.2602 -0.5553
 4165WAT      O17379   5.415   4.551   3.159 -0.1319  0.3535 -0.1420
 4165WAT     H117380   5.395   4.534   3.076  1.5812  0.8154 -0.6902
 4165WAT     H217381   5.489   4.506   3.172  1.5847  3.0052  0.0103
 4165WAT    EPW17382   5.423   4.541   3.149  0.3747  0.8135 -0.2005
 4166WAT      O17383   4.735   5.038   3.302  0.1442 -0.4423  0.5182
 4166WAT     H117384   4.705   5.027   3.221  0.3775 -0.8031  0.4787
 4166WAT     H217385   4.671   5.083   3.342  0.4992  0.7060 -0.1628
 4166WAT    EPW17386   4.721   5.043   3.296  0.2311 -0.3260  0.4117
 4167WAT      O17387   5.095   4.233   2.705 -0.3263  0.2593  0.1727
 4167WAT     H117388   5.168   4.280   2.700  0.0799 -0.1645  1.6392
 4167WAT     H217389   5.069   4.243   2.787 -1.1603 -0.6962  0.0511
 4167WAT    EPW17390   5.102   4.241   2.716 -0.3895  0.0556  0.3714
 4168WAT      O17391   5.464   4.288   2.355  0.6802 -0.1216 -0.1257
 4168WAT     H117392   5.462   4.221   2.412 -2.4042 -0.4104 -0.3656
 4168WAT     H217393   5.461   4.249   2.277  1.2792  0.3017 -0.3685
 4168WAT    EPW17394   5.463   4.272   2.352  0.3130 -0.1017 -0.1970
 4169WAT      O17395   3.726   5.138   2.538  0.0676  0.1464  0.1195
 4169WAT     H117396   3.797   5.109   2.579 -0.3153  1.9342  2.2614
 4169WAT     H217397   3.745   5.221   2.520 -1.1287  0.4147 -0.0242
 4169WAT    EPW17398   3.739   5.146   2.542 -0.1657  0.4502  0.4147
 4170WAT      O17399   6.123   2.893   3.379  1.2338  0.2226 -0.1305
 4170WAT     H117400   6.057   2.923   3.429 -1.0926 -1.6437 -1.8405
 4170WAT     H217401   6.136   2.812   3.409  1.6340  0.0221 -0.8305
 4170WAT    EPW17402   6.115   2.886   3.391  0.9492 -0.0827 -0.4865
 4171WAT      O17403   4.055   5.114   3.093 -0.3749 -0.3393  0.0156
 4171WAT     H117404   3.994   5.102   3.032  0.3198  0.0087 -0.7692
 4171WAT     H217405   4.019   5.082   3.166 -1.0556 -1.1493 -0.6643
 4171WAT    EPW17406   4.041   5.107   3.095 -0.3728 -0.4075 -0.2007
 4172WAT      O17407   3.379   5.633   3.059 -0.3040  0.5006 -0.5003
 4172WAT     H117408   3.351   5.713   3.042 -0.9261  0.1399 -1.2792
 4172WAT     H217409   3.460   5.645   3.089 -0.4232  1.4195 -0.5298
 4172WAT    EPW17410   3.387   5.646   3.061 -0.4135  0.5830 -0.6197
 4173WAT      O17411   4.876   4.987   2.062 -0.4069  0.0406  0.1937
 4173WAT     H117412   4.946   5.038   2.053 -1.6767  1.5822 -1.7787
 4173WAT     H217413   4.812   5.042   2.085 -1.1694 -1.2140  1.2489
 4173WAT    EPW17414   4.877   5.002   2.064 -0.7071  0.0830  0.0582
 4174WAT      O17415   4.334   6.227   2.837  0.2113  0.4567  0.0055
 4174WAT     H117416   4.404   6.177   2.827  0.3501  0.1555  1.9715
 4174WAT     H217417   4.287   6.212   2.765  1.0750 -1.1169 -0.2820
 4174WAT    EPW17418   4.338   6.218   2.825  0.3594  0.1797  0.2535
 4175WAT      O17419   3.958   5.227   3.370  0.1203  0.4141 -0.1828
 4175WAT     H117420   3.891   5.268   3.333  0.4194  0.9601 -0.1265
 4175WAT     H217421   3.941   5.233   3.455  0.8555  1.6490 -0.1023
 4175WAT    EPW17422   3.946   5.234   3.377  0.2731  0.6771 -0.1626
 4176WAT      O17423   5.760   6.150   2.380  0.1219  0.2540 -0.3995
 4176WAT     H117424   5.744   6.065   2.391 -1.2594  0.5726  0.1918
 4176WAT     H217425   5.826   6.166   2.436  2.1062 -0.8943 -2.2443
 4176WAT    EPW17426   5.767   6.140   2.390  0.2110  0.1314 -0.5847
 4177WAT      O17427   4.847   4.830   3.042 -0.1616 -0.2964  0.4745
 4177WAT     H117428   4.825   4.795   2.965 -0.3634  1.4126 -0.3049
 4177WAT     H217429   4.902   4.772   3.076 -2.2789 -2.5130  0.4086
 4177WAT    EPW17430   4.852   4.816   3.036 -0.5042 -0.3714  0.3496
 4178WAT      O17431   3.881   6.213   1.874 -0.0381 -0.3139  0.4290
 4178WAT     H117432   3.824   6.271   1.841  1.1901  1.0690  0.6225
 4178WAT     H217433   3.831   6.143   1.891 -1.1351 -0.3221 -2.2565
 4178WAT    EPW17434   3.865   6.211   1.872 -0.0187 -0.1108  0.0609
 4179WAT      O17435   3.983   4.669   2.071 -0.5472 -0.1327 -0.0509
 4179WAT     H117436   3.957   4.726   2.132 -2.0951  0.2509 -1.0090
 4179WAT     H217437   3.997   4.596   2.117 -1.4906  0.1934  0.8021
 4179WAT    EPW17438   3.981   4.667   2.087 -0.9152 -0.0279 -0.0664
 4180WAT      O17439   2.805   6.034   2.932  0.1685  0.3587  0.1398
 4180WAT     H117440   2.751   6.048   2.865  0.0444  1.8941  0.5298
 4180WAT     H217441   2.884   6.031   2.894 -0.1241 -1.7582 -0.4130
 4180WAT    EPW17442   2.809   6.036   2.916  0.1069  0.2728  0.1158
 4181WAT      O17443   4.661   3.834   4.301  0.0002  0.3529 -1.0030
 4181WAT     H117444   4.595   3.872   4.344  0.8676  1.0032 -0.2014
 4181WAT     H217445   4.632   3.753   4.287 -0.8387  0.5261 -0.3520
 4181WAT    EPW17446   4.647   3.828   4.305  0.0044  0.4745 -0.7884
 4182WAT      O17447   5.799   5.019   3.605  0.3904  0.1201 -0.0403
 4182WAT     H117448   5.828   5.099   3.621 -1.2196  0.6944  0.2074
 4182WAT     H217449   5.734   5.009   3.662  0.3088 -1.2181 -0.3302
 4182WAT    EPW17450   5.794   5.029   3.616  0.1405  0.0073 -0.0465
 4183WAT      O17451   3.289   5.425   3.211  0.2257  0.1542 -0.6864
 4183WAT     H117452   3.310   5.502   3.178 -1.1331  0.1920 -1.5342
 4183WAT     H217453   3.254   5.382   3.144 -0.5989 -0.5673  0.1746
 4183WAT    EPW17454   3.287   5.430   3.196 -0.0969  0.0532 -0.6844
 4184WAT      O17455   6.348   4.515   3.574 -0.1212 -0.2301 -0.3323
 4184WAT     H117456   6.422   4.492   3.615 -0.1048  2.1874  1.1869
 4184WAT     H217457   6.300   4.442   3.576  0.8098 -0.8635  1.9840
 4184WAT    EPW17458   6.352   4.501   3.580  0.0188  0.0335  0.2343
 4185WAT      O17459   4.581   5.158   2.847  0.4146 -0.0403  0.2450
 4185WAT     H117460   4.576   5.129   2.929 -1.9863 -0.3824  0.0692
 4185WAT     H217461   4.505   5.131   2.812  0.6256  1.5518 -1.5915
 4185WAT    EPW17462   4.569   5.150   2.854  0.0911  0.1443 -0.0523
 4186WAT      O17463   4.880   6.217   2.163  0.1263  0.3470 -0.4919
 4186WAT     H117464   4.865   6.240   2.246 -0.6797 -0.3151 -0.4375
 4186WAT     H217465   4.828   6.270   2.117  0.9922  1.1012 -0.6283
 4186WAT    EPW17466   4.870   6.228   2.169  0.1351  0.3606 -0.5040
 4187WAT      O17467   3.958   5.632   4.225 -0.2742  0.3851  0.7148
 4187WAT     H117468   3.920   5.642   4.146  0.2927  0.0036  0.3926
 4187WAT     H217469   4.043   5.636   4.207 -0.1445  1.3336  1.4524
 4187WAT    EPW17470   3.965   5.634   4.210 -0.1713  0.4689  0.7761
 4188WAT      O17471   4.411   5.384   2.841  0.4265 -0.8919 -0.4110
 4188WAT     H117472   4.485   5.341   2.857  0.4593 -0.7945 -0.3044
 4188WAT     H217473   4.429   5.466   2.862  0.0627 -0.9917  0.3415
 4188WAT    EPW17474   4.425   5.390   2.847  0.3776 -0.8923 -0.2841
 4189WAT      O17475   3.741   6.681   1.794 -0.0073 -0.3048 -0.1908
 4189WAT     H117476   3.799   6.692   1.730  0.6876  1.8716  0.7109
 4189WAT     H217477   3.695   6.611   1.769  0.0906  0.5596 -3.1405
 4189WAT    EPW17478   3.743   6.672   1.781  0.1098  0.1444 -0.4933
 4190WAT      O17479   4.600   5.797   4.479 -0.0202  0.0747 -0.2742
 4190WAT     H117480   4.554   5.798   4.553  0.5489  1.8578  0.1245
 4190WAT     H217481   4.636   5.718   4.477  0.1672  0.0836  1.5122
 4190WAT    EPW17482   4.599   5.786   4.490  0.0916  0.3394  0.0486
 4191WAT      O17483   4.118   4.727   3.053 -0.1201  0.0397  0.0836
 4191WAT     H117484   4.162   4.652   3.064  1.0822  0.3098 -2.4198
 4191WAT     H217485   4.171   4.787   3.088 -0.0330 -0.0124  0.0414
 4191WAT    EPW17486   4.132   4.725   3.060  0.0704  0.0719 -0.2924
 4192WAT      O17487   5.692   5.674   4.327 -0.0459  0.2871  1.1047
 4192WAT     H117488   5.749   5.739   4.317  0.5248 -0.4371 -1.1293
 4192WAT     H217489   5.742   5.607   4.354 -0.1596  0.1257  0.9228
 4192WAT    EPW17490   5.708   5.674   4.329  0.0216  0.1563  0.7478
 4193WAT      O17491   4.126   4.344   3.511  0.0321 -0.5302  0.2577
 4193WAT     H117492   4.109   4.322   3.428 -1.5402 -0.9356  0.6586
 4193WAT     H217493   4.132   4.267   3.552 -1.1693 -0.3234  0.8618
 4193WAT    EPW17494   4.124   4.329   3.505 -0.3777 -0.5595  0.4061
 4194WAT      O17495   3.699   6.676   3.509 -0.8126  0.1095 -0.3996
 4194WAT     H117496   3.749   6.711   3.447 -1.2018 -1.0887 -1.4423
 4194WAT     H217497   3.753   6.621   3.550 -0.9017 -0.1522 -0.6239
 4194WAT    EPW17498   3.714   6.673   3.506 -0.8832 -0.1062 -0.5868
 4195WAT      O17499   3.025   5.933   0.857 -0.0909 -0.2667  0.0398
 4195WAT     H117500   3.018   5.848   0.875 -1.0048 -0.2822 -0.3110
 4195WAT     H217501   3.089   5.936   0.798 -0.7119 -0.8359 -0.6795
 4195WAT    EPW17502   3.033   5.921   0.851 -0.3176 -0.3531 -0.1183
 4196WAT      O17503   4.190   4.604   3.404 -0.9459 -0.2217 -0.4253
 4196WAT     H117504   4.194   4.582   3.320  0.6188  0.7097 -0.6309
 4196WAT     H217505   4.188   4.528   3.446 -0.8066 -0.6942 -1.2601
 4196WAT    EPW17506   4.190   4.590   3.397 -0.6941 -0.1539 -0.5790
 4197WAT      O17507   4.331   5.243   3.924 -0.1366 -0.6456 -0.1589
 4197WAT     H117508   4.311   5.204   3.999 -1.2871  2.0557  1.0900
 4197WAT     H217509   4.261   5.229   3.874  0.7839 -2.7666 -0.9782
 4197WAT    EPW17510   4.318   5.235   3.927 -0.1706 -0.5599 -0.0954
 4198WAT      O17511   5.886   5.866   4.396 -0.3528 -0.2064 -0.5985
 4198WAT     H117512   5.880   5.948   4.425 -3.0346  0.1542 -1.8322
 4198WAT     H217513   5.935   5.874   4.324 -0.3979  0.3065 -0.5788
 4198WAT    EPW17514   5.892   5.879   4.389 -0.7556 -0.0773 -0.7778
 4199WAT      O17515   5.533   7.388   3.765  0.1757  0.0551 -0.6580
 4199WAT     H117516   5.468   7.354   3.812 -0.6196  1.4811 -0.7036
 4199WAT     H217517   5.494   7.414   3.692  0.8334  0.7711 -0.7610
 4199WAT    EPW17518   5.518   7.387   3.761  0.1554  0.3715 -0.6799
 4200WAT      O17519   5.559   6.626   2.923 -0.5036  0.1091  0.1953
 4200WAT     H117520   5.588   6.686   2.980 -2.1981  1.7250 -0.5254
 4200WAT     H217521   5.495   6.586   2.966 -0.2735 -0.2492  0.2049
 4200WAT    EPW17522   5.554   6.629   2.938 -0.7199  0.2948  0.0902
 4201WAT      O17523   4.932   5.121   0.971 -0.2202 -0.2963  0.0198
 4201WAT     H117524   4.900   5.197   0.941 -0.2314 -0.3161 -0.0186
 4201WAT     H217525   5.018   5.129   0.958  0.0794  0.6751  2.1822
 4201WAT    EPW17526   4.940   5.133   0.965 -0.1776 -0.1557  0.3336
 4202WAT      O17527   4.698   5.468   4.024  0.1845 -0.4591 -0.0771
 4202WAT     H117528   4.720   5.449   4.106  0.0083 -0.0686  0.0665
 4202WAT     H217529   4.756   5.424   3.976 -0.5551 -1.8126  0.2157
 4202WAT    EPW17530   4.709   5.459   4.029  0.0493 -0.6014 -0.0126
 4203WAT      O17531   4.388   6.994   4.903  0.0588  0.4383  0.8112
 4203WAT     H117532   4.442   6.985   4.971  1.9492  1.3654 -0.4904
 4203WAT     H217533   4.386   7.080   4.889  0.1123  0.2295 -0.5956
 4203WAT    EPW17534   4.396   7.005   4.911  0.3459  0.5444  0.4111
 4204WAT      O17535   3.797   6.859   2.310 -0.1596  0.0549 -0.3837
 4204WAT     H117536   3.877   6.824   2.317  0.0322  0.3047 -1.2052
 4204WAT     H217537   3.778   6.849   2.225 -0.2760  1.5643 -0.5515
 4204WAT    EPW17538   3.806   6.852   2.299 -0.1485  0.3148 -0.5298
 4205WAT      O17539   3.904   4.538   3.642  0.2575 -0.5462  0.1657
 4205WAT     H117540   3.900   4.533   3.729  0.7641  0.7354  0.2907
 4205WAT     H217541   3.950   4.468   3.619  1.4551 -0.1042  1.0836
 4205WAT    EPW17542   3.910   4.527   3.651  0.5092 -0.2916  0.3198
 4206WAT      O17543   3.574   6.001   1.858 -0.0085 -0.3075 -0.0233
 4206WAT     H117544   3.494   5.985   1.827 -0.6104  0.9746  0.7657
 4206WAT     H217545   3.603   5.923   1.883 -1.1775 -0.7375  0.0306
 4206WAT    EPW17546   3.567   5.987   1.858 -0.2701 -0.1816  0.1012
 4207WAT      O17547   4.302   6.159   0.913 -0.6426  0.2765  0.3437
 4207WAT     H117548   4.234   6.125   0.955 -0.1854  1.1670  1.9193
 4207WAT     H217549   4.350   6.194   0.978  0.8687  0.4232 -0.7939
 4207WAT    EPW17550   4.299   6.159   0.929 -0.3518  0.4297  0.4084
 4208WAT      O17551   4.343   7.022   2.756  0.3987 -0.0714  0.8759
 4208WAT     H117552   4.409   7.015   2.813  2.3518  0.2829 -1.1785
 4208WAT     H217553   4.347   7.106   2.731  2.2679 -1.0114 -2.5992
 4208WAT    EPW17554   4.353   7.034   2.760  0.9633 -0.1579  0.0591
 4209WAT      O17555   4.186   6.236   3.103 -0.1939  0.5400 -0.1082
 4209WAT     H117556   4.246   6.253   3.163 -0.6586 -3.1804  1.6651
 4209WAT     H217557   4.226   6.255   3.028  0.9981  3.7046  1.1843
 4209WAT    EPW17558   4.201   6.241   3.101 -0.0865  0.4579  0.3447
 4210WAT      O17559   4.801   6.409   1.972  0.0427 -0.3366  0.5392
 4210WAT     H117560   4.773   6.482   2.012  0.7787 -0.6217  1.6164
 4210WAT     H217561   4.877   6.432   1.937  0.7442 -0.8186  1.6997
 4210WAT    EPW17562   4.808   6.424   1.973  0.2550 -0.4499  0.8697
 4211WAT      O17563   3.874   4.791   2.844 -0.7904 -0.6978 -0.8943
 4211WAT     H117564   3.901   4.745   2.913 -2.0696  0.2553  0.3150
 4211WAT     H217565   3.816   4.739   2.805 -0.6141 -0.9497 -0.8243
 4211WAT    EPW17566   3.870   4.777   2.849 -0.9534 -0.5942 -0.7053
 4212WAT      O17567   4.029   7.023   3.397  0.1219  0.1401 -0.5481
 4212WAT     H117568   3.963   7.074   3.374  1.6586  1.2435 -2.9960
 4212WAT     H217569   4.069   7.068   3.460 -1.3501 -0.5355  0.9463
 4212WAT    EPW17570   4.025   7.037   3.403  0.1314  0.2033 -0.6889
 4213WAT      O17571   5.401   5.879   3.713 -0.0843  0.2636 -0.0933
 4213WAT     H117572   5.365   5.952   3.744  0.5152  1.0401 -1.1465
 4213WAT     H217573   5.397   5.823   3.780 -1.2830  1.0045  0.4660
 4213WAT    EPW17574   5.395   5.881   3.728 -0.1728  0.4877 -0.1662
 4214WAT      O17575   4.655   6.690   2.632  0.1889  0.7229  0.0318
 4214WAT     H117576   4.656   6.768   2.593 -3.0199  0.4411 -0.9102
 4214WAT     H217577   4.701   6.640   2.577 -0.9545  1.1826 -1.3992
 4214WAT    EPW17578   4.662   6.694   2.618 -0.4540  0.7492 -0.3188
 4215WAT      O17579   5.026   4.382   3.408  0.4425  0.1285 -0.7200
 4215WAT     H117580   5.088   4.365   3.349 -0.4358  0.1411 -1.6765
 4215WAT     H217581   5.034   4.317   3.466  2.0899  0.7686 -0.1813
 4215WAT    EPW17582   5.036   4.370   3.408  0.5561  0.2250 -0.7817
 4216WAT      O17583   4.555   7.114   3.155  0.2420 -0.2520  0.1689
 4216WAT     H117584   4.473   7.131   3.178  1.0779  3.1178  1.1529
 4216WAT     H217585   4.584   7.062   3.219 -0.8808 -0.9216  0.1605
 4216WAT    EPW17586   4.548   7.109   3.168  0.1996  0.1469  0.3130
 4217WAT      O17587   3.847   5.045   2.952 -0.0853 -0.2685  0.4335
 4217WAT     H117588   3.845   5.086   2.875 -0.5852 -1.1261 -0.0340
 4217WAT     H217589   3.852   4.960   2.930 -0.6870 -0.5569  1.3237
 4217WAT    EPW17590   3.847   5.038   2.937 -0.2480 -0.4377  0.4959
 4218WAT      O17591   3.722   4.718   2.386  0.0633 -0.1623 -0.8130
 4218WAT     H117592   3.688   4.646   2.349 -1.0650 -1.1761  1.9173
 4218WAT     H217593   3.779   4.686   2.444  2.0487  1.3657 -1.7691
 4218WAT    EPW17594   3.726   4.703   2.389  0.1899 -0.0863 -0.5509
 4219WAT      O17595   5.033   5.927   3.953  0.0279 -0.3635 -0.5484
 4219WAT     H117596   5.008   5.943   3.871  0.0012 -1.1496 -0.7038
 4219WAT     H217597   5.078   5.852   3.946 -1.1171 -1.1628  0.3481
 4219WAT    EPW17598   5.036   5.918   3.940 -0.1452 -0.5977 -0.4389
 4220WAT      O17599   3.673   6.373   2.306  0.3701 -0.5112  0.0710
 4220WAT     H117600   3.682   6.287   2.312 -2.0832 -0.8896 -0.6663
 4220WAT     H217601   3.658   6.387   2.221  1.2566  0.7344  0.0801
 4220WAT    EPW17602   3.672   6.363   2.295  0.1386 -0.3831 -0.0366
 4221WAT      O17603   3.999   5.008   2.447  0.5432 -0.1199 -0.3097
 4221WAT     H117604   3.963   4.946   2.398  0.9909 -0.5150 -0.1446
 4221WAT     H217605   4.082   5.009   2.422  0.6210  0.1567 -0.0481
 4221WAT    EPW17606   4.006   4.999   2.436  0.6208 -0.1374 -0.2467
 4222WAT      O17607   3.099   5.506   3.410 -0.1407  0.0528 -0.1505
 4222WAT     H117608   3.148   5.566   3.449 -0.5462  1.1473 -1.2540
 4222WAT     H217609   3.150   5.476   3.346  0.0236 -0.7213  0.3335
 4222WAT    EPW17610   3.114   5.510   3.406 -0.1763  0.1001 -0.2420
 4223WAT      O17611   3.977   0.135   2.897 -0.5783 -0.0288 -0.1163
 4223WAT     H117612   3.934   0.066   2.928 -0.5587  0.1756  0.3772
 4223WAT     H217613   4.052   0.100   2.868 -0.5654 -0.2126  0.1338
 4223WAT    EPW17614   3.982   0.119   2.897 -0.5735 -0.0258 -0.0065
 4224WAT      O17615   5.228   5.428   3.079 -0.0445 -0.1057 -0.1718
 4224WAT     H117616   5.194   5.444   3.001  1.9326  0.7756 -0.9171
 4224WAT     H217617   5.225   5.506   3.119  0.5110 -0.1386 -0.0463
 4224WAT    EPW17618   5.223   5.442   3.074  0.3296  0.0196 -0.2633
 4225WAT      O17619   2.966   4.282   3.657 -0.7701 -0.0167 -0.1855
 4225WAT     H117620   2.978   4.312   3.576  0.8791 -0.6876 -0.2272
 4225WAT     H217621   2.981   4.196   3.650  2.4576  0.2959  1.3108
 4225WAT    EPW17622   2.970   4.273   3.644 -0.0497 -0.0696  0.0294
 4226WAT      O17623   4.552   7.044   1.659 -1.3387  0.7071  0.0734
 4226WAT     H117624   4.625   7.017   1.700 -1.6174  0.0608  0.1482
 4226WAT     H217625   4.573   7.124   1.631 -0.2875  0.1961 -0.6739
 4226WAT    EPW17626   4.566   7.052   1.661 -1.2246  0.5361 -0.0259
 4227WAT      O17627   4.307   4.783   2.824  0.1352  0.2852  0.2522
 4227WAT     H117628   4.265   4.791   2.900 -0.7007 -0.3567 -0.1281
 4227WAT     H217629   4.248   4.745   2.771  1.7432 -2.4708  0.2177
 4227WAT    EPW17630   4.292   4.778   2.827  0.2493 -0.2167  0.1910
 4228WAT      O17631   5.432   5.156   3.437 -0.3620  0.8166 -0.3491
 4228WAT     H117632   5.474   5.232   3.428 -1.3630  1.8845  2.7010
 4228WAT     H217633   5.357   5.168   3.393  1.0090  0.0542 -3.1252
 4228WAT    EPW17634   5.427   5.169   3.429 -0.3074  0.8617 -0.3087
 4229WAT      O17635   5.184   5.396   1.738 -0.2496 -0.2381 -0.6913
 4229WAT     H117636   5.107   5.408   1.776  0.5271 -0.3909  1.0559
 4229WAT     H217637   5.237   5.380   1.806  2.0079  3.0958 -1.4287
 4229WAT    EPW17638   5.181   5.395   1.754  0.1986  0.2318 -0.5421
 4230WAT      O17639   3.482   5.839   2.601 -0.3309 -0.1876  0.3229
 4230WAT     H117640   3.494   5.768   2.651 -2.2570  1.0809  2.8605
 4230WAT     H217641   3.404   5.825   2.564 -0.5185  0.4035  0.4877
 4230WAT    EPW17642   3.473   5.826   2.603 -0.6431  0.0871  0.7221
 4231WAT      O17643   5.193   5.719   3.906  0.3627 -0.0061  0.4676
 4231WAT     H117644   5.198   5.697   3.822  1.6352 -0.2582  0.5865
 4231WAT     H217645   5.276   5.719   3.932 -0.0051  0.1251  1.7127
 4231WAT    EPW17646   5.206   5.715   3.898  0.4964 -0.0240  0.6691
 4232WAT      O17647   3.281   5.512   2.842 -0.1335  0.1733 -0.3682
 4232WAT     H117648   3.312   5.554   2.912 -2.1799  0.6984  0.2993
 4232WAT     H217649   3.237   5.445   2.877 -2.2853  1.1759 -1.0161
 4232WAT    EPW17650   3.279   5.508   2.857 -0.7537  0.3990 -0.3653
 4233WAT      O17651   4.721   5.511   4.316  0.0909 -0.1664  0.2000
 4233WAT     H117652   4.633   5.512   4.319 -0.0983 -1.0363 -2.4491
 4233WAT     H217653   4.743   5.451   4.375 -0.8999  1.4106  2.3361
 4233WAT    EPW17654   4.711   5.502   4.325 -0.0834 -0.0620  0.1242
 4234WAT      O17655   3.769   4.828   3.702 -1.0181 -0.3969  0.4648
 4234WAT     H117656   3.828   4.813   3.764 -1.7720 -1.8462  0.8695
 4234WAT     H217657   3.792   4.906   3.670  0.6855 -0.6106  1.0762
 4234WAT    EPW17658   3.781   4.837   3.706 -0.8778 -0.6425  0.6149
 4235WAT      O17659   5.767   7.146   4.417  0.3270  0.6738 -0.4676
 4235WAT     H117660   5.835   7.176   4.463  0.8854 -2.6594  1.1548
 4235WAT     H217661   5.796   7.148   4.334  1.2725  1.9731 -0.1311
 4235WAT    EPW17662   5.781   7.151   4.411  0.5492  0.3734 -0.1782
 4236WAT      O17663   4.310   5.500   3.434 -0.2178  0.3040 -0.1740
 4236WAT     H117664   4.290   5.416   3.446 -3.1973  0.9992  0.6304
 4236WAT     H217665   4.334   5.504   3.350  1.0987 -1.4861  0.0788
 4236WAT    EPW17666   4.310   5.488   3.423 -0.4635  0.1423 -0.0178
 4237WAT      O17667   4.233   7.446   4.771  0.0393 -0.5527  0.1084
 4237WAT     H117668   4.258   7.526   4.748 -2.3733 -0.4319 -2.6306
 4237WAT     H217669   4.151   7.456   4.797 -0.2199 -2.0810  0.0071
 4237WAT    EPW17670   4.225   7.459   4.771 -0.3554 -0.7606 -0.3112
 4238WAT      O17671   5.781   5.237   2.464  0.4861  0.1888  0.2358
 4238WAT     H117672   5.756   5.320   2.452 -1.5802 -0.4518 -0.2362
 4238WAT     H217673   5.717   5.202   2.512  1.1132 -1.2486  0.0880
 4238WAT    EPW17674   5.768   5.244   2.469  0.2735 -0.1181  0.1443
 4239WAT      O17675   4.029   5.454   2.497  0.3599  0.2366 -0.3901
 4239WAT     H117676   4.070   5.403   2.555  0.8882  0.8338 -0.2311
 4239WAT     H217677   4.050   5.418   2.420  1.0266  0.4250 -0.2997
 4239WAT    EPW17678   4.038   5.441   2.494  0.5364  0.3526 -0.3532
 4240WAT      O17679   5.858   4.142   3.411  0.0939  0.2929  0.0962
 4240WAT     H117680   5.899   4.067   3.429  0.6471  0.4900 -0.2981
 4240WAT     H217681   5.910   4.180   3.352 -0.9309  0.3099 -0.8294
 4240WAT    EPW17682   5.872   4.136   3.405  0.0242  0.3245 -0.0988
 4241WAT      O17683   5.512   5.827   3.465 -0.0955  0.1826  0.2603
 4241WAT     H117684   5.512   5.909   3.434 -1.0534 -0.1728 -0.7675
 4241WAT     H217685   5.470   5.834   3.541 -0.0647  0.6675  0.2373
 4241WAT    EPW17686   5.506   5.840   3.471 -0.2325  0.2017  0.1051
 4242WAT      O17687   5.009   6.695   2.372 -0.6557  0.7202  0.3872
 4242WAT     H117688   5.041   6.660   2.298 -0.2462 -1.2702  1.4430
 4242WAT     H217689   4.949   6.637   2.398 -0.1222  0.8815  2.1052
 4242WAT    EPW17690   5.005   6.681   2.365 -0.5164  0.4500  0.7969
 4243WAT      O17691   5.921   6.360   3.388 -0.1921 -0.1208  0.4286
 4243WAT     H117692   5.871   6.305   3.434 -1.5609  0.6219 -0.1181
 4243WAT     H217693   5.993   6.368   3.437 -0.6045 -1.2035  1.2521
 4243WAT    EPW17694   5.925   6.353   3.402 -0.4552 -0.1711  0.4695
 4244WAT      O17695   4.761   5.817   2.470  0.1059  0.0579  0.6566
 4244WAT     H117696   4.761   5.811   2.557 -0.7159 -2.4511  0.5447
 4244WAT     H217697   4.846   5.813   2.449  0.2174 -1.8617  1.2812
 4244WAT    EPW17698   4.773   5.816   2.479  0.0010 -0.5963  0.7323
 4245WAT      O17699   5.343   4.851   3.731  0.6890 -0.0806  0.4797
 4245WAT     H117700   5.373   4.802   3.665 -0.2320  1.5208 -1.2102
 4245WAT     H217701   5.282   4.800   3.767 -1.3827  0.2341 -2.2174
 4245WAT    EPW17702   5.339   4.836   3.727  0.2469  0.2025 -0.1684
 4246WAT      O17703   4.593   6.266   1.830  0.5052 -0.4370 -0.1490
 4246WAT     H117704   4.533   6.239   1.887 -0.5095  3.1206  0.7339
 4246WAT     H217705   4.657   6.297   1.881  2.0111 -1.8664 -1.0702
 4246WAT    EPW17706   4.594   6.267   1.846  0.5778 -0.1226 -0.1547
 4247WAT      O17707   5.005   4.621   3.181  0.1209  0.3162 -0.4931
 4247WAT     H117708   5.073   4.657   3.138  1.1409  0.8811  1.4879
 4247WAT     H217709   5.008   4.659   3.259 -2.4956  0.3108 -0.3183
 4247WAT    EPW17710   5.016   4.632   3.186 -0.1149  0.3988 -0.1746
 4248WAT      O17711   4.364   6.618   2.019  0.2582 -0.3116 -0.5655
 4248WAT     H117712   4.364   6.552   2.076 -2.8327  1.2644  1.5126
 4248WAT     H217713   4.311   6.591   1.956 -2.7201  0.6879  1.2754
 4248WAT    EPW17714   4.356   6.604   2.018 -0.6383  0.0689  0.0134
 4249WAT      O17715   4.597   4.925   2.224  0.1087  0.4676  0.0820
 4249WAT     H117716   4.628   5.007   2.224  0.4399  0.3433 -0.1199
 4249WAT     H217717   4.605   4.900   2.141 -0.0502  0.2491  0.1316
 4249WAT    EPW17718   4.602   4.933   2.212  0.1342  0.4169  0.0595
 4250WAT      O17719   5.506   4.613   4.238 -0.2518  0.0386  0.4442
 4250WAT     H117720   5.587   4.615   4.206 -0.4259  0.4022  0.0055
 4250WAT     H217721   5.485   4.529   4.236 -0.4722  0.0969 -0.9907
 4250WAT    EPW17722   5.515   4.601   4.233 -0.3101  0.1010  0.1674
 4251WAT      O17723   4.514   7.064   1.945  0.3578  0.4061 -0.1822
 4251WAT     H117724   4.428   7.072   1.955  0.3549  0.0016  0.1422
 4251WAT     H217725   4.529   7.099   1.867 -0.4621 -1.9252 -1.4675
 4251WAT    EPW17726   4.504   7.071   1.935  0.2362  0.0020 -0.3242
 4252WAT      O17727   5.166   0.175   2.969 -0.3927 -0.6388  0.9525
 4252WAT     H117728   5.088   0.169   2.930 -1.0181  0.8938  1.8519
 4252WAT     H217729   5.175   0.261   2.983  1.0150 -0.8815  1.7483
 4252WAT    EPW17730   5.156   0.187   2.965 -0.2771 -0.4483  1.2029
 4253WAT      O17731   4.538   6.873   4.381 -0.1185  0.9799  0.2004
 4253WAT     H117732   4.467   6.888   4.333  0.3501  0.6479 -0.6168
 4253WAT     H217733   4.508   6.874   4.463 -1.1161  0.5377 -0.1468
 4253WAT    EPW17734   4.523   6.876   4.386 -0.1967  0.8655  0.0284
 4254WAT      O17735   6.130   5.493   2.322  0.4195  0.1513  0.2989
 4254WAT     H117736   6.102   5.556   2.376 -1.8179 -0.1216 -0.4160
 4254WAT     H217737   6.164   5.537   2.254  1.6897  0.5090  1.1396
 4254WAT    EPW17738   6.131   5.509   2.320  0.2766  0.1638  0.3175
 4255WAT      O17739   4.947   5.709   3.076  0.4099 -0.2495 -0.3892
 4255WAT     H117740   4.914   5.699   2.995 -3.5676  1.1300  0.8388
 4255WAT     H217741   4.896   5.659   3.125  0.8926  1.1273  1.6343
 4255WAT    EPW17742   4.935   5.700   3.071 -0.1063  0.1577  0.0911
 4256WAT      O17743   5.153   6.043   3.072 -0.3196 -0.3187 -0.0341
 4256WAT     H117744   5.070   6.021   3.056 -0.4662 -0.1085  0.4165
 4256WAT     H217745   5.146   6.109   3.129  0.1573 -0.2434 -0.0580
 4256WAT    EPW17746   5.140   6.050   3.078 -0.2708 -0.2765  0.0289
 4257WAT      O17747   4.627   4.737   3.255 -0.0693 -0.1297  0.1284
 4257WAT     H117748   4.688   4.790   3.222 -0.6346  0.3770 -0.1148
 4257WAT     H217749   4.553   4.783   3.248 -0.7267 -1.2850 -0.8947
 4257WAT    EPW17750   4.625   4.752   3.249 -0.2499 -0.2255 -0.0587
 4258WAT      O17751   5.227   6.819   2.995 -0.7193  0.9865 -0.8058
 4258WAT     H117752   5.193   6.769   2.932 -0.9002 -0.7594  0.5949
 4258WAT     H217753   5.158   6.862   3.027 -1.2519 -0.5943  0.3077
 4258WAT    EPW17754   5.212   6.818   2.990 -0.8247  0.4951 -0.4344
 4259WAT      O17755   2.505   6.251   2.261 -0.2968  0.4303  0.1112
 4259WAT     H117756   2.538   6.184   2.215  0.7843  1.1823 -0.2606
 4259WAT     H217757   2.498   6.219   2.342 -0.1173 -0.2301 -0.1238
 4259WAT    EPW17758   2.509   6.236   2.266 -0.1106  0.4438  0.0216
 4260WAT      O17759   4.767   5.625   2.029  0.2732 -0.0434  0.1730
 4260WAT     H117760   4.713   5.558   2.042  0.8642 -0.2567  1.5805
 4260WAT     H217761   4.787   5.652   2.109  0.6846  1.3155 -0.3578
 4260WAT    EPW17762   4.762   5.619   2.042  0.4213  0.1258  0.3025
 4261WAT      O17763   5.995   6.036   2.580 -0.5106  0.0517 -0.2206
 4261WAT     H117764   5.956   5.986   2.640 -0.1890 -0.6728 -0.6024
 4261WAT     H217765   5.995   6.116   2.616 -0.8097 -0.2704  0.5037
 4261WAT    EPW17766   5.989   6.041   2.594 -0.5073 -0.1029 -0.1700
 4262WAT      O17767   5.471   4.215   3.541  0.3713  0.2038 -0.3371
 4262WAT     H117768   5.460   4.142   3.494 -0.7765  0.3286 -0.2862
 4262WAT     H217769   5.398   4.260   3.526 -0.0554  0.2318  1.5835
 4262WAT    EPW17770   5.459   4.211   3.532  0.1387  0.2264 -0.0459
 4263WAT      O17771   4.292   6.889   3.683 -0.3712 -0.0544 -0.1021
 4263WAT     H117772   4.279   6.974   3.668 -1.4417 -0.0007  0.9556
 4263WAT     H217773   4.215   6.853   3.663  0.2896 -0.9061 -1.2432
 4263WAT    EPW17774   4.278   6.897   3.678 -0.4318 -0.1723 -0.1144
 4264WAT      O17775   3.985   5.645   2.768 -0.0416 -0.1439  0.1570
 4264WAT     H117776   3.942   5.629   2.694 -1.1800 -0.6890  0.9122
 4264WAT     H217777   3.935   5.608   2.829 -0.0501  1.7685  1.4018
 4264WAT    EPW17778   3.971   5.637   2.766 -0.2110  0.0581  0.4524
 4265WAT      O17779   5.054   6.470   1.873  0.1814 -0.0096 -0.0686
 4265WAT     H117780   5.096   6.394   1.860 -0.3436 -0.3875  0.4176
 4265WAT     H217781   5.101   6.527   1.827 -0.5344 -0.9549 -2.0964
 4265WAT    EPW17782   5.067   6.467   1.864 -0.0019 -0.2051 -0.2963
 4266WAT      O17783   4.394   5.206   1.759  0.1862 -0.4138  0.0722
 4266WAT     H117784   4.384   5.292   1.767 -1.2232 -0.5791  0.4442
 4266WAT     H217785   4.480   5.194   1.764  0.4035  0.9680 -0.0204
 4266WAT    EPW17786   4.405   5.217   1.761  0.0101 -0.2341  0.1135
 4267WAT      O17787   4.470   5.722   2.593 -0.2870 -0.2352  0.3624
 4267WAT     H117788   4.400   5.774   2.585  0.0468  0.1445 -0.0879
 4267WAT     H217789   4.528   5.756   2.539 -0.4915 -1.8202 -0.9369
 4267WAT    EPW17790   4.468   5.734   2.584 -0.2679 -0.4132  0.1039
 4268WAT      O17791   6.113   5.138   3.790 -0.2075 -0.3987  0.9035
 4268WAT     H117792   6.076   5.077   3.841  0.0697 -0.6582  0.7948
 4268WAT     H217793   6.057   5.146   3.724  0.0745 -1.0224  0.5758
 4268WAT    EPW17794   6.099   5.130   3.788 -0.1249 -0.5292  0.8390
 4269WAT      O17795   3.590   7.372   4.545  0.2981 -0.7954 -0.2295
 4269WAT     H117796   3.554   7.385   4.467  0.9922 -1.3255 -0.6393
 4269WAT     H217797   3.547   7.428   4.596 -0.1274 -0.4091 -0.9931
 4269WAT    EPW17798   3.578   7.382   4.541  0.3378 -0.8167 -0.4028
 4270WAT      O17799   2.867   7.279   3.762  0.0086 -0.1283  0.6628
 4270WAT     H117800   2.937   7.318   3.797  0.4650  0.6296 -0.9757
 4270WAT     H217801   2.826   7.244   3.831  1.1053  0.8328  1.8549
 4270WAT    EPW17802   2.871   7.279   3.777  0.2381  0.1256  0.5969
 4271WAT      O17803   4.579   4.716   1.450  0.3781  0.2141  0.0674
 4271WAT     H117804   4.574   4.798   1.480 -0.0950 -0.2188  1.2221
 4271WAT     H217805   4.502   4.681   1.473 -0.1475 -0.0978 -1.9041
 4271WAT    EPW17806   4.567   4.723   1.458  0.2306  0.1041 -0.0532
 4272WAT      O17807   5.527   7.350   4.138  0.6183 -0.0543  0.5718
 4272WAT     H117808   5.516   7.308   4.214  1.3244 -1.8244 -0.2778
 4272WAT     H217809   5.519   7.288   4.078 -0.2988  1.3728 -0.8730
 4272WAT    EPW17810   5.524   7.335   4.141  0.5871 -0.1050  0.2329
 4273WAT      O17811   4.718   6.317   4.521 -0.1742 -0.3670 -0.2428
 4273WAT     H117812   4.752   6.342   4.597 -2.8411  3.1030  0.0328
 4273WAT     H217813   4.667   6.249   4.542 -0.4675  0.2102  1.0025
 4273WAT    EPW17814   4.716   6.311   4.535 -0.6115  0.2309 -0.0181
 4274WAT      O17815   4.754   7.059   4.349 -0.2654  0.6662 -0.0675
 4274WAT     H117816   4.730   7.102   4.277 -2.0733  2.1223  1.2959
 4274WAT     H217817   4.692   6.999   4.359  0.6185 -0.3145 -0.3200
 4274WAT    EPW17818   4.741   7.057   4.340 -0.4019  0.7364  0.0966
 4275WAT      O17819   4.516   4.439   2.731 -0.8531  0.1884  0.0666
 4275WAT     H117820   4.573   4.378   2.756 -0.2471  0.4578 -0.6238
 4275WAT     H217821   4.479   4.465   2.806 -1.8853 -1.7415  0.3099
 4275WAT    EPW17822   4.519   4.434   2.746 -0.9160 -0.0569  0.0006
 4276WAT      O17823   5.964   5.858   2.367  0.1856  0.4398  0.3524
 4276WAT     H117824   6.000   5.799   2.421 -4.3026 -0.6173  2.6518
 4276WAT     H217825   5.969   5.932   2.413  0.2250  0.5117  0.2325
 4276WAT    EPW17826   5.970   5.860   2.382 -0.4716  0.2943  0.6744
 4277WAT      O17827   4.513   4.904   4.518  0.7420  0.4100  0.2409
 4277WAT     H117828   4.525   4.818   4.508 -0.2477  0.3836 -0.9804
 4277WAT     H217829   4.507   4.933   4.436  0.8826  1.6241  0.6404
 4277WAT    EPW17830   4.514   4.896   4.504  0.6166  0.5854  0.1195
 4278WAT      O17831   5.585   5.181   1.846  0.0793  0.1983 -0.2315
 4278WAT     H117832   5.610   5.170   1.763  0.7117  1.1630 -0.1830
 4278WAT     H217833   5.650   5.143   1.891 -0.3376 -0.4568 -0.1750
 4278WAT    EPW17834   5.598   5.173   1.840  0.1111  0.2440 -0.2160
 4279WAT      O17835   4.586   5.925   4.240  0.0657  0.0601 -0.8695
 4279WAT     H117836   4.605   5.880   4.313 -0.1782  2.1186  0.5363
 4279WAT     H217837   4.536   5.869   4.195 -1.3185 -0.6529  1.3809
 4279WAT    EPW17838   4.582   5.910   4.244 -0.1748  0.2588 -0.3294
 4280WAT      O17839   4.350   0.062   2.602 -0.5455 -0.0206  0.2189
 4280WAT     H117840   4.291   0.017   2.556  1.6281 -0.6998 -2.1187
 4280WAT     H217841   4.400   0.000   2.639  0.0124  0.5135  0.3874
 4280WAT    EPW17842   4.349   0.046   2.601 -0.1420 -0.0421 -0.1015
 4281WAT      O17843   4.237   4.141   1.024  0.3279 -0.2721 -0.0326
 4281WAT     H117844   4.299   4.137   0.963 -0.4204 -0.3316 -0.8049
 4281WAT     H217845   4.251   4.218   1.062  2.4556 -1.3411  1.5423
 4281WAT    EPW17846   4.249   4.152   1.020  0.5317 -0.4388  0.0859
 4282WAT      O17847   4.660   5.082   4.690  0.2420  0.3086 -0.4699
 4282WAT     H117848   4.632   5.127   4.621  1.0635  1.5300 -0.0239
 4282WAT     H217849   4.654   4.999   4.663  0.8896  0.7623 -2.1596
 4282WAT    EPW17850   4.655   5.076   4.676  0.4590  0.5561 -0.6536
 4283WAT      O17851   4.664   4.622   2.000 -0.2312  0.2696 -0.0763
 4283WAT     H117852   4.742   4.633   2.038 -0.3500 -2.6968  1.3288
 4283WAT     H217853   4.607   4.638   2.064 -0.7558  1.3950 -0.8063
 4283WAT    EPW17854   4.667   4.626   2.015 -0.3263 -0.0023  0.0234
 4284WAT      O17855   2.689   6.918   1.465  0.1164  0.6445  0.0852
 4284WAT     H117856   2.683   6.887   1.546 -2.1218  0.9266  0.0907
 4284WAT     H217857   2.686   6.847   1.415 -1.3061  0.5931  0.2059
 4284WAT    EPW17858   2.687   6.903   1.469 -0.4244  0.6786  0.1038
 4285WAT      O17859   5.321   5.009   3.046 -0.3763 -0.0008  0.3361
 4285WAT     H117860   5.372   4.958   3.096 -1.6183 -1.5159  0.1430
 4285WAT     H217861   5.298   5.074   3.099  1.6495  0.7025  0.4472
 4285WAT    EPW17862   5.325   5.011   3.061 -0.2605 -0.1207  0.3240
 4286WAT      O17863   5.389   5.266   2.187 -0.0980  0.4168 -0.4048
 4286WAT     H117864   5.420   5.311   2.119 -0.2196  1.9916  0.5442
 4286WAT     H217865   5.309   5.242   2.161  0.5258 -0.6453 -1.5074
 4286WAT    EPW17866   5.382   5.269   2.173 -0.0238  0.4925 -0.4275
 4287WAT      O17867   4.552   4.815   3.909 -0.5054 -0.1514  0.4018
 4287WAT     H117868   4.520   4.878   3.857  1.0218  1.3689  1.1797
 4287WAT     H217869   4.486   4.797   3.963 -0.6427  1.6613  0.8981
 4287WAT    EPW17870   4.537   4.822   3.909 -0.3001  0.3410  0.5900
 4288WAT      O17871   6.700   6.261   3.151 -0.1616 -0.1818 -0.4667
 4288WAT     H117872   6.779   6.249   3.115 -0.7785  1.0900 -2.3311
 4288WAT     H217873   6.667   6.181   3.154  0.1896 -0.4148 -2.1207
 4288WAT    EPW17874   6.707   6.247   3.146 -0.2008 -0.0284 -0.9865
 4289WAT      O17875   4.293   7.138   3.220 -0.0713 -0.2681  0.1972
 4289WAT     H117876   4.273   7.191   3.153  0.2376  1.2614  1.2667
 4289WAT     H217877   4.234   7.074   3.214  0.6629 -0.8598 -2.2290
 4289WAT    EPW17878   4.282   7.136   3.209  0.0828 -0.1295 -0.0032
 4290WAT      O17879   3.982   6.452   3.165  0.2737  0.0494  0.4250
 4290WAT     H117880   3.898   6.433   3.171  0.0576  0.3855 -1.0231
 4290WAT     H217881   4.022   6.384   3.202 -0.5741 -1.3452 -1.1085
 4290WAT    EPW17882   3.976   6.439   3.171  0.1166 -0.1070 -0.0154
 4291WAT      O17883   4.929   4.820   3.364 -0.1096  0.2738  0.8458
 4291WAT     H117884   4.997   4.871   3.346 -0.4708  0.2990 -0.5904
 4291WAT     H217885   4.860   4.873   3.355 -0.5298 -0.5250 -1.2224
 4291WAT    EPW17886   4.928   4.836   3.360 -0.2250  0.1595  0.3281
 4292WAT      O17887   5.864   5.550   2.737  0.3000 -0.1199  0.0339
 4292WAT     H117888   5.898   5.540   2.817  0.2424 -0.0333  0.0700
 4292WAT     H217889   5.778   5.554   2.752  0.2635 -0.4666 -0.0699
 4292WAT    EPW17890   5.856   5.549   2.751  0.2861 -0.1583  0.0239
 4293WAT      O17891   4.685   4.228   2.748 -0.2970 -0.0902  0.2843
 4293WAT     H117892   4.647   4.165   2.701 -1.8570  1.3371 -0.4503
 4293WAT     H217893   4.770   4.217   2.731 -0.5058 -2.0692  0.3090
 4293WAT    EPW17894   4.692   4.217   2.739 -0.5583 -0.1717  0.1795
 4294WAT      O17895   3.730   4.827   3.165 -0.0574 -0.6531  0.0724
 4294WAT     H117896   3.755   4.873   3.235 -0.6347 -0.0895 -0.0795
 4294WAT     H217897   3.789   4.764   3.160  0.1997 -0.4908  0.8601
 4294WAT    EPW17898   3.742   4.825   3.175 -0.1047 -0.5459  0.1663
 4295WAT      O17899   3.849   5.704   3.982  0.0284  0.1690 -0.6045
 4295WAT     H117900   3.932   5.726   3.968  0.8062 -1.0202  1.6363
 4295WAT     H217901   3.818   5.687   3.902  1.4913  1.9572 -1.6253
 4295WAT    EPW17902   3.857   5.705   3.969  0.3594  0.2575 -0.4243
 4296WAT      O17903   5.400   6.015   1.988 -0.2716  0.5881 -0.3349
 4296WAT     H117904   5.419   6.101   1.985 -0.8965  0.7042 -1.9299
 4296WAT     H217905   5.442   5.982   1.919 -1.9713  0.0452 -1.1468
 4296WAT    EPW17906   5.409   6.023   1.977 -0.6150  0.5250 -0.6904
 4297WAT      O17907   3.492   4.797   3.419 -0.1233 -0.1461  0.1075
 4297WAT     H117908   3.547   4.738   3.453 -0.0054  0.2041  0.5300
 4297WAT     H217909   3.541   4.869   3.413 -0.6837  0.3345  1.0492
 4297WAT    EPW17910   3.508   4.799   3.423 -0.1887 -0.0234  0.3090
 4298WAT      O17911   5.950   5.609   3.252 -0.4713 -0.4166  0.1295
 4298WAT     H117912   5.867   5.631   3.268  0.3429  4.7719 -1.1558
 4298WAT     H217913   5.949   5.587   3.167 -0.5510 -1.0316  0.2797
 4298WAT    EPW17914   5.938   5.609   3.241 -0.3628  0.2590 -0.0382
 4299WAT      O17915   4.324   6.311   3.337 -0.1255 -0.0507 -0.5045
 4299WAT     H117916   4.408   6.320   3.314  0.1736  0.5532  0.7335
 4299WAT     H217917   4.314   6.225   3.347 -0.5418 -0.4770 -3.6942
 4299WAT    EPW17918   4.335   6.299   3.335 -0.1428 -0.0244 -0.7928
 4300WAT      O17919   5.063   1.018   4.683  0.1482  0.1447 -0.6334
 4300WAT     H117920   5.139   1.049   4.657  0.0819  1.7003  0.8563
 4300WAT     H217921   5.071   1.014   4.770 -1.4716  0.4021 -0.4392
 4300WAT    EPW17922   5.075   1.022   4.692 -0.1009  0.4125 -0.3846
 4301WAT      O17923   3.767   4.220   3.544 -0.3646 -0.5162 -0.1102
 4301WAT     H117924   3.826   4.159   3.564 -0.0921  0.0362  0.8326
 4301WAT     H217925   3.735   4.243   3.622 -1.0107 -0.0032 -0.5272
 4301WAT    EPW17926   3.771   4.214   3.559 -0.4198 -0.3588 -0.0325
 4302WAT      O17927   3.460   4.441   3.648 -0.0548  0.3814  0.2545
 4302WAT     H117928   3.481   4.414   3.728  1.0013  0.4407  0.0140
 4302WAT     H217929   3.453   4.368   3.602  1.3053  0.4136 -0.0439
 4302WAT    EPW17930   3.462   4.426   3.653  0.3021  0.3949  0.1749
 4303WAT      O17931   4.749   6.569   3.446 -0.2470  0.1307  0.3990
 4303WAT     H117932   4.760   6.487   3.475  0.0014 -0.1892 -0.5566
 4303WAT     H217933   4.811   6.577   3.385  1.0544  1.7245  1.8216
 4303WAT    EPW17934   4.760   6.558   3.441 -0.0181  0.3189  0.4680
 4304WAT      O17935   5.032   4.950   2.555  0.2035 -0.0804  0.2680
 4304WAT     H117936   5.087   4.985   2.613  0.0610 -0.3278  0.5544
 4304WAT     H217937   4.966   4.920   2.604  0.6238 -1.3359  0.0898
 4304WAT    EPW17938   5.030   4.951   2.571  0.2446 -0.3024  0.2840
 4305WAT      O17939   4.089   4.721   2.666 -1.1573 -0.3618  0.2745
 4305WAT     H117940   4.035   4.769   2.715 -0.3492 -0.1145  0.9251
 4305WAT     H217941   4.034   4.673   2.617 -2.0080  1.4639 -0.6757
 4305WAT    EPW17942   4.073   4.721   2.666 -1.1636 -0.0556  0.2303
 4306WAT      O17943   4.255   6.809   2.193  0.4866  0.0997  0.1388
 4306WAT     H117944   4.300   6.747   2.150  0.9662 -0.3768  1.2855
 4306WAT     H217945   4.180   6.814   2.149  0.7605 -0.7276 -0.4516
 4306WAT    EPW17946   4.251   6.800   2.180  0.5979 -0.0929  0.2210
 4307WAT      O17947   3.549   7.514   1.903 -0.1989 -0.0895 -0.8619
 4307WAT     H117948   3.561   7.447   1.958  2.7972  0.8050 -0.2845
 4307WAT     H217949   3.629   7.530   1.872 -1.2060  1.8086 -2.7003
 4307WAT    EPW17950   3.562   7.506   1.907  0.0950  0.3230 -1.0482
 4308WAT      O17951   5.193   4.753   3.000  0.2131 -0.2027  0.2342
 4308WAT     H117952   5.267   4.724   2.965  0.3941 -2.0658  2.0225
 4308WAT     H217953   5.210   4.837   3.018  1.4694 -0.2990 -0.3841
 4308WAT    EPW17954   5.206   4.761   2.997  0.4254 -0.4922  0.4070
 4309WAT      O17955   5.266   6.049   2.540  0.1832 -0.3203 -0.5490
 4309WAT     H117956   5.338   6.036   2.493 -0.4581 -0.2390 -1.5869
 4309WAT     H217957   5.238   6.128   2.514  0.8570  0.6227  1.3984
 4309WAT    EPW17958   5.272   6.059   2.530  0.1880 -0.1690 -0.4147
 4310WAT      O17959   5.303   6.736   4.473  0.0597  0.1169  0.0127
 4310WAT     H117960   5.331   6.677   4.532 -0.3499  0.7393  0.8460
 4310WAT     H217961   5.243   6.781   4.517  1.2713  2.0217 -0.1767
 4310WAT    EPW17962   5.298   6.734   4.488  0.1782  0.4902  0.1078
 4311WAT      O17963   5.581   5.748   2.543  0.4037 -0.2785  0.4531
 4311WAT     H117964   5.578   5.817   2.597 -1.4599  1.1447 -1.3138
 4311WAT     H217965   5.506   5.705   2.561  0.4157 -0.5345 -0.0862
 4311WAT    EPW17966   5.569   5.752   2.554  0.1302 -0.1061  0.1125
 4312WAT      O17967   5.997   5.772   4.127 -0.0620  0.1596 -0.2835
 4312WAT     H117968   5.953   5.709   4.085  1.2768 -0.2368 -1.1646
 4312WAT     H217969   6.016   5.830   4.064  0.2056  0.5771  0.1730
 4312WAT    EPW17970   5.994   5.771   4.111  0.1753  0.1627 -0.3462
 4313WAT      O17971   4.853   5.369   3.816  0.4193 -0.2072  0.1335
 4313WAT     H117972   4.911   5.395   3.756 -0.1022  0.9315  0.0988
 4313WAT     H217973   4.885   5.292   3.843  0.7301 -0.6861 -1.5004
 4313WAT    EPW17974   4.867   5.361   3.812  0.3882 -0.1097 -0.1130
 4314WAT      O17975   4.289   4.939   3.084 -0.0271  0.7745  0.0238
 4314WAT     H117976   4.292   4.933   3.171  0.0860  1.0934  0.0448
 4314WAT     H217977   4.219   4.989   3.070 -0.1201  0.6160 -0.0732
 4314WAT    EPW17978   4.279   4.946   3.095 -0.0242  0.7982  0.0125
 4315WAT      O17979   4.643   7.395   3.583  0.2134  0.4164 -0.5864
 4315WAT     H117980   4.675   7.319   3.557  0.2677  0.2263  0.0278
 4315WAT     H217981   4.612   7.430   3.510  1.1661  0.2914 -1.0631
 4315WAT    EPW17982   4.643   7.389   3.569  0.3622  0.3698 -0.5661
 4316WAT      O17983   4.424   6.822   3.424 -0.4367  0.7023  0.0231
 4316WAT     H117984   4.370   6.865   3.478  1.3710  4.0607 -0.5545
 4316WAT     H217985   4.478   6.781   3.478 -1.5713 -0.0628  0.6285
 4316WAT    EPW17986   4.424   6.823   3.440 -0.3372  1.0854  0.0272
 4317WAT      O17987   3.805   7.124   2.414 -0.1134  0.4447  0.1010
 4317WAT     H117988   3.801   7.039   2.396 -1.2295 -0.3337  3.3869
 4317WAT     H217989   3.872   7.131   2.469  1.1016  2.0770 -1.4577
 4317WAT    EPW17990   3.814   7.113   2.419 -0.0988  0.5708  0.3561
 4318WAT      O17991   6.284   7.432   3.850 -0.6950 -0.3725  0.5866
 4318WAT     H117992   6.265   7.444   3.766  0.3206 -2.5715 -0.0262
 4318WAT     H217993   6.259   7.506   3.887 -3.0217 -0.0832 -1.3265
 4318WAT    EPW17994   6.278   7.445   3.843 -0.8886 -0.6546  0.2135
 4319WAT      O17995   3.175   4.889   1.124  0.4386 -0.1510 -0.5365
 4319WAT     H117996   3.177   4.809   1.160 -1.0697  0.5903  1.3983
 4319WAT     H217997   3.258   4.903   1.101  1.0042 -1.7485  0.3583
 4319WAT    EPW17998   3.188   4.879   1.126  0.2994 -0.2775 -0.1185
 4320WAT      O17999   3.517   5.927   0.870  0.0348  0.3682  0.2114
 4320WAT     H118000   3.514   5.865   0.930 -0.3131  0.1462 -0.0262
 4320WAT     H218001   3.476   5.891   0.801  0.3252  0.6543 -0.1172
 4320WAT    EPW18002   3.510   5.913   0.869  0.0263  0.3777  0.1278
 4321WAT      O18003   2.750   5.743   2.309  0.2239 -0.9311  0.2459
 4321WAT     H118004   2.820   5.730   2.359  0.7704 -1.2974 -0.6113
 4321WAT     H218005   2.782   5.779   2.236 -0.2858 -2.3338 -0.7094
 4321WAT    EPW18006   2.765   5.746   2.306  0.2293 -1.1924 -0.0218
 4322WAT      O18007   5.634   5.824   7.475 -0.0346 -0.6417 -0.1584
 4322WAT     H118008   5.638   5.747   7.515  1.2065 -0.5879 -0.1591
 4322WAT     H218009   5.683   5.876   7.525 -1.1862  0.2668  0.0672
 4322WAT    EPW18010   5.642   5.820   7.488 -0.0214 -0.4996 -0.1252
 4323WAT      O18011   4.634   5.131   7.583  0.0405  0.2253 -0.1365
 4323WAT     H118012   4.714   5.131   7.549 -0.1978  0.2072 -0.7064
 4323WAT     H218013   4.620   5.215   7.601 -0.1957  0.3749 -0.9712
 4323WAT    EPW18014   4.644   5.144   7.581 -0.0296  0.2447 -0.3440
 4324WAT      O18015   1.757   7.105   0.043 -0.0228  0.5013 -0.0274
 4324WAT     H118016   1.742   7.183   0.007 -2.5268 -0.4458 -1.2408
 4324WAT     H218017   1.692   7.097   0.101  1.9443  0.5028  2.3631
 4324WAT    EPW18018   1.745   7.116   0.046 -0.1021  0.3616  0.1465
 4325WAT      O18019   2.580   6.395   0.759  0.3891  0.3343  0.0325
 4325WAT     H118020   2.599   6.469   0.717  2.3006  0.0340  0.2770
 4325WAT     H218021   2.622   6.334   0.714  0.8950 -0.2496  1.2494
 4325WAT    EPW18022   2.589   6.397   0.746  0.7462  0.2037  0.2484
 4326WAT      O18023   3.698   6.833   7.252 -0.4635 -0.5436  0.2765
 4326WAT     H118024   3.758   6.817   7.313 -0.0793  0.8194  0.3014
 4326WAT     H218025   3.642   6.767   7.259  0.4974 -1.3050  0.9369
 4326WAT    EPW18026   3.698   6.821   7.262 -0.2648 -0.4548  0.3777
 4327WAT      O18027   3.747   4.386   0.636  0.1170  0.0381 -0.2533
 4327WAT     H118028   3.741   4.452   0.579 -2.0717  0.2750  0.1471
 4327WAT     H218029   3.703   4.415   0.705  1.0895 -0.9900  0.8345
 4327WAT    EPW18030   3.739   4.400   0.637 -0.0626 -0.0787 -0.0334
 4328WAT      O18031   3.656   6.489   6.645  0.3622  0.2315  0.0476
 4328WAT     H118032   3.685   6.534   6.714  1.3074 -2.7752  1.7900
 4328WAT     H218033   3.727   6.476   6.597  0.7650 -1.6801  1.0412
 4328WAT    EPW18034   3.671   6.494   6.648  0.5613 -0.4950  0.4518
 4329WAT      O18035   1.781   5.349   1.219 -0.3853  0.8639  0.5944
 4329WAT     H118036   1.749   5.286   1.168  0.7504  1.4333 -0.9232
 4329WAT     H218037   1.865   5.328   1.227 -0.2832  1.4643  1.1923
 4329WAT    EPW18038   1.789   5.337   1.212 -0.2025  1.0367  0.4586
 4330WAT      O18039   4.132   7.684   0.725  0.6727  0.0091 -0.4475
 4330WAT     H118040   4.059   7.666   0.768  0.9441 -1.1096 -0.4313
 4330WAT     H218041   4.195   7.668   0.784  1.0477 -1.4805 -1.2150
 4330WAT    EPW18042   4.131   7.679   0.740  0.7682 -0.3762 -0.5585
 4331WAT      O18043   3.780   5.319   1.652  0.0492 -0.4362 -0.5232
 4331WAT     H118044   3.816   5.393   1.623 -0.5433  0.2403  0.4253
 4331WAT     H218045   3.740   5.343   1.726 -0.1406 -1.7062 -0.1881
 4331WAT    EPW18046   3.780   5.334   1.659 -0.0664 -0.5239 -0.3336
 4332WAT      O18047   5.032   4.459   1.390 -0.2939  0.1412  0.1239
 4332WAT     H118048   5.022   4.494   1.311  0.9083  0.7944  0.2282
 4332WAT     H218049   4.952   4.433   1.412 -1.0265  1.7420 -0.4856
 4332WAT    EPW18050   5.019   4.461   1.382 -0.2245  0.4742  0.0493
 4333WAT      O18051   4.342   6.781   1.126  0.0934  0.6401 -0.0035
 4333WAT     H118052   4.277   6.812   1.077 -0.0492  1.9125  0.9583
 4333WAT     H218053   4.413   6.813   1.088  0.1001  0.1298 -0.4291
 4333WAT    EPW18054   4.343   6.790   1.113  0.0733  0.7527  0.0757
 4334WAT      O18055   5.086   5.673   1.213 -0.4102 -0.2918  0.3769
 4334WAT     H118056   5.015   5.710   1.177 -3.3772 -4.5265  1.1520
 4334WAT     H218057   5.115   5.620   1.150 -1.5630 -2.7682  1.7876
 4334WAT    EPW18058   5.079   5.671   1.199 -1.0188 -1.2832  0.6998
 4335WAT      O18059   5.026   6.501   0.728  0.1484  0.1710 -0.4737
 4335WAT     H118060   5.079   6.559   0.690 -1.3283  0.6945 -1.8520
 4335WAT     H218061   4.987   6.547   0.791  0.1893  0.2314 -0.4925
 4335WAT    EPW18062   5.028   6.516   0.731 -0.0637  0.2572 -0.6801
 4336WAT      O18063   4.314   5.514   0.121 -0.5285  0.5077 -0.2551
 4336WAT     H118064   4.295   5.440   0.163  2.9450  0.0980  0.9683
 4336WAT     H218065   4.394   5.500   0.090 -0.8345  2.8193 -2.4197
 4336WAT    EPW18066   4.323   5.501   0.123 -0.0606  0.7887 -0.3942
 4337WAT      O18067   3.536   6.545   2.599  0.3842  0.2011  0.1151
 4337WAT     H118068   3.535   6.561   2.513  0.4890 -1.4244 -0.2072
 4337WAT     H218069   3.457   6.572   2.625 -0.4700 -1.2122 -0.8897
 4337WAT    EPW18070   3.524   6.551   2.590  0.2735 -0.2478 -0.0810
 4338WAT      O18071   2.788   6.979   0.044 -0.4531  0.2374 -0.3757
 4338WAT     H118072   2.780   7.033  -0.025 -0.1087 -0.9655 -1.3905
 4338WAT     H218073   2.705   6.970   0.071 -0.4823  1.5466  0.0568
 4338WAT    EPW18074   2.774   6.986   0.038 -0.4065  0.2531 -0.4617
 4339WAT      O18075   5.020   4.311   2.261  0.3394 -0.6319  0.0829
 4339WAT     H118076   4.976   4.352   2.198 -0.0223 -1.4482 -0.2074
 4339WAT     H218077   4.965   4.249   2.288  0.3048 -0.0156  1.5331
 4339WAT    EPW18078   5.005   4.308   2.255  0.2809 -0.6614  0.2542
 4340WAT      O18079   5.682   4.555   0.044 -0.7055 -0.0137 -0.0870
 4340WAT     H118080   5.759   4.566   0.004 -0.6093  0.7880  0.2873
 4340WAT     H218081   5.676   4.469   0.054  0.0370 -0.1023 -0.3290
 4340WAT    EPW18082   5.693   4.544   0.039 -0.5816  0.0917 -0.0675
 4341WAT      O18083   3.855   4.992   1.368  0.0848  0.0962  0.1938
 4341WAT     H118084   3.834   5.076   1.360 -1.7370 -0.2625  0.7625
 4341WAT     H218085   3.942   4.992   1.360  0.0992  1.9769 -0.1581
 4341WAT    EPW18086   3.865   5.004   1.365 -0.1822  0.3210  0.2258
 4342WAT      O18087   3.053   6.500   0.595 -0.6222 -0.2730 -0.2170
 4342WAT     H118088   3.072   6.446   0.660  1.7438 -0.0186 -0.6324
 4342WAT     H218089   2.999   6.453   0.545 -1.7053 -0.8110  1.3751
 4342WAT    EPW18090   3.047   6.485   0.597 -0.4327 -0.3149 -0.0432
 4343WAT      O18091   3.589   5.502   0.002  0.4594  0.1639  0.1199
 4343WAT     H118092   3.635   5.576   0.007  1.2317 -0.3702  1.3726
 4343WAT     H218093   3.541   5.503   0.075  0.2264 -0.4104 -0.0236
 4343WAT    EPW18094   3.589   5.513   0.014  0.5391  0.0001  0.2837
 4344WAT      O18095   3.843   6.704   0.617  0.0430 -0.5100  0.3198
 4344WAT     H118096   3.796   6.681   0.547  0.1213  3.5013 -1.3529
 4344WAT     H218097   3.785   6.700   0.682 -1.1974 -0.6301 -0.7486
 4344WAT    EPW18098   3.827   6.700   0.616 -0.1286  0.0648 -0.0851
 4345WAT      O18099   3.592   6.098   0.627 -0.3465  0.0083 -0.0054
 4345WAT     H118100   3.657   6.088   0.684  0.3323  0.6337 -0.6477
 4345WAT     H218101   3.595   6.182   0.607 -1.6499  0.1420  0.2787
 4345WAT    EPW18102   3.602   6.109   0.632 -0.4388  0.1204 -0.0583
 4346WAT      O18103   4.956   5.685   0.518  0.3768 -0.2032  0.0227
 4346WAT     H118104   4.963   5.713   0.600  1.5892  0.9992 -0.4686
 4346WAT     H218105   5.017   5.623   0.512  0.8719  0.3046 -0.2091
 4346WAT    EPW18106   4.966   5.680   0.529  0.6290  0.0494 -0.0841
 4347WAT      O18107   4.088   6.302   2.298  0.0580  0.5610 -0.5216
 4347WAT     H118108   4.098   6.359   2.233  0.9494  1.7796  0.6270
 4347WAT     H218109   4.034   6.342   2.354 -1.2185 -0.7387 -0.7706
 4347WAT    EPW18110   4.082   6.316   2.297  0.0011  0.5490 -0.3887
 4348WAT      O18111   3.576   6.348   1.180  0.3093 -0.4798 -0.2592
 4348WAT     H118112   3.513   6.408   1.181  1.6762  1.0295  0.9576
 4348WAT     H218113   3.622   6.367   1.109 -0.5934 -1.6417 -1.2012
 4348WAT    EPW18114   3.573   6.359   1.170  0.3779 -0.4285 -0.2186
 4349WAT      O18115   6.171   5.544   0.217 -0.2889  0.1285 -0.5020
 4349WAT     H118116   6.154   5.629   0.229 -0.8218  0.1691 -1.4691
 4349WAT     H218117   6.254   5.544   0.190  0.1784  0.2097  0.8591
 4349WAT    EPW18118   6.181   5.557   0.215 -0.2986  0.1465 -0.4438
 4350WAT      O18119   4.085   6.781   0.303  0.0728  0.3247  0.1652
 4350WAT     H118120   4.077   6.789   0.389  2.2823 -0.2085  0.4631
 4350WAT     H218121   4.060   6.699   0.287  0.5467  0.1328  0.4200
 4350WAT    EPW18122   4.080   6.770   0.313  0.4692  0.2176  0.2469
 4351WAT      O18123   3.701   5.607   0.431  0.2989  0.0725  0.1212
 4351WAT     H118124   3.712   5.559   0.503  0.2406  1.9776  1.4749
 4351WAT     H218125   3.733   5.557   0.368  0.0692 -1.8000  1.4078
 4351WAT    EPW18126   3.707   5.592   0.432  0.2563  0.0773  0.5112
 4352WAT      O18127   3.104   6.320   0.819  0.5585 -0.6838 -0.1367
 4352WAT     H118128   3.035   6.286   0.859  1.7004 -0.4963  2.1682
 4352WAT     H218129   3.170   6.268   0.843  1.3070 -0.7091 -2.0577
 4352WAT    EPW18130   3.104   6.308   0.828  0.8377 -0.6599 -0.0800
 4353WAT      O18131   4.212   5.963   1.995  0.9184 -0.5725  0.0756
 4353WAT     H118132   4.225   5.907   1.930  0.1635 -2.4490  1.4446
 4353WAT     H218133   4.125   5.968   2.001  0.9783 -0.2047  0.7416
 4353WAT    EPW18134   4.201   5.955   1.986  0.8157 -0.7954  0.3762
 4354WAT      O18135   3.911   7.288   2.192 -0.1384  0.0178  0.1840
 4354WAT     H118136   3.997   7.271   2.184 -0.6318 -2.0686 -1.8282
 4354WAT     H218137   3.889   7.247   2.266  0.0834 -2.4167 -0.9758
 4354WAT    EPW18138   3.921   7.279   2.202 -0.1785 -0.6500 -0.2846
 4355WAT      O18139   4.968   4.591   0.837 -0.0685 -1.2761  0.2381
 4355WAT     H118140   4.981   4.510   0.869 -2.2775 -1.0825  1.8476
 4355WAT     H218141   4.972   4.579   0.751  0.3343 -2.9701  0.4414
 4355WAT    EPW18142   4.970   4.577   0.829 -0.3353 -1.4978  0.5059
 4356WAT      O18143   5.623   5.528   7.231 -0.5970 -0.0828  0.6783
 4356WAT     H118144   5.686   5.512   7.290 -0.9713 -1.4569  0.7445
 4356WAT     H218145   5.550   5.526   7.279 -0.7662  0.5786  0.4506
 4356WAT    EPW18146   5.621   5.525   7.247 -0.6773 -0.1881  0.6545
 4357WAT      O18147   5.238   6.177   7.481  0.6637 -0.0616  0.0322
 4357WAT     H118148   5.184   6.246   7.489  3.4982  2.5202 -0.9165
 4357WAT     H218149   5.225   6.133   7.555 -1.0366  1.7008  0.9088
 4357WAT    EPW18150   5.228   6.181   7.493  0.8313  0.5802  0.0216
 4358WAT      O18151   3.586   7.290   2.080 -0.2128  0.0405 -0.9240
 4358WAT     H118152   3.578   7.254   2.159  0.7485 -1.0561 -1.2988
 4358WAT     H218153   3.672   7.291   2.066 -0.2787  1.5585 -1.3693
 4358WAT    EPW18154   3.597   7.285   2.089 -0.0805  0.1028 -1.0452
 4359WAT      O18155   3.677   5.416   2.171  0.2341 -0.3005  0.2716
 4359WAT     H118156   3.720   5.433   2.245  0.7524  2.0442 -0.5044
 4359WAT     H218157   3.740   5.403   2.113  0.0524  2.6670 -0.7643
 4359WAT    EPW18158   3.692   5.416   2.173  0.2838  0.4842  0.0040
 4360WAT      O18159   5.228   4.692   1.088 -0.2853 -0.1265  0.2776
 4360WAT     H118160   5.249   4.626   1.035  1.9031  0.0242  0.8613
 4360WAT     H218161   5.260   4.668   1.165 -0.3436  1.1673  0.7392
 4360WAT    EPW18162   5.236   4.679   1.091  0.0293  0.0869  0.4320
 4361WAT      O18163   5.502   5.420   3.028  0.3931  0.1093  0.0526
 4361WAT     H118164   5.420   5.401   3.050  0.4580 -0.9495 -0.5469
 4361WAT     H218165   5.531   5.346   2.992  1.3080  0.7617 -0.6033
 4361WAT    EPW18166   5.494   5.407   3.026  0.5378  0.0492 -0.1329
 4362WAT      O18167   4.535   5.689   6.952  0.9533  0.2812  0.0810
 4362WAT     H118168   4.451   5.708   6.938  1.3345  1.7836 -0.3775
 4362WAT     H218169   4.536   5.603   6.958 -0.3872  0.0693 -1.7268
 4362WAT    EPW18170   4.523   5.679   6.950  0.8116  0.4719 -0.2538
 4363WAT      O18171   3.917   4.529   1.523 -0.2874 -0.4025 -0.2668
 4363WAT     H118172   3.971   4.461   1.534 -0.1994 -0.1246  1.0981
 4363WAT     H218173   3.968   4.589   1.486  0.7657  0.3153  2.1414
 4363WAT    EPW18174   3.933   4.528   1.519 -0.1188 -0.2554  0.2906
 4364WAT      O18175   4.842   6.186   0.252  0.2672  0.3440 -0.4426
 4364WAT     H118176   4.890   6.235   0.305  1.4794 -1.4840  0.2643
 4364WAT     H218177   4.896   6.168   0.186 -0.5661  0.9473 -1.3146
 4364WAT    EPW18178   4.857   6.191   0.250  0.3232  0.1630 -0.4670
 4365WAT      O18179   3.456   6.619   2.309  0.1884 -0.0370 -0.2303
 4365WAT     H118180   3.518   6.598   2.252 -0.2280 -0.3955 -0.5481
 4365WAT     H218181   3.453   6.706   2.305  1.4841  0.0763  0.6450
 4365WAT    EPW18182   3.465   6.629   2.300  0.3183 -0.0732 -0.1479
 4366WAT      O18183   6.083   6.175   0.209  0.5911 -0.3284  0.1672
 4366WAT     H118184   6.152   6.211   0.248  0.8909  1.0128 -1.5133
 4366WAT     H218185   6.114   6.150   0.132 -0.9430  0.9954 -0.9430
 4366WAT    EPW18186   6.098   6.176   0.203  0.4087  0.0653 -0.2450
 4367WAT      O18187   4.046   0.063   2.268  0.1411 -0.3174 -0.3935
 4367WAT     H118188   4.016   0.144   2.278  0.5652  0.1490 -2.4251
 4367WAT     H218189   3.974   0.014   2.267 -0.4127  0.4422 -2.2421
 4367WAT    EPW18190   4.031   0.067   2.269  0.1219 -0.1363 -0.9667
 4368WAT      O18191   3.259   4.147   1.024 -0.6051  0.1794  0.0309
 4368WAT     H118192   3.190   4.138   0.971 -0.7869 -1.4407  0.4944
 4368WAT     H218193   3.300   4.070   1.019  1.3176  1.1577 -0.3825
 4368WAT    EPW18194   3.255   4.134   1.015 -0.3479  0.0846  0.0383
 4369WAT      O18195   4.628   7.112   7.790  0.3002 -0.0231 -0.4190
 4369WAT     H118196   4.591   7.168   7.734  0.3625  0.3708 -0.0699
 4369WAT     H218197   4.568   7.049   7.798  1.3317 -1.4559 -2.9451
 4369WAT    EPW18198   4.614   7.111   7.783  0.4618 -0.1766 -0.7406
 4370WAT      O18199   4.228   5.262   0.221  0.0704 -0.4084  0.0415
 4370WAT     H118200   4.205   5.233   0.142 -0.1340 -0.4419  0.1113
 4370WAT     H218201   4.313   5.243   0.227 -0.3581 -2.4018  0.6857
 4370WAT    EPW18202   4.237   5.255   0.211 -0.0231 -0.7078  0.1470
 4371WAT      O18203   4.845   5.385   1.075  0.5154 -0.0641 -0.0352
 4371WAT     H118204   4.882   5.422   1.145  0.2759 -0.4245  0.2890
 4371WAT     H218205   4.788   5.328   1.110  0.1957 -0.0516 -0.5219
 4371WAT    EPW18206   4.842   5.382   1.091  0.4328 -0.1155 -0.0592
 4372WAT      O18207   3.339   4.754   2.039  0.1828 -0.0608  0.2882
 4372WAT     H118208   3.329   4.736   1.954  0.1878  0.4450  0.1811
 4372WAT     H218209   3.381   4.830   2.039  0.2054 -0.0738  0.7489
 4372WAT    EPW18210   3.344   4.762   2.026  0.1869  0.0120  0.3405
 4373WAT      O18211   4.396   5.817   0.634 -0.1929 -0.2912  0.1394
 4373WAT     H118212   4.408   5.750   0.579  0.6298  0.3629 -0.4965
 4373WAT     H218213   4.337   5.867   0.594  0.1294  0.0007  0.0304
 4373WAT    EPW18214   4.389   5.814   0.620 -0.0237 -0.1514  0.0294
 4374WAT      O18215   4.679   5.785   1.818 -0.0323  0.0174  0.8568
 4374WAT     H118216   4.714   5.860   1.790  4.4349 -2.7856 -2.6006
 4374WAT     H218217   4.726   5.766   1.889  0.2624 -0.3532  0.5678
 4374WAT    EPW18218   4.691   5.793   1.824  0.6711 -0.4514  0.3034
 4375WAT      O18219   3.901   7.194   1.775  0.1625  0.0028  0.0539
 4375WAT     H118220   3.879   7.126   1.725  1.1862  1.6411 -2.8780
 4375WAT     H218221   3.842   7.255   1.755  0.3191  0.5784  1.2607
 4375WAT    EPW18222   3.889   7.193   1.764  0.3368  0.3298 -0.2009
 4376WAT      O18223   4.250   6.642   0.808  0.1157 -0.6249  0.0292
 4376WAT     H118224   4.235   6.721   0.841 -2.4620 -1.0561  0.0981
 4376WAT     H218225   4.290   6.659   0.733  0.9736  0.6410  0.7265
 4376WAT    EPW18226   4.253   6.656   0.802 -0.1384 -0.5016  0.1424
 4377WAT      O18227   3.607   6.301   2.919 -0.0548  0.4254 -0.3883
 4377WAT     H118228   3.622   6.296   2.833 -2.2260  2.5540 -1.0146
 4377WAT     H218229   3.533   6.256   2.929  0.2669  0.0630  0.4003
 4377WAT    EPW18230   3.598   6.294   2.908 -0.3280  0.6863 -0.3643
 4378WAT      O18231   5.605   4.778   1.198 -0.0426 -0.4752  0.0730
 4378WAT     H118232   5.678   4.753   1.239  0.7016  0.5857 -0.5527
 4378WAT     H218233   5.634   4.812   1.123 -1.1434  0.3540 -0.0095
 4378WAT    EPW18234   5.620   4.779   1.193 -0.0953 -0.1960 -0.0316
 4379WAT      O18235   3.352   4.533   2.920  0.5378  0.4152  0.1199
 4379WAT     H118236   3.364   4.453   2.953 -0.4862  1.1853  2.6507
 4379WAT     H218237   3.423   4.547   2.872  1.4512 -1.4419  0.8368
 4379WAT    EPW18238   3.364   4.523   2.918  0.5214  0.2546  0.5996
 4380WAT      O18239   4.788   5.581   1.687  0.1395  0.6434  0.3889
 4380WAT     H118240   4.828   5.618   1.619  0.3179 -0.5394 -0.1745
 4380WAT     H218241   4.740   5.645   1.721 -0.5726  1.0655 -1.3379
 4380WAT    EPW18242   4.787   5.596   1.682  0.0606  0.5310  0.0506
 4381WAT      O18243   3.382   4.201   2.336  0.4076 -0.2345  0.0979
 4381WAT     H118244   3.356   4.239   2.262  1.4675  1.1899  0.3945
 4381WAT     H218245   3.390   4.117   2.315 -0.7714 -0.1038 -0.9733
 4381WAT    EPW18246   3.380   4.194   2.322  0.3900 -0.0048 -0.0165
 4382WAT      O18247   4.083   6.197   0.409 -0.5241  0.5064  0.2247
 4382WAT     H118248   4.013   6.236   0.442 -1.0611  0.2559 -0.5913
 4382WAT     H218249   4.121   6.161   0.479 -0.9210  1.0716  0.7446
 4382WAT    EPW18250   4.079   6.198   0.424 -0.6620  0.5529  0.1809
 4383WAT      O18251   4.240   7.156   1.425  0.3222 -0.2697 -0.3896
 4383WAT     H118252   4.286   7.084   1.442 -0.1462 -0.3394  0.6904
 4383WAT     H218253   4.297   7.207   1.382  1.1701 -0.6602  0.2258
 4383WAT    EPW18254   4.256   7.153   1.421  0.3783 -0.3377 -0.1391
 4384WAT      O18255   2.311   6.976   0.294 -0.1680 -0.0241 -0.0651
 4384WAT     H118256   2.306   7.033   0.360 -0.3564 -0.8428  0.6494
 4384WAT     H218257   2.238   6.929   0.303 -0.2613 -0.0540 -0.9441
 4384WAT    EPW18258   2.299   6.977   0.305 -0.2096 -0.1494 -0.0894
 4385WAT      O18259   4.456   7.324   1.315 -0.2243  0.3438 -0.1976
 4385WAT     H118260   4.491   7.284   1.384  0.8108  0.7340 -0.4858
 4385WAT     H218261   4.485   7.406   1.321  2.3204 -0.2131 -2.5815
 4385WAT    EPW18262   4.465   7.330   1.326  0.3045  0.3192 -0.5923
 4386WAT      O18263   5.594   7.220   2.856 -0.2233 -0.4180  0.3284
 4386WAT     H118264   5.575   7.178   2.782  0.1054 -0.2152  0.1248
 4386WAT     H218265   5.618   7.300   2.828  1.2560 -0.7604  0.5393
 4386WAT    EPW18266   5.595   7.226   2.841  0.0438 -0.4386  0.3295
 4387WAT      O18267   3.085   5.667   2.203  0.2596 -0.8510  0.2575
 4387WAT     H118268   3.056   5.653   2.284  2.4481 -1.7333  0.9544
 4387WAT     H218269   3.162   5.706   2.215  0.3944 -0.5127 -1.4172
 4387WAT    EPW18270   3.092   5.671   2.217  0.6028 -0.9314  0.1131
 4388WAT      O18271   3.880   4.566   7.425  0.0402  0.0654  0.2778
 4388WAT     H118272   3.950   4.545   7.472 -0.4602 -1.9358  0.2432
 4388WAT     H218273   3.813   4.552   7.480 -0.3928  1.0977  0.0408
 4388WAT    EPW18274   3.880   4.561   7.440 -0.0977 -0.0777  0.2377
 4389WAT      O18275   4.677   5.760   0.877 -0.5157 -0.1406  0.3881
 4389WAT     H118276   4.675   5.777   0.791  1.2435 -0.0520  0.3307
 4389WAT     H218277   4.646   5.679   0.883  3.1753 -1.8728 -0.9024
 4389WAT    EPW18278   4.672   5.751   0.865  0.2894 -0.3834  0.1890
 4390WAT      O18279   3.162   0.265   7.615  0.1211  0.1599 -0.1811
 4390WAT     H118280   3.151   0.295   7.534 -1.0064 -0.2053 -0.1764
 4390WAT     H218281   3.091   0.217   7.630  0.1426  0.4767  1.1386
 4390WAT    EPW18282   3.150   0.263   7.605 -0.0423  0.1527  0.0146
 4391WAT      O18283   2.699   0.403   0.987  0.5760  0.3900  0.2577
 4391WAT     H118284   2.631   0.407   1.042  1.3663 -0.1613  1.3116
 4391WAT     H218285   2.683   0.466   0.930 -1.4848 -0.5468 -0.2988
 4391WAT    EPW18286   2.686   0.413   0.987  0.3883  0.1701  0.3312
 4392WAT      O18287   4.767   4.912   0.917 -0.2382  0.1485 -0.1429
 4392WAT     H118288   4.774   4.863   0.989  0.0507  1.3591  0.6728
 4392WAT     H218289   4.828   4.974   0.928  0.5961 -0.2920 -1.9669
 4392WAT    EPW18290   4.777   4.914   0.929 -0.0723  0.2623 -0.2919
 4393WAT      O18291   4.025   6.859   2.032  0.3365 -0.0494  0.5657
 4393WAT     H118292   3.967   6.794   2.026 -0.6201  0.8241 -0.0447
 4393WAT     H218293   3.977   6.931   2.018  2.0005  0.5770 -3.1101
 4393WAT    EPW18294   4.009   6.860   2.029  0.4410  0.1721 -0.0675
 4394WAT      O18295   5.540   5.496   1.478 -0.2073  0.3719 -0.2903
 4394WAT     H118296   5.587   5.491   1.551  0.9249 -0.8412 -1.0301
 4394WAT     H218297   5.516   5.413   1.464 -1.7843  0.8398 -0.4485
 4394WAT    EPW18298   5.543   5.483   1.486 -0.2730  0.2619 -0.4229
 4395WAT      O18299   5.683   6.208   0.284  0.3803 -0.1343 -0.4794
 4395WAT     H118300   5.608   6.164   0.289  1.4441 -2.0565 -0.7015
 4395WAT     H218301   5.665   6.273   0.228 -1.5543  0.4745  0.7479
 4395WAT    EPW18302   5.669   6.211   0.276  0.2517 -0.3283 -0.3309
 4396WAT      O18303   3.069   7.254   7.863 -0.0615  0.4596 -0.3939
 4396WAT     H118304   3.026   7.296   7.926 -0.3376  0.6430 -0.7066
 4396WAT     H218305   3.008   7.206   7.824 -0.0400  0.9322 -1.0157
 4396WAT    EPW18306   3.054   7.253   7.867 -0.0991  0.5565 -0.5320
 4397WAT      O18307   2.646   6.413   0.013 -0.0492 -0.1520  0.3219
 4397WAT     H118308   2.697   6.440  -0.052  1.2834 -2.4074  0.3177
 4397WAT     H218309   2.617   6.487   0.048  0.0184  1.1655 -2.1570
 4397WAT    EPW18310   2.649   6.428   0.008  0.1576 -0.2906 -0.0449
 4398WAT      O18311   5.253   4.665   7.234 -0.3327  0.0531 -0.0963
 4398WAT     H118312   5.303   4.679   7.303 -1.4691 -1.5643  1.1377
 4398WAT     H218313   5.173   4.688   7.261 -0.7459 -0.2802 -0.9776
 4398WAT    EPW18314   5.249   4.671   7.248 -0.5616 -0.2351 -0.0442
 4399WAT      O18315   4.108   4.117   0.417  0.7147 -0.1858 -0.0243
 4399WAT     H118316   4.083   4.201   0.420  2.4457  0.3626  1.4265
 4399WAT     H218317   4.034   4.073   0.422 -0.2289  1.2526 -0.6089
 4399WAT    EPW18318   4.094   4.123   0.418  0.8310  0.1077  0.1037
 4400WAT      O18319   3.290   6.480   0.429  0.4937  0.8689 -0.6335
 4400WAT     H118320   3.237   6.477   0.360  0.1947  1.0423 -0.4081
 4400WAT     H218321   3.237   6.472   0.497  0.7550  1.0226 -0.4085
 4400WAT    EPW18322   3.275   6.478   0.429  0.4881  0.9172 -0.5670
 4401WAT      O18323   3.910   5.756   1.394  0.2538  0.0213  0.1755
 4401WAT     H118324   3.983   5.768   1.440  0.3146  0.7167 -0.0909
 4401WAT     H218325   3.877   5.836   1.387 -0.4914 -0.2734  0.2123
 4401WAT    EPW18326   3.916   5.770   1.400  0.1527  0.0805  0.1416
 4402WAT      O18327   5.659   5.695   1.305 -0.1918 -0.4494  0.2171
 4402WAT     H118328   5.628   5.620   1.335  2.6573 -1.3379  1.2059
 4402WAT     H218329   5.587   5.737   1.277 -1.7533 -4.3963 -2.6060
 4402WAT    EPW18330   5.644   5.690   1.305 -0.0016 -1.1637 -0.0539
 4403WAT      O18331   3.488   4.602   7.558 -0.0519  0.0677 -0.2417
 4403WAT     H118332   3.548   4.663   7.576  0.9291 -1.0217  0.3330
 4403WAT     H218333   3.483   4.602   7.471  0.2803  0.6541 -0.2600
 4403WAT    EPW18334   3.496   4.611   7.548  0.1421 -0.0066 -0.1595
 4404WAT      O18335   3.291   5.490   1.477 -0.0474  0.0353 -0.6583
 4404WAT     H118336   3.272   5.447   1.550  1.9555  2.2126  1.3362
 4404WAT     H218337   3.251   5.567   1.488  0.5675  0.5248 -1.6985
 4404WAT    EPW18338   3.282   5.495   1.490  0.3393  0.4292 -0.5173
 4405WAT      O18339   2.731   5.952   0.239 -0.9091 -0.5358  0.2509
 4405WAT     H118340   2.694   6.019   0.198  0.0085 -1.1438 -1.6535
 4405WAT     H218341   2.806   5.940   0.197 -0.0110 -1.3798  1.9618
 4405WAT    EPW18342   2.736   5.960   0.227 -0.6409 -0.7503  0.2223
 4406WAT      O18343   2.393   4.901   7.702  0.2302  0.9111 -0.1630
 4406WAT     H118344   2.421   4.939   7.775 -1.0863  1.1301  0.2634
 4406WAT     H218345   2.422   4.819   7.708  0.6673  1.0947  0.2969
 4406WAT    EPW18346   2.401   4.895   7.713  0.1003  0.9706 -0.0321
 4407WAT      O18347   4.334   7.629   1.560 -0.7351 -0.1977  0.3262
 4407WAT     H118348   4.330   7.713   1.536 -0.7721 -0.1338  0.5545
 4407WAT     H218349   4.388   7.630   1.629 -0.5139 -0.4012  0.1550
 4407WAT    EPW18350   4.342   7.642   1.567 -0.7079 -0.2184  0.3346
 4408WAT      O18351   5.226   5.831   0.588  0.8129 -0.1886  0.3183
 4408WAT     H118352   5.140   5.843   0.595  0.8865  1.9402 -1.3481
 4408WAT     H218353   5.236   5.746   0.606 -1.7354 -0.7200 -0.3246
 4408WAT    EPW18354   5.215   5.820   0.592  0.4473  0.0474 -0.0228
 4409WAT      O18355   3.561   7.076   2.695 -0.1942 -0.0838  0.0016
 4409WAT     H118356   3.574   7.041   2.616 -0.0770  1.3149 -0.6461
 4409WAT     H218357   3.520   7.014   2.739  0.0612 -1.0333 -1.0546
 4409WAT    EPW18358   3.557   7.062   2.690 -0.1391 -0.0174 -0.2501
 4410WAT      O18359   5.035   5.058   1.290  0.0957 -0.3615 -0.7642
 4410WAT     H118360   5.058   5.114   1.353 -1.4051  0.1296 -0.6179
 4410WAT     H218361   4.995   4.994   1.334  1.6377 -1.5080 -0.9475
 4410WAT    EPW18362   5.032   5.057   1.306  0.1018 -0.4583 -0.7697
 4411WAT      O18363   4.162   6.928   0.600  0.9038 -0.0947  0.0688
 4411WAT     H118364   4.135   6.916   0.682  0.9564 -0.8315 -0.0159
 4411WAT     H218365   4.218   6.862   0.587 -0.2977 -0.9497 -1.0713
 4411WAT    EPW18366   4.167   6.916   0.610  0.7340 -0.3298 -0.1121
 4412WAT      O18367   3.844   5.609   1.169 -0.1727  0.2113  0.8145
 4412WAT     H118368   3.898   5.631   1.104  1.9386  0.4245  2.5178
 4412WAT     H218369   3.872   5.657   1.236 -2.2374 -0.0197  1.9208
 4412WAT    EPW18370   3.856   5.619   1.170 -0.1658  0.2086  1.2295
 4413WAT      O18371   3.505   0.099   1.456 -0.0075 -0.3429  0.0747
 4413WAT     H118372   3.502   0.185   1.441 -1.0363 -0.3661  0.0333
 4413WAT     H218373   3.463   0.090   1.532  0.2644 -0.7847  0.1727
 4413WAT    EPW18374   3.498   0.111   1.465 -0.1193 -0.4116  0.0831
 4414WAT      O18375   4.811   5.644   2.837 -0.1860 -0.7420 -0.4756
 4414WAT     H118376   4.784   5.724   2.816  0.8563 -0.0969  0.4673
 4414WAT     H218377   4.813   5.601   2.761 -0.3568  0.2629 -1.0550
 4414WAT    EPW18378   4.808   5.649   2.823 -0.0572 -0.4983 -0.4219
 4415WAT      O18379   3.770   5.273   1.369  0.2394 -0.6552  0.3244
 4415WAT     H118380   3.683   5.272   1.364  0.2105 -1.7578  0.8089
 4415WAT     H218381   3.786   5.283   1.454  0.5716 -1.4431  0.3640
 4415WAT    EPW18382   3.760   5.274   1.381  0.2842 -0.9345  0.4018
 4416WAT      O18383   3.391   7.346   0.126  0.0541 -0.5949 -0.7208
 4416WAT     H118384   3.459   7.348   0.071 -0.8728 -1.9835 -1.9909
 4416WAT     H218385   3.422   7.304   0.195  0.5957 -0.8647 -1.1184
 4416WAT    EPW18386   3.406   7.340   0.128 -0.0028 -0.8399 -0.9672
 4417WAT      O18387   4.885   5.109   7.491 -0.8544 -0.2490  0.2808
 4417WAT     H118388   4.927   5.146   7.423 -1.2503 -1.1338 -0.4636
 4417WAT     H218389   4.947   5.100   7.551 -0.7510  1.6980  0.5449
 4417WAT    EPW18390   4.900   5.113   7.490 -0.8976 -0.0921  0.2098
 4418WAT      O18391   4.571   6.621   0.847  0.8555  0.1300 -0.1785
 4418WAT     H118392   4.585   6.705   0.865  0.9774  0.0211  0.2601
 4418WAT     H218393   4.518   6.595   0.911 -0.7120  0.3243 -1.3523
 4418WAT    EPW18394   4.566   6.629   0.859  0.6420  0.1426 -0.2871
 4419WAT      O18395   4.839   6.822   1.195  0.0641  0.0262 -0.1243
 4419WAT     H118396   4.785   6.805   1.262 -0.9409  0.8638 -0.6792
 4419WAT     H218397   4.845   6.910   1.196  1.0194 -0.0250 -0.3971
 4419WAT    EPW18398   4.832   6.833   1.205  0.0568  0.1424 -0.2466
 4420WAT      O18399   3.740   6.732   7.632  0.7124  1.0981  0.3758
 4420WAT     H118400   3.800   6.762   7.577  1.0537  0.8695  0.6217
 4420WAT     H218401   3.740   6.791   7.696 -0.1155  1.6896 -0.1513
 4420WAT    EPW18402   3.749   6.745   7.633  0.6405  1.1517  0.3342
 4421WAT      O18403   3.491   5.998   6.939 -0.2679  0.3156  0.6480
 4421WAT     H118404   3.528   6.077   6.950  0.0271  0.3440 -0.4351
 4421WAT     H218405   3.548   5.944   6.976  0.0258  0.5240  0.5058
 4421WAT    EPW18406   3.505   6.002   6.946 -0.1809  0.3506  0.4670
 4422WAT      O18407   3.694   6.987   0.680 -0.1517  0.0910 -0.2631
 4422WAT     H118408   3.666   6.906   0.699 -0.0851 -0.4396 -2.2514
 4422WAT     H218409   3.621   7.031   0.664 -0.1926  0.4918  0.8803
 4422WAT    EPW18410   3.679   6.981   0.681 -0.1479  0.0718 -0.3879
 4423WAT      O18411   3.923   5.952   2.006 -0.1360 -0.2337 -0.1352
 4423WAT     H118412   3.931   5.906   1.932  0.1815 -0.7632  0.2303
 4423WAT     H218413   3.885   5.896   2.061 -0.1941  0.1020  0.1684
 4423WAT    EPW18414   3.918   5.937   2.003 -0.0977 -0.2623 -0.0364
 4424WAT      O18415   4.551   6.039   2.201 -0.1119 -0.1668  0.0015
 4424WAT     H118416   4.605   5.972   2.189 -0.7087 -1.0427  1.7905
 4424WAT     H218417   4.479   6.001   2.232 -0.2512  1.3410  1.6539
 4424WAT    EPW18418   4.548   6.023   2.204 -0.2206 -0.0735  0.5099
 4425WAT      O18419   5.237   4.918   0.393  0.3606  0.1285  0.0543
 4425WAT     H118420   5.293   4.855   0.370 -2.3227 -1.7362 -2.0171
 4425WAT     H218421   5.164   4.874   0.412 -1.2315  2.5526 -0.0731
 4425WAT    EPW18422   5.235   4.902   0.393 -0.2710  0.2111 -0.2705
 4426WAT      O18423   3.542   5.837   0.222 -0.2702  0.3094 -0.1816
 4426WAT     H118424   3.468   5.861   0.183 -0.3372  1.2704  0.4924
 4426WAT     H218425   3.574   5.912   0.254  0.7100 -0.1714  0.0189
 4426WAT    EPW18426   3.536   5.852   0.221 -0.1353  0.3803 -0.0524
 4427WAT      O18427   4.349   6.351   2.433 -0.6733 -0.1667 -0.2943
 4427WAT     H118428   4.339   6.436   2.452 -0.2261 -0.4696  1.4870
 4427WAT     H218429   4.275   6.315   2.462 -0.3965 -0.5315 -0.0331
 4427WAT    EPW18430   4.337   6.359   2.440 -0.5664 -0.2653  0.0074
 4428WAT      O18431   2.968   5.038   0.922 -0.5557  0.0891  0.1161
 4428WAT     H118432   2.984   5.021   1.006 -2.7346 -0.5468  0.4605
 4428WAT     H218433   2.993   5.121   0.913 -0.5113  0.2379  1.4535
 4428WAT    EPW18434   2.974   5.048   0.933 -0.8710  0.0171  0.3645
 4429WAT      O18435   4.126   6.001   7.257  0.2971 -0.2407  0.6232
 4429WAT     H118436   4.144   5.924   7.220 -0.2074 -0.5535  1.0270
 4429WAT     H218437   4.058   6.031   7.211  1.6924  0.8959 -0.8352
 4429WAT    EPW18438   4.119   5.994   7.244  0.4287 -0.1190  0.4674
 4430WAT      O18439   4.230   4.835   0.225  0.3556 -0.1230 -0.3589
 4430WAT     H118440   4.205   4.861   0.145  0.8088  0.5872 -0.2846
 4430WAT     H218441   4.264   4.908   0.260 -2.3594  0.4260  1.5432
 4430WAT    EPW18442   4.231   4.850   0.219  0.0215  0.0630 -0.0670
 4431WAT      O18443   4.339   5.382   7.619 -0.0913 -0.1237  0.3029
 4431WAT     H118444   4.277   5.425   7.663  0.2524 -0.5960  1.2704
 4431WAT     H218445   4.331   5.413   7.538 -1.0745  0.3931  0.5784
 4431WAT    EPW18446   4.329   5.393   7.614 -0.1858 -0.1171  0.4865
 4432WAT      O18447   4.620   5.425   0.057  0.0994 -0.0977  0.5811
 4432WAT     H118448   4.704   5.426   0.080  0.2208 -0.7612  0.1908
 4432WAT     H218449   4.622   5.417  -0.030 -0.3662  0.3974  0.5183
 4432WAT    EPW18450   4.632   5.424   0.048  0.0486 -0.1225  0.5141
 4433WAT      O18451   4.150   7.216   0.274  0.0480 -0.8422  0.1540
 4433WAT     H118452   4.168   7.271   0.209 -0.4513 -2.1431 -1.1620
 4433WAT     H218453   4.228   7.198   0.309  0.2977  0.0626  0.0702
 4433WAT    EPW18454   4.164   7.221   0.269  0.0112 -0.9007 -0.0528
 4434WAT      O18455   4.546   4.631   1.181  0.2515  0.6628  0.2162
 4434WAT     H118456   4.544   4.634   1.268 -0.2731  2.3917  0.1870
 4434WAT     H218457   4.481   4.685   1.157 -2.1099 -2.5044 -1.2743
 4434WAT    EPW18458   4.536   4.640   1.190 -0.1748  0.4503 -0.0083
 4435WAT      O18459   5.624   6.755   7.488 -0.8086  0.9162  0.7987
 4435WAT     H118460   5.570   6.727   7.425  2.0372  1.1889 -1.9791
 4435WAT     H218461   5.603   6.839   7.497  0.9267  1.8779 -2.5234
 4435WAT    EPW18462   5.613   6.763   7.480 -0.1319  1.0985 -0.1024
 4436WAT      O18463   4.208   4.793   7.402 -0.4152  0.3176  0.2509
 4436WAT     H118464   4.265   4.850   7.437 -0.5680  1.2739 -1.0100
 4436WAT     H218465   4.250   4.762   7.333  0.3790 -2.5174  1.8586
 4436WAT    EPW18466   4.223   4.797   7.397 -0.3205  0.0400  0.3021
 4437WAT      O18467   4.322   5.618   1.149  0.1311 -0.4858 -0.2036
 4437WAT     H118468   4.316   5.650   1.069 -1.2759  0.2169  0.1521
 4437WAT     H218469   4.307   5.687   1.200  0.9931 -0.9192  0.6693
 4437WAT    EPW18470   4.319   5.633   1.145  0.0506 -0.4460 -0.0221
 4438WAT      O18471   3.275   5.913   0.432 -0.1702 -0.2527  0.3085
 4438WAT     H118472   3.220   5.882   0.493  1.1545 -2.2534  0.5906
 4438WAT     H218473   3.232   5.900   0.357 -0.4020 -1.0915  0.5806
 4438WAT    EPW18474   3.260   5.906   0.430 -0.0088 -0.6722  0.3904
 4439WAT      O18475   4.614   7.072   2.198 -0.1139  0.0165  0.1361
 4439WAT     H118476   4.559   7.031   2.252 -0.8381  0.9779  0.1485
 4439WAT     H218477   4.570   7.077   2.123 -0.4988  1.7395  0.4407
 4439WAT    EPW18478   4.599   7.067   2.195 -0.2777  0.4130  0.1829
 4440WAT      O18479   3.714   6.216   7.302 -0.4764 -0.4007 -0.2340
 4440WAT     H118480   3.728   6.202   7.387  0.3266 -0.2705 -0.3338
 4440WAT     H218481   3.748   6.295   7.288 -0.0924 -0.6483 -0.7779
 4440WAT    EPW18482   3.721   6.225   7.313 -0.3011 -0.4181 -0.3291
 4441WAT      O18483   5.766   4.460   1.601  0.0474  0.1113 -0.0284
 4441WAT     H118484   5.760   4.374   1.611  1.7394 -0.1575 -0.9817
 4441WAT     H218485   5.695   4.491   1.642 -0.1472 -1.6604  1.0512
 4441WAT    EPW18486   5.755   4.452   1.608  0.2686 -0.1901 -0.0098
 4442WAT      O18487   4.328   4.293   1.344 -0.0106  0.0172 -0.0204
 4442WAT     H118488   4.278   4.317   1.277  1.6628  0.4235 -1.1997
 4442WAT     H218489   4.309   4.351   1.407 -1.1990 -0.0361 -0.3091
 4442WAT    EPW18490   4.318   4.305   1.344  0.0610  0.0693 -0.2372
 4443WAT      O18491   3.375   5.435   0.479 -0.0801 -0.8574  0.3718
 4443WAT     H118492   3.458   5.417   0.501 -0.0475  0.0177  1.0145
 4443WAT     H218493   3.361   5.383   0.411  2.1652  1.3953 -2.0443
 4443WAT    EPW18494   3.385   5.425   0.472  0.2564 -0.3953  0.1098
 4444WAT      O18495   3.441   4.724   1.356 -0.2915 -0.9081  0.2986
 4444WAT     H118496   3.361   4.701   1.381 -0.7348 -0.0724 -0.3072
 4444WAT     H218497   3.453   4.802   1.394 -1.2186  0.6947 -2.4060
 4444WAT    EPW18498   3.431   4.732   1.366 -0.4939 -0.5479 -0.1904
 4445WAT      O18499   4.269   5.941   1.132  0.3645 -0.0339 -0.0463
 4445WAT     H118500   4.290   5.982   1.206  0.4694 -1.4306  0.7252
 4445WAT     H218501   4.345   5.934   1.090 -0.0780  3.4521 -1.8094
 4445WAT    EPW18502   4.283   5.946   1.137  0.3146  0.2747 -0.1928
 4446WAT      O18503   4.018   6.518   6.076  0.1781 -0.1447 -0.1738
 4446WAT     H118504   4.103   6.538   6.076  0.3555 -0.8851 -0.3142
 4446WAT     H218505   3.980   6.596   6.087  0.8766  0.1682  0.1726
 4446WAT    EPW18506   4.025   6.533   6.078  0.3075 -0.2078 -0.1433
 4447WAT      O18507   4.505   4.121   0.906  0.3309 -0.4749 -0.0339
 4447WAT     H118508   4.503   4.055   0.848  2.9347  0.5270 -1.4413
 4447WAT     H218509   4.567   4.097   0.962  1.0710  0.6068 -0.3708
 4447WAT    EPW18510   4.514   4.108   0.905  0.8249 -0.1671 -0.2916
 4448WAT      O18511   5.783   5.546   0.955 -0.0283 -0.0231 -0.0101
 4448WAT     H118512   5.852   5.516   0.911 -0.0286  0.1213 -0.1117
 4448WAT     H218513   5.772   5.626   0.922  0.4832  0.4086  0.8392
 4448WAT    EPW18514   5.792   5.553   0.943  0.0472  0.0620  0.1003
 4449WAT      O18515   5.031   6.975   2.282  0.2841 -0.1340 -0.3720
 4449WAT     H118516   5.081   6.986   2.211 -1.5305 -0.9255 -1.8615
 4449WAT     H218517   4.996   6.896   2.269 -3.4722  1.4234 -0.8735
 4449WAT    EPW18518   5.033   6.965   2.270 -0.5389 -0.0208 -0.6661
 4450WAT      O18519   4.981   6.457   7.257 -0.5735 -0.0243  0.2282
 4450WAT     H118520   4.904   6.491   7.280 -1.2875 -0.6736 -1.0454
 4450WAT     H218521   4.962   6.374   7.239  0.2191  0.0202 -0.9629
 4450WAT    EPW18522   4.967   6.450   7.258 -0.5619 -0.1136 -0.1359
 4451WAT      O18523   2.411   5.510   3.345 -0.2851  0.0912  0.2139
 4451WAT     H118524   2.356   5.547   3.402  1.7336  1.2762  1.5144
 4451WAT     H218525   2.443   5.442   3.389  0.8947  0.7015  0.3279
 4451WAT    EPW18526   2.407   5.506   3.360  0.1874  0.3564  0.4228
 4452WAT      O18527   3.719   6.962   3.580 -0.4891  0.2153 -0.1966
 4452WAT     H118528   3.770   6.931   3.643  0.5078 -0.0400 -1.1040
 4452WAT     H218529   3.645   6.918   3.590  0.2475 -1.0852 -0.2670
 4452WAT    EPW18530   3.716   6.951   3.591 -0.2330 -0.0145 -0.3410
 4453WAT      O18531   5.780   4.788   0.562 -0.5775 -0.3532  0.0615
 4453WAT     H118532   5.840   4.726   0.576 -0.0551  0.1688  0.1704
 4453WAT     H218533   5.751   4.771   0.482  0.8075  0.2781 -0.5971
 4453WAT    EPW18534   5.785   4.777   0.552 -0.2958 -0.1828 -0.0197
 4454WAT      O18535   4.116   5.773   1.595 -0.4230  0.1234 -0.0079
 4454WAT     H118536   4.080   5.768   1.674  0.5237 -2.6919  0.3630
 4454WAT     H218537   4.177   5.834   1.604  0.2171 -0.7089  1.7145
 4454WAT    EPW18538   4.119   5.782   1.608 -0.1886 -0.4154  0.3013
 4455WAT      O18539   4.286   6.003   1.596  0.6719 -0.0107  0.1341
 4455WAT     H118540   4.229   6.068   1.610  2.2413  1.6558 -0.7735
 4455WAT     H218541   4.324   6.025   1.520 -0.4886 -3.3524 -1.6287
 4455WAT    EPW18542   4.283   6.016   1.587  0.7323 -0.2581 -0.2604
 4456WAT      O18543   5.486   6.025   0.285  0.0867  0.5142  0.1853
 4456WAT     H118544   5.524   5.954   0.319 -0.1110 -1.0608 -2.5247
 4456WAT     H218545   5.404   6.019   0.313  0.6504  1.1705  2.0775
 4456WAT    EPW18546   5.480   6.013   0.294  0.1407  0.3785  0.0645
 4457WAT      O18547   4.114   4.455   2.188 -0.3509  0.0676  0.0806
 4457WAT     H118548   4.082   4.383   2.227  0.2463  0.1000  0.6600
 4457WAT     H218549   4.157   4.495   2.253  0.9929 -0.0669 -0.7060
 4457WAT    EPW18550   4.115   4.450   2.204 -0.0642  0.0525  0.0500
 4458WAT      O18551   4.424   3.036   7.213 -0.9655  0.5109 -0.2941
 4458WAT     H118552   4.362   3.003   7.161 -0.5867  0.0572 -0.4646
 4458WAT     H218553   4.498   3.019   7.170 -0.3457 -2.3899  1.6011
 4458WAT    EPW18554   4.426   3.029   7.199 -0.8180  0.0154 -0.0393
 4459WAT      O18555   3.896   0.259   7.427  0.5928 -0.4402 -0.0634
 4459WAT     H118556   3.940   0.242   7.354 -0.5735  0.0316 -0.9089
 4459WAT     H218557   3.817   0.226   7.411  1.0784 -3.0361  2.1569
 4459WAT    EPW18558   3.891   0.251   7.414  0.4923 -0.7540  0.1397
 4460WAT      O18559   4.698   4.545   0.876 -0.3297 -0.2081  0.8572
 4460WAT     H118560   4.775   4.578   0.903 -0.7373  2.3852 -0.7651
 4460WAT     H218561   4.719   4.465   0.848  1.6898  0.2023  1.0053
 4460WAT    EPW18562   4.713   4.538   0.876 -0.0916  0.2356  0.6394
 4461WAT      O18563   3.660   6.054   1.613  0.5921 -0.0142 -0.3609
 4461WAT     H118564   3.606   6.122   1.619  0.0089 -0.5445  0.6914
 4461WAT     H218565   3.650   6.013   1.689  0.9869 -1.2380 -0.9405
 4461WAT    EPW18566   3.651   6.058   1.625  0.5643 -0.2733 -0.2910
 4462WAT      O18567   6.184   5.408   7.574  0.1309  0.0869  0.7346
 4462WAT     H118568   6.108   5.367   7.587  0.3188 -0.4932  0.0964
 4462WAT     H218569   6.234   5.378   7.638  0.9524 -2.4986 -0.9512
 4462WAT    EPW18570   6.180   5.397   7.585  0.2800 -0.3807  0.3913
 4463WAT      O18571   3.772   4.807   0.725  0.4042  0.8668  1.0023
 4463WAT     H118572   3.690   4.836   0.717  0.1306 -0.3380 -1.6352
 4463WAT     H218573   3.777   4.783   0.809 -2.4938 -0.4727  0.9206
 4463WAT    EPW18574   3.761   4.807   0.736 -0.0643  0.4909  0.6006
 4464WAT      O18575   5.985   5.725   1.908  0.7789 -0.1958 -0.1881
 4464WAT     H118576   6.008   5.797   1.864  0.2262  0.5262  0.6903
 4464WAT     H218577   5.908   5.746   1.943  1.1325 -0.8170  0.9850
 4464WAT    EPW18578   5.977   5.739   1.906  0.7495 -0.1809  0.1150
 4465WAT      O18579   3.778   0.063   1.427 -0.7906 -0.1972  0.4075
 4465WAT     H118580   3.692   0.050   1.426 -0.4299 -3.5567 -1.3210
 4465WAT     H218581   3.805   0.016   1.496 -0.2531  0.6314  0.7909
 4465WAT    EPW18582   3.770   0.054   1.437 -0.6579 -0.5711  0.2088
 4466WAT      O18583   2.839   6.432   1.905  0.1336 -0.3819 -0.1884
 4466WAT     H118584   2.863   6.516   1.909 -0.0794 -0.3040 -0.4827
 4466WAT     H218585   2.768   6.429   1.955 -0.0748 -0.3063 -0.4772
 4466WAT    EPW18586   2.832   6.444   1.913  0.0714 -0.3592 -0.2745
 4467WAT      O18587   5.373   4.853   0.673 -0.3293 -0.0405  0.2054
 4467WAT     H118588   5.342   4.795   0.615 -0.4806  0.1011  0.1437
 4467WAT     H218589   5.323   4.923   0.660  0.6139  0.5102 -0.5242
 4467WAT    EPW18590   5.361   4.855   0.663 -0.2123  0.0618  0.0885
 4468WAT      O18591   3.063   6.008   2.767  0.1889 -0.3158 -0.1675
 4468WAT     H118592   3.086   6.090   2.788 -0.5554 -0.4613  1.3283
 4468WAT     H218593   3.037   6.015   2.684 -0.2593  1.0661  0.0607
 4468WAT    EPW18594   3.063   6.021   2.758  0.0127 -0.1331  0.0872
 4469WAT      O18595   5.853   5.261   0.690 -0.0136 -0.7011 -0.2302
 4469WAT     H118596   5.779   5.299   0.663  0.9247  0.5684 -1.1566
 4469WAT     H218597   5.903   5.329   0.714  0.7710 -1.5430  0.6088
 4469WAT    EPW18598   5.850   5.277   0.690  0.2409 -0.6380 -0.2431
 4470WAT      O18599   6.591   4.258   0.517 -0.5778 -0.3559 -0.3845
 4470WAT     H118600   6.520   4.283   0.560 -1.0598 -0.7313 -0.9374
 4470WAT     H218601   6.643   4.228   0.580 -0.6396  0.5196  0.0988
 4470WAT    EPW18602   6.588   4.257   0.532 -0.6581 -0.2820 -0.3948
 4471WAT      O18603   5.136   6.670   3.395 -0.0940  0.7184  0.0092
 4471WAT     H118604   5.150   6.751   3.423 -1.2335  0.7264  0.6014
 4471WAT     H218605   5.163   6.620   3.462  2.7458  0.4664 -1.2056
 4471WAT    EPW18606   5.142   6.674   3.409  0.1571  0.6823 -0.0828
 4472WAT      O18607   4.739   6.672   2.102  0.4212  0.0723 -0.4660
 4472WAT     H118608   4.807   6.718   2.072  0.2978 -0.4356 -1.6012
 4472WAT     H218609   4.672   6.701   2.053  0.4161 -1.5677 -1.5179
 4472WAT    EPW18610   4.739   6.683   2.090  0.4022 -0.2450 -0.7891
 4473WAT      O18611   2.847   5.506   1.857 -0.1808 -0.0743  0.0719
 4473WAT     H118612   2.905   5.483   1.917  0.9564 -0.0180 -0.9595
 4473WAT     H218613   2.886   5.571   1.814 -1.2379  0.3389 -0.2975
 4473WAT    EPW18614   2.861   5.512   1.859 -0.1690 -0.0049 -0.1351
 4474WAT      O18615   4.064   4.296   0.870 -0.6132  0.6520 -0.5166
 4474WAT     H118616   4.041   4.379   0.858 -3.3148  0.4328  2.1750
 4474WAT     H218617   4.127   4.301   0.930  1.8410  0.8047 -2.8871
 4474WAT    EPW18618   4.070   4.309   0.877 -0.6497  0.6422 -0.4692
 4475WAT      O18619   5.930   6.860   0.399 -0.4206  0.6320  0.4577
 4475WAT     H118620   5.920   6.832   0.481  1.0239  0.4284  0.5905
 4475WAT     H218621   5.900   6.793   0.351 -1.1637  0.7077  0.7954
 4475WAT    EPW18622   5.924   6.846   0.404 -0.3170  0.6131  0.5272
 4476WAT      O18623   5.041   0.153   0.765 -0.8946 -0.2179 -0.0667
 4476WAT     H118624   4.996   0.081   0.783 -0.5620 -0.8367 -1.5315
 4476WAT     H218625   5.061   0.144   0.680 -1.3933  1.8935 -0.4678
 4476WAT    EPW18626   5.038   0.141   0.755 -0.9191  0.0026 -0.3423
 4477WAT      O18627   5.138   6.289   0.366 -0.0033 -0.3431  0.2862
 4477WAT     H118628   5.204   6.325   0.410  2.2119 -2.5563 -0.9317
 4477WAT     H218629   5.153   6.203   0.374 -2.5871 -0.9376 -0.3468
 4477WAT    EPW18630   5.150   6.281   0.374 -0.0577 -0.7579  0.0128
 4478WAT      O18631   5.366   4.898   0.954  0.3058  0.3653 -0.5783
 4478WAT     H118632   5.319   4.837   0.995  3.4593 -3.1200 -1.5779
 4478WAT     H218633   5.335   4.896   0.873  0.2308  0.2914 -0.5485
 4478WAT    EPW18634   5.355   4.889   0.948  0.7605 -0.1604 -0.7216
 4479WAT      O18635   3.434   6.120   2.662  0.2777  0.5017 -0.2654
 4479WAT     H118636   3.443   6.037   2.637  0.0830 -0.1199  1.6190
 4479WAT     H218637   3.387   6.155   2.598  0.9898 -0.6342 -1.4646
 4479WAT    EPW18638   3.429   6.113   2.649  0.3541  0.2421 -0.1642
 4480WAT      O18639   2.698   6.014   2.406 -0.1735  0.1582  0.0550
 4480WAT     H118640   2.719   5.931   2.390  0.6653  0.2863  0.4520
 4480WAT     H218641   2.704   6.052   2.327  0.6842  0.0984  0.0843
 4480WAT    EPW18642   2.702   6.008   2.392  0.0771  0.1683  0.1179
 4481WAT      O18643   5.863   5.103   2.228  0.5786  0.2587  0.0093
 4481WAT     H118644   5.880   5.141   2.152 -1.9476  0.5687 -0.4921
 4481WAT     H218645   5.854   5.170   2.284  1.2458  0.0920  0.3307
 4481WAT    EPW18646   5.864   5.119   2.225  0.3040  0.2798 -0.0173
 4482WAT      O18647   3.829   6.418   1.335  0.5253 -0.2533  0.2832
 4482WAT     H118648   3.753   6.394   1.300 -0.0019  1.4199  0.1903
 4482WAT     H218649   3.844   6.497   1.300  2.7196 -0.8502 -0.3193
 4482WAT    EPW18650   3.820   6.427   1.325  0.7716 -0.0943  0.1805
 4483WAT      O18651   3.736   7.300   0.445 -0.2862  0.9738 -0.4777
 4483WAT     H118652   3.704   7.331   0.520 -1.0766  1.1339 -0.8723
 4483WAT     H218653   3.808   7.259   0.470 -0.7468  0.6785  0.4316
 4483WAT    EPW18654   3.742   7.299   0.460 -0.4710  0.9538 -0.4017
 4484WAT      O18655   5.803   5.096   3.126 -0.0236  0.2703  0.2393
 4484WAT     H118656   5.757   5.056   3.189  0.3330  1.3872  1.2648
 4484WAT     H218657   5.814   5.177   3.158  1.0833  0.5559 -0.8013
 4484WAT    EPW18658   5.798   5.102   3.140  0.1926  0.4775  0.2371
 4485WAT      O18659   5.112   5.747   2.718  0.0189  0.4451 -0.3136
 4485WAT     H118660   5.062   5.818   2.723  1.2409  1.4250 -1.4991
 4485WAT     H218661   5.139   5.746   2.635  0.5164 -1.0739 -0.1691
 4485WAT    EPW18662   5.109   5.757   2.706  0.2729  0.3655 -0.4674
 4486WAT      O18663   3.671   6.294   2.646 -0.5936  0.0238 -0.2042
 4486WAT     H118664   3.639   6.372   2.622 -0.6033 -0.0466 -0.4182
 4486WAT     H218665   3.603   6.240   2.634  0.1668 -0.4988 -2.5832
 4486WAT    EPW18666   3.656   6.298   2.641 -0.4827 -0.0638 -0.5872
 4487WAT      O18667   6.276   4.826   7.543 -0.3049 -0.6793 -0.3363
 4487WAT     H118668   6.270   4.773   7.612  1.4237 -0.9558 -0.3471
 4487WAT     H218669   6.222   4.790   7.484 -0.0514 -1.7633  0.0758
 4487WAT    EPW18670   6.267   4.813   7.544 -0.0121 -0.8803 -0.2770
 4488WAT      O18671   3.640   4.800   7.740 -0.8362  0.9577  0.3629
 4488WAT     H118672   3.601   4.857   7.685 -0.4293  1.8722  1.0063
 4488WAT     H218673   3.581   4.790   7.803 -0.0118  2.5280  1.4623
 4488WAT    EPW18674   3.625   4.807   7.741 -0.6543  1.3247  0.6203
 4489WAT      O18675   3.626   6.093   0.313 -0.8879  0.0354  0.1744
 4489WAT     H118676   3.635   6.093   0.400 -0.7375 -1.4011  0.1934
 4489WAT     H218677   3.566   6.155   0.298 -1.3871 -0.1299  1.3653
 4489WAT    EPW18678   3.619   6.102   0.324 -0.9395 -0.2012  0.3531
 4490WAT      O18679   4.389   5.224   0.944  0.3066 -0.2608 -0.1865
 4490WAT     H118680   4.427   5.175   1.005  0.4736  2.3830  2.0129
 4490WAT     H218681   4.304   5.212   0.957  0.3485  0.0279  0.3999
 4490WAT    EPW18682   4.382   5.215   0.955  0.3375  0.1724  0.2250
 4491WAT      O18683   2.781   7.669   3.053  0.2368 -0.0175 -0.0139
 4491WAT     H118684   2.760   7.723   2.987 -0.3100 -0.1370  0.0507
 4491WAT     H218685   2.739   7.595   3.033  3.5435 -1.6317 -1.8199
 4491WAT    EPW18686   2.771   7.666   3.040  0.6445 -0.2736 -0.2712
 4492WAT      O18687   4.257   5.325   2.296 -0.1634  0.9130 -0.3636
 4492WAT     H118688   4.320   5.269   2.320 -1.1438 -0.1177 -0.0749
 4492WAT     H218689   4.290   5.403   2.316  0.8378  0.3667  0.2199
 4492WAT    EPW18690   4.271   5.328   2.303 -0.1603  0.6801 -0.2348
 4493WAT      O18691   4.348   3.645   1.055 -0.4997  0.0721 -0.0882
 4493WAT     H118692   4.335   3.583   0.995 -0.8747  0.2084 -0.1492
 4493WAT     H218693   4.422   3.620   1.094 -1.1402 -0.9202  0.5164
 4493WAT    EPW18694   4.357   3.632   1.052 -0.6497 -0.0543 -0.0079
 4494WAT      O18695   3.528   7.198   1.809 -0.0725  0.0082 -0.4423
 4494WAT     H118696   3.494   7.246   1.745 -0.9155  1.0807  0.7629
 4494WAT     H218697   3.510   7.243   1.881 -1.4933 -2.3922  0.8571
 4494WAT    EPW18698   3.520   7.211   1.810 -0.4069 -0.1879 -0.0723
 4495WAT      O18699   4.618   4.831   0.427  0.3732 -0.0773  0.2150
 4495WAT     H118700   4.643   4.787   0.498 -2.9688 -1.5498  0.6909
 4495WAT     H218701   4.629   4.774   0.363 -0.7385 -0.4107  0.2973
 4495WAT    EPW18702   4.623   4.816   0.428 -0.2847 -0.3441  0.2975
 4496WAT      O18703   3.498   6.585   7.668 -0.6646 -0.0576 -0.0111
 4496WAT     H118704   3.479   6.588   7.753  0.4034 -1.2704  0.3142
 4496WAT     H218705   3.561   6.645   7.659 -0.4329 -0.2689  0.1703
 4496WAT    EPW18706   3.505   6.594   7.679 -0.4726 -0.2680  0.0638
 4497WAT      O18707   3.819   4.628   0.527 -0.1813  0.2222 -0.2586
 4497WAT     H118708   3.790   4.688   0.584 -0.1360 -0.8976  0.9790
 4497WAT     H218709   3.890   4.666   0.492 -0.1378  0.8872  0.5220
 4497WAT    EPW18710   3.825   4.643   0.531 -0.1682  0.1550  0.0395
 4498WAT      O18711   3.875   5.075   0.750 -0.5567 -0.1566 -0.0119
 4498WAT     H118712   3.843   4.996   0.771 -1.9427  0.6697  1.1613
 4498WAT     H218713   3.907   5.063   0.670  0.6369 -2.2765  0.7048
 4498WAT    EPW18714   3.875   5.062   0.741 -0.5852 -0.3477  0.2673
 4499WAT      O18715   5.211   6.384   6.448  0.1344 -0.0181 -0.2286
 4499WAT     H118716   5.167   6.318   6.411 -1.4250 -0.4593  2.1617
 4499WAT     H218717   5.239   6.351   6.524 -1.8702  2.3074  1.7101
 4499WAT    EPW18718   5.208   6.370   6.454 -0.3921  0.2602  0.4109
 4500WAT      O18719   4.674   5.839   0.599 -0.3168  0.1496  0.5267
 4500WAT     H118720   4.706   5.839   0.517  1.9806 -1.5607  1.3086
 4500WAT     H218721   4.588   5.845   0.587  0.0009  0.9440 -1.9659
 4500WAT    EPW18722   4.666   5.840   0.585  0.0695  0.0143  0.2740
 4501WAT      O18723   4.704   4.745   0.670  0.1066 -0.0010  0.0857
 4501WAT     H118724   4.718   4.804   0.732  0.9348 -0.6688  0.5435
 4501WAT     H218725   4.718   4.668   0.710  0.2666 -0.4572 -0.8208
 4501WAT    EPW18726   4.708   4.742   0.685  0.2526 -0.1670  0.0194
 4502WAT      O18727   4.897   4.879   1.430  0.3416  0.4014  0.3205
 4502WAT     H118728   4.863   4.918   1.501  0.0833 -1.5845  1.3481
 4502WAT     H218729   4.952   4.820   1.463  0.8765  0.0059 -1.1895
 4502WAT    EPW18730   4.900   4.876   1.446  0.3824  0.0496  0.2492
 4503WAT      O18731   4.704   5.563   2.325  0.2847  0.2000 -0.4391
 4503WAT     H118732   4.729   5.638   2.362 -1.4154  1.2497 -1.3018
 4503WAT     H218733   4.618   5.562   2.337  0.1430 -1.1501 -1.3329
 4503WAT    EPW18734   4.695   5.574   2.333  0.0126  0.1556 -0.6986
 4504WAT      O18735   4.019   5.661   0.939 -0.5744 -0.2191  0.0588
 4504WAT     H118736   4.100   5.693   0.937 -0.2654 -0.9244  0.8363
 4504WAT     H218737   4.015   5.610   0.868 -0.3596 -0.1255 -0.0206
 4504WAT    EPW18738   4.030   5.658   0.928 -0.4970 -0.3094  0.1619
 4505WAT      O18739   4.014   6.247   1.404 -0.1141 -0.1186  0.0249
 4505WAT     H118740   3.987   6.176   1.361 -2.4156  0.8038 -0.1995
 4505WAT     H218741   3.955   6.308   1.382  2.5909  2.3730 -1.0743
 4505WAT    EPW18742   4.002   6.246   1.394 -0.0545  0.3857 -0.1706
 4506WAT      O18743   3.797   5.591   1.592  0.1443  0.0288 -0.3892
 4506WAT     H118744   3.833   5.635   1.526  0.2166 -0.3925 -0.6316
 4506WAT     H218745   3.713   5.615   1.589  0.1657  0.0794 -0.5749
 4506WAT    EPW18746   3.790   5.601   1.582  0.1581 -0.0259 -0.4524
 4507WAT      O18747   5.626   5.597   7.631  0.3141  0.1714 -0.2516
 4507WAT     H118748   5.662   5.544   7.571  1.2145 -1.2978  1.4777
 4507WAT     H218749   5.656   5.565   7.707 -2.2595  0.7571  1.1284
 4507WAT    EPW18750   5.636   5.584   7.634  0.0669  0.0409  0.2077
 4508WAT      O18751   4.038   6.736   2.366  0.1444  0.0194  0.3036
 4508WAT     H118752   4.104   6.735   2.310  0.8187 -1.6564  1.0432
 4508WAT     H218753   4.074   6.762   2.441  0.1403 -1.4099  0.8409
 4508WAT    EPW18754   4.053   6.739   2.369  0.2434 -0.4393  0.4922
 4509WAT      O18755   5.401   6.103   1.593  0.3374  0.2318  0.6509
 4509WAT     H118756   5.326   6.144   1.611  0.5636  0.6809  0.6089
 4509WAT     H218757   5.421   6.131   1.513 -0.5123 -1.5322 -0.2255
 4509WAT    EPW18758   5.393   6.113   1.584  0.2453  0.0375  0.5152
 4510WAT      O18759   4.984   4.307   0.869  0.4999  0.2016 -0.0747
 4510WAT     H118760   4.904   4.300   0.835  0.1255  0.6160  0.6853
 4510WAT     H218761   5.029   4.243   0.830 -0.5384 -0.8567  0.4042
 4510WAT    EPW18762   4.979   4.296   0.858  0.2912  0.1065  0.1083
 4511WAT      O18763   2.860   5.327   1.335 -0.1566 -0.3367 -0.4537
 4511WAT     H118764   2.872   5.277   1.405  0.8343  0.7014  0.1431
 4511WAT     H218765   2.780   5.359   1.345  0.0472 -0.0520  0.3095
 4511WAT    EPW18766   2.850   5.324   1.347  0.0199 -0.1413 -0.2528
 4512WAT      O18767   3.478   6.728   1.540  0.0683 -0.0422  0.1106
 4512WAT     H118768   3.507   6.804   1.570 -0.0440  0.0479 -0.0052
 4512WAT     H218769   3.429   6.697   1.605  0.5039 -0.2424  0.3449
 4512WAT    EPW18770   3.475   6.735   1.554  0.1161 -0.0585  0.1281
 4513WAT      O18771   5.612   5.416   0.567  0.7408 -0.0301 -0.2218
 4513WAT     H118772   5.577   5.425   0.647 -2.0048 -0.7487 -1.2326
 4513WAT     H218773   5.666   5.484   0.560  1.2792 -0.1046  2.3194
 4513WAT    EPW18774   5.615   5.427   0.578  0.4148 -0.1472  0.0043
 4514WAT      O18775   4.923   4.277   1.155  0.3766 -0.0073 -0.1909
 4514WAT     H118776   4.865   4.338   1.177  1.1980  1.1588 -1.1257
 4514WAT     H218777   4.939   4.294   1.070  1.5604 -0.7241 -0.1359
 4514WAT    EPW18778   4.917   4.288   1.146  0.6728  0.0591 -0.3208
 4515WAT      O18779   3.072   6.118   2.312  0.1560 -0.4350  0.4607
 4515WAT     H118780   3.061   6.058   2.250  0.2131 -1.3821  1.3334
 4515WAT     H218781   3.028   6.187   2.283  0.8900 -0.5644 -1.0193
 4515WAT    EPW18782   3.064   6.119   2.299  0.2729 -0.5940  0.3710
 4516WAT      O18783   4.168   6.002   0.630  0.3062  0.1135  0.0250
 4516WAT     H118784   4.215   6.036   0.695  0.0792 -1.4105  1.0298
 4516WAT     H218785   4.089   5.989   0.665  0.2041 -0.8334 -0.5115
 4516WAT    EPW18786   4.163   6.006   0.645  0.2576 -0.2515  0.0942
 4517WAT      O18787   3.293   6.802   0.243  0.1104 -0.2837 -0.2330
 4517WAT     H118788   3.298   6.882   0.209 -2.8791 -0.0456 -0.3597
 4517WAT     H218789   3.335   6.810   0.319  0.9483  1.0398 -0.7944
 4517WAT    EPW18790   3.300   6.815   0.249 -0.2074 -0.0530 -0.3347
 4518WAT      O18791   4.850   6.387   0.492  0.1297  0.0047 -0.0291
 4518WAT     H118792   4.797   6.442   0.534  1.1504  2.3879 -1.6292
 4518WAT     H218793   4.920   6.384   0.543 -0.0443 -0.0654  0.2100
 4518WAT    EPW18794   4.852   6.395   0.506  0.2548  0.3464 -0.2302
 4519WAT      O18795   5.859   6.241   7.717 -0.1514 -0.1133  0.3886
 4519WAT     H118796   5.885   6.281   7.790 -1.0453  0.6855  0.2716
 4519WAT     H218797   5.935   6.218   7.679  0.3459  0.4619  1.0071
 4519WAT    EPW18798   5.874   6.243   7.722 -0.2100  0.0897  0.4627
 4520WAT      O18799   5.222   6.026   0.385 -0.5146  0.1359 -0.0620
 4520WAT     H118800   5.181   5.972   0.331  1.5584 -2.4205  0.7164
 4520WAT     H218801   5.235   5.978   0.457 -0.4803  2.4072  1.5662
 4520WAT    EPW18802   5.218   6.011   0.388 -0.2033  0.0938  0.2935
 4521WAT      O18803   4.820   6.360   7.662 -0.5803  0.2968  0.2583
 4521WAT     H118804   4.872   6.430   7.665 -0.3335  0.3107 -2.2278
 4521WAT     H218805   4.744   6.389   7.692 -0.5420  1.7201 -0.9217
 4521WAT    EPW18806   4.817   6.375   7.667 -0.5382  0.5091 -0.2832
 4522WAT      O18807   4.090   4.941   1.002  0.4918 -1.0182 -0.4390
 4522WAT     H118808   4.098   4.902   0.924 -2.0788 -0.1513 -1.2498
 4522WAT     H218809   4.084   5.026   0.981  1.2125 -0.6271  0.8597
 4522WAT    EPW18810   4.090   4.948   0.987  0.2185 -0.8324 -0.3669
 4523WAT      O18811   4.868   6.204   2.734  0.5830 -0.3479 -0.1502
 4523WAT     H118812   4.818   6.275   2.737  0.7192 -0.2622  0.1611
 4523WAT     H218813   4.928   6.224   2.673  0.5983 -0.2080 -0.0908
 4523WAT    EPW18814   4.870   6.218   2.726  0.6054 -0.3145 -0.0954
 4524WAT      O18815   4.340   5.456   1.842  0.2351  0.0894  0.0059
 4524WAT     H118816   4.258   5.444   1.869  0.3121  0.3899  0.3923
 4524WAT     H218817   4.331   5.486   1.761  0.0064 -1.3459 -0.5340
 4524WAT    EPW18818   4.327   5.458   1.834  0.2127 -0.0782 -0.0168
 4525WAT      O18819   4.380   5.586   2.305  0.3291  0.5383  0.8515
 4525WAT     H118820   4.366   5.592   2.219 -0.6449  1.4580  1.0612
 4525WAT     H218821   4.329   5.648   2.339  0.1046 -0.3195  2.1596
 4525WAT    EPW18822   4.371   5.596   2.297  0.1521  0.5475  1.0757
 4526WAT      O18823   3.162   5.749   7.763 -0.1089 -0.5842  0.3083
 4526WAT     H118824   3.117   5.684   7.801 -1.2698 -0.8437 -1.3826
 4526WAT     H218825   3.237   5.710   7.741 -0.1936 -0.9384  0.6180
 4526WAT    EPW18826   3.166   5.733   7.765 -0.2929 -0.6748  0.1043
 4527WAT      O18827   5.540   6.722   0.061  0.2674  0.4178 -0.3476
 4527WAT     H118828   5.587   6.795   0.074 -0.8565  0.8574  1.6331
 4527WAT     H218829   5.469   6.735   0.109  0.2258 -2.1894  0.4228
 4527WAT    EPW18830   5.537   6.735   0.070  0.0952  0.0976  0.0588
 4528WAT      O18831   2.688   6.571   1.504 -0.5415 -0.8357 -0.2253
 4528WAT     H118832   2.772   6.593   1.510 -0.4000 -1.2777 -0.5078
 4528WAT     H218833   2.665   6.600   1.425 -0.0596 -2.6148 -1.0620
 4528WAT    EPW18834   2.697   6.579   1.493 -0.4494 -1.1638 -0.3907
 4529WAT      O18835   5.331   3.304   6.068  0.6333 -0.3388 -0.8087
 4529WAT     H118836   5.261   3.354   6.084 -0.3671 -1.8240 -0.2995
 4529WAT     H218837   5.394   3.362   6.052 -0.7289  1.0641 -1.4370
 4529WAT    EPW18838   5.330   3.320   6.068  0.2843 -0.3510 -0.8263
 4530WAT      O18839   5.802   5.175   7.313  0.0768 -0.2610 -0.4758
 4530WAT     H118840   5.716   5.181   7.302  0.1541  0.4335 -0.7057
 4530WAT     H218841   5.810   5.129   7.387 -0.4724 -1.9377 -1.3898
 4530WAT    EPW18842   5.791   5.169   7.322  0.0071 -0.4061 -0.6448
 4531WAT      O18843   4.005   2.880   5.810 -0.0238  0.5189  0.0607
 4531WAT     H118844   4.068   2.896   5.868  0.8227  0.0179 -0.7021
 4531WAT     H218845   4.039   2.819   5.758 -0.6731  1.0924 -1.0932
 4531WAT    EPW18846   4.019   2.874   5.811  0.0054  0.5296 -0.2225
 4532WAT      O18847   5.504   5.096   7.330 -0.0083  0.3978  0.0986
 4532WAT     H118848   5.524   5.024   7.285  0.7057  1.0317 -0.6597
 4532WAT     H218849   5.501   5.069   7.413  0.4654 -0.4551 -0.1487
 4532WAT    EPW18850   5.507   5.082   7.335  0.1671  0.3655 -0.0500
 4533WAT      O18851   3.105   2.040   6.387 -0.5459 -0.1098 -0.0172
 4533WAT     H118852   3.109   1.957   6.360 -2.6289  0.2424 -1.6750
 4533WAT     H218853   3.141   2.038   6.466  2.5128 -1.9437 -1.2790
 4533WAT    EPW18854   3.111   2.027   6.395 -0.4017 -0.3287 -0.4485
 4534WAT      O18855   4.384   4.194   5.488  0.3103  0.0614 -0.2590
 4534WAT     H118856   4.399   4.116   5.451  0.2032 -0.2972  0.4361
 4534WAT     H218857   4.319   4.178   5.543 -0.7338  0.9794 -1.1794
 4534WAT    EPW18858   4.377   4.180   5.491  0.1402  0.1441 -0.2923
 4535WAT      O18859   4.956   2.730   5.832  0.4031  0.0642 -0.3137
 4535WAT     H118860   4.924   2.808   5.854  1.2277  0.5594 -0.7791
 4535WAT     H218861   4.886   2.682   5.817 -0.1259  0.5809  0.4539
 4535WAT    EPW18862   4.941   2.735   5.833  0.4468  0.2137 -0.2691
 4536WAT      O18863   3.794   2.143   5.601 -0.0013 -0.3870 -0.1101
 4536WAT     H118864   3.824   2.224   5.615 -0.4237 -0.1450 -0.5741
 4536WAT     H218865   3.745   2.126   5.670  1.4615 -0.9232  0.8451
 4536WAT    EPW18866   3.791   2.152   5.613  0.1524 -0.4305 -0.0376
 4537WAT      O18867   3.888   4.139   6.022 -0.1207  0.1126 -0.1238
 4537WAT     H118868   3.869   4.181   5.947 -0.6824  0.0540 -0.0156
 4537WAT     H218869   3.856   4.191   6.083  1.5797  0.8778  0.1843
 4537WAT    EPW18870   3.881   4.153   6.020  0.0475  0.2170 -0.0623
 4538WAT      O18871   5.656   2.460   6.922  0.1465  0.1949  0.1813
 4538WAT     H118872   5.720   2.428   6.872  0.1197  1.6082 -0.8413
 4538WAT     H218873   5.684   2.540   6.944 -0.3453  0.0252  1.5225
 4538WAT    EPW18874   5.669   2.467   6.918  0.0699  0.3786  0.2283
 4539WAT      O18875   5.066   2.300   7.572 -0.1082  0.4532  0.4240
 4539WAT     H118876   5.064   2.387   7.583 -0.3983  0.5495 -0.3359
 4539WAT     H218877   5.055   2.269   7.653 -1.3551  1.1246  0.5438
 4539WAT    EPW18878   5.064   2.308   7.586 -0.3352  0.5666  0.3294
 4540WAT      O18879   4.813   3.792   6.849 -0.4439  0.2432  0.8216
 4540WAT     H118880   4.819   3.822   6.767  0.6545 -0.2494  0.7072
 4540WAT     H218881   4.747   3.735   6.844  0.3075 -0.5836  0.0130
 4540WAT    EPW18882   4.804   3.788   6.836 -0.1707  0.0483  0.6852
 4541WAT      O18883   2.488   4.784   7.301  0.2552 -0.5845 -0.1689
 4541WAT     H118884   2.417   4.833   7.287 -1.2373 -2.8048 -0.8020
 4541WAT     H218885   2.470   4.710   7.260  2.5571 -1.5979  0.5084
 4541WAT    EPW18886   2.475   4.781   7.293  0.3748 -1.0622 -0.1623
 4542WAT      O18887   4.073   4.839   6.943 -0.0697 -0.6537 -0.2216
 4542WAT     H118888   4.149   4.884   6.944  0.3741 -1.3422 -1.3855
 4542WAT     H218889   4.079   4.788   7.014  0.2874 -0.2812  0.0259
 4542WAT    EPW18890   4.085   4.838   6.954  0.0486 -0.7004 -0.3569
 4543WAT      O18891   3.274   3.724   6.456  0.1200  0.4959  0.3164
 4543WAT     H118892   3.244   3.642   6.448  0.1369  0.3748  1.3834
 4543WAT     H218893   3.206   3.773   6.434 -0.1765  0.1999  0.5571
 4543WAT    EPW18894   3.260   3.719   6.451  0.0787  0.4342  0.5096
 4544WAT      O18895   3.926   4.764   6.715 -0.6029  0.0663 -0.3788
 4544WAT     H118896   3.968   4.789   6.787 -2.1491 -0.1339  0.6530
 4544WAT     H218897   3.990   4.742   6.660  0.7373  2.9713 -0.1526
 4544WAT    EPW18898   3.942   4.764   6.718 -0.6334  0.4659 -0.1930
 4545WAT      O18899   5.280   3.807   6.137  0.1559  0.1882  0.2852
 4545WAT     H118900   5.291   3.877   6.189 -0.3187  1.8550 -1.7438
 4545WAT     H218901   5.243   3.840   6.066  0.1235 -2.1367 -0.8574
 4545WAT    EPW18902   5.276   3.822   6.134  0.0810  0.0910 -0.1833
 4546WAT      O18903   5.913   4.546   0.608 -0.5537  0.1072 -0.2646
 4546WAT     H118904   5.968   4.495   0.563 -2.0141  0.2597 -2.3602
 4546WAT     H218905   5.837   4.502   0.604 -1.2710  1.2844 -0.0208
 4546WAT    EPW18906   5.910   4.532   0.601 -0.8754  0.3036 -0.5381
 4547WAT      O18907   5.606   3.281   6.217 -0.0124  0.3257  0.1918
 4547WAT     H118908   5.581   3.218   6.162 -1.3392  0.6102  0.4325
 4547WAT     H218909   5.589   3.355   6.174  0.3456  0.5386  0.4066
 4547WAT    EPW18910   5.600   3.282   6.202 -0.1555  0.3992  0.2591
 4548WAT      O18911   5.390   2.187   6.990 -0.3536 -0.7270 -0.5115
 4548WAT     H118912   5.438   2.245   7.034 -0.8823 -0.5194 -0.2068
 4548WAT     H218913   5.445   2.159   6.928  0.4397 -1.0939  0.3299
 4548WAT    EPW18914   5.405   2.191   6.988 -0.3145 -0.7505 -0.3422
 4549WAT      O18915   5.033   3.012   7.330 -0.1806  0.5309  0.0689
 4549WAT     H118916   5.064   3.010   7.411 -2.2521  1.0539  0.9221
 4549WAT     H218917   5.003   3.093   7.321 -2.0636 -0.1579 -0.3441
 4549WAT    EPW18918   5.033   3.023   7.340 -0.7648  0.5064  0.1339
 4550WAT      O18919   5.570   2.521   5.972  0.0696  0.8744  0.1123
 4550WAT     H118920   5.612   2.588   6.010  0.6383 -0.0920  1.2431
 4550WAT     H218921   5.486   2.544   5.979  0.2148  1.1676  1.1093
 4550WAT    EPW18922   5.564   2.534   5.979  0.1751  0.7749  0.4266
 4551WAT      O18923   3.369   2.774   6.498 -0.0067 -0.1435 -0.4656
 4551WAT     H118924   3.377   2.799   6.415 -1.8660  0.3962 -0.5300
 4551WAT     H218925   3.333   2.844   6.537  0.4039 -0.5535  0.6921
 4551WAT    EPW18926   3.365   2.788   6.491 -0.2207 -0.1244 -0.3041
 4552WAT      O18927   2.883   5.140   6.228  0.2813 -0.7029 -0.6495
 4552WAT     H118928   2.963   5.108   6.246  0.4657  0.0139 -0.1604
 4552WAT     H218929   2.895   5.226   6.230 -0.6682 -0.5851  0.1874
 4552WAT    EPW18930   2.897   5.148   6.231  0.1683 -0.5796 -0.4536
 4553WAT      O18931   4.401   5.205   6.248  0.5943  0.1576  0.4452
 4553WAT     H118932   4.321   5.171   6.258 -0.7132  3.1822  1.2842
 4553WAT     H218933   4.438   5.193   6.326  0.1325  0.6916  0.7480
 4553WAT    EPW18934   4.395   5.198   6.261  0.3329  0.6832  0.6138
 4554WAT      O18935   4.757   4.310   6.680  0.5695 -0.0346 -0.5148
 4554WAT     H118936   4.821   4.253   6.664  1.5251  0.2337  1.8760
 4554WAT     H218937   4.695   4.261   6.718  0.0204 -0.0128 -1.3632
 4554WAT    EPW18938   4.757   4.294   6.683  0.6296  0.0082 -0.2870
 4555WAT      O18939   3.309   3.572   6.136  0.3538 -0.1413  0.2959
 4555WAT     H118940   3.373   3.628   6.118 -0.5707  1.1542  0.8567
 4555WAT     H218941   3.273   3.556   6.058  0.4188  0.3201  0.1670
 4555WAT    EPW18942   3.313   3.578   6.122  0.2269  0.1183  0.3597
 4556WAT      O18943   4.754   3.746   0.172 -0.4354  0.0230 -0.5188
 4556WAT     H118944   4.735   3.667   0.140 -1.4052 -0.1232  0.3597
 4556WAT     H218945   4.703   3.752   0.243  1.7282  0.2640  1.1204
 4556WAT    EPW18946   4.744   3.735   0.178 -0.2590  0.0370 -0.1469
 4557WAT      O18947   4.417   5.253   6.540  0.9500 -0.5144 -0.1977
 4557WAT     H118948   4.449   5.179   6.573 -0.1173 -0.7782  0.2846
 4557WAT     H218949   4.331   5.246   6.553  0.6821  0.1869 -1.4216
 4557WAT    EPW18950   4.409   5.241   6.547  0.7527 -0.4498 -0.3072
 4558WAT      O18951   5.802   2.693   6.984 -0.1333 -0.1042  0.2475
 4558WAT     H118952   5.799   2.712   7.069 -0.7024  0.0545  0.1995
 4558WAT     H218953   5.780   2.768   6.946  3.9335  1.0551 -0.2440
 4558WAT    EPW18954   5.798   2.707   6.991  0.3834  0.0905  0.1678
 4559WAT      O18955   4.989   5.402   6.425  0.1089 -0.3074 -0.0046
 4559WAT     H118956   5.046   5.348   6.463 -0.2423 -0.2033  0.6994
 4559WAT     H218957   4.919   5.352   6.411 -0.1543 -0.0941  0.4897
 4559WAT    EPW18958   4.987   5.387   6.429  0.0181 -0.2605  0.1724
 4560WAT      O18959   4.864   3.578   7.233  0.0819  0.2513 -0.2487
 4560WAT     H118960   4.895   3.569   7.314  0.6872  0.1694 -0.4892
 4560WAT     H218961   4.908   3.646   7.202 -0.1966  0.3221 -0.4928
 4560WAT    EPW18962   4.875   3.587   7.241  0.1302  0.2497 -0.3203
 4561WAT      O18963   3.642   4.824   7.044 -0.3043  0.1271 -0.0836
 4561WAT     H118964   3.588   4.882   7.081 -1.0869 -0.1244 -0.8101
 4561WAT     H218965   3.595   4.751   7.042 -0.5751  0.2859 -2.1830
 4561WAT    EPW18966   3.627   4.822   7.049 -0.4599  0.1134 -0.5011
 4562WAT      O18967   3.863   5.945   6.354 -0.3373 -0.3899  0.1677
 4562WAT     H118968   3.942   5.975   6.330 -0.6219  1.1537  1.0462
 4562WAT     H218969   3.848   5.881   6.297  1.3971 -0.4880 -0.2473
 4562WAT    EPW18970   3.873   5.940   6.342 -0.1232 -0.1764  0.2362
 4563WAT      O18971   4.379   4.073   6.548  0.1104 -0.4988 -0.1350
 4563WAT     H118972   4.434   4.005   6.548 -0.8610 -1.3731  1.8700
 4563WAT     H218973   4.302   4.037   6.566 -0.5516  1.0431  0.2833
 4563WAT    EPW18974   4.376   4.057   6.551 -0.1309 -0.4002  0.2230
 4564WAT      O18975   7.091   3.836   6.853  0.3177 -0.1799  0.1509
 4564WAT     H118976   7.087   3.754   6.823  1.5709 -0.0172 -0.5298
 4564WAT     H218977   7.039   3.881   6.800  0.2840 -0.4001 -0.0021
 4564WAT    EPW18978   7.083   3.830   6.841  0.4979 -0.1884  0.0278
 4565WAT      O18979   4.243   3.688   5.280  0.0481 -0.0033  0.1385
 4565WAT     H118980   4.236   3.692   5.193  1.7307  0.4945 -0.0208
 4565WAT     H218981   4.171   3.728   5.308  0.5394  1.8946 -1.0867
 4565WAT    EPW18982   4.231   3.694   5.271  0.3692  0.3506 -0.0660
 4566WAT      O18983   4.961   5.025   6.697 -0.1948 -0.0220  0.2500
 4566WAT     H118984   4.884   5.000   6.666  0.2629  0.9637 -1.8949
 4566WAT     H218985   4.941   5.078   6.763 -1.4543  1.2737 -1.0997
 4566WAT    EPW18986   4.947   5.029   6.702 -0.3132  0.3150 -0.2662
 4567WAT      O18987   3.898   4.110   0.037 -0.4670 -0.2726 -0.5218
 4567WAT     H118988   3.858   4.179   0.001  1.9792  0.4338 -2.1088
 4567WAT     H218989   3.845   4.044   0.018 -1.5679  0.7753 -1.3155
 4567WAT    EPW18990   3.884   4.111   0.029 -0.2683 -0.0135 -0.8734
 4568WAT      O18991   6.124   3.579   7.355  0.5921 -0.0128 -0.0705
 4568WAT     H118992   6.105   3.496   7.337 -1.8985 -0.8393  4.7214
 4568WAT     H218993   6.196   3.574   7.404  1.5848  0.9861 -1.3429
 4568WAT    EPW18994   6.132   3.566   7.360  0.3709  0.0127  0.4494
 4569WAT      O18995   4.136   2.962   0.721  0.2676 -0.2719 -0.3253
 4569WAT     H118996   4.077   2.988   0.780  0.8341 -1.4617  0.8120
 4569WAT     H218997   4.179   3.035   0.700  0.0289  0.1727  0.7229
 4569WAT    EPW18998   4.134   2.976   0.726  0.3160 -0.3820 -0.0024
 4570WAT      O18999   5.172   3.031   7.565 -0.0613 -0.2543 -0.3634
 4570WAT     H119000   5.113   2.985   7.610 -1.0844  1.7379  0.4984
 4570WAT     H219001   5.246   3.019   7.610 -0.6207  0.0496  0.6821
 4570WAT    EPW19002   5.174   3.022   7.578 -0.2951  0.0849 -0.0816
 4571WAT      O19003   4.108   4.328   5.923  0.4652 -0.0129 -0.0008
 4571WAT     H119004   4.152   4.367   5.988  1.6270  0.4192 -1.0135
 4571WAT     H219005   4.088   4.249   5.957  0.4127  0.4626  1.1222
 4571WAT    EPW19006   4.111   4.322   5.938  0.6290  0.1211  0.0155
 4572WAT      O19007   5.952   3.380   5.708 -0.4613  0.0978 -0.3990
 4572WAT     H119008   5.891   3.350   5.763  0.1068 -0.0234  0.1696
 4572WAT     H219009   5.969   3.460   5.737  0.6051 -0.3479  0.2602
 4572WAT    EPW19010   5.945   3.388   5.720 -0.2198  0.0141 -0.2176
 4573WAT      O19011   4.386   3.805   0.613 -0.3737  0.0362 -0.0513
 4573WAT     H119012   4.359   3.884   0.587  1.1124  0.5997  0.0392
 4573WAT     H219013   4.325   3.751   0.580 -1.1445  1.1645 -0.5343
 4573WAT    EPW19014   4.373   3.808   0.604 -0.2680  0.2861 -0.1093
 4574WAT      O19015   4.602   3.280   5.818  0.3163  0.0443  0.1198
 4574WAT     H119016   4.527   3.313   5.848  0.6343 -0.1434  1.1899
 4574WAT     H219017   4.659   3.345   5.830  0.2030  0.4446 -1.3628
 4574WAT    EPW19018   4.599   3.294   5.824  0.3465  0.0757  0.0589
 4575WAT      O19019   4.473   4.832   7.049  0.0749  0.3233 -0.6231
 4575WAT     H119020   4.539   4.786   7.017  0.9385  0.4540  0.8920
 4575WAT     H219021   4.414   4.771   7.071  0.4009  0.0905 -0.3991
 4575WAT    EPW19022   4.474   4.816   7.047  0.2506  0.3082 -0.3662
 4576WAT      O19023   5.495   3.926   4.824  0.2466  0.5153  0.6986
 4576WAT     H119024   5.515   3.842   4.836 -0.7361  0.2633  0.6456
 4576WAT     H219025   5.481   3.932   4.738 -0.6870  0.5001  0.8463
 4576WAT    EPW19026   5.496   3.915   4.813 -0.0365  0.4758  0.7126
 4577WAT      O19027   5.587   4.140   6.212 -0.5453 -0.2212  0.3049
 4577WAT     H119028   5.554   4.193   6.274 -2.1794 -0.4406 -0.3170
 4577WAT     H219029   5.536   4.069   6.217  0.5862 -1.0781  0.0331
 4577WAT    EPW19030   5.575   4.137   6.222 -0.6195 -0.3802  0.1729
 4578WAT      O19031   4.239   2.913   6.578 -0.0754  0.2920  0.2272
 4578WAT     H119032   4.279   2.972   6.628  0.1187 -0.7412  1.3548
 4578WAT     H219033   4.164   2.898   6.620  0.7429 -1.6890  1.1102
 4578WAT    EPW19034   4.234   2.919   6.592  0.0741 -0.1532  0.5242
 4579WAT      O19035   3.450   5.832   0.611  0.3486  0.2035  0.3283
 4579WAT     H119036   3.387   5.844   0.553  1.6780 -0.3286 -1.2874
 4579WAT     H219037   3.518   5.877   0.578  1.5207 -1.1842  0.7602
 4579WAT    EPW19038   3.451   5.841   0.598  0.7181 -0.0801  0.1534
 4580WAT      O19039   4.395   4.018   1.222 -0.1873  0.5500 -0.2027
 4580WAT     H119040   4.344   4.039   1.154  0.0787  1.1348 -0.2337
 4580WAT     H219041   4.353   4.053   1.290  0.3202  1.3275 -0.2694
 4580WAT    EPW19042   4.381   4.026   1.222 -0.0730  0.7513 -0.2171
 4581WAT      O19043   6.534   3.121   6.612 -0.2335  0.2438  0.2690
 4581WAT     H119044   6.514   3.192   6.659  1.2025  1.7140 -1.2446
 4581WAT     H219045   6.590   3.078   6.663 -2.0016 -0.5347  1.7142
 4581WAT    EPW19046   6.539   3.125   6.627 -0.2826  0.3460  0.2589
 4582WAT      O19047   5.105   4.162   6.792 -0.1182 -0.5483  0.3712
 4582WAT     H119048   5.136   4.240   6.767  1.0275 -0.5351  1.6773
 4582WAT     H219049   5.172   4.108   6.777 -0.8499 -1.2694 -0.3709
 4582WAT    EPW19050   5.120   4.166   6.786 -0.0570 -0.6529  0.4545
 4583WAT      O19051   4.623   2.867   4.452  0.2943  0.6288  0.3734
 4583WAT     H119052   4.544   2.875   4.414  1.3160  1.2677 -1.7646
 4583WAT     H219053   4.623   2.784   4.481 -0.9875  0.4687 -0.0187
 4583WAT    EPW19054   4.611   2.856   4.451  0.2559  0.6995 -0.0003
 4584WAT      O19055   5.332   3.124   7.318 -0.2747 -0.0845 -0.2684
 4584WAT     H119056   5.386   3.184   7.352  1.3826 -1.2530 -0.7032
 4584WAT     H219057   5.270   3.117   7.378  0.1857  1.1222  0.3956
 4584WAT    EPW19058   5.331   3.132   7.332  0.0382 -0.0789 -0.2345
 4585WAT      O19059   5.820   4.168   6.517  0.5801 -0.2891 -0.4526
 4585WAT     H119060   5.804   4.082   6.522  1.6159 -0.6272 -2.1508
 4585WAT     H219061   5.871   4.175   6.447  1.5986  1.5870  0.4156
 4585WAT    EPW19062   5.825   4.156   6.508  0.8835 -0.0619 -0.5752
 4586WAT      O19063   6.470   3.934   5.415  0.2265  0.1003  0.0648
 4586WAT     H119064   6.439   3.891   5.485  1.1587  0.4873  0.7244
 4586WAT     H219065   6.427   3.897   5.348  0.9707 -1.8520  0.6037
 4586WAT    EPW19066   6.459   3.922   5.415  0.4742 -0.1309  0.2418
 4587WAT      O19067   5.720   4.198   1.637 -0.5910 -0.4533  0.2911
 4587WAT     H119068   5.698   4.174   1.718  1.6629  1.2667  1.5527
 4587WAT     H219069   5.790   4.150   1.619 -0.8117 -0.5054 -0.4528
 4587WAT    EPW19070   5.727   4.188   1.647 -0.2906 -0.2070  0.3676
 4588WAT      O19071   3.570   4.015   0.586  0.2895  0.2636 -0.0551
 4588WAT     H119072   3.623   4.046   0.525  3.0193 -0.8621  1.5849
 4588WAT     H219073   3.603   4.046   0.660  1.0273 -3.4527  1.3649
 4588WAT    EPW19074   3.583   4.024   0.588  0.8017 -0.4517  0.3969
 4589WAT      O19075   6.985   3.442   5.416 -0.5389  0.0354 -0.4906
 4589WAT     H119076   6.955   3.362   5.400 -0.1859 -0.1026 -0.4646
 4589WAT     H219077   7.029   3.433   5.491 -0.8899  0.3529 -0.2421
 4589WAT    EPW19078   6.987   3.429   5.425 -0.5386  0.0619 -0.4500
 4590WAT      O19079   4.373   2.728   6.160  0.3092 -0.2051  0.1872
 4590WAT     H119080   4.452   2.743   6.126 -0.3685  0.0728 -1.3760
 4590WAT     H219081   4.373   2.642   6.174  0.9514 -0.1770  0.3970
 4590WAT    EPW19082   4.384   2.717   6.157  0.3040 -0.1599 -0.0127
 4591WAT      O19083   3.802   5.271   7.636 -0.7063  0.3123 -0.0350
 4591WAT     H119084   3.886   5.247   7.632 -0.5862  0.2379  1.9226
 4591WAT     H219085   3.801   5.349   7.598  0.5356  0.8889  1.0275
 4591WAT    EPW19086   3.814   5.279   7.630 -0.5051  0.3865  0.4111
 4592WAT      O19087   3.839   2.855   7.434 -0.5264  0.1217 -0.5318
 4592WAT     H119088   3.890   2.925   7.444 -1.3013  1.0685 -2.6982
 4592WAT     H219089   3.786   2.858   7.503  1.1726  0.0802  0.8507
 4592WAT    EPW19090   3.839   2.866   7.445 -0.3899  0.2554 -0.6476
 4593WAT      O19091   4.413   4.138   6.997  0.3916  0.3069 -0.1497
 4593WAT     H119092   4.399   4.157   7.081 -1.4271 -0.6011 -0.2232
 4593WAT     H219093   4.420   4.051   6.996 -2.0139  0.0472 -1.1991
 4593WAT    EPW19094   4.412   4.128   7.010 -0.2324  0.1344 -0.3156
 4594WAT      O19095   5.558   4.380   5.525  0.2743  0.0506 -0.6504
 4594WAT     H119096   5.502   4.427   5.573  1.0228  0.9130 -0.5956
 4594WAT     H219097   5.620   4.438   5.504  1.1284 -0.8734 -0.7264
 4594WAT    EPW19098   5.559   4.396   5.529  0.5110  0.0415 -0.6535
 4595WAT      O19099   4.347   3.390   6.816  0.5366 -0.2359 -0.0804
 4595WAT     H119100   4.300   3.448   6.771  1.4493  0.6334  0.0556
 4595WAT     H219101   4.337   3.415   6.899  0.1148 -0.9036  0.0832
 4595WAT    EPW19102   4.338   3.402   6.822  0.6091 -0.2062 -0.0361
 4596WAT      O19103   6.035   3.870   5.856  0.4055 -0.1190 -0.4885
 4596WAT     H119104   5.959   3.911   5.870  1.4800  1.6716  0.5260
 4596WAT     H219105   6.081   3.888   5.928  1.8522 -1.0472 -1.1430
 4596WAT    EPW19106   6.030   3.879   5.869  0.7779  0.0084 -0.4353
 4597WAT      O19107   4.302   6.873   6.140 -1.3990 -0.1283 -0.6872
 4597WAT     H119108   4.249   6.873   6.209  0.0239 -0.6063  0.4647
 4597WAT     H219109   4.354   6.804   6.153  0.3288  1.0222 -1.0487
 4597WAT    EPW19110   4.302   6.863   6.152 -0.9335 -0.0289 -0.5704
 4598WAT      O19111   6.118   3.988   7.638  0.1005  0.2781  0.4992
 4598WAT     H119112   6.049   4.028   7.673  0.2100  1.5467 -0.6475
 4598WAT     H219113   6.086   3.955   7.563  0.3983 -0.4303  0.6755
 4598WAT    EPW19114   6.103   3.989   7.632  0.1607  0.3609  0.3558
 4599WAT      O19115   4.599   4.534   7.117  0.0409 -0.2470  0.2448
 4599WAT     H119116   4.678   4.507   7.091 -0.3346  0.5050 -1.8721
 4599WAT     H219117   4.547   4.517   7.049 -1.5895 -0.4504  1.4750
 4599WAT    EPW19118   4.603   4.528   7.103 -0.2554 -0.1660  0.1138
 4600WAT      O19119   5.560   3.320   5.078  0.0766  0.0597  0.0375
 4600WAT     H119120   5.509   3.326   5.148 -0.2609 -0.6527 -0.1437
 4600WAT     H219121   5.532   3.384   5.026  0.6506  0.9080  0.7483
 4600WAT    EPW19122   5.549   3.330   5.081  0.1116  0.0798  0.1157
 4601WAT      O19123   5.386   3.603   7.452 -0.4171 -0.2505  0.4289
 4601WAT     H119124   5.412   3.592   7.370 -2.0791 -1.1774 -0.0203
 4601WAT     H219125   5.326   3.666   7.447 -0.2718 -0.0574  0.9970
 4601WAT    EPW19126   5.381   3.611   7.439 -0.6411 -0.3589  0.4465
 4602WAT      O19127   1.780   5.654   7.483  0.2586 -0.4573  0.2181
 4602WAT     H119128   1.742   5.664   7.561 -1.1438 -2.7990 -0.0512
 4602WAT     H219129   1.750   5.577   7.456  1.5010 -0.1806 -2.2180
 4602WAT    EPW19130   1.770   5.644   7.490  0.2350 -0.7624 -0.1815
 4603WAT      O19131   3.305   2.924   5.986  0.3376  0.6665  0.2091
 4603WAT     H119132   3.271   2.995   6.021 -1.0811  0.8848 -1.4706
 4603WAT     H219133   3.256   2.859   6.018  1.9486  0.3117  2.1415
 4603WAT    EPW19134   3.293   2.925   5.996  0.3660  0.6463  0.2464
 4604WAT      O19135   5.439   4.037   7.059 -0.5871 -0.0723 -0.2463
 4604WAT     H119136   5.502   3.983   7.085 -0.4460 -0.0081 -0.4539
 4604WAT     H219137   5.479   4.115   7.053 -0.5027 -0.1684 -1.0897
 4604WAT    EPW19138   5.454   4.041   7.062 -0.5538 -0.0770 -0.4015
 4605WAT      O19139   4.659   5.054   5.474  0.5677 -0.0132  0.2611
 4605WAT     H119140   4.606   5.117   5.503 -1.3122 -0.1627 -2.4263
 4605WAT     H219141   4.626   4.982   5.510  0.1550  0.1091  0.1309
 4605WAT    EPW19142   4.646   5.053   5.484  0.2290 -0.0172 -0.1551
 4606WAT      O19143   3.804   3.880   7.045  0.6232  0.0664  0.2906
 4606WAT     H119144   3.746   3.918   7.098 -0.1231 -0.2212 -0.3147
 4606WAT     H219145   3.759   3.817   7.006  1.9829 -1.8882  1.7190
 4606WAT    EPW19146   3.789   3.876   7.047  0.7138 -0.2648  0.4122
 4607WAT      O19147   4.479   4.966   6.077  0.3891  0.2340  0.3751
 4607WAT     H119148   4.500   4.990   5.995  1.9277  0.1945  0.7408
 4607WAT     H219149   4.452   5.041   6.113  0.7471  0.4801  0.1435
 4607WAT    EPW19150   4.478   4.981   6.070  0.6693  0.2645  0.3949
 4608WAT      O19151   5.917   2.767   6.598  0.0394  0.1329  0.1856
 4608WAT     H119152   5.859   2.702   6.594  1.0966 -0.8114 -3.5217
 4608WAT     H219153   5.868   2.838   6.583 -1.0037  0.2769  3.5351
 4608WAT    EPW19154   5.901   2.768   6.595  0.0415  0.0147  0.1327
 4609WAT      O19155   6.068   2.623   7.149  0.3351  0.5515  0.2815
 4609WAT     H119156   6.065   2.545   7.109 -0.9296  0.8460 -0.2305
 4609WAT     H219157   6.042   2.679   7.087 -1.7490  1.0236  1.4977
 4609WAT    EPW19158   6.064   2.620   7.134 -0.1596  0.6648  0.3855
 4610WAT      O19159   5.508   2.738   7.482 -0.7431 -0.7488  0.0485
 4610WAT     H119160   5.549   2.671   7.443 -0.6416 -0.3133 -0.5976
 4610WAT     H219161   5.494   2.794   7.417 -2.0853 -0.7430  0.3052
 4610WAT    EPW19162   5.512   2.736   7.467 -0.9264 -0.6836 -0.0090
 4611WAT      O19163   2.795   3.606   6.311 -0.4316 -0.1911 -0.6749
 4611WAT     H119164   2.869   3.577   6.347 -0.9179  0.6244  1.1142
 4611WAT     H219165   2.776   3.677   6.357 -2.9799 -1.0498 -0.2203
 4611WAT    EPW19166   2.803   3.612   6.323 -0.8799 -0.1975 -0.3434
 4612WAT      O19167   2.664   3.685   7.732  0.3319  0.3789  0.2751
 4612WAT     H119168   2.592   3.681   7.682  0.9159  0.8019 -0.6390
 4612WAT     H219169   2.641   3.645   7.805 -0.7335  0.2114 -0.1348
 4612WAT    EPW19170   2.650   3.679   7.735  0.2608  0.4167  0.0795
 4613WAT      O19171   5.515   3.166   6.632 -0.1869 -0.5002 -0.3362
 4613WAT     H119172   5.477   3.198   6.704  1.8344 -0.1683  0.6454
 4613WAT     H219173   5.575   3.227   6.612  0.4154 -1.3817 -1.3177
 4613WAT    EPW19174   5.518   3.180   6.639  0.2006 -0.5814 -0.3362
 4614WAT      O19175   6.180   1.093   0.110  0.4054  0.1189  0.7449
 4614WAT     H119176   6.180   1.020   0.157 -1.1565  0.2343  0.9615
 4614WAT     H219177   6.108   1.134   0.135 -0.7263  0.0010 -1.9667
 4614WAT    EPW19178   6.169   1.088   0.120  0.0075  0.1185  0.3763
 4615WAT      O19179   4.212   4.889   6.620  0.2038  0.2169 -0.2926
 4615WAT     H119180   4.214   4.802   6.618 -1.2877  0.0927  1.2070
 4615WAT     H219181   4.232   4.907   6.703 -2.5803  1.0985  0.2968
 4615WAT    EPW19182   4.215   4.879   6.632 -0.4278  0.3288  0.0160
 4616WAT      O19183   6.353   3.715   6.439  0.8401 -0.4456 -0.5414
 4616WAT     H119184   6.303   3.726   6.510 -0.1714 -1.7315 -1.0205
 4616WAT     H219185   6.393   3.793   6.430  1.1678 -0.3277  1.5314
 4616WAT    EPW19186   6.351   3.728   6.448  0.7391 -0.6181 -0.3060
 4617WAT      O19187   4.739   2.580   5.759 -0.1881  0.2249 -0.2770
 4617WAT     H119188   4.680   2.588   5.823  0.1574  1.3340 -0.0714
 4617WAT     H219189   4.751   2.494   5.752 -0.1283  0.0945  1.2463
 4617WAT    EPW19190   4.732   2.568   5.767 -0.1282  0.3695 -0.0216
 4618WAT      O19191   4.618   2.226   7.136 -0.0958 -0.4324  0.3587
 4618WAT     H119192   4.531   2.235   7.134 -0.0609 -0.2047 -0.5352
 4618WAT     H219193   4.642   2.243   7.054  0.6683 -1.8222  0.2658
 4618WAT    EPW19194   4.609   2.230   7.124  0.0223 -0.6041  0.2129
 4619WAT      O19195   4.294   4.229   7.651  0.5926 -0.8265  0.0633
 4619WAT     H119196   4.288   4.280   7.721 -2.1576  0.6534 -1.1203
 4619WAT     H219197   4.276   4.149   7.681  1.9342 -0.6683  1.3990
 4619WAT    EPW19198   4.291   4.225   7.666  0.3845 -0.5845  0.0858
 4620WAT      O19199   4.541   3.594   7.828 -0.1701  0.1123  0.3725
 4620WAT     H119200   4.521   3.603   7.744 -1.3442  1.1780  0.7252
 4620WAT     H219201   4.571   3.513   7.834 -0.6597 -0.1928 -0.9600
 4620WAT    EPW19202   4.543   3.584   7.816 -0.4159  0.2247  0.2277
 4621WAT      O19203   5.449   3.608   7.147 -0.0848  0.2303  0.2389
 4621WAT     H119204   5.512   3.659   7.115 -2.0905  1.8141 -1.5400
 4621WAT     H219205   5.469   3.529   7.117  0.0320  1.0637 -2.1034
 4621WAT    EPW19206   5.461   3.604   7.138 -0.3638  0.5874 -0.3699
 4622WAT      O19207   4.902   3.431   5.057  0.6960  0.0708 -0.4167
 4622WAT     H119208   4.868   3.413   5.135  0.7723 -1.1314 -0.6351
 4622WAT     H219209   4.855   3.381   5.003  1.3032  0.1329 -1.0154
 4622WAT    EPW19210   4.890   3.421   5.060  0.7970 -0.0976 -0.5374
 4623WAT      O19211   4.635   4.238   5.824 -0.0969 -0.4193  0.5284
 4623WAT     H119212   4.722   4.230   5.825 -0.1929 -2.2365 -0.5165
 4623WAT     H219213   4.620   4.292   5.757  0.2483  1.5891  1.9768
 4623WAT    EPW19214   4.645   4.245   5.814 -0.0601 -0.3910  0.5880
 4624WAT      O19215   3.098   3.326   6.101 -0.1527  0.0223  0.3520
 4624WAT     H119216   3.109   3.273   6.033  1.2217 -0.1423  0.6694
 4624WAT     H219217   3.082   3.404   6.064  0.6201 -0.0583 -0.1773
 4624WAT    EPW19218   3.098   3.330   6.085  0.1645 -0.0139  0.3207
 4625WAT      O19219   4.380   3.390   5.995 -0.8292 -0.4706  0.4876
 4625WAT     H119220   4.299   3.387   5.963 -0.8084 -1.4452  0.4939
 4625WAT     H219221   4.394   3.475   6.009 -1.0823 -0.0646 -1.4629
 4625WAT    EPW19222   4.370   3.402   5.992 -0.8635 -0.5546  0.2004
 4626WAT      O19223   4.268   5.759   6.894  0.1493 -0.5128  0.6365
 4626WAT     H119224   4.292   5.842   6.881 -2.1258  0.1992  0.5722
 4626WAT     H219225   4.230   5.737   6.818 -1.7795 -0.6255  1.5737
 4626WAT    EPW19226   4.266   5.768   6.881 -0.4717 -0.4242  0.7655
 4627WAT      O19227   5.181   4.144   5.671  0.2312  0.1318 -0.0960
 4627WAT     H119228   5.149   4.108   5.598 -0.2793 -0.2104  0.2894
 4627WAT     H219229   5.265   4.160   5.651 -0.1736  1.0501 -1.1213
 4627WAT    EPW19230   5.189   4.141   5.657  0.0960  0.2169 -0.1905
 4628WAT      O19231   3.825   4.514   6.785  0.4855  0.4860 -0.4988
 4628WAT     H119232   3.800   4.471   6.713  0.1777 -0.2695  0.0610
 4628WAT     H219233   3.854   4.590   6.753 -0.2802  0.4291 -1.3691
 4628WAT    EPW19234   3.826   4.519   6.769  0.3269  0.3660 -0.5447
 4629WAT      O19235   5.382   3.484   7.699 -0.4110  0.4126 -0.3291
 4629WAT     H119236   5.458   3.496   7.739  0.6048 -1.7877 -1.3761
 4629WAT     H219237   5.380   3.548   7.639 -0.1930  1.4516  0.7326
 4629WAT    EPW19238   5.393   3.495   7.696 -0.2287  0.2411 -0.3269
 4630WAT      O19239   6.405   3.114   7.621 -0.1467 -0.0979  0.1427
 4630WAT     H119240   6.334   3.068   7.600  0.9341 -0.2480 -4.2326
 4630WAT     H219241   6.466   3.054   7.634 -0.0666  0.0615  0.5202
 4630WAT    EPW19242   6.403   3.098   7.619  0.0248 -0.0965 -0.4479
 4631WAT      O19243   3.527   3.848   6.320 -0.0987 -0.3207 -0.3605
 4631WAT     H119244   3.542   3.934   6.324  0.8556 -0.5244  0.8700
 4631WAT     H219245   3.443   3.841   6.343  0.2110  0.1845  1.0238
 4631WAT    EPW19246   3.517   3.860   6.324  0.0880 -0.2761  0.0258
 4632WAT      O19247   5.246   3.836   7.435 -0.3299  0.1246  0.1735
 4632WAT     H119248   5.164   3.813   7.416 -0.1167 -1.9163  1.3836
 4632WAT     H219249   5.250   3.920   7.412 -2.6419  0.1815 -0.2509
 4632WAT    EPW19250   5.235   3.845   7.429 -0.6399 -0.1685  0.2896
 4633WAT      O19251   6.051   2.277   5.462  0.0046  0.4643  0.3502
 4633WAT     H119252   5.991   2.214   5.466 -0.6734  1.1131  0.5631
 4633WAT     H219253   6.108   2.246   5.403  1.8091 -2.0988  3.1429
 4633WAT    EPW19254   6.050   2.263   5.454  0.1710  0.1815  0.7942
 4634WAT      O19255   4.795   3.499   5.919 -0.3680 -0.4788 -0.3030
 4634WAT     H119256   4.759   3.577   5.935 -0.1608 -0.4801  0.1656
 4634WAT     H219257   4.867   3.518   5.874 -0.4318 -0.4158 -0.3791
 4634WAT    EPW19258   4.800   3.513   5.915 -0.3468 -0.4697 -0.2450
 4635WAT      O19259   4.891   5.180   6.901  0.3372 -0.4121 -0.5548
 4635WAT     H119260   4.965   5.209   6.936  0.1807  0.5315 -0.9901
 4635WAT     H219261   4.868   5.114   6.954 -0.0202  1.1104  1.2779
 4635WAT    EPW19262   4.899   5.175   6.914  0.2613 -0.0478 -0.3484
 4636WAT      O19263   5.821   2.158   6.305 -0.5659 -0.1723 -0.2418
 4636WAT     H119264   5.822   2.204   6.231  0.7988  0.5343  0.1926
 4636WAT     H219265   5.758   2.099   6.291 -1.4964  1.0246 -1.2849
 4636WAT    EPW19266   5.812   2.156   6.292 -0.5017  0.1089 -0.3317
 4637WAT      O19267   5.242   3.505   5.451  0.6173 -0.0808 -0.0724
 4637WAT     H119268   5.203   3.583   5.443 -0.7539 -0.5899  1.3553
 4637WAT     H219269   5.278   3.509   5.530  0.7701 -0.8089 -0.1051
 4637WAT    EPW19270   5.242   3.517   5.461  0.4373 -0.2635  0.1337
 4638WAT      O19271   4.963   5.405   5.520  0.0094 -0.4090  0.4903
 4638WAT     H119272   4.962   5.327   5.560  0.6694  0.1555  1.6721
 4638WAT     H219273   5.044   5.412   5.490 -0.5476 -0.9240 -1.2152
 4638WAT    EPW19274   4.975   5.394   5.521  0.0246 -0.4017  0.4129
 4639WAT      O19275   5.239   4.378   7.221 -0.0394  0.2800 -0.0660
 4639WAT     H119276   5.231   4.465   7.210 -0.9537  0.1244 -0.8201
 4639WAT     H219277   5.191   4.362   7.292 -1.8334  0.1234 -1.2416
 4639WAT    EPW19278   5.231   4.389   7.230 -0.4395  0.2339 -0.3510
 4640WAT      O19279   3.696   2.322   6.840  0.8796  0.2184  0.3059
 4640WAT     H119280   3.764   2.268   6.831 -0.1533 -1.2605  0.8996
 4640WAT     H219281   3.644   2.301   6.772 -0.9267 -1.7757  2.1512
 4640WAT    EPW19282   3.698   2.311   6.828  0.4602 -0.2947  0.6662
 4641WAT      O19283   5.133   5.229   6.568  0.7218  0.4711  0.2227
 4641WAT     H119284   5.164   5.200   6.644 -0.6527  1.7479  1.3534
 4641WAT     H219285   5.067   5.174   6.550  0.0414  1.0737  0.8038
 4641WAT    EPW19286   5.128   5.216   6.576  0.4182  0.7487  0.4756
 4642WAT      O19287   3.576   4.882   6.396 -0.3698  0.1074  0.3498
 4642WAT     H119288   3.652   4.925   6.395 -1.4211  2.0591  0.1809
 4642WAT     H219289   3.566   4.856   6.313 -1.2761  2.5042 -0.3548
 4642WAT    EPW19290   3.586   4.884   6.384 -0.6590  0.7498  0.2207
 4643WAT      O19291   4.508   4.533   6.813  0.4260 -0.0234  0.0031
 4643WAT     H119292   4.520   4.451   6.787  0.3059  0.0236 -0.2027
 4643WAT     H219293   4.571   4.577   6.772 -1.6312  0.5879 -2.8300
 4643WAT    EPW19294   4.519   4.528   6.803  0.1044  0.0738 -0.4458
 4644WAT      O19295   4.149   4.037   5.280 -0.2492 -0.2769  0.1307
 4644WAT     H119296   4.107   4.058   5.207 -1.0916 -0.0437  0.6653
 4644WAT     H219297   4.112   3.961   5.304 -1.4803  0.6690  1.4095
 4644WAT    EPW19298   4.137   4.029   5.273 -0.5555 -0.1027  0.3986
 4645WAT      O19299   3.862   3.954   6.625  0.0122  0.0137 -0.2975
 4645WAT     H119300   3.819   3.881   6.605  2.0011 -1.4080  0.2819
 4645WAT     H219301   3.863   3.998   6.549 -1.3268 -0.4630 -0.6281
 4645WAT    EPW19302   3.856   3.950   6.610  0.1082 -0.2668 -0.2607
 4646WAT      O19303   5.376   4.195   7.783 -0.1530 -0.1089 -0.4014
 4646WAT     H119304   5.405   4.119   7.812  0.5492  0.7010  1.1665
 4646WAT     H219305   5.290   4.192   7.799 -0.1164 -0.5546 -0.2933
 4646WAT    EPW19306   5.367   4.184   7.790 -0.0439 -0.0551 -0.1539
 4647WAT      O19307   5.342   3.515   6.499  0.0341  0.0758 -0.4370
 4647WAT     H119308   5.347   3.431   6.475 -0.6982 -0.2356  0.4353
 4647WAT     H219309   5.268   3.543   6.461  0.0858  0.2156 -0.4340
 4647WAT    EPW19310   5.332   3.506   6.490 -0.0664  0.0505 -0.3077
 4648WAT      O19311   5.825   3.729   6.205 -0.3075  0.3433  0.3356
 4648WAT     H119312   5.758   3.719   6.259 -0.2350 -2.1595  0.1050
 4648WAT     H219313   5.819   3.812   6.178 -1.4751  1.0649  2.6231
 4648WAT    EPW19314   5.814   3.740   6.209 -0.4693  0.0802  0.6394
 4649WAT      O19315   3.949   1.831   6.194 -0.1121 -0.2330 -0.2017
 4649WAT     H119316   3.889   1.869   6.143 -0.9407 -1.1754  0.0448
 4649WAT     H219317   4.000   1.789   6.137 -0.5028 -0.5408 -0.3322
 4649WAT    EPW19318   3.948   1.831   6.178 -0.2922 -0.4177 -0.1846
 4650WAT      O19319   5.905   4.692   7.785 -0.0365  0.0459  0.3923
 4650WAT     H119320   5.894   4.685   7.698 -1.5305 -1.6947  0.6719
 4650WAT     H219321   5.865   4.768   7.804 -0.4898  0.0019 -0.3203
 4650WAT    EPW19322   5.897   4.702   7.775 -0.3242 -0.2177  0.3283
 4651WAT      O19323   3.736   4.223   1.498 -0.7998  0.2993  0.1023
 4651WAT     H119324   3.821   4.229   1.480 -0.4291  0.0752  1.6610
 4651WAT     H219325   3.699   4.214   1.420  0.7243 -0.9460 -0.5067
 4651WAT    EPW19326   3.743   4.223   1.484 -0.5199  0.0822  0.2426
 4652WAT      O19327   5.042   4.446   7.698  0.2007 -0.2723  0.2172
 4652WAT     H119328   5.073   4.515   7.655  2.3032 -0.1972  1.6652
 4652WAT     H219329   5.091   4.380   7.669 -0.8382 -0.9171 -0.1251
 4652WAT    EPW19330   5.054   4.447   7.687  0.3578 -0.3565  0.3805
 4653WAT      O19331   6.774   5.216   4.880  0.2034 -0.2150 -0.4708
 4653WAT     H119332   6.807   5.158   4.935 -1.4599  0.9103  1.8550
 4653WAT     H219333   6.788   5.293   4.920 -0.6513  0.6985 -1.8272
 4653WAT    EPW19334   6.781   5.219   4.894 -0.1686  0.0862 -0.3276
 4654WAT      O19335   4.359   5.554   6.502 -0.1618  0.1128 -0.1011
 4654WAT     H119336   4.424   5.577   6.556  1.4741 -0.2392 -1.8152
 4654WAT     H219337   4.329   5.480   6.538 -0.6405  1.0163  1.4927
 4654WAT    EPW19338   4.364   5.546   6.515  0.0092  0.1943 -0.1189
 4655WAT      O19339   4.522   3.710   6.562  0.2296 -0.5341  0.1121
 4655WAT     H119340   4.539   3.624   6.569 -1.6577 -1.1848 -1.9573
 4655WAT     H219341   4.447   3.720   6.606 -0.1270 -0.1972 -0.5527
 4655WAT    EPW19342   4.513   3.699   6.570 -0.1018 -0.5804 -0.2918
 4656WAT      O19343   4.260   4.420   6.183 -0.0170  0.2177 -0.6001
 4656WAT     H119344   4.278   4.495   6.223 -2.0755  1.0372 -1.0876
 4656WAT     H219345   4.253   4.363   6.249 -1.4707  1.1394  0.0972
 4656WAT    EPW19346   4.262   4.423   6.199 -0.5358  0.4749 -0.5691
 4657WAT      O19347   4.501   4.504   7.368 -0.0356  0.4765 -0.4520
 4657WAT     H119348   4.547   4.503   7.295  0.0449 -0.0800 -0.3962
 4657WAT     H219349   4.534   4.438   7.414 -0.2501  0.6681 -0.0156
 4657WAT    EPW19350   4.513   4.494   7.364 -0.0554  0.4226 -0.3793
 4658WAT      O19351   4.595   3.471   7.335  0.9515 -0.5396  0.1787
 4658WAT     H119352   4.673   3.491   7.304  1.2134  0.3129  1.3521
 4658WAT     H219353   4.611   3.407   7.392  0.9573  0.3497  1.2063
 4658WAT    EPW19354   4.609   3.464   7.339  0.9911 -0.2823  0.5039
 4659WAT      O19355   5.181   3.456   0.062  0.3909 -0.0935 -0.0343
 4659WAT     H119356   5.230   3.486  -0.003  0.1184 -0.4102 -0.3879
 4659WAT     H219357   5.106   3.499   0.052 -0.0687 -1.0039 -0.6562
 4659WAT    EPW19358   5.177   3.467   0.051  0.2827 -0.2748 -0.1784
 4660WAT      O19359   4.866   3.178   6.222  0.1270  0.2612 -0.5757
 4660WAT     H119360   4.810   3.243   6.209  1.1718  0.8219 -2.7215
 4660WAT     H219361   4.916   3.206   6.287  0.2293  1.4162 -1.1265
 4660WAT    EPW19362   4.865   3.192   6.229  0.2965  0.5147 -0.9741
 4661WAT      O19363   4.883   4.477   7.097  0.0148 -0.1044  0.2934
 4661WAT     H119364   4.903   4.524   7.027 -1.4512 -1.4778 -1.1328
 4661WAT     H219365   4.942   4.414   7.098 -1.8869 -2.1003 -1.8434
 4661WAT    EPW19366   4.894   4.475   7.087 -0.4827 -0.6021 -0.2330
 4662WAT      O19367   5.073   3.535   7.455 -0.2328 -0.3253  0.1099
 4662WAT     H119368   5.117   3.463   7.476  1.6059  0.9202  0.8192
 4662WAT     H219369   5.097   3.550   7.373 -1.6565 -1.1879 -0.5016
 4662WAT    EPW19370   5.083   3.527   7.446 -0.1715 -0.2687  0.1243
 4663WAT      O19371   5.035   2.970   0.801 -0.0784  0.1465 -0.0890
 4663WAT     H119372   4.976   2.920   0.841  0.7084 -0.7564 -0.0138
 4663WAT     H219373   5.006   3.051   0.814 -3.0486 -0.2824 -2.7944
 4663WAT    EPW19374   5.022   2.975   0.809 -0.4009 -0.0502 -0.4776
 4664WAT      O19375   3.606   3.486   1.686 -0.0161 -0.1148 -0.5142
 4664WAT     H119376   3.527   3.472   1.652 -0.6628  0.4495  0.6835
 4664WAT     H219377   3.606   3.571   1.705  0.5532 -0.2780  0.2859
 4664WAT    EPW19378   3.595   3.496   1.684 -0.0275 -0.0556 -0.2191
 4665WAT      O19379   3.485   4.793   5.794 -0.4456  0.2800 -0.3112
 4665WAT     H119380   3.542   4.774   5.731  0.3778 -1.2609  0.8370
 4665WAT     H219381   3.481   4.880   5.792 -0.1570  0.2815 -2.2208
 4665WAT    EPW19382   3.493   4.803   5.784 -0.2814  0.0526 -0.4237
 4666WAT      O19383   6.787   6.153   1.521 -0.1579  0.0425  0.6279
 4666WAT     H119384   6.811   6.219   1.573 -1.1797  2.2598 -1.5013
 4666WAT     H219385   6.709   6.129   1.553 -0.4178  0.8475  0.6294
 4666WAT    EPW19386   6.779   6.159   1.533 -0.3472  0.4890  0.3136
 4667WAT      O19387   5.209   4.272   1.248  0.1180  0.0221  0.1579
 4667WAT     H119388   5.135   4.315   1.233 -0.3155 -0.6937  0.1821
 4667WAT     H219389   5.187   4.216   1.311  0.8326  0.1848  0.5596
 4667WAT    EPW19390   5.195   4.270   1.255  0.1595 -0.0596  0.2208
 4668WAT      O19391   6.078   4.761   5.800 -0.0204  0.1439 -0.5303
 4668WAT     H119392   6.153   4.788   5.835 -0.7301 -0.0544  1.2003
 4668WAT     H219393   6.025   4.752   5.868 -0.7976 -2.4498 -1.3435
 4668WAT    EPW19394   6.081   4.764   5.815 -0.2401 -0.2685 -0.3948
 4669WAT      O19395   5.839   5.073   5.146  0.3244 -0.2669  0.4772
 4669WAT     H119396   5.810   5.146   5.184  1.3516 -0.8216  2.4054
 4669WAT     H219397   5.779   5.014   5.167  0.8397 -0.5531  1.1552
 4669WAT    EPW19398   5.826   5.075   5.155  0.5523 -0.3911  0.8622
 4670WAT      O19399   5.335   3.996   6.762  0.5008 -0.0792 -0.7024
 4670WAT     H119400   5.390   4.006   6.829 -1.2149 -0.3667  0.8344
 4670WAT     H219401   5.299   3.918   6.776 -1.8350  0.9762 -0.4096
 4670WAT    EPW19402   5.338   3.986   6.774 -0.0977  0.0342 -0.4321
 4671WAT      O19403   5.612   3.468   0.327 -0.4099  0.2683  0.6029
 4671WAT     H119404   5.665   3.421   0.276  1.2732  1.9516  0.6925
 4671WAT     H219405   5.554   3.502   0.271  0.4199  0.7596  0.0139
 4671WAT    EPW19406   5.611   3.466   0.311 -0.0387  0.5895  0.5291
 4672WAT      O19407   6.618   4.665   6.719  0.1702  0.3942  0.6637
 4672WAT     H119408   6.543   4.636   6.753  0.2282 -1.5066 -0.6704
 4672WAT     H219409   6.599   4.746   6.693 -1.8154 -0.4380 -0.6817
 4672WAT    EPW19410   6.604   4.673   6.720 -0.1145 -0.0095  0.2679
 4673WAT      O19411   3.539   4.996   0.748  0.1834 -0.3177 -0.6813
 4673WAT     H119412   3.452   5.008   0.743 -0.2573 -0.3356  3.2127
 4673WAT     H219413   3.570   5.076   0.760  0.2312 -0.5594  1.1035
 4673WAT    EPW19414   3.530   5.010   0.749  0.1254 -0.3560  0.1576
 4674WAT      O19415   5.843   4.167   5.602  0.0554 -0.5490  0.3227
 4674WAT     H119416   5.929   4.156   5.608  0.1957  0.6637  1.1012
 4674WAT     H219417   5.827   4.166   5.516  0.4048 -3.4181  0.1980
 4674WAT    EPW19418   5.853   4.166   5.590  0.1277 -0.7937  0.4193
 4675WAT      O19419   4.131   3.989   7.666  0.1711 -0.7153  1.3766
 4675WAT     H119420   4.076   3.932   7.628 -0.2999  0.8125 -0.3993
 4675WAT     H219421   4.092   4.008   7.741 -0.2247 -1.8624  1.4877
 4675WAT    EPW19422   4.117   3.983   7.671  0.0431 -0.6590  1.1307
 4676WAT      O19423   5.966   1.299   6.482 -0.0780  0.3897  0.3325
 4676WAT     H119424   6.017   1.245   6.527 -0.8981  0.6864  1.7082
 4676WAT     H219425   5.992   1.378   6.509  0.0976  0.6201 -0.5041
 4676WAT    EPW19426   5.977   1.303   6.493 -0.1732  0.4676  0.4122
 4677WAT      O19427   5.357   4.463   6.070  0.4841  0.3275 -0.3742
 4677WAT     H119428   5.430   4.418   6.057 -0.4636 -1.6832  0.6859
 4677WAT     H219429   5.296   4.401   6.080 -0.5224  1.6484  3.6565
 4677WAT    EPW19430   5.359   4.447   6.070  0.1954  0.2256  0.3778
 4678WAT      O19431   4.985   3.638   7.852  0.0819 -0.9123  0.0412
 4678WAT     H119432   4.960   3.650   7.769 -0.2610 -1.4197  0.0675
 4678WAT     H219433   4.910   3.620   7.894  0.2674 -0.7689  0.4417
 4678WAT    EPW19434   4.970   3.637   7.846  0.0586 -0.9661  0.1043
 4679WAT      O19435   3.868   2.022   7.705  0.0967  0.0019 -0.6660
 4679WAT     H119436   3.906   2.074   7.646 -0.1212  1.5533  0.5027
 4679WAT     H219437   3.915   1.949   7.702  0.0521 -0.0061 -2.7876
 4679WAT    EPW19438   3.880   2.019   7.696  0.0579  0.2299 -0.8067
 4680WAT      O19439   4.626   6.359   6.530  0.4235  0.0105  0.2034
 4680WAT     H119440   4.561   6.327   6.578 -0.1204  0.2604 -0.3595
 4680WAT     H219441   4.631   6.303   6.463  1.2217 -0.3729  0.5622
 4680WAT    EPW19442   4.617   6.346   6.527  0.4611 -0.0092  0.1732
 4681WAT      O19443   4.752   4.767   6.900 -0.1103  0.3515 -0.3675
 4681WAT     H119444   4.724   4.749   6.819 -1.9088 -0.2358  0.3449
 4681WAT     H219445   4.819   4.713   6.910 -0.6823 -0.5081 -1.0082
 4681WAT    EPW19446   4.758   4.757   6.889 -0.4605  0.1378 -0.3569
 4682WAT      O19447   4.998   3.755   7.073  0.1230 -0.7094 -0.5257
 4682WAT     H119448   5.034   3.830   7.097  1.3257 -1.6713  0.7776
 4682WAT     H219449   4.949   3.777   7.004 -0.3555  1.4366  0.4246
 4682WAT    EPW19450   4.996   3.769   7.066  0.2300 -0.5345 -0.1928
 4683WAT      O19451   2.787   3.764   6.577  0.2177  0.0331 -0.3258
 4683WAT     H119452   2.767   3.687   6.614 -0.2601 -0.1278 -0.8971
 4683WAT     H219453   2.870   3.777   6.601  1.1250 -1.8485 -2.1626
 4683WAT    EPW19454   2.796   3.754   6.586  0.2812 -0.2686 -0.6815
 4684WAT      O19455   4.355   5.557   0.492  0.1661  0.8953  0.3696
 4684WAT     H119456   4.270   5.573   0.480 -0.2240  0.2009  1.9944
 4684WAT     H219457   4.392   5.594   0.423 -1.3336  2.4096  0.3079
 4684WAT    EPW19458   4.348   5.565   0.480 -0.1131  1.0164  0.6005
 4685WAT      O19459   6.631   2.849   6.315  0.2498 -0.0201 -0.0999
 4685WAT     H119460   6.589   2.913   6.273  0.0337  0.5802  0.9968
 4685WAT     H219461   6.608   2.861   6.398  1.9646 -0.1543  0.4300
 4685WAT    EPW19462   6.621   2.861   6.321  0.4712  0.0488  0.1404
 4686WAT      O19463   5.612   3.556   6.880  0.2969  0.1019 -0.6042
 4686WAT     H119464   5.540   3.573   6.834 -0.1027 -2.0375 -0.8985
 4686WAT     H219465   5.652   3.495   6.833  1.1949 -0.3011  0.6170
 4686WAT    EPW19466   5.607   3.549   6.866  0.3705 -0.2737 -0.4673
 4687WAT      O19467   3.308   3.906   7.728 -0.0630  0.5609  0.0179
 4687WAT     H119468   3.376   3.851   7.734 -0.8832 -0.6833 -1.4418
 4687WAT     H219469   3.251   3.875   7.786  1.1755  2.6833  2.6459
 4687WAT    EPW19470   3.310   3.893   7.738 -0.0012  0.6906  0.1905
 4688WAT      O19471   6.283   3.585   6.200 -0.4890  0.3070 -0.0854
 4688WAT     H119472   6.306   3.633   6.269 -2.4698  0.6630  0.3873
 4688WAT     H219473   6.317   3.507   6.218 -0.1714  0.6331  0.8355
 4688WAT    EPW19474   6.291   3.581   6.213 -0.7347  0.4078  0.1205
 4689WAT      O19475   4.841   3.660   0.576  0.2942  0.0762  0.1040
 4689WAT     H119476   4.787   3.592   0.565 -0.1849  0.2576  1.1881
 4689WAT     H219477   4.789   3.729   0.566  0.7778  0.2884 -0.9700
 4689WAT    EPW19478   4.825   3.660   0.573  0.2949  0.1343  0.1055
 4690WAT      O19479   4.446   3.818   5.558 -0.1447  0.3650  0.6689
 4690WAT     H119480   4.360   3.814   5.567 -0.1183  0.5736  1.0411
 4690WAT     H219481   4.461   3.777   5.483 -0.5102 -0.2148  0.9060
 4690WAT    EPW19482   4.436   3.812   5.548 -0.1948  0.3102  0.7589
 4691WAT      O19483   5.533   3.234   0.475 -0.1055 -0.2555 -0.2430
 4691WAT     H119484   5.608   3.192   0.460 -0.9506 -1.4607 -1.3407
 4691WAT     H219485   5.520   3.281   0.402  0.6794  1.7603  0.8552
 4691WAT    EPW19486   5.542   3.235   0.462 -0.1144 -0.1358 -0.2429
 4692WAT      O19487   3.929   1.587   1.126 -0.1194 -0.1782  0.4710
 4692WAT     H119488   3.925   1.655   1.071 -1.0620 -0.1358  0.5759
 4692WAT     H219489   3.875   1.609   1.190  0.6476 -0.4178  1.2211
 4692WAT    EPW19490   3.921   1.600   1.127 -0.1453 -0.2073  0.5973
 4693WAT      O19491   4.417   3.649   6.055  0.5471 -0.3770  0.3441
 4693WAT     H119492   4.427   3.676   6.137  0.6248 -3.3831  1.4440
 4693WAT     H219493   4.347   3.694   6.028  0.2110  0.3344  2.2201
 4693WAT    EPW19494   4.408   3.660   6.063  0.5089 -0.7159  0.7837
 4694WAT      O19495   4.002   4.036   1.718 -0.1883 -0.7415 -0.2532
 4694WAT     H119496   3.966   3.988   1.655  2.6717 -2.4762 -0.7811
 4694WAT     H219497   4.015   3.979   1.783  1.8403 -0.3701 -0.2659
 4694WAT    EPW19498   3.999   4.021   1.718  0.5339 -0.9428 -0.3331
 4695WAT      O19499   4.224   3.349   7.153 -1.2382 -0.1915 -0.2372
 4695WAT     H119500   4.222   3.272   7.113 -1.9003  0.0290 -0.6602
 4695WAT     H219501   4.160   3.394   7.114 -0.5404  0.7494 -0.3521
 4695WAT    EPW19502   4.214   3.345   7.141 -1.2330 -0.0200 -0.3167
 4696WAT      O19503   3.617   4.526   6.960  0.1740  0.2623 -0.8179
 4696WAT     H119504   3.682   4.521   6.902  0.8485  1.4300 -0.1889
 4696WAT     H219505   3.655   4.505   7.036 -0.5772 -0.7189 -0.6874
 4696WAT    EPW19506   3.632   4.522   6.963  0.1627  0.2899 -0.7057
 4697WAT      O19507   2.937   4.042   7.021 -0.2956 -0.2295  0.4423
 4697WAT     H119508   2.983   3.970   7.004  1.9378  0.9568  0.9441
 4697WAT     H219509   2.884   4.050   6.953  0.3145 -1.6498 -0.2352
 4697WAT    EPW19510   2.936   4.032   7.009  0.1245 -0.2640  0.4164
 4698WAT      O19511   4.333   1.829   6.725 -0.0681  0.0765 -0.2432
 4698WAT     H119512   4.258   1.874   6.722 -0.1877  0.1233  1.9728
 4698WAT     H219513   4.363   1.843   6.806  2.3676  0.0744 -1.0373
 4698WAT    EPW19514   4.327   1.838   6.736  0.2740  0.0831 -0.0332
 4699WAT      O19515   5.027   4.765   0.461 -0.2912 -0.0735  0.1184
 4699WAT     H119516   4.994   4.831   0.508  0.9443  0.5092  0.2019
 4699WAT     H219517   5.005   4.786   0.379  1.0944  1.1083  0.0018
 4699WAT    EPW19518   5.019   4.778   0.456  0.0960  0.1871  0.1135
 4700WAT      O19519   3.903   3.445   6.314  0.5508 -0.0362  0.3343
 4700WAT     H119520   3.858   3.423   6.386  0.6328  1.0293  0.7300
 4700WAT     H219521   3.874   3.390   6.254 -0.2328 -0.3134  0.9494
 4700WAT    EPW19522   3.892   3.434   6.316  0.4472  0.0802  0.4836
 4701WAT      O19523   3.446   5.052   6.153 -0.1761 -0.4958 -0.1119
 4701WAT     H119524   3.450   5.116   6.094  0.1381  0.4554  0.9099
 4701WAT     H219525   3.490   4.986   6.114 -0.5313 -0.1216 -1.1846
 4701WAT    EPW19526   3.453   5.051   6.138 -0.1822 -0.3000 -0.1194
 4702WAT      O19527   5.479   3.317   7.087 -0.2411 -0.2003  0.9681
 4702WAT     H119528   5.506   3.270   7.155  0.2157  0.4316  1.2321
 4702WAT     H219529   5.489   3.263   7.019  0.4164 -0.4362  1.2420
 4702WAT    EPW19530   5.484   3.302   7.087 -0.0765 -0.1418  1.0476
 4703WAT      O19531   3.602   3.292   0.393  0.1573  0.4537 -0.1079
 4703WAT     H119532   3.658   3.280   0.327  0.1118 -0.2858 -0.0250
 4703WAT     H219533   3.612   3.220   0.441  0.7622  1.3385  1.1285
 4703WAT    EPW19534   3.612   3.279   0.390  0.2399  0.4752  0.0870
 4704WAT      O19535   5.120   3.388   6.848 -0.6156 -0.5409  0.0544
 4704WAT     H119536   5.033   3.399   6.848 -0.6592 -0.0735  2.7913
 4704WAT     H219537   5.134   3.337   6.917  1.3241 -0.3233 -0.1297
 4704WAT    EPW19538   5.109   3.382   6.858 -0.3355 -0.4397  0.4315
 4705WAT      O19539   4.513   4.755   5.504 -0.2291 -0.1392 -0.0140
 4705WAT     H119540   4.516   4.761   5.591  0.8662 -0.9922  0.0296
 4705WAT     H219541   4.443   4.705   5.489  0.2157 -0.9129  0.4412
 4705WAT    EPW19542   4.503   4.748   5.515 -0.0016 -0.3795  0.0597
 4706WAT      O19543   4.295   3.731   6.711 -0.5615 -0.0405 -0.1210
 4706WAT     H119544   4.227   3.780   6.689  0.4497  1.2586 -0.5044
 4706WAT     H219545   4.326   3.769   6.783  0.4239  0.1147 -0.6004
 4706WAT    EPW19546   4.290   3.744   6.718 -0.2665  0.1744 -0.2484
 4707WAT      O19547   4.216   5.378   6.707  0.6045 -0.5921  0.1957
 4707WAT     H119548   4.184   5.443   6.757  0.1712 -1.4158  1.0280
 4707WAT     H219549   4.144   5.337   6.680  0.7701  0.4262 -2.0001
 4707WAT    EPW19550   4.201   5.382   6.711  0.5650 -0.5634 -0.0057
 4708WAT      O19551   6.095   2.791   6.856 -0.1701  0.2634 -0.6517
 4708WAT     H119552   6.059   2.818   6.781 -0.5382 -0.6663 -0.8282
 4708WAT     H219553   6.178   2.777   6.835 -0.0238  1.0413 -0.6090
 4708WAT    EPW19554   6.102   2.793   6.842 -0.2029  0.2410 -0.6714
 4709WAT      O19555   4.926   3.301   7.587  0.5899 -0.5181 -0.6176
 4709WAT     H119556   5.008   3.307   7.617  0.3051 -2.2019  0.6240
 4709WAT     H219557   4.936   3.300   7.500  2.1151 -2.5840 -0.5006
 4709WAT    EPW19558   4.940   3.301   7.578  0.7731 -1.0720 -0.4169
 4710WAT      O19559   5.738   2.573   6.517 -0.4001  0.2221  0.1865
 4710WAT     H119560   5.771   2.567   6.436  0.0420  2.8429  0.1079
 4710WAT     H219561   5.729   2.489   6.541  2.8472 -0.6834 -1.2000
 4710WAT    EPW19562   5.742   2.559   6.509  0.1449  0.4755 -0.0299
 4711WAT      O19563   5.363   5.362   0.443 -0.2538  0.4188 -0.1131
 4711WAT     H119564   5.329   5.302   0.496 -1.5783  0.3252 -1.0144
 4711WAT     H219565   5.439   5.383   0.481 -1.0264  0.1781  1.6719
 4711WAT    EPW19566   5.369   5.356   0.456 -0.5636  0.3694  0.0174
 4712WAT      O19567   4.207   5.172   7.753  0.2010  0.3939 -0.3934
 4712WAT     H119568   4.161   5.161   7.680  1.3737  1.5544 -1.3603
 4712WAT     H219569   4.273   5.223   7.728  2.3807 -1.6782  0.7731
 4712WAT    EPW19570   4.210   5.178   7.738  0.6962  0.2593 -0.3639
 4713WAT      O19571   3.864   3.417   7.396  0.2644  0.7613  0.3138
 4713WAT     H119572   3.790   3.392   7.357  0.8878  1.1658 -1.2062
 4713WAT     H219573   3.893   3.480   7.344  1.0858  1.4253  1.5481
 4713WAT    EPW19574   3.857   3.422   7.382  0.4778  0.9192  0.2716
 4714WAT      O19575   4.763   2.666   4.754  0.2310 -0.3869 -0.8016
 4714WAT     H119576   4.722   2.650   4.679  0.8428 -1.4441 -0.9211
 4714WAT     H219577   4.821   2.728   4.733  1.3370 -1.6230 -1.5504
 4714WAT    EPW19578   4.766   2.673   4.740  0.4848 -0.7257 -0.9299
 4715WAT      O19579   4.192   4.884   7.799  0.0443 -0.1189  0.6386
 4715WAT     H119580   4.182   4.971   7.798 -0.2175 -0.1344  1.3447
 4715WAT     H219581   4.111   4.855   7.782  0.2300 -0.2279 -0.0873
 4715WAT    EPW19582   4.178   4.893   7.796  0.0331 -0.1373  0.6356
 4716WAT      O19583   4.670   3.021   7.685 -0.2663  0.0751 -0.7477
 4716WAT     H119584   4.658   3.087   7.740  0.0058  0.6592 -1.3702
 4716WAT     H219585   4.614   3.038   7.620  0.8919  0.5808 -1.6710
 4716WAT    EPW19586   4.660   3.033   7.684 -0.0550  0.2361 -0.9760
 4717WAT      O19587   5.688   3.923   6.544  0.8687  0.2364  0.6318
 4717WAT     H119588   5.619   3.976   6.543  0.6537 -0.0466 -0.3630
 4717WAT     H219589   5.684   3.884   6.621 -0.2060  0.0560  0.4880
 4717WAT    EPW19590   5.677   3.925   6.555  0.6782  0.1679  0.4636
 4718WAT      O19591   2.673   1.685   7.261 -0.2728 -0.3252  0.3206
 4718WAT     H119592   2.613   1.651   7.208 -1.6152 -0.1936  1.6759
 4718WAT     H219593   2.698   1.758   7.221 -0.6001 -0.6667 -0.5274
 4718WAT    EPW19594   2.668   1.691   7.248 -0.5195 -0.3562  0.3956
 4719WAT      O19595   6.499   2.664   5.768 -0.6076 -0.1454 -0.3544
 4719WAT     H119596   6.546   2.682   5.839 -1.0846  1.4087 -0.3941
 4719WAT     H219597   6.551   2.686   5.702 -1.0433  0.7571 -0.4143
 4719WAT    EPW19598   6.514   2.670   5.769 -0.7424  0.2175 -0.3691
 4720WAT      O19599   4.247   4.650   7.126  0.3952 -0.3489 -0.4488
 4720WAT     H119600   4.248   4.583   7.183 -0.1971  0.0210  0.0077
 4720WAT     H219601   4.200   4.618   7.059 -0.2572 -0.2496 -0.0459
 4720WAT    EPW19602   4.240   4.635   7.124  0.2113 -0.2796 -0.3219
 4721WAT      O19603   4.710   3.997   0.476 -0.3622 -0.1280 -0.0616
 4721WAT     H119604   4.693   3.973   0.558 -1.3050  1.4005  0.2353
 4721WAT     H219605   4.796   4.016   0.478 -0.3967 -0.0078  0.6012
 4721WAT    EPW19606   4.720   3.996   0.489 -0.5066  0.1155  0.0802
 4722WAT      O19607   4.818   2.972   5.278 -0.1428 -0.3879 -0.3418
 4722WAT     H119608   4.741   2.932   5.268  0.6356 -1.8228 -0.9865
 4722WAT     H219609   4.842   2.989   5.196  0.2049  0.1159 -0.1391
 4722WAT    EPW19610   4.810   2.969   5.264  0.0235 -0.5254 -0.4071
 4723WAT      O19611   4.262   3.619   7.698  0.1355  0.7052  0.2198
 4723WAT     H119612   4.226   3.650   7.770 -0.4084  0.8378 -0.1034
 4723WAT     H219613   4.254   3.532   7.705  0.9074  0.6643  0.7349
 4723WAT    EPW19614   4.256   3.611   7.709  0.1692  0.7187  0.2481
 4724WAT      O19615   6.700   3.957   7.013 -0.4324  0.1313  0.0060
 4724WAT     H119616   6.697   3.989   6.932 -0.1646  0.4212  0.1064
 4724WAT     H219617   6.619   3.931   7.028  0.2239 -3.4927 -1.7557
 4724WAT    EPW19618   6.688   3.958   7.003 -0.2959 -0.3612 -0.2394
 4725WAT      O19619   4.130   3.572   6.456 -0.7456  0.2649 -0.0481
 4725WAT     H119620   4.149   3.652   6.427 -1.6495  0.3217 -0.5145
 4725WAT     H219621   4.066   3.546   6.403 -0.4298 -0.7869  0.0841
 4725WAT    EPW19622   4.123   3.580   6.444 -0.8325  0.1179 -0.0975
 4726WAT      O19623   4.381   4.666   5.838 -0.0948  1.0730 -0.1483
 4726WAT     H119624   4.404   4.582   5.848  0.0021  1.0468 -0.5968
 4726WAT     H219625   4.456   4.706   5.823 -0.0449  1.3612  0.7923
 4726WAT    EPW19626   4.395   4.659   5.837 -0.0731  1.1117 -0.0756
 4727WAT      O19627   3.911   5.661   5.528  0.6079  0.7985 -0.3764
 4727WAT     H119628   3.838   5.666   5.480  1.3065 -1.2799 -1.7944
 4727WAT     H219629   3.954   5.594   5.493  3.1751  1.8729  0.4932
 4727WAT    EPW19630   3.907   5.652   5.516  1.0903  0.6502 -0.4574
 4728WAT      O19631   5.013   5.429   0.675  0.4135 -0.4677 -0.7446
 4728WAT     H119632   4.986   5.491   0.730 -1.6987 -2.5007  0.7354
 4728WAT     H219633   5.073   5.385   0.721  0.7687 -0.4479 -1.1880
 4728WAT    EPW19634   5.018   5.432   0.690  0.1539 -0.7651 -0.5915
 4729WAT      O19635   5.322   4.028   6.306  0.0824  0.3786 -0.3719
 4729WAT     H119636   5.247   4.072   6.300 -1.0715 -1.4615 -0.3365
 4729WAT     H219637   5.354   4.052   6.384  0.1192  2.0099 -0.8552
 4729WAT    EPW19638   5.316   4.038   6.317 -0.0827  0.3478 -0.4381
 4730WAT      O19639   5.996   3.813   0.525 -0.7502  0.0040  0.0358
 4730WAT     H119640   5.972   3.778   0.601 -0.6361 -2.4210 -0.9603
 4730WAT     H219641   6.078   3.785   0.514 -0.2728  1.4584 -0.3851
 4730WAT    EPW19642   6.005   3.804   0.535 -0.6628 -0.1394 -0.1736
 4731WAT      O19643   6.284   5.264   6.792 -0.3962  0.5276  0.2099
 4731WAT     H119644   6.262   5.294   6.713 -1.6596  0.8377  0.6657
 4731WAT     H219645   6.276   5.177   6.784 -1.1559  0.5977  0.1790
 4731WAT    EPW19646   6.280   5.256   6.779 -0.6951  0.5838  0.2727
 4732WAT      O19647   3.989   2.836   0.251  0.2860 -0.3172  1.0091
 4732WAT     H119648   3.906   2.811   0.243 -0.1024  1.5019 -2.3529
 4732WAT     H219649   3.983   2.920   0.275  1.1120 -0.0476  0.3046
 4732WAT    EPW19650   3.976   2.845   0.253  0.3506 -0.0086  0.4084
 4733WAT      O19651   4.720   6.516   7.356  0.5863  0.3033  0.0837
 4733WAT     H119652   4.651   6.465   7.373  0.1781  0.1708 -1.7418
 4733WAT     H219653   4.726   6.566   7.427 -0.8072 -0.3288  0.6906
 4733WAT    EPW19654   4.711   6.516   7.369  0.3202  0.1903 -0.0963
 4734WAT      O19655   4.719   5.699   6.014  0.3602  0.8408  0.5425
 4734WAT     H119656   4.643   5.710   5.973 -1.5035  2.0270  3.9075
 4734WAT     H219657   4.696   5.667   6.092  3.4502  0.1511  1.3056
 4734WAT    EPW19658   4.704   5.696   6.020  0.5414  0.9141  1.1523
 4735WAT      O19659   5.730   4.438   6.202 -0.6940  0.1327  0.1920
 4735WAT     H119660   5.685   4.381   6.154 -1.1886  0.2306  0.5274
 4735WAT     H219661   5.806   4.397   6.217 -0.7331 -0.1040 -0.2426
 4735WAT    EPW19662   5.735   4.423   6.197 -0.7728  0.1122  0.1774
 4736WAT      O19663   3.871   4.974   0.301  0.4940  0.0473 -0.1848
 4736WAT     H119664   3.911   4.897   0.314  1.9848  0.6594 -0.9434
 4736WAT     H219665   3.810   4.975   0.363  0.9125 -1.4318  0.3072
 4736WAT    EPW19666   3.868   4.963   0.312  0.7761 -0.0808 -0.2242
 4737WAT      O19667   4.521   3.983   4.900 -0.2501  0.1718 -0.0676
 4737WAT     H119668   4.519   3.906   4.943 -0.8511 -0.6881 -1.5508
 4737WAT     H219669   4.527   3.959   4.816  0.4708  1.7876 -0.5145
 4737WAT    EPW19670   4.522   3.968   4.894 -0.2324  0.2834 -0.3527
 4738WAT      O19671   4.444   5.241   5.471 -0.6858 -0.1427  0.0651
 4738WAT     H119672   4.430   5.274   5.391 -1.9193 -0.4962  0.1199
 4738WAT     H219673   4.373   5.266   5.516 -1.0767 -1.8066  0.4360
 4738WAT    EPW19674   4.431   5.250   5.466 -0.9258 -0.4407  0.1280
 4739WAT      O19675   4.544   3.564   4.383 -0.6568  0.3363  0.5959
 4739WAT     H119676   4.515   3.498   4.433  0.3484 -0.3900  0.2573
 4739WAT     H219677   4.472   3.590   4.340 -0.7945 -1.7179 -0.5658
 4739WAT    EPW19678   4.529   3.558   4.384 -0.5287 -0.0745  0.3743
 4740WAT      O19679   4.485   3.121   4.322  0.0708 -0.4720  0.1975
 4740WAT     H119680   4.458   3.186   4.374  1.2359 -0.3533  0.6973
 4740WAT     H219681   4.426   3.058   4.334 -0.4453  0.0791  0.5852
 4740WAT    EPW19682   4.473   3.121   4.332  0.1666 -0.3730  0.3286
 4741WAT      O19683   4.192   4.848   3.745  0.0147 -0.4324  0.2243
 4741WAT     H119684   4.163   4.846   3.827 -0.8983 -0.5774 -0.0850
 4741WAT     H219685   4.125   4.814   3.699  1.0817 -1.7392 -0.4192
 4741WAT    EPW19686   4.178   4.843   3.750  0.0374 -0.6469  0.0835
 4742WAT      O19687   3.922   3.990   5.643  0.1090  0.0214  0.3041
 4742WAT     H119688   3.879   3.967   5.570 -0.4194 -0.9960  0.8994
 4742WAT     H219689   3.874   4.055   5.676  2.1150  2.8594 -1.8798
 4742WAT    EPW19690   3.908   3.996   5.637  0.3273  0.2903  0.0694
 4743WAT      O19691   4.739   5.464   5.351 -0.8157 -0.1255  0.1579
 4743WAT     H119692   4.665   5.480   5.394 -0.4023  1.4684  0.3425
 4743WAT     H219693   4.800   5.466   5.413 -0.3533  0.9993 -0.3083
 4743WAT    EPW19694   4.737   5.467   5.366 -0.6863  0.2761  0.1163
 4744WAT      O19695   4.611   4.813   5.761  0.5406  0.0132 -0.4523
 4744WAT     H119696   4.626   4.892   5.796 -0.5348 -0.0298  0.1830
 4744WAT     H219697   4.689   4.786   5.736  0.9201  1.3352 -0.7903
 4744WAT    EPW19698   4.625   4.821   5.763  0.4378  0.2021 -0.4084
 4745WAT      O19699   4.294   4.599   5.455  0.3588  0.0343  0.7550
 4745WAT     H119700   4.235   4.635   5.402  0.4075 -0.0455  0.6461
 4745WAT     H219701   4.245   4.556   5.513  0.3188 -0.3172  0.4603
 4745WAT    EPW19702   4.278   4.598   5.456  0.3601 -0.0294  0.6954
 4746WAT      O19703   4.484   4.154   4.205  0.0515 -0.7980  0.0346
 4746WAT     H119704   4.516   4.224   4.246  0.4502 -0.6708 -0.4838
 4746WAT     H219705   4.465   4.099   4.270 -3.4649  1.0270  0.7894
 4746WAT    EPW19706   4.486   4.156   4.221 -0.4090 -0.5096  0.0696
 4747WAT      O19707   5.661   4.901   6.177  0.4525  0.0459  0.3061
 4747WAT     H119708   5.598   4.961   6.168 -0.9109 -1.1418  1.4435
 4747WAT     H219709   5.659   4.857   6.102  0.2567  0.3055  0.1574
 4747WAT    EPW19710   5.651   4.904   6.165  0.2221 -0.0912  0.4522
 4748WAT      O19711   6.184   2.415   3.788  0.1700  0.4804  0.2039
 4748WAT     H119712   6.211   2.498   3.786 -0.0638  0.5552  0.0903
 4748WAT     H219713   6.197   2.387   3.706 -0.5687  0.6715  0.0140
 4748WAT    EPW19714   6.190   2.423   3.775  0.0263  0.5197  0.1591
 4749WAT      O19715   4.896   3.654   4.887 -0.1889 -0.4423  0.2539
 4749WAT     H119716   4.903   3.600   4.955 -0.7225 -1.2139 -0.2898
 4749WAT     H219717   4.844   3.611   4.832  0.7273 -0.1024 -0.9150
 4749WAT    EPW19718   4.889   3.640   4.889 -0.1324 -0.5061  0.0009
 4750WAT      O19719   4.939   3.194   5.867  0.1507  0.6676 -0.2480
 4750WAT     H119720   4.904   3.256   5.818  0.2208  0.2088 -0.8981
 4750WAT     H219721   4.974   3.139   5.808 -1.0088 -0.6514  0.2307
 4750WAT    EPW19722   4.939   3.195   5.851 -0.0103  0.4050 -0.2733
 4751WAT      O19723   4.414   5.519   4.303  0.1093  0.0004 -0.3710
 4751WAT     H119724   4.368   5.568   4.359 -1.0690 -0.6053 -0.7897
 4751WAT     H219725   4.357   5.461   4.274  0.4700  0.7784 -2.8186
 4751WAT    EPW19726   4.399   5.518   4.307 -0.0114  0.0259 -0.7944
 4752WAT      O19727   5.113   4.877   4.515  0.5506  0.4008 -0.5589
 4752WAT     H119728   5.141   4.835   4.444 -1.8347  0.0834 -1.4033
 4752WAT     H219729   5.108   4.960   4.488 -2.0213  0.0594 -1.4715
 4752WAT    EPW19730   5.116   4.883   4.501 -0.1817  0.3035 -0.8184
 4753WAT      O19731   4.741   4.050   5.093 -0.6630 -0.4015  1.0008
 4753WAT     H119732   4.761   3.970   5.120 -1.1803 -1.6152 -1.8078
 4753WAT     H219733   4.680   4.037   5.032  2.0403  1.6088 -2.5766
 4753WAT    EPW19734   4.735   4.037   5.088 -0.3401 -0.2838  0.0575
 4754WAT      O19735   5.013   3.165   4.520  0.5999  0.1868  1.1081
 4754WAT     H119736   4.995   3.150   4.436  0.7579  0.3439  1.0463
 4754WAT     H219737   4.951   3.119   4.562  0.9202 -0.4326  0.9164
 4754WAT    EPW19738   5.001   3.156   4.513  0.6706  0.1185  1.0707
 4755WAT      O19739   4.664   4.691   5.109 -0.5770 -0.1809  0.2345
 4755WAT     H119740   4.630   4.761   5.149 -0.7328 -0.7464  1.1236
 4755WAT     H219741   4.594   4.647   5.082 -0.5496 -0.8579  1.2144
 4755WAT    EPW19742   4.649   4.695   5.111 -0.5960 -0.3644  0.5106
 4756WAT      O19743   3.865   3.530   5.096 -0.0673  0.5471  0.0265
 4756WAT     H119744   3.888   3.472   5.157  0.6905  0.3598 -0.4229
 4756WAT     H219745   3.849   3.603   5.142 -0.3627  0.1740  0.5271
 4756WAT    EPW19746   3.866   3.532   5.112  0.0010  0.4643  0.0341
 4757WAT      O19747   5.121   3.635   6.311  0.1314  0.4894  0.0754
 4757WAT     H119748   5.155   3.693   6.254 -0.8165 -0.3927 -1.4368
 4757WAT     H219749   5.084   3.575   6.260 -1.6085  0.1435  1.6386
 4757WAT    EPW19750   5.121   3.635   6.295 -0.2656  0.3080  0.0830
 4758WAT      O19751   5.112   3.926   4.777  0.1066  0.4532  0.4709
 4758WAT     H119752   5.025   3.927   4.780  0.0532 -0.0467 -0.3335
 4758WAT     H219753   5.129   3.934   4.691  0.7897 -1.1662  0.4177
 4758WAT    EPW19754   5.102   3.927   4.765  0.1996  0.1401  0.3442
 4759WAT      O19755   4.171   4.105   5.651  1.1201  0.2232 -0.2501
 4759WAT     H119756   4.200   4.082   5.730  1.9213 -0.7171 -0.7958
 4759WAT     H219757   4.089   4.075   5.650  0.4603  1.8381  0.8647
 4759WAT    EPW19758   4.163   4.097   5.662  1.1410  0.3229 -0.1660
 4760WAT      O19759   5.651   5.323   4.239 -0.5913  0.4754 -0.0912
 4760WAT     H119760   5.660   5.246   4.279  0.9051 -0.0800 -1.3986
 4760WAT     H219761   5.716   5.371   4.273 -0.7692  0.7755 -0.1671
 4760WAT    EPW19762   5.662   5.319   4.250 -0.3965  0.4377 -0.2956
 4761WAT      O19763   4.886   2.687   5.110 -0.3505 -0.3880 -0.0951
 4761WAT     H119764   4.966   2.715   5.090 -0.5300 -0.1064 -0.4304
 4761WAT     H219765   4.881   2.609   5.073  0.0887 -0.8048  0.6893
 4761WAT    EPW19766   4.897   2.680   5.102 -0.3122 -0.4080 -0.0287
 4762WAT      O19767   5.101   3.726   5.468  0.0205  0.3142  0.2546
 4762WAT     H119768   5.025   3.738   5.427 -0.9888 -2.4189  1.0839
 4762WAT     H219769   5.088   3.762   5.546 -0.2696  0.2699  0.2284
 4762WAT    EPW19770   5.088   3.733   5.474 -0.1714 -0.0961  0.3732
 4763WAT      O19771   5.059   4.481   3.680  0.3376 -0.2376  0.2259
 4763WAT     H119772   5.128   4.499   3.729  0.9020 -0.1920 -0.5682
 4763WAT     H219773   5.092   4.475   3.599 -0.3947 -1.3554 -0.0127
 4763WAT    EPW19774   5.074   4.483   3.675  0.3128 -0.3960  0.0733
 4764WAT      O19775   5.082   3.808   5.718 -0.4310 -0.5117  0.3971
 4764WAT     H119776   5.075   3.738   5.769  0.4008 -0.2024  0.9500
 4764WAT     H219777   5.004   3.847   5.725 -0.6066 -0.9295  0.7562
 4764WAT    EPW19778   5.070   3.804   5.726 -0.3341 -0.5277  0.5318
 4765WAT      O19779   4.908   3.667   4.252 -0.1709  0.1366  0.1598
 4765WAT     H119780   4.868   3.673   4.329 -1.0336 -3.1660  0.1246
 4765WAT     H219781   4.993   3.664   4.273 -0.3443  0.2243  0.8832
 4765WAT    EPW19782   4.915   3.667   4.266 -0.3240 -0.3383  0.2615
 4766WAT      O19783   4.943   5.863   5.424  0.3500 -0.4218 -0.0490
 4766WAT     H119784   4.966   5.816   5.494  0.4730 -1.1819 -0.5891
 4766WAT     H219785   4.902   5.932   5.459 -0.1964 -1.1217  0.7623
 4766WAT    EPW19786   4.940   5.866   5.440  0.2875 -0.6375 -0.0089
 4767WAT      O19787   4.760   2.948   3.891 -0.7348 -0.6678  0.3844
 4767WAT     H119788   4.708   2.879   3.897 -1.1098 -0.6281 -1.6963
 4767WAT     H219789   4.786   2.948   3.808 -1.3054  2.0804  0.0983
 4767WAT    EPW19790   4.756   2.938   3.880 -0.8745 -0.2560  0.0348
 4768WAT      O19791   6.587   4.690   4.514  0.0889 -0.2328 -0.4260
 4768WAT     H119792   6.629   4.722   4.585  0.2328 -1.5963  0.1355
 4768WAT     H219793   6.566   4.609   4.538 -1.1340 -0.2419 -1.4506
 4768WAT    EPW19794   6.590   4.683   4.528 -0.0705 -0.4355 -0.4944
 4769WAT      O19795   4.181   3.583   4.155 -0.3774  0.6014  0.2509
 4769WAT     H119796   4.219   3.654   4.189 -0.0294  0.6009 -0.1181
 4769WAT     H219797   4.206   3.519   4.208 -0.4509  0.7087  0.4175
 4769WAT    EPW19798   4.190   3.584   4.167 -0.3368  0.6172  0.2210
 4770WAT      O19799   4.045   4.431   5.184  0.1839 -0.4288 -0.4639
 4770WAT     H119800   3.978   4.388   5.146 -0.0782 -2.5047  2.0938
 4770WAT     H219801   4.006   4.498   5.223 -0.2847 -1.0425  0.1494
 4770WAT    EPW19802   4.029   4.435   5.184  0.0759 -0.8261  0.0045
 4771WAT      O19803   6.330   3.597   5.790  0.0651 -0.2514 -0.4498
 4771WAT     H119804   6.320   3.662   5.732  0.0776 -0.3759 -0.5928
 4771WAT     H219805   6.248   3.581   5.816  0.1284  0.2763  0.0907
 4771WAT    EPW19806   6.316   3.605   5.785  0.0763 -0.1918 -0.3911
 4772WAT      O19807   4.498   3.596   5.724  0.3542 -0.5144  0.0042
 4772WAT     H119808   4.494   3.613   5.810  0.1182 -1.6081  0.2185
 4772WAT     H219809   4.484   3.674   5.688  2.1685  0.3048  0.9614
 4772WAT    EPW19810   4.495   3.610   5.732  0.5873 -0.5549  0.1773
 4773WAT      O19811   5.285   3.616   4.642  0.2522  0.1173  0.2357
 4773WAT     H119812   5.355   3.573   4.613  0.5148  0.4310  0.3905
 4773WAT     H219813   5.285   3.599   4.727 -0.8748 -1.3136 -0.0106
 4773WAT    EPW19814   5.295   3.607   4.650  0.1245 -0.0477  0.2222
 4774WAT      O19815   5.689   0.811   4.091 -0.4060 -0.6018 -0.0947
 4774WAT     H119816   5.653   0.742   4.051 -0.4973 -0.0854 -0.9414
 4774WAT     H219817   5.673   0.797   4.175 -0.7608 -1.4187 -0.2854
 4774WAT    EPW19818   5.682   0.799   4.097 -0.4719 -0.6462 -0.2480
 4775WAT      O19819   3.892   4.433   5.592  0.5223 -0.0453  0.0774
 4775WAT     H119820   3.948   4.385   5.547  0.6497 -0.1218  0.3158
 4775WAT     H219821   3.904   4.514   5.561 -1.3279 -0.4746 -1.9916
 4775WAT    EPW19822   3.902   4.438   5.581  0.2678 -0.1201 -0.1930
 4776WAT      O19823   4.499   3.765   5.083 -0.2381  0.2217 -0.0146
 4776WAT     H119824   4.466   3.781   5.162 -0.0257 -2.0295  0.5957
 4776WAT     H219825   4.434   3.724   5.041 -0.0066  0.4973 -0.6632
 4776WAT    EPW19826   4.485   3.761   5.088 -0.1725 -0.0701 -0.0202
 4777WAT      O19827   4.853   4.321   3.814  0.3149 -0.3296  0.5441
 4777WAT     H119828   4.844   4.251   3.762 -1.1219  0.4771 -0.3680
 4777WAT     H219829   4.899   4.377   3.765  1.1283 -0.4612  1.1282
 4777WAT    EPW19830   4.859   4.319   3.799  0.2228 -0.2299  0.4956
 4778WAT      O19831   6.949   4.842   6.707  0.2519 -0.9087 -0.1793
 4778WAT     H119832   6.922   4.761   6.688 -0.6144 -0.6691 -0.0416
 4778WAT     H219833   6.963   4.877   6.628 -1.0960 -0.6494 -0.3325
 4778WAT    EPW19834   6.947   4.835   6.692 -0.0752 -0.8350 -0.1816
 4779WAT      O19835   5.645   2.875   5.282 -0.7836  0.0537 -0.5952
 4779WAT     H119836   5.603   2.800   5.297 -1.0079 -0.0323 -1.6111
 4779WAT     H219837   5.724   2.861   5.317 -0.7155 -0.7818 -1.0496
 4779WAT    EPW19838   5.651   2.862   5.289 -0.8066 -0.0824 -0.8124
 4780WAT      O19839   5.795   4.367   5.804  0.1176  0.4786 -0.0752
 4780WAT     H119840   5.804   4.312   5.736 -1.2180  0.0052  0.0996
 4780WAT     H219841   5.807   4.445   5.768  3.4841  0.1096 -0.0863
 4780WAT    EPW19842   5.799   4.370   5.789  0.4176  0.3541 -0.0510
 4781WAT      O19843   4.350   3.108   6.723  0.5016  0.1365  0.4574
 4781WAT     H119844   4.281   3.148   6.758  0.2400  0.4542 -0.4016
 4781WAT     H219845   4.386   3.170   6.673  0.8476 -0.3165  0.1440
 4781WAT    EPW19846   4.345   3.123   6.721  0.5141  0.1165  0.2842
 4782WAT      O19847   5.271   4.462   5.289 -0.1968 -0.3313  0.3994
 4782WAT     H119848   5.336   4.404   5.286  0.3821 -0.1648  4.0824
 4782WAT     H219849   5.302   4.530   5.243  1.2426 -1.1420  0.1235
 4782WAT    EPW19850   5.285   4.464   5.282  0.1013 -0.4265  0.9027
 4783WAT      O19851   4.486   1.840   5.417  0.1820  0.0188  0.5741
 4783WAT     H119852   4.508   1.776   5.472  0.6705 -0.0062  0.3561
 4783WAT     H219853   4.410   1.869   5.448  0.4791  0.0453  1.3027
 4783WAT    EPW19854   4.478   1.835   5.430  0.2981  0.0190  0.6495
 4784WAT      O19855   5.171   4.566   4.117 -0.3432 -0.5998 -0.6267
 4784WAT     H119856   5.092   4.561   4.152 -0.7323  0.0922 -1.3701
 4784WAT     H219857   5.212   4.496   4.149 -0.2598  0.5628  2.1746
 4784WAT    EPW19858   5.166   4.555   4.127 -0.3883 -0.3259 -0.3227
 4785WAT      O19859   3.936   4.426   4.776  0.0405 -0.0499 -0.2071
 4785WAT     H119860   3.886   4.421   4.705 -1.1310  2.1270  0.3796
 4785WAT     H219861   3.889   4.388   4.838 -2.0362  3.6580  0.8097
 4785WAT    EPW19862   3.922   4.420   4.775 -0.4393  0.8194  0.0298
 4786WAT      O19863   5.074   4.069   5.443 -0.2052  0.4562 -0.1111
 4786WAT     H119864   4.996   4.082   5.407 -0.8124 -3.4585 -0.7098
 4786WAT     H219865   5.115   4.018   5.385  0.3319 -2.7512  2.7262
 4786WAT    EPW19866   5.069   4.063   5.429 -0.2156 -0.5959  0.2196
 4787WAT      O19867   4.579   3.530   3.760  0.2108 -0.6807  0.3715
 4787WAT     H119868   4.569   3.479   3.689  0.4229  0.3635 -0.4269
 4787WAT     H219869   4.509   3.510   3.809  0.1308 -1.5141 -0.0557
 4787WAT    EPW19870   4.567   3.519   3.757  0.2303 -0.6496  0.1904
 4788WAT      O19871   4.201   3.819   6.339  0.2187 -0.2530  0.0382
 4788WAT     H119872   4.285   3.810   6.316  0.2263  1.1199 -0.5334
 4788WAT     H219873   4.167   3.867   6.276 -1.5731 -2.5400 -0.8729
 4788WAT    EPW19874   4.209   3.825   6.327 -0.0449 -0.3880 -0.1809
 4789WAT      O19875   3.801   4.022   4.739 -0.4183 -0.4385 -0.7586
 4789WAT     H119876   3.770   4.018   4.657 -0.3067  0.9338 -0.8857
 4789WAT     H219877   3.753   4.084   4.776  0.5633  0.0352 -0.2469
 4789WAT    EPW19878   3.789   4.031   4.732 -0.2568 -0.1658 -0.7018
 4790WAT      O19879   4.188   3.435   5.347 -0.6247 -0.1913  0.1685
 4790WAT     H119880   4.114   3.406   5.312  0.7958 -1.9423 -1.6345
 4790WAT     H219881   4.187   3.520   5.330 -2.1327 -0.2067  0.0634
 4790WAT    EPW19882   4.177   3.443   5.339 -0.6377 -0.4522 -0.1134
 4791WAT      O19883   4.045   4.261   5.425 -0.3198 -0.6505  0.0990
 4791WAT     H119884   4.061   4.187   5.382 -0.4085 -0.6007 -0.0207
 4791WAT     H219885   4.054   4.323   5.364 -0.1935 -0.5574  0.2104
 4791WAT    EPW19886   4.049   4.259   5.410 -0.3142 -0.6294  0.0978
 4792WAT      O19887   4.187   3.080   5.313  0.1383  0.0173 -0.2073
 4792WAT     H119888   4.107   3.087   5.348  0.1653  0.8625 -0.3020
 4792WAT     H219889   4.171   3.055   5.231 -0.1333  1.5808 -0.6686
 4792WAT    EPW19890   4.173   3.077   5.306  0.1022  0.3731 -0.2895
 4793WAT      O19891   5.126   4.811   4.806  0.0792 -0.1591  0.0664
 4793WAT     H119892   5.152   4.727   4.807 -0.4122 -0.3311 -0.6182
 4793WAT     H219893   5.154   4.839   4.728 -0.1884  0.1792  0.0926
 4793WAT    EPW19894   5.134   4.803   4.794 -0.0329 -0.1345 -0.0309
 4794WAT      O19895   4.362   4.396   5.288 -0.0260 -0.0728 -0.1447
 4794WAT     H119896   4.366   4.333   5.348  0.4787  0.5366  0.4896
 4794WAT     H219897   4.341   4.467   5.335  0.7410  0.4856 -0.6251
 4794WAT    EPW19898   4.360   4.397   5.304  0.1619  0.0997 -0.1220
 4795WAT      O19899   6.173   4.869   4.711 -0.6235 -0.1450 -0.4035
 4795WAT     H119900   6.120   4.831   4.769  0.5580  0.3008  1.0128
 4795WAT     H219901   6.153   4.953   4.716 -0.9552 -0.1654 -1.1494
 4795WAT    EPW19902   6.162   4.876   4.720 -0.4980 -0.0821 -0.3045
 4796WAT      O19903   4.192   4.990   6.334 -0.4043  0.0642 -0.1378
 4796WAT     H119904   4.191   4.919   6.385  1.6863 -0.2318 -0.4204
 4796WAT     H219905   4.191   5.056   6.390  0.7451 -0.2505  0.2762
 4796WAT    EPW19906   4.191   4.989   6.350  0.0743 -0.0261 -0.1184
 4797WAT      O19907   4.493   2.927   5.806 -0.3178  0.1241  0.1763
 4797WAT     H119908   4.424   2.978   5.790 -0.5881  0.6622  2.6980
 4797WAT     H219909   4.462   2.847   5.790 -1.7569  0.3009  1.7972
 4797WAT    EPW19910   4.478   2.923   5.801 -0.5703  0.2297  0.7882
 4798WAT      O19911   4.057   7.221   3.855  0.2497 -0.0769  0.4500
 4798WAT     H119912   4.016   7.144   3.859 -1.0315  0.4901 -0.7970
 4798WAT     H219913   3.994   7.279   3.875  1.1440  0.6734  1.1970
 4798WAT    EPW19914   4.041   7.218   3.858  0.1926  0.1177  0.3762
 4799WAT      O19915   6.023   4.231   5.341  0.2166  0.3364 -0.2657
 4799WAT     H119916   5.942   4.201   5.330  0.4488 -0.1217 -0.7868
 4799WAT     H219917   6.072   4.174   5.297  0.9024  0.1861  0.6630
 4799WAT    EPW19918   6.019   4.218   5.333  0.3522  0.2465 -0.2055
 4800WAT      O19919   6.017   3.516   6.155 -0.0851 -0.1467 -0.7794
 4800WAT     H119920   5.972   3.590   6.167  0.0909 -0.1626  0.0314
 4800WAT     H219921   6.099   3.539   6.175 -0.2473 -0.8919  0.8677
 4800WAT    EPW19922   6.023   3.531   6.159 -0.0830 -0.2591 -0.4163
 4801WAT      O19923   4.674   4.045   3.988  0.0568  0.1427  0.1670
 4801WAT     H119924   4.626   4.054   3.915 -1.1520 -2.2089  0.5664
 4801WAT     H219925   4.616   4.058   4.052  0.0632 -1.9768  0.6666
 4801WAT    EPW19926   4.658   4.048   3.987 -0.1208 -0.5178  0.2998
 4802WAT      O19927   5.392   4.577   4.835 -0.5761 -0.3099  0.0798
 4802WAT     H119928   5.366   4.619   4.764  0.1958 -0.4622 -0.3009
 4802WAT     H219929   5.356   4.498   4.826  1.1422 -1.0036 -1.1779
 4802WAT    EPW19930   5.383   4.571   4.823 -0.2083 -0.4348 -0.1622
 4803WAT      O19931   4.909   5.059   4.981 -0.2393  0.5771 -0.5194
 4803WAT     H119932   4.849   5.122   4.975 -1.8931 -0.7293  1.2799
 4803WAT     H219933   4.982   5.102   5.004 -1.8471  1.7452  3.0399
 4803WAT    EPW19934   4.911   5.075   4.983 -0.7211  0.5567  0.2722
 4804WAT      O19935   5.851   2.060   6.891  0.1268 -0.3759 -0.2061
 4804WAT     H119936   5.924   2.044   6.846  0.3970 -0.7938  0.3625
 4804WAT     H219937   5.877   2.055   6.975 -0.3671  0.3777 -0.0008
 4804WAT    EPW19938   5.866   2.057   6.897  0.0938 -0.3263 -0.0918
 4805WAT      O19939   6.252   4.683   5.285  0.0272 -0.2806  0.3789
 4805WAT     H119940   6.233   4.599   5.272  0.0436 -0.3729  0.9241
 4805WAT     H219941   6.311   4.681   5.350  1.3601  0.0323 -0.7598
 4805WAT    EPW19942   6.258   4.671   5.292  0.2265 -0.2480  0.2912
 4806WAT      O19943   4.622   4.575   4.762  0.3075 -0.0927  0.3681
 4806WAT     H119944   4.633   4.533   4.686 -0.6261 -1.4640  0.9474
 4806WAT     H219945   4.655   4.520   4.821  0.1837  0.5430  1.0437
 4806WAT    EPW19946   4.628   4.561   4.760  0.1513 -0.2014  0.5535
 4807WAT      O19947   5.909   5.414   6.615 -0.7249  0.3525  0.8002
 4807WAT     H119948   5.984   5.405   6.571 -1.1017  0.8757  0.0325
 4807WAT     H219949   5.928   5.471   6.677 -0.4540  0.3965  0.6770
 4807WAT    EPW19950   5.923   5.421   6.617 -0.7406  0.4363  0.6686
 4808WAT      O19951   4.679   4.380   4.987 -0.6348 -0.0999  0.1174
 4808WAT     H119952   4.745   4.337   4.949 -0.2164  1.2940 -0.8188
 4808WAT     H219953   4.719   4.444   5.031 -1.3204  0.3981  0.0369
 4808WAT    EPW19954   4.695   4.383   4.988 -0.6743  0.1796 -0.0328
 4809WAT      O19955   4.013   4.781   3.517  0.1832 -0.5632 -0.0334
 4809WAT     H119956   3.943   4.730   3.533 -0.3375  0.2177  0.2198
 4809WAT     H219957   4.073   4.724   3.489  0.0118 -1.5230  1.3913
 4809WAT    EPW19958   4.012   4.765   3.515  0.0810 -0.5896  0.2144
 4810WAT      O19959   4.067   4.109   5.031 -0.5782 -0.3721  0.1897
 4810WAT     H119960   4.004   4.167   5.014  0.1494  0.4314  0.1300
 4810WAT     H219961   4.033   4.033   5.005 -1.9609 -0.1567  1.2220
 4810WAT    EPW19962   4.053   4.107   5.025 -0.6750 -0.2216  0.3333
 4811WAT      O19963   4.931   4.518   4.264 -0.5004  0.1623  0.3558
 4811WAT     H119964   4.879   4.448   4.257 -1.3090  0.8095 -0.3935
 4811WAT     H219965   4.886   4.571   4.317 -0.6766  0.7707 -0.3781
 4811WAT    EPW19966   4.917   4.515   4.271 -0.6459  0.3478  0.1367
 4812WAT      O19967   5.332   5.911   4.389  0.1592  0.4517 -0.2437
 4812WAT     H119968   5.329   5.985   4.434  1.2088  1.1100 -1.1805
 4812WAT     H219969   5.369   5.854   4.444  0.3414  0.9237  0.1230
 4812WAT    EPW19970   5.337   5.914   4.404  0.3411  0.6187 -0.3279
 4813WAT      O19971   5.171   3.664   4.894  0.4688  0.5248 -0.2414
 4813WAT     H119972   5.092   3.654   4.858 -0.0337 -1.6993  1.2784
 4813WAT     H219973   5.196   3.742   4.866 -2.0918  1.1398 -1.1188
 4813WAT    EPW19974   5.163   3.674   4.884  0.0163  0.2871 -0.1465
 4814WAT      O19975   4.560   3.698   4.074  0.0064 -0.6762  0.1667
 4814WAT     H119976   4.511   3.631   4.046 -0.0503 -1.4694  2.0405
 4814WAT     H219977   4.508   3.738   4.131  0.0128  1.0661 -0.9915
 4814WAT    EPW19978   4.545   3.694   4.078 -0.0010 -0.5360  0.2724
 4815WAT      O19979   5.394   2.447   4.835  0.1021 -0.1427 -0.3136
 4815WAT     H119980   5.465   2.479   4.874 -0.0766 -0.2526  0.1190
 4815WAT     H219981   5.337   2.441   4.901 -0.3278  0.0127 -0.6704
 4815WAT    EPW19982   5.396   2.451   4.851  0.0122 -0.1360 -0.3024
 4816WAT      O19983   5.705   4.619   5.451 -0.4989  0.0566  0.0390
 4816WAT     H119984   5.769   4.595   5.397 -0.2730  1.0052 -0.1400
 4816WAT     H219985   5.684   4.699   5.422 -0.5747  0.4543  1.1621
 4816WAT    EPW19986   5.712   4.627   5.439 -0.4767  0.2555  0.1785
 4817WAT      O19987   4.682   4.688   6.651  0.1993 -0.2709  0.0578
 4817WAT     H119988   4.759   4.657   6.623 -0.9971 -1.8434 -1.7926
 4817WAT     H219989   4.630   4.678   6.582 -1.8637  0.0772  1.4741
 4817WAT    EPW19990   4.686   4.682   6.636 -0.2822 -0.4518 -0.0064
 4818WAT      O19991   5.564   3.944   5.468  0.1556  0.0018  0.0708
 4818WAT     H119992   5.616   3.994   5.418  1.0594 -0.1091  0.8828
 4818WAT     H219993   5.532   4.000   5.526  0.0489 -0.0946  0.1037
 4818WAT    EPW19994   5.567   3.960   5.469  0.2733 -0.0288  0.1956
 4819WAT      O19995   7.067   5.054   3.878  0.2863 -0.3842 -0.1593
 4819WAT     H119996   7.106   4.981   3.851  1.2306 -0.6252  1.6873
 4819WAT     H219997   7.010   5.027   3.937  0.3606  0.3197  0.2520
 4819WAT    EPW19998   7.065   5.039   3.883  0.4368 -0.3158  0.1742
 4820WAT      O19999   6.514   5.612   5.148  0.7245 -0.0469 -0.0745
 4820WAT     H120000   6.474   5.547   5.107  1.6949 -0.3364 -0.6004
 4820WAT     H220001   6.595   5.582   5.160  0.9706  0.7665  0.3664
 4820WAT    EPW20002   6.520   5.598   5.144  0.9042  0.0305 -0.0871
 4821WAT      O20003   4.913   4.064   6.098  0.1145 -0.2290  0.2092
 4821WAT     H120004   4.955   4.096   6.167 -1.8266  0.9432  0.9172
 4821WAT     H220005   4.894   3.982   6.121 -1.1400  0.3682  1.4134
 4821WAT    EPW20006   4.916   4.056   6.111 -0.3575  0.0324  0.4916
 4822WAT      O20007   5.674   2.451   4.683  0.4000  0.4597 -0.8358
 4822WAT     H120008   5.685   2.398   4.751  0.4346  2.6882  1.0479
 4822WAT     H220009   5.755   2.462   4.652  0.7715  1.3115  0.3635
 4822WAT    EPW20010   5.688   2.445   4.688  0.4600  0.9147 -0.3804
 4823WAT      O20011   5.562   4.527   3.762 -0.0339  0.1593  0.6812
 4823WAT     H120012   5.571   4.450   3.801  1.9756  0.2463  0.4755
 4823WAT     H220013   5.601   4.582   3.817 -0.9937  0.9761  0.5761
 4823WAT    EPW20014   5.569   4.524   3.776  0.1212  0.2928  0.6353
 4824WAT      O20015   4.165   4.402   4.923  0.0893  0.3743 -0.3535
 4824WAT     H120016   4.094   4.410   4.874  0.0272  2.0082 -0.0665
 4824WAT     H220017   4.138   4.424   5.003  0.5737 -0.5166  0.0663
 4824WAT    EPW20018   4.151   4.407   4.927  0.1517  0.4840 -0.2491
 4825WAT      O20019   4.679   4.633   6.083  0.5135  0.3198  0.0025
 4825WAT     H120020   4.725   4.656   6.013 -0.3994  0.4553 -0.5599
 4825WAT     H220021   4.620   4.576   6.052 -0.2316  0.7733  0.5608
 4825WAT    EPW20022   4.677   4.628   6.068  0.2686  0.4068  0.0019
 4826WAT      O20023   5.585   4.356   6.708  0.3524 -0.1376  0.0246
 4826WAT     H120024   5.641   4.368   6.642 -0.6119 -3.3985 -1.6394
 4826WAT     H220025   5.629   4.304   6.763 -0.0873 -0.4627  0.0794
 4826WAT    EPW20026   5.600   4.350   6.707  0.1450 -0.6673 -0.2131
 4827WAT      O20027   4.560   3.284   4.947 -0.3938  0.0751 -0.0160
 4827WAT     H120028   4.531   3.328   4.877 -1.8184 -1.5265 -0.4944
 4827WAT     H220029   4.645   3.273   4.930 -0.4612  0.7713 -0.9019
 4827WAT    EPW20030   4.568   3.289   4.934 -0.6142 -0.0587 -0.2175
 4828WAT      O20031   4.501   4.403   5.621 -0.1435 -0.6227  0.5713
 4828WAT     H120032   4.477   4.336   5.571 -1.7997  0.4034 -0.0897
 4828WAT     H220033   4.435   4.459   5.613  1.3311  1.2450  0.8345
 4828WAT    EPW20034   4.488   4.401   5.612 -0.1703 -0.1953  0.5125
 4829WAT      O20035   5.445   3.332   5.351 -0.2834 -0.3863  0.3580
 4829WAT     H120036   5.380   3.352   5.406 -1.7534 -0.4311 -1.2764
 4829WAT     H220037   5.455   3.246   5.360 -1.1373 -0.5415 -0.0430
 4829WAT    EPW20038   5.436   3.323   5.360 -0.6267 -0.4158  0.0573
 4830WAT      O20039   4.569   5.084   5.816  0.1921 -0.3598  0.1319
 4830WAT     H120040   4.490   5.084   5.779  0.8036  0.7592 -1.2887
 4830WAT     H220041   4.590   5.169   5.819  0.5971 -0.4626  2.2426
 4830WAT    EPW20042   4.560   5.097   5.811  0.3422 -0.2097  0.2338
 4831WAT      O20043   3.400   3.280   5.916 -0.0964  0.3621 -0.4642
 4831WAT     H120044   3.403   3.261   6.001  1.5534 -0.2787 -0.6306
 4831WAT     H220045   3.435   3.359   5.912  0.5233  0.0852 -0.6123
 4831WAT    EPW20046   3.405   3.289   5.928  0.2389  0.2265 -0.5107
 4832WAT      O20047   5.075   4.534   5.845 -0.1887  0.4549  0.4309
 4832WAT     H120048   5.077   4.484   5.916 -0.8521 -0.9597 -0.4963
 4832WAT     H220049   5.058   4.478   5.780  3.2757  1.1541 -1.3452
 4832WAT    EPW20050   5.073   4.518   5.846  0.2251  0.3492  0.0316
 4833WAT      O20051   4.818   3.286   4.814  0.5488  0.3587 -0.0405
 4833WAT     H120052   4.772   3.295   4.740  0.2594  3.5555  0.3891
 4833WAT     H220053   4.901   3.283   4.786  0.3382 -1.0746 -0.5839
 4833WAT    EPW20054   4.823   3.287   4.799  0.4750  0.6192 -0.0573
 4834WAT      O20055   4.843   3.530   3.947  0.1746  0.0220 -0.2955
 4834WAT     H120056   4.905   3.541   3.887  0.9650  1.0329  0.6725
 4834WAT     H220057   4.769   3.526   3.900  0.7364  1.1116 -1.3204
 4834WAT    EPW20058   4.841   3.531   3.931  0.3743  0.3323 -0.3039
 4835WAT      O20059   3.693   3.759   4.672 -0.4204  0.9436 -0.0055
 4835WAT     H120060   3.656   3.711   4.734 -2.7478  1.5165 -0.8324
 4835WAT     H220061   3.711   3.834   4.713  0.5206  0.4165  0.5776
 4835WAT    EPW20062   3.690   3.763   4.687 -0.6252  0.9504 -0.0415
 4836WAT      O20063   3.461   3.151   6.137  0.3803 -0.3599  0.4406
 4836WAT     H120064   3.524   3.091   6.128  2.6250  1.4253  2.7976
 4836WAT     H220065   3.410   3.118   6.199 -1.6906 -2.1967 -2.0423
 4836WAT    EPW20066   3.463   3.137   6.145  0.4060 -0.3675  0.4220
 4837WAT      O20067   4.820   4.180   5.341 -0.5413  0.3192  0.0580
 4837WAT     H120068   4.785   4.133   5.406  2.5532 -1.7748  0.4054
 4837WAT     H220069   4.781   4.149   5.270 -0.2794 -1.0662  0.4983
 4837WAT    EPW20070   4.809   4.169   5.340 -0.0455 -0.1948  0.1743
 4838WAT      O20071   4.641   4.985   5.188  0.2565 -0.1634 -0.1505
 4838WAT     H120072   4.569   5.010   5.146  1.2469  1.9971 -0.7289
 4838WAT     H220073   4.623   5.000   5.272  0.0698  0.5248 -0.3064
 4838WAT    EPW20074   4.628   4.991   5.194  0.3752  0.2574 -0.2590
 4839WAT      O20075   4.674   3.297   4.552  0.5801  0.1150 -0.2762
 4839WAT     H120076   4.587   3.297   4.559  0.3165 -1.8325 -2.4186
 4839WAT     H220077   4.690   3.365   4.500  0.2151 -0.2994 -0.9310
 4839WAT    EPW20078   4.663   3.307   4.546  0.4873 -0.2339 -0.6894
 4840WAT      O20079   3.996   3.843   4.932  0.9012 -0.2182 -0.2440
 4840WAT     H120080   3.941   3.798   4.881  0.1540  1.6307 -1.2000
 4840WAT     H220081   3.962   3.836   5.012  1.1555 -1.8061 -0.2529
 4840WAT    EPW20082   3.983   3.835   4.936  0.8284 -0.1797 -0.3865
 4841WAT      O20083   5.360   3.007   4.213  0.1277 -0.3071  0.0607
 4841WAT     H120084   5.304   3.072   4.197  0.1104  0.0629  1.4585
 4841WAT     H220085   5.337   2.979   4.293  0.8822 -1.2467 -0.0276
 4841WAT    EPW20086   5.349   3.012   4.223  0.2366 -0.3912  0.2541
 4842WAT      O20087   5.274   4.806   4.267 -0.4188 -0.4567 -0.5284
 4842WAT     H120088   5.227   4.801   4.194 -2.0973 -2.6097  0.5854
 4842WAT     H220089   5.329   4.738   4.262  0.7360  0.4343 -0.5457
 4842WAT    EPW20090   5.275   4.795   4.255 -0.4961 -0.6431 -0.3665
 4843WAT      O20091   4.235   4.853   5.125 -0.3184  0.0603 -0.0716
 4843WAT     H120092   4.177   4.811   5.174  1.5304 -2.2060  0.3268
 4843WAT     H220093   4.267   4.914   5.179 -2.0596  1.1797 -0.2260
 4843WAT    EPW20094   4.231   4.856   5.140 -0.3025 -0.1091 -0.0356
 4844WAT      O20095   4.780   3.041   4.612 -0.1931 -0.1502 -0.2895
 4844WAT     H120096   4.743   3.116   4.588  0.3948  0.2027 -0.1145
 4844WAT     H220097   4.739   2.982   4.563  0.1870  0.4240 -1.3428
 4844WAT    EPW20098   4.768   3.044   4.601 -0.0501 -0.0132 -0.4193
 4845WAT      O20099   4.742   3.427   4.224  0.3819  0.3985 -0.4297
 4845WAT     H120100   4.805   3.481   4.199 -0.2043  1.4583  0.2817
 4845WAT     H220101   4.684   3.480   4.263 -0.2805 -0.7289  0.1692
 4845WAT    EPW20102   4.743   3.443   4.226  0.1974  0.3885 -0.2361
 4846WAT      O20103   5.007   3.686   6.554 -0.2846 -0.2769  0.5903
 4846WAT     H120104   5.057   3.660   6.488 -0.4430  0.9600 -0.0442
 4846WAT     H220105   5.063   3.716   6.613 -0.1907 -0.4493  0.5874
 4846WAT    EPW20106   5.022   3.687   6.553 -0.2941 -0.1197  0.4962
 4847WAT      O20107   5.562   4.849   6.826 -0.0751 -0.2386  0.0889
 4847WAT     H120108   5.537   4.910   6.883  0.9162 -0.1237  0.4213
 4847WAT     H220109   5.626   4.888   6.781 -1.2851 -0.0850 -1.5821
 4847WAT    EPW20110   5.568   4.864   6.827 -0.1074 -0.1989 -0.1088
 4848WAT      O20111   5.673   3.483   5.400  0.2896 -0.6994 -0.4062
 4848WAT     H120112   5.645   3.563   5.382 -0.2838 -0.7217  0.3171
 4848WAT     H220113   5.607   3.432   5.375  0.5084 -0.9170 -0.5439
 4848WAT    EPW20114   5.659   3.487   5.394  0.2373 -0.7348 -0.3197
 4849WAT      O20115   4.467   3.797   6.296  0.4420  0.0557 -0.0599
 4849WAT     H120116   4.490   3.743   6.361  2.5213 -0.2134 -0.9527
 4849WAT     H220117   4.532   3.855   6.294 -0.3599  0.9688 -0.9494
 4849WAT    EPW20118   4.480   3.797   6.306  0.6307  0.1508 -0.3232
 4850WAT      O20119   4.604   3.448   6.640  0.1436 -0.1553 -0.1396
 4850WAT     H120120   4.561   3.378   6.609  2.0094 -1.9742  1.0740
 4850WAT     H220121   4.684   3.438   6.606  0.7264  0.7969  0.9171
 4850WAT    EPW20122   4.609   3.436   6.630  0.5053 -0.2834  0.1958
 4851WAT      O20123   5.139   4.712   5.375 -0.2612 -0.0309 -0.2095
 4851WAT     H120124   5.109   4.685   5.452 -0.8249  0.1377 -0.3630
 4851WAT     H220125   5.175   4.640   5.341 -1.1078 -0.4212 -0.3096
 4851WAT    EPW20126   5.140   4.697   5.381 -0.4695 -0.0637 -0.2469
 4852WAT      O20127   3.695   5.665   5.281  0.1973  0.0708  0.3934
 4852WAT     H120128   3.758   5.682   5.223  0.2988 -1.0634  0.1611
 4852WAT     H220129   3.638   5.616   5.237 -1.1055  1.4441  0.4652
 4852WAT    EPW20130   3.696   5.661   5.266  0.0198  0.1061  0.3697
 4853WAT      O20131   3.525   3.996   4.894  0.3481  0.2754 -0.2331
 4853WAT     H120132   3.555   4.076   4.911  0.4941  0.3012 -0.5988
 4853WAT     H220133   3.497   4.001   4.812  1.7695 -0.4392 -0.8071
 4853WAT    EPW20134   3.525   4.008   4.885  0.5797  0.1736 -0.3719
 4854WAT      O20135   6.923   2.935   6.463 -0.2660  0.5995 -0.5738
 4854WAT     H120136   6.904   2.868   6.410 -0.5929 -0.7530  1.1483
 4854WAT     H220137   6.994   2.907   6.505 -0.1662  1.5328 -0.1166
 4854WAT    EPW20138   6.931   2.921   6.461 -0.2995  0.5375 -0.2519
 4855WAT      O20139   3.896   3.497   4.817 -0.3533  0.6360 -0.1692
 4855WAT     H120140   3.842   3.544   4.767 -0.2977  0.7068 -0.1632
 4855WAT     H220141   3.868   3.511   4.898 -0.7892  0.0830 -0.2161
 4855WAT    EPW20142   3.884   3.506   4.821 -0.4095  0.5647 -0.1752
 4856WAT      O20143   3.998   4.525   4.065 -0.7103  0.0009 -0.5359
 4856WAT     H120144   3.980   4.469   4.000 -3.2786  1.2224 -1.0018
 4856WAT     H220145   3.940   4.505   4.126  0.6348 -0.0691  0.7889
 4856WAT    EPW20146   3.987   4.514   4.064 -0.8910  0.1710 -0.4090
 4857WAT      O20147   4.239   3.691   4.982  0.0610  0.6750  0.2394
 4857WAT     H120148   4.159   3.708   4.954 -0.2741 -1.3270 -0.1865
 4857WAT     H220149   4.256   3.612   4.948  0.9907 -0.3475  2.8414
 4857WAT    EPW20150   4.230   3.682   4.973  0.1489  0.2282  0.5609
 4858WAT      O20151   5.059   3.020   6.111  0.6621 -0.4045 -0.0583
 4858WAT     H120152   5.069   3.029   6.025 -0.1633  0.8128 -0.0679
 4858WAT     H220153   4.982   3.058   6.126 -0.5790 -3.0277  0.8561
 4858WAT    EPW20154   5.049   3.027   6.100  0.3568 -0.6122  0.0754
 4859WAT      O20155   5.021   3.312   3.600  0.2328 -0.5393 -0.2321
 4859WAT     H120156   5.066   3.241   3.576  0.0852 -0.7934  0.2215
 4859WAT     H220157   4.947   3.279   3.633  0.0247 -0.1564 -0.3165
 4859WAT    EPW20158   5.017   3.297   3.601  0.1803 -0.5203 -0.1776
 4860WAT      O20159   4.293   3.944   4.027  0.0187 -0.1794  0.4378
 4860WAT     H120160   4.228   3.905   3.984  0.1151 -0.4215  0.5116
 4860WAT     H220161   4.265   4.027   4.036 -0.5373 -0.4110  0.9764
 4860WAT    EPW20162   4.279   3.951   4.022 -0.0492 -0.2493  0.5282
 4861WAT      O20163   5.002   5.120   4.422 -0.2492  0.2474 -0.2577
 4861WAT     H120164   4.964   5.096   4.347 -1.1936  2.8905 -0.7209
 4861WAT     H220165   5.079   5.153   4.397 -0.0754  0.0921  0.0664
 4861WAT    EPW20166   5.008   5.121   4.407 -0.3631  0.6149 -0.2782
 4862WAT      O20167   4.235   3.984   5.888  0.0381  0.5900  0.3918
 4862WAT     H120168   4.321   3.988   5.899 -0.1204 -0.0328  2.2611
 4862WAT     H220169   4.221   3.900   5.870 -0.2943  0.3370  1.7222
 4862WAT    EPW20170   4.246   3.972   5.887 -0.0344  0.4606  0.8645
 4863WAT      O20171   6.040   3.602   5.846  0.3807 -0.3536  0.1311
 4863WAT     H120172   6.035   3.689   5.838  0.7237 -0.3751 -0.3666
 4863WAT     H220173   6.007   3.587   5.926 -2.5593 -0.0520 -0.9047
 4863WAT    EPW20174   6.034   3.613   5.857 -0.0029 -0.3122 -0.0954
 4864WAT      O20175   4.896   4.491   5.100 -0.2879  0.1706  0.2244
 4864WAT     H120176   4.946   4.420   5.092 -0.4428  0.1585 -0.7789
 4864WAT     H220177   4.871   4.490   5.184 -1.0219 -1.4558  0.0052
 4864WAT    EPW20178   4.900   4.481   5.111 -0.4192 -0.0715  0.0438
 4865WAT      O20179   4.488   4.370   3.968 -0.3147  0.3261  0.2235
 4865WAT     H120180   4.497   4.286   3.990 -1.1721  0.0266 -0.5278
 4865WAT     H220181   4.413   4.393   4.005 -0.4611  0.5451 -0.2050
 4865WAT    EPW20182   4.478   4.361   3.977 -0.4630  0.3142  0.0492
 4866WAT      O20183   3.865   3.310   6.056  0.1266  0.3707 -0.4953
 4866WAT     H120184   3.843   3.228   6.077  1.4380 -0.6543 -2.8100
 4866WAT     H220185   3.832   3.321   5.976 -2.3479  3.1340  0.6809
 4866WAT    EPW20186   3.857   3.300   6.047 -0.0452  0.6275 -0.6635
 4867WAT      O20187   6.402   1.470   5.510 -0.2512 -0.2945 -0.1371
 4867WAT     H120188   6.395   1.387   5.482  2.1275 -0.0525 -1.7002
 4867WAT     H220189   6.398   1.517   5.436 -2.2485  1.1151  0.7733
 4867WAT    EPW20190   6.400   1.464   5.495 -0.1948 -0.0505 -0.2335
 4868WAT      O20191   5.313   3.783   5.289  0.6383 -0.3610 -0.0421
 4868WAT     H120192   5.246   3.761   5.341  0.2028 -0.9069 -0.8088
 4868WAT     H220193   5.308   3.870   5.285  1.3327 -0.2045  1.6599
 4868WAT    EPW20194   5.302   3.792   5.296  0.6765 -0.4186  0.0961
 4869WAT      O20195   4.861   5.181   5.679 -0.0202  0.6234 -0.3139
 4869WAT     H120196   4.805   5.145   5.622 -0.2657 -2.5518  1.6481
 4869WAT     H220197   4.809   5.223   5.734 -0.2064  0.2764 -0.2170
 4869WAT    EPW20198   4.845   5.182   5.679 -0.0840  0.1031 -0.0098
 4870WAT      O20199   4.938   5.524   6.038  0.2662  0.1926  0.0241
 4870WAT     H120200   4.856   5.547   6.021 -0.3190 -0.0073  2.1712
 4870WAT     H220201   4.944   5.442   6.007 -0.4483  0.1070  0.1113
 4870WAT    EPW20202   4.927   5.515   6.031  0.0742  0.1504  0.3542
 4871WAT      O20203   6.140   3.950   6.355 -0.0580  0.1729 -0.2805
 4871WAT     H120204   6.196   3.970   6.419 -0.4171 -0.8014  0.3785
 4871WAT     H220205   6.106   4.027   6.332  0.4961  0.6076  0.3093
 4871WAT    EPW20206   6.143   3.964   6.361 -0.0292  0.0932 -0.0960
 4872WAT      O20207   6.544   3.835   4.949 -0.6693 -0.1619 -0.8480
 4872WAT     H120208   6.579   3.759   4.974 -1.9163 -0.2639  0.7537
 4872WAT     H220209   6.477   3.811   4.899 -0.5880 -0.0909 -0.9912
 4872WAT    EPW20210   6.540   3.820   4.945 -0.8415 -0.1665 -0.6326
 4873WAT      O20211   4.108   4.774   5.788  0.3637  0.2214  0.1685
 4873WAT     H120212   4.188   4.742   5.802  0.0969 -0.1344  0.9826
 4873WAT     H220213   4.100   4.773   5.701  1.6442  1.2814  0.0091
 4873WAT    EPW20214   4.119   4.769   5.777  0.5134  0.3254  0.2652
 4874WAT      O20215   5.183   3.973   5.932  0.3452 -0.0933 -0.1205
 4874WAT     H120216   5.153   3.940   5.857 -1.8428 -0.4976  0.8548
 4874WAT     H220217   5.256   4.015   5.908 -0.5779  0.2993 -2.5695
 4874WAT    EPW20218   5.190   3.975   5.917 -0.1144 -0.0950 -0.3382
 4875WAT      O20219   4.838   3.767   5.387 -0.3815  0.2907  0.3743
 4875WAT     H120220   4.810   3.696   5.429  1.3586 -0.4623  0.3179
 4875WAT     H220221   4.812   3.754   5.305  0.7175 -0.7478  0.1694
 4875WAT    EPW20222   4.830   3.755   5.381  0.0379  0.0260  0.3357
 4876WAT      O20223   3.975   4.573   5.934  0.5296  0.4664  0.0107
 4876WAT     H120224   4.017   4.497   5.925 -0.9651 -0.2756 -1.1487
 4876WAT     H220225   4.022   4.628   5.885  1.0328  0.0429  0.0093
 4876WAT    EPW20226   3.988   4.570   5.925  0.3831  0.2942 -0.1608
 4877WAT      O20227   5.105   4.401   5.573  0.0980  0.0099 -0.5685
 4877WAT     H120228   5.184   4.438   5.578  0.4289 -0.5546 -1.4702
 4877WAT     H220229   5.122   4.315   5.578 -0.6007 -0.0793  0.7947
 4877WAT    EPW20230   5.119   4.394   5.575  0.0436 -0.0867 -0.5003
 4878WAT      O20231   4.963   2.312   3.559 -0.3572  0.3749 -0.1187
 4878WAT     H120232   5.028   2.341   3.508 -0.5372  0.9242 -0.0453
 4878WAT     H220233   4.940   2.382   3.606 -1.3085  0.3182 -0.4659
 4878WAT    EPW20234   4.969   2.327   3.558 -0.5243  0.4476 -0.1591
 4879WAT      O20235   4.813   4.718   3.882  0.8468  0.0622 -0.6356
 4879WAT     H120236   4.852   4.752   3.953  0.9404 -1.5571  0.1280
 4879WAT     H220237   4.732   4.748   3.888  0.0334 -2.2199  1.7901
 4879WAT    EPW20238   4.807   4.728   3.893  0.7405 -0.5141 -0.1645
 4880WAT      O20239   5.907   2.890   4.704 -0.3218 -0.1009  0.2823
 4880WAT     H120240   5.827   2.855   4.702 -0.4544  0.0965  1.3303
 4880WAT     H220241   5.953   2.833   4.751 -0.7521  1.4357  2.7627
 4880WAT    EPW20242   5.902   2.877   4.710 -0.4049  0.1552  0.8035
 4881WAT      O20243   4.902   4.446   5.378  0.1163  0.0049 -0.0502
 4881WAT     H120244   4.970   4.437   5.431 -0.8184  0.2471  1.2421
 4881WAT     H220245   4.866   4.367   5.376 -0.8724  0.3955  1.1529
 4881WAT    EPW20246   4.907   4.433   5.385 -0.1678  0.0984  0.3184
 4882WAT      O20247   5.321   4.508   6.352 -0.4130 -0.5929  0.0210
 4882WAT     H120248   5.331   4.534   6.269  2.4668  0.5844  0.6225
 4882WAT     H220249   5.360   4.571   6.398  0.4155 -2.5096  2.0990
 4882WAT    EPW20250   5.328   4.521   6.347  0.1348 -0.7021  0.4168
 4883WAT      O20251   5.299   3.869   4.489  0.5000 -0.7768 -0.3939
 4883WAT     H120252   5.356   3.917   4.534 -1.2577  2.2825 -1.1414
 4883WAT     H220253   5.307   3.790   4.524  1.2803  0.7416  3.2858
 4883WAT    EPW20254   5.309   3.865   4.501  0.3556 -0.1006  0.0392
 4884WAT      O20255   3.701   3.804   4.992  0.1842  0.1956  0.4975
 4884WAT     H120256   3.644   3.867   4.971  1.6498  1.1976 -0.7148
 4884WAT     H220257   3.754   3.843   5.050  1.2257  0.2034 -0.4150
 4884WAT    EPW20258   3.701   3.819   4.998  0.5545  0.3448  0.1836
 4885WAT      O20259   5.799   4.693   6.283  0.0972  0.3997 -0.1115
 4885WAT     H120260   5.740   4.632   6.261  0.3334  0.4471 -0.9408
 4885WAT     H220261   5.756   4.768   6.273  0.2944  0.4376 -0.7799
 4885WAT    EPW20262   5.784   4.695   6.278  0.1612  0.4123 -0.3327
 4886WAT      O20263   4.346   3.556   3.934 -0.3067 -0.1696  0.0454
 4886WAT     H120264   4.333   3.640   3.916  1.0637  0.2771  0.9947
 4886WAT     H220265   4.273   3.532   3.975 -0.2249  0.8783  0.8217
 4886WAT    EPW20266   4.333   3.565   3.937 -0.0922  0.0512  0.3003
 4887WAT      O20267   6.479   4.056   3.112  0.3900  0.5957  0.5195
 4887WAT     H120268   6.502   4.136   3.084  1.6095 -0.2988 -1.2343
 4887WAT     H220269   6.412   4.034   3.060  0.7085  0.0962  0.3110
 4887WAT    EPW20270   6.472   4.065   3.100  0.6172  0.3898  0.2296
 4888WAT      O20271   5.422   5.154   3.734 -0.5053 -0.1280  0.1890
 4888WAT     H120272   5.502   5.121   3.744  0.1516  1.2901 -0.1198
 4888WAT     H220273   5.414   5.162   3.647 -0.5364  0.7305  0.2601
 4888WAT    EPW20274   5.433   5.150   3.722 -0.4129  0.2083  0.1539
 4889WAT      O20275   5.636   3.729   3.185  0.6029 -0.1113 -0.1513
 4889WAT     H120276   5.567   3.715   3.133 -0.8198  0.7472  1.4045
 4889WAT     H220277   5.607   3.789   3.242  2.4118 -0.2641  1.0169
 4889WAT    EPW20278   5.621   3.736   3.186  0.6599 -0.0071  0.2511
 4890WAT      O20279   4.478   4.067   1.683  0.3267 -0.3636 -0.4955
 4890WAT     H120280   4.520   4.024   1.746  1.2870  2.2262  0.7756
 4890WAT     H220281   4.405   4.093   1.722  1.3107  1.9855 -0.0744
 4890WAT    EPW20282   4.474   4.064   1.698  0.6139  0.3660 -0.2455
 4891WAT      O20283   3.903   5.326   2.021 -0.2370 -0.0727  0.1395
 4891WAT     H120284   3.943   5.273   1.964 -0.3221  0.3050 -0.2773
 4891WAT     H220285   3.929   5.296   2.099  0.9255  0.2176 -0.1157
 4891WAT    EPW20286   3.913   5.313   2.024 -0.0779  0.0260  0.0402
 4892WAT      O20287   4.701   1.896   4.644  0.0745 -0.0973 -0.1822
 4892WAT     H120288   4.684   1.825   4.596 -1.2259  0.5221 -0.6961
 4892WAT     H220289   4.627   1.943   4.637  0.8597  1.2474  0.2475
 4892WAT    EPW20290   4.687   1.892   4.636 -0.0016  0.1928 -0.1946
 4893WAT      O20291   4.558   4.970   1.935 -0.2177 -0.1889 -0.2232
 4893WAT     H120292   4.549   4.930   1.858 -0.2834  0.4310 -0.5421
 4893WAT     H220293   4.602   5.042   1.915 -1.0505  0.4449  0.1691
 4893WAT    EPW20294   4.563   4.974   1.921 -0.3504 -0.0037 -0.2124
 4894WAT      O20295   5.069   4.597   2.799  0.0324  0.1622  0.0744
 4894WAT     H120296   5.138   4.577   2.749  0.1306 -0.4063  0.4219
 4894WAT     H220297   5.100   4.659   2.852  0.3531 -0.2379  0.3702
 4894WAT    EPW20298   5.084   4.603   2.799  0.0943  0.0191  0.1694
 4895WAT      O20299   6.479   4.850   1.406  0.3506 -0.2354  0.4919
 4895WAT     H120300   6.461   4.771   1.437  2.0814 -0.9016 -0.0703
 4895WAT     H220301   6.474   4.840   1.320  0.7771  0.2129  0.4117
 4895WAT    EPW20302   6.475   4.837   1.398  0.6692 -0.2676  0.3970
 4896WAT      O20303   5.244   4.314   1.572  0.2572  0.1068  0.1307
 4896WAT     H120304   5.185   4.331   1.510 -0.0744  1.9377  0.8687
 4896WAT     H220305   5.316   4.293   1.528 -0.6031 -1.0285 -0.8066
 4896WAT    EPW20306   5.246   4.313   1.557  0.0811  0.2095  0.1013
 4897WAT      O20307   5.498   2.986   3.422  0.3448 -0.5144 -0.3643
 4897WAT     H120308   5.542   3.035   3.363  0.5969 -1.1495 -0.7151
 4897WAT     H220309   5.461   3.046   3.474 -0.0142  0.0664 -1.2636
 4897WAT    EPW20310   5.499   3.002   3.421  0.3290 -0.5224 -0.5489
 4898WAT      O20311   5.434   4.641   2.852  0.0510  0.1077  0.2634
 4898WAT     H120312   5.485   4.707   2.877 -0.9125  0.5729  1.0591
 4898WAT     H220313   5.489   4.586   2.812  1.2696  0.3092  1.6028
 4898WAT    EPW20314   5.450   4.643   2.850  0.0887  0.2062  0.5788
 4899WAT      O20315   5.173   3.651   3.159  0.2527  0.1677 -0.7591
 4899WAT     H120316   5.133   3.728   3.168  1.3630  0.7235 -0.3755
 4899WAT     H220317   5.122   3.596   3.203  0.2686  0.9929  0.3428
 4899WAT    EPW20318   5.160   3.654   3.167  0.4191  0.3717 -0.5396
 4900WAT      O20319   5.760   4.251   0.913 -0.1576 -0.6287 -0.4382
 4900WAT     H120320   5.824   4.240   0.972 -0.7578 -0.2693  0.2851
 4900WAT     H220321   5.689   4.223   0.954 -0.2924 -2.3159 -1.7152
 4900WAT    EPW20322   5.759   4.245   0.928 -0.2661 -0.8248 -0.5200
 4901WAT      O20323   4.623   4.792   2.860  0.4534 -0.4772  0.0996
 4901WAT     H120324   4.642   4.707   2.860 -0.2088 -0.6312  0.7669
 4901WAT     H220325   4.536   4.794   2.860  0.4179  0.2143 -1.7744
 4901WAT    EPW20326   4.613   4.780   2.860  0.3503 -0.3978 -0.0787
 4902WAT      O20327   5.348   2.579   2.455  0.0992 -0.2146 -0.0733
 4902WAT     H120328   5.354   2.529   2.526  0.0186 -1.1168 -0.6864
 4902WAT     H220329   5.266   2.609   2.458  0.0420 -0.3920  0.1232
 4902WAT    EPW20330   5.337   2.576   2.466  0.0788 -0.3741 -0.1348
 4903WAT      O20331   4.693   4.315   4.319  0.3787  0.2369  0.0208
 4903WAT     H120332   4.755   4.289   4.263  0.4559  1.2992 -0.4118
 4903WAT     H220333   4.671   4.394   4.290 -0.0950  0.5117  1.0775
 4903WAT    EPW20334   4.699   4.323   4.307  0.3201  0.4345  0.1130
 4904WAT      O20335   5.001   2.822   0.558  0.1502  0.7365 -0.5024
 4904WAT     H120336   5.009   2.841   0.643  1.1823 -0.5097 -0.2917
 4904WAT     H220337   4.926   2.778   0.554 -0.9481  2.5409 -0.5937
 4904WAT    EPW20338   4.991   2.818   0.570  0.1404  0.8190 -0.4848
 4905WAT      O20339   4.811   4.535   3.413 -0.3723 -0.7548 -0.4623
 4905WAT     H120340   4.871   4.476   3.393  0.2055 -0.7508  1.1768
 4905WAT     H220341   4.788   4.568   3.335  2.1720 -0.3175 -1.0966
 4905WAT    EPW20342   4.816   4.531   3.398  0.0889 -0.6896 -0.3139
 4906WAT      O20343   5.466   3.502   1.793  0.2176 -0.5398  0.2925
 4906WAT     H120344   5.392   3.525   1.754  0.1572 -2.0301 -0.5531
 4906WAT     H220345   5.452   3.520   1.877 -0.8610 -0.2060  0.0520
 4906WAT    EPW20346   5.453   3.508   1.799  0.0494 -0.7107  0.1321
 4907WAT      O20347   5.063   6.352   3.156  0.3501  0.3484 -0.2980
 4907WAT     H120348   5.004   6.293   3.182 -0.9526  1.3238 -0.9084
 4907WAT     H220349   5.125   6.348   3.217  0.4596 -1.8422 -0.4850
 4907WAT    EPW20350   5.063   6.343   3.168  0.1739  0.1689 -0.4158
 4908WAT      O20351   5.203   4.901   3.395  0.3718  0.3732  0.3216
 4908WAT     H120352   5.286   4.890   3.371 -0.6341 -2.0764 -2.7301
 4908WAT     H220353   5.184   4.826   3.436 -0.1224  1.3494  1.9727
 4908WAT    EPW20354   5.212   4.888   3.397  0.1502  0.1555  0.1147
 4909WAT      O20355   6.225   1.839   3.299 -0.7200  0.2379 -0.6358
 4909WAT     H120356   6.152   1.812   3.260 -0.8085  0.3667 -0.5592
 4909WAT     H220357   6.197   1.881   3.371 -0.6109  0.9406 -0.9879
 4909WAT    EPW20358   6.210   1.841   3.304 -0.7169  0.3607 -0.6765
 4910WAT      O20359   4.896   4.190   2.525  0.2592  0.5396  0.1040
 4910WAT     H120360   4.976   4.203   2.559  0.7993  1.1742 -1.3342
 4910WAT     H220361   4.898   4.107   2.499  0.3841  0.4954  0.2540
 4910WAT    EPW20362   4.908   4.180   2.526  0.3574  0.6268 -0.0863
 4911WAT      O20363   5.519   2.563   2.236 -0.0078  0.1711 -0.1801
 4911WAT     H120364   5.513   2.478   2.217  0.2870  0.2056 -0.4347
 4911WAT     H220365   5.466   2.572   2.305  0.6458 -0.3966  0.4158
 4911WAT    EPW20366   5.510   2.552   2.243  0.1323  0.0923 -0.1297
 4912WAT      O20367   6.415   1.596   3.291 -0.2519  0.0535  0.3961
 4912WAT     H120368   6.451   1.606   3.370 -0.1254 -0.1796  0.3702
 4912WAT     H220369   6.355   1.658   3.288 -1.0386 -0.6357  1.1345
 4912WAT    EPW20370   6.411   1.606   3.302 -0.3494 -0.0827  0.5014
 4913WAT      O20371   6.111   4.522   4.157  0.0864  0.4273 -0.2166
 4913WAT     H120372   6.123   4.459   4.217 -1.1995  0.7033  0.3797
 4913WAT     H220373   6.137   4.594   4.198  3.2600  0.1567 -1.5061
 4913WAT    EPW20374   6.117   4.523   4.172  0.3653  0.4281 -0.3190
 4914WAT      O20375   5.525   3.958   1.652 -0.7135 -0.3266  0.0889
 4914WAT     H120376   5.596   3.924   1.614  0.3388  1.4717  0.3263
 4914WAT     H220377   5.460   3.936   1.598  0.1532 -1.2356 -0.6254
 4914WAT    EPW20378   5.526   3.950   1.638 -0.4301 -0.1953  0.0185
 4915WAT      O20379   5.384   3.087   1.910  0.3051 -0.0560  0.2714
 4915WAT     H120380   5.366   3.161   1.953  0.0120  1.0635 -1.6576
 4915WAT     H220381   5.309   3.069   1.869  0.6577 -0.9117 -0.0254
 4915WAT    EPW20382   5.370   3.095   1.910  0.3139 -0.0171 -0.0574
 4916WAT      O20383   4.804   3.199   3.711 -0.2375  0.1295 -0.3587
 4916WAT     H120384   4.739   3.243   3.673 -0.4357 -1.7396 -2.3131
 4916WAT     H220385   4.782   3.116   3.702  1.1041 -0.5057  1.4766
 4916WAT    EPW20386   4.791   3.193   3.704 -0.0686 -0.2404 -0.3763
 4917WAT      O20387   4.804   3.624   4.529  0.0597  0.2025  0.0773
 4917WAT     H120388   4.865   3.587   4.580  0.5540  1.0143  0.0943
 4917WAT     H220389   4.740   3.644   4.585  0.4650  0.8043  0.3326
 4917WAT    EPW20390   4.804   3.621   4.545  0.1926  0.4113  0.1175
 4918WAT      O20391   4.699   2.332   1.428  0.0960  0.1042  0.4580
 4918WAT     H120392   4.777   2.298   1.410  0.3583  1.4183 -1.0636
 4918WAT     H220393   4.662   2.271   1.478  1.2764 -1.5219 -0.5385
 4918WAT    EPW20394   4.705   2.318   1.433  0.3091  0.0581  0.0860
 4919WAT      O20395   5.729   3.464   2.195 -0.1726  0.1698  0.5145
 4919WAT     H120396   5.660   3.515   2.209  0.1668  1.6494 -2.4309
 4919WAT     H220397   5.701   3.408   2.134  1.3357  1.3374 -1.3831
 4919WAT    EPW20398   5.715   3.463   2.188  0.1003  0.5608 -0.2009
 4920WAT      O20399   4.103   4.021   2.418 -0.3120 -0.5035 -0.4361
 4920WAT     H120400   4.039   3.994   2.471 -0.9474 -2.2044 -1.9588
 4920WAT     H220401   4.063   4.076   2.363 -0.1615 -0.4779 -0.5220
 4920WAT    EPW20402   4.088   4.025   2.417 -0.3836 -0.7510 -0.6737
 4921WAT      O20403   5.282   4.561   3.839  0.0997  0.0998  0.1506
 4921WAT     H120404   5.366   4.539   3.828  0.5011  1.9426 -0.8360
 4921WAT     H220405   5.262   4.528   3.917  1.5950 -0.7484  0.2141
 4921WAT    EPW20406   5.291   4.553   3.849  0.3799  0.2468  0.0142
 4922WAT      O20407   4.762   3.477   2.623 -0.6608 -0.4092 -0.9293
 4922WAT     H120408   4.775   3.431   2.696  0.1555 -1.3706 -1.6475
 4922WAT     H220409   4.785   3.421   2.559  2.0235  1.4389 -1.7951
 4922WAT    EPW20410   4.768   3.462   2.624 -0.1436 -0.2782 -1.1633
 4923WAT      O20411   4.701   4.398   2.402 -0.1565 -0.1503 -0.3477
 4923WAT     H120412   4.749   4.343   2.450 -0.8936 -1.5428 -1.1572
 4923WAT     H220413   4.701   4.471   2.449 -1.6411 -1.7153  2.3361
 4923WAT    EPW20414   4.708   4.401   2.416 -0.4847 -0.5872 -0.0709
 4924WAT      O20415   5.025   2.550   3.936  0.1132  0.5462  0.6039
 4924WAT     H120416   5.017   2.559   3.849 -0.8806 -0.7787  0.5315
 4924WAT     H220417   5.099   2.505   3.946  0.4694  1.0953  0.4823
 4924WAT    EPW20418   5.035   2.545   3.925  0.0190  0.4316  0.5753
 4925WAT      O20419   4.345   3.784   4.243 -0.5441 -0.4446 -0.5603
 4925WAT     H120420   4.341   3.841   4.177 -1.0559  0.9472  0.6194
 4925WAT     H220421   4.368   3.833   4.311 -0.6946 -1.7201  0.4412
 4925WAT    EPW20422   4.348   3.799   4.243 -0.6420 -0.4274 -0.2381
 4926WAT      O20423   4.472   4.337   2.246 -0.2040 -0.2557 -0.2027
 4926WAT     H120424   4.544   4.367   2.284  0.8155 -0.7431 -1.6801
 4926WAT     H220425   4.451   4.266   2.292 -1.6164  1.5627  2.2090
 4926WAT    EPW20426   4.479   4.331   2.258 -0.2620 -0.0591 -0.0647
 4927WAT      O20427   5.489   4.914   1.901 -0.7013  0.7170 -0.7665
 4927WAT     H120428   5.553   4.870   1.860 -0.6667  0.8736 -0.8841
 4927WAT     H220429   5.512   4.997   1.889  0.0475  0.7551  0.7491
 4927WAT    EPW20430   5.502   4.920   1.893 -0.5856  0.7458 -0.5600
 4928WAT      O20431   4.330   4.369   2.550  0.0921  0.1577  0.0898
 4928WAT     H120432   4.388   4.395   2.611 -0.4679 -1.1209  1.2023
 4928WAT     H220433   4.314   4.286   2.571 -1.3844  0.1838 -0.8202
 4928WAT    EPW20434   4.337   4.361   2.563 -0.2087 -0.0274  0.1197
 4929WAT      O20435   4.946   3.937   2.007  0.5825  0.3659  0.5606
 4929WAT     H120436   5.026   3.972   1.998  0.4969  0.4377  0.0479
 4929WAT     H220437   4.914   3.938   1.926  0.3921 -0.4637  0.6206
 4929WAT    EPW20438   4.953   3.942   1.994  0.5417  0.2540  0.4937
 4930WAT      O20439   4.435   3.308   4.082  0.0645  0.2914  0.6537
 4930WAT     H120440   4.422   3.375   4.028  2.2882  1.0613  0.9603
 4930WAT     H220441   4.397   3.333   4.156 -0.8751  0.2985  0.1795
 4930WAT    EPW20442   4.428   3.321   4.085  0.2542  0.4062  0.6289
 4931WAT      O20443   4.121   5.406   3.156 -0.6635  0.1732 -0.4591
 4931WAT     H120444   4.100   5.326   3.129 -0.0308 -0.3703  0.5711
 4931WAT     H220445   4.083   5.411   3.235  2.0197 -0.4473  1.0103
 4931WAT    EPW20446   4.112   5.395   3.164 -0.1737  0.0013 -0.0899
 4932WAT      O20447   5.559   3.167   2.847  0.3909  0.4279 -0.3798
 4932WAT     H120448   5.625   3.113   2.867 -0.1409  0.4818  1.7947
 4932WAT     H220449   5.555   3.163   2.760  2.4896 -0.4785 -0.5069
 4932WAT    EPW20450   5.568   3.158   2.838  0.6224  0.3020 -0.0774
 4933WAT      O20451   4.477   3.903   2.964  0.3167  0.4513 -0.2449
 4933WAT     H120452   4.497   3.921   3.047  0.5606 -0.0529 -0.1892
 4933WAT     H220453   4.394   3.874   2.970  0.3559  0.3527 -0.1652
 4933WAT    EPW20454   4.468   3.901   2.977  0.3585  0.3623 -0.2249
 4934WAT      O20455   5.325   2.864   3.176  0.6624  0.2481 -0.0961
 4934WAT     H120456   5.315   2.783   3.207 -0.5135  0.4123 -0.0198
 4934WAT     H220457   5.368   2.905   3.240 -0.6766  0.2599  0.8374
 4934WAT    EPW20458   5.330   2.858   3.190  0.2909  0.2741  0.0531
 4935WAT      O20459   4.909   4.224   4.920  0.2081  0.2640 -0.3794
 4935WAT     H120460   4.984   4.240   4.960  0.6645 -0.3493 -0.9621
 4935WAT     H220461   4.868   4.169   4.974  0.0024  0.9000  0.1213
 4935WAT    EPW20462   4.914   4.218   4.933  0.2451  0.2674 -0.3915
 4936WAT      O20463   4.613   3.967   2.654 -0.2034  0.2774 -0.1360
 4936WAT     H120464   4.605   3.936   2.735 -1.8007 -1.0878 -0.7695
 4936WAT     H220465   4.653   3.902   2.611  0.7120  1.0248 -0.4466
 4936WAT    EPW20466   4.618   3.953   2.659 -0.3041  0.1861 -0.2754
 4937WAT      O20467   5.896   4.433   2.021 -0.3977  0.0883  0.3354
 4937WAT     H120468   5.904   4.428   2.107  0.8203  0.6562  0.2865
 4937WAT     H220469   5.811   4.446   2.008 -0.5054  0.5862  1.4909
 4937WAT    EPW20470   5.884   4.434   2.032 -0.2337  0.2458  0.4989
 4938WAT      O20471   5.545   2.809   3.755 -0.0949  0.2187 -0.0794
 4938WAT     H120472   5.502   2.733   3.749  0.2218  0.0566 -0.2875
 4938WAT     H220473   5.615   2.790   3.803  0.1971  0.2858 -0.4732
 4938WAT    EPW20474   5.549   2.795   3.761 -0.0050  0.2047 -0.1683
 4939WAT      O20475   4.993   3.328   3.050 -0.0794 -0.0844 -0.1168
 4939WAT     H120476   5.066   3.371   3.030 -1.0961  1.5880 -0.4547
 4939WAT     H220477   4.944   3.388   3.090 -1.8096 -0.7415 -1.1403
 4939WAT    EPW20478   4.997   3.343   3.053 -0.4852  0.0656 -0.3179
 4940WAT      O20479   5.662   4.370   3.259 -0.0042 -0.1579  0.0918
 4940WAT     H120480   5.673   4.291   3.295 -1.1190 -0.5524 -0.4109
 4940WAT     H220481   5.694   4.360   3.179 -0.8449 -0.3191 -0.2249
 4940WAT    EPW20482   5.669   4.357   3.253 -0.2931 -0.2400 -0.0293
 4941WAT      O20483   5.696   2.178   4.255  0.4071  0.0728 -0.2945
 4941WAT     H120484   5.672   2.167   4.171  0.2257 -1.4350 -0.0810
 4941WAT     H220485   5.690   2.264   4.267  0.4219  0.3227 -1.8268
 4941WAT    EPW20486   5.691   2.189   4.244  0.3825 -0.1130 -0.4893
 4942WAT      O20487   6.163   3.925   3.640  0.3154  0.2643  0.5044
 4942WAT     H120488   6.177   3.989   3.583  2.2460 -0.7310 -0.2161
 4942WAT     H220489   6.192   3.957   3.716 -1.3219  1.2103  0.7894
 4942WAT    EPW20490   6.169   3.939   3.643  0.3587  0.2570  0.4400
 4943WAT      O20491   5.465   6.157   1.337 -0.0094  0.7746 -0.4181
 4943WAT     H120492   5.409   6.201   1.287 -1.1833  0.0138  0.1628
 4943WAT     H220493   5.542   6.193   1.320 -0.8358  2.6386 -0.3852
 4943WAT    EPW20494   5.468   6.169   1.327 -0.3049  0.9376 -0.3274
 4944WAT      O20495   4.995   3.468   3.316 -0.1776 -0.1389 -0.1059
 4944WAT     H120496   5.026   3.406   3.369 -0.5089 -1.3780 -1.2972
 4944WAT     H220497   4.934   3.508   3.364  2.4593  1.7502  1.9653
 4944WAT    EPW20498   4.990   3.465   3.331  0.1630 -0.0429  0.0241
 4945WAT      O20499   5.463   3.606   2.733 -0.0054 -0.3692  0.6578
 4945WAT     H120500   5.448   3.547   2.671 -0.3979 -0.7594  1.1178
 4945WAT     H220501   5.427   3.678   2.702  0.9276 -0.2231 -0.1425
 4945WAT    EPW20502   5.456   3.608   2.720  0.0744 -0.4053  0.6075
 4946WAT      O20503   5.875   5.182   1.968  0.5763  0.0589  0.5340
 4946WAT     H120504   5.932   5.235   1.929  2.4059 -2.4009 -0.3649
 4946WAT     H220505   5.874   5.111   1.917 -0.4201 -1.4900  2.5546
 4946WAT    EPW20506   5.883   5.179   1.955  0.6994 -0.5333  0.6997
 4947WAT      O20507   5.169   3.283   3.969 -0.0738  0.3146 -0.3552
 4947WAT     H120508   5.208   3.207   3.954  0.6369  1.1148 -3.0715
 4947WAT     H220509   5.084   3.265   3.961  0.0242 -0.3419 -0.0225
 4947WAT    EPW20510   5.162   3.269   3.966  0.0457  0.3359 -0.7073
 4948WAT      O20511   4.811   3.216   2.505 -0.3910 -0.7303 -0.6925
 4948WAT     H120512   4.725   3.202   2.502 -0.6546  0.8753 -1.4273
 4948WAT     H220513   4.844   3.135   2.504 -1.8745 -1.4130  0.2680
 4948WAT    EPW20514   4.803   3.202   2.505 -0.6491 -0.5939 -0.6592
 4949WAT      O20515   4.658   4.334   3.534  0.0246  0.4118 -0.0052
 4949WAT     H120516   4.694   4.375   3.466 -0.5327  0.8017 -0.0744
 4949WAT     H220517   4.601   4.280   3.497  1.6856 -1.4773 -0.0055
 4949WAT    EPW20518   4.655   4.332   3.518  0.1877  0.1903 -0.0155
 4950WAT      O20519   6.151   5.043   4.214  0.3919  0.3809  0.5657
 4950WAT     H120520   6.224   5.087   4.194 -0.9321  2.3292 -0.3232
 4950WAT     H220521   6.118   5.087   4.282 -0.0648 -0.3751  0.8565
 4950WAT    EPW20522   6.157   5.056   4.221  0.1289  0.5570  0.4773
 4951WAT      O20523   4.951   3.897   2.868 -0.1775 -0.4744 -0.0736
 4951WAT     H120524   4.884   3.852   2.834 -1.0884 -0.3278  1.4521
 4951WAT     H220525   4.937   3.894   2.954  1.2785  0.3611  0.2335
 4951WAT    EPW20526   4.939   3.890   2.876 -0.0970 -0.3293  0.1972
 4952WAT      O20527   4.363   4.088   2.587  0.0810  0.3362  0.4074
 4952WAT     H120528   4.432   4.055   2.629 -1.6746  0.4059  3.6638
 4952WAT     H220529   4.350   4.031   2.521  1.0733 -1.7286  1.8891
 4952WAT    EPW20530   4.372   4.075   2.583 -0.0318  0.0415  1.1073
 4953WAT      O20531   5.257   4.531   1.755  0.4991 -0.8517 -0.5640
 4953WAT     H120532   5.255   4.472   1.691 -0.1326 -1.1381 -0.2893
 4953WAT     H220533   5.338   4.525   1.786  0.5692 -1.2674 -0.8192
 4953WAT    EPW20534   5.269   4.521   1.750  0.4161 -0.9554 -0.5611
 4954WAT      O20535   4.902   3.830   3.413  0.3307  0.4612 -0.3201
 4954WAT     H120536   4.874   3.748   3.423 -0.9454  1.0038  0.8975
 4954WAT     H220537   4.829   3.878   3.418  0.9349  1.6285 -1.9747
 4954WAT    EPW20538   4.887   3.825   3.415  0.2315  0.7138 -0.3847
 4955WAT      O20539   5.144   3.547   3.896  0.0349  0.7211 -0.0257
 4955WAT     H120540   5.146   3.463   3.918  0.5089  1.1497  1.7455
 4955WAT     H220541   5.160   3.546   3.810  0.5268 -0.9566  0.0424
 4955WAT    EPW20542   5.147   3.534   3.887  0.1776  0.5366  0.2460
 4956WAT      O20543   6.513   4.673   2.332 -0.0402 -0.3015 -0.1682
 4956WAT     H120544   6.504   4.715   2.408 -0.9422 -2.1070  0.7962
 4956WAT     H220545   6.431   4.667   2.302  0.1556 -0.7211 -0.6310
 4956WAT    EPW20546   6.499   4.678   2.339 -0.1446 -0.6302 -0.0941
 4957WAT      O20547   6.755   3.029   0.658 -0.2426 -0.4612  0.4880
 4957WAT     H120548   6.820   3.064   0.612 -1.1707  1.6812  0.7300
 4957WAT     H220549   6.791   2.958   0.693  1.2795 -0.6139 -1.2435
 4957WAT    EPW20550   6.770   3.023   0.656 -0.1548 -0.1673  0.2680
 4958WAT      O20551   5.208   3.806   2.835 -0.0005 -0.0192  0.0448
 4958WAT     H120552   5.131   3.845   2.849  0.6768  1.2129  0.4338
 4958WAT     H220553   5.194   3.760   2.762 -0.8684  0.8489 -0.3638
 4958WAT    EPW20554   5.195   3.805   2.826 -0.0287  0.2911  0.0419
 4959WAT      O20555   4.840   3.873   3.152  0.8223 -0.8226  0.0584
 4959WAT     H120556   4.758   3.900   3.164  1.1088  0.7739 -1.2319
 4959WAT     H220557   4.871   3.863   3.233 -0.1089  0.2684  0.5731
 4959WAT    EPW20558   4.833   3.875   3.166  0.7271 -0.4256 -0.0561
 4960WAT      O20559   5.290   4.356   3.344 -0.0134  0.4170 -0.4479
 4960WAT     H120560   5.334   4.281   3.341 -0.5512 -0.1336  2.2578
 4960WAT     H220561   5.347   4.416   3.316  0.4840 -0.9333 -2.4884
 4960WAT    EPW20562   5.305   4.354   3.339 -0.0193  0.1362 -0.3496
 4961WAT      O20563   6.108   4.530   4.552  0.0138  0.0325 -0.3230
 4961WAT     H120564   6.099   4.444   4.539 -0.5209  0.0666 -0.2130
 4961WAT     H220565   6.194   4.541   4.557  0.0771 -0.5347 -0.0774
 4961WAT    EPW20566   6.119   4.519   4.551 -0.0559 -0.0463 -0.2705
 4962WAT      O20567   5.344   4.680   4.573 -0.3566  0.1815 -0.3133
 4962WAT     H120568   5.372   4.762   4.584 -3.0761  1.4406 -1.8509
 4962WAT     H220569   5.407   4.642   4.526  1.2208  1.1362  0.9203
 4962WAT    EPW20570   5.358   4.686   4.568 -0.5253  0.5085 -0.3582
 4963WAT      O20571   4.998   3.619   1.871  0.1872 -0.0462 -0.0774
 4963WAT     H120572   4.913   3.616   1.889  0.2082  0.0237  0.0304
 4963WAT     H220573   5.002   3.588   1.789  0.1861 -1.1295  0.3172
 4963WAT    EPW20574   4.986   3.614   1.861  0.1901 -0.1959 -0.0032
 4964WAT      O20575   3.895   4.735   3.938  0.2087  0.2797 -0.3140
 4964WAT     H120576   3.918   4.667   3.988 -0.0063 -0.5637 -1.3383
 4964WAT     H220577   3.954   4.796   3.958  0.7254 -0.3828  0.2339
 4964WAT    EPW20578   3.907   4.734   3.948  0.2533  0.0572 -0.3844
 4965WAT      O20579   5.620   3.067   4.494 -0.2207  0.3097 -0.4927
 4965WAT     H120580   5.564   3.061   4.560 -1.0419 -0.3235 -1.2166
 4965WAT     H220581   5.619   2.987   4.459  1.1051  0.3036 -0.5497
 4965WAT    EPW20582   5.612   3.054   4.498 -0.1461  0.2153 -0.6081
 4966WAT      O20583   6.238   5.319   3.487  0.5972 -0.2711  0.2257
 4966WAT     H120584   6.165   5.279   3.512 -0.0505  0.1560 -0.8840
 4966WAT     H220585   6.256   5.282   3.410  1.8284 -0.6942  0.6834
 4966WAT    EPW20586   6.230   5.307   3.479  0.6834 -0.2705  0.1294
 4967WAT      O20587   4.911   3.863   3.781  0.3162  0.2777 -0.3002
 4967WAT     H120588   4.851   3.871   3.718 -0.0432  0.6992  0.0850
 4967WAT     H220589   4.960   3.796   3.755  0.2985  0.5805 -1.1301
 4967WAT    EPW20590   4.910   3.854   3.768  0.2605  0.3847 -0.3659
 4968WAT      O20591   5.555   5.408   0.862  0.6372  0.3871 -0.3800
 4968WAT     H120592   5.563   5.328   0.895 -0.5003 -0.3143 -1.7281
 4968WAT     H220593   5.615   5.454   0.906  0.8139 -1.0205  0.9283
 4968WAT    EPW20594   5.565   5.403   0.873  0.4953  0.0756 -0.3859
 4969WAT      O20595   5.468   4.836   2.206 -0.3945 -0.0721 -0.5783
 4969WAT     H120596   5.485   4.816   2.123  0.0166  0.2031 -0.5686
 4969WAT     H220597   5.533   4.891   2.227 -1.0577  0.6555 -0.3850
 4969WAT    EPW20598   5.480   4.841   2.197 -0.4317  0.0760 -0.5483
 4970WAT      O20599   4.940   2.782   2.729 -0.1556  0.4208 -0.2626
 4970WAT     H120600   4.930   2.825   2.804  0.7840  1.2247 -0.5716
 4970WAT     H220601   4.914   2.840   2.669  0.0556  0.1493 -0.6188
 4970WAT    EPW20602   4.935   2.797   2.731  0.0144  0.4995 -0.3608
 4971WAT      O20603   4.851   1.530   3.644 -0.1880  0.3956  0.2062
 4971WAT     H120604   4.859   1.467   3.585 -1.3742 -0.5813  1.0343
 4971WAT     H220605   4.909   1.590   3.618 -1.8324  0.8621 -2.9927
 4971WAT    EPW20606   4.861   1.529   3.631 -0.6062  0.3202 -0.1440
 4972WAT      O20607   4.217   4.597   2.421 -0.0580 -0.0451 -0.2250
 4972WAT     H120608   4.223   4.658   2.483  2.1438 -0.8858  0.4949
 4972WAT     H220609   4.247   4.525   2.460 -3.4372 -1.9215 -0.7557
 4972WAT    EPW20610   4.222   4.595   2.436 -0.2319 -0.4465 -0.1971
 4973WAT      O20611   6.630   3.202   3.074  0.2289 -0.0102 -0.2122
 4973WAT     H120612   6.556   3.157   3.067 -0.6025  1.0471  1.0719
 4973WAT     H220613   6.673   3.184   3.001 -1.9393  0.4518 -1.6936
 4973WAT    EPW20614   6.626   3.193   3.062 -0.2142  0.2143 -0.2413
 4974WAT      O20615   5.619   4.142   1.876  0.1235  0.4330  0.0571
 4974WAT     H120616   5.692   4.101   1.902  1.4433  1.6018 -1.6062
 4974WAT     H220617   5.569   4.077   1.846  1.2168 -0.2370 -0.3869
 4974WAT    EPW20618   5.622   4.126   1.875  0.4799  0.5066 -0.2542
 4975WAT      O20619   6.569   5.613   2.463 -0.2924 -0.1209 -0.0695
 4975WAT     H120620   6.609   5.573   2.529 -0.6522  0.5060  0.5465
 4975WAT     H220621   6.514   5.552   2.431 -1.3846  0.0802  1.3339
 4975WAT    EPW20622   6.567   5.598   2.468 -0.5069  0.0014  0.2288
 4976WAT      O20623   3.402   4.452   1.490 -0.0685  0.5565 -0.5482
 4976WAT     H120624   3.317   4.433   1.497  0.2214 -0.3840  1.0035
 4976WAT     H220625   3.441   4.376   1.507  1.0928  1.2353 -0.0521
 4976WAT    EPW20626   3.395   4.438   1.493  0.1459  0.5179 -0.2457
 4977WAT      O20627   4.716   5.183   1.828 -0.3101 -0.7391 -0.3828
 4977WAT     H120628   4.780   5.243   1.825  0.1604 -0.9603  2.4981
 4977WAT     H220629   4.747   5.117   1.781  0.0992  0.4147 -1.7932
 4977WAT    EPW20630   4.730   5.182   1.821 -0.1801 -0.6013 -0.1655
 4978WAT      O20631   5.097   3.389   2.654  0.7954  0.2423 -0.2434
 4978WAT     H120632   5.078   3.304   2.663  0.8267  0.2800  0.2326
 4978WAT     H220633   5.052   3.413   2.584 -0.3885  0.1612  0.4610
 4978WAT    EPW20634   5.087   3.380   2.645  0.6252  0.2359 -0.0690
 4979WAT      O20635   5.976   3.855   2.850  0.2296 -0.1492 -0.4597
 4979WAT     H120636   5.983   3.833   2.766 -1.4162 -1.8455 -0.2008
 4979WAT     H220637   6.042   3.814   2.888 -1.1423 -2.5287 -0.4325
 4979WAT    EPW20638   5.986   3.846   2.843 -0.2162 -0.7513 -0.4174
 4980WAT      O20639   4.613   4.547   4.169 -0.3087  0.4376  0.0735
 4980WAT     H120640   4.556   4.591   4.218  0.1673 -0.2828  1.3089
 4980WAT     H220641   4.563   4.509   4.108 -1.2805 -0.7506  1.5381
 4980WAT    EPW20642   4.597   4.548   4.167 -0.3819  0.1557  0.4723
 4981WAT      O20643   5.613   3.908   3.384 -0.4222  0.1357 -0.2114
 4981WAT     H120644   5.557   3.908   3.450 -1.3264 -1.7581 -0.9141
 4981WAT     H220645   5.687   3.938   3.419 -1.3001  0.6712  1.2417
 4981WAT    EPW20646   5.616   3.912   3.399 -0.6855 -0.0649 -0.1006
 4982WAT      O20647   6.324   3.661   2.465  0.1083  0.7948  0.1363
 4982WAT     H120648   6.402   3.625   2.480 -0.3878 -0.0500  0.8178
 4982WAT     H220649   6.329   3.739   2.505  1.0683  1.3646 -1.0436
 4982WAT    EPW20650   6.336   3.667   2.473  0.1768  0.7542  0.0627
 4983WAT      O20651   4.442   4.002   3.763  0.3100 -0.1800 -0.1782
 4983WAT     H120652   4.413   3.967   3.837  0.5622 -0.2745 -0.1233
 4983WAT     H220653   4.480   3.934   3.722 -1.6433 -0.6590 -1.3590
 4983WAT    EPW20654   4.443   3.987   3.768  0.0587 -0.2647 -0.3445
 4984WAT      O20655   4.663   3.711   2.863  0.3958  0.1962  0.6418
 4984WAT     H120656   4.608   3.755   2.913 -0.5083 -0.4786  0.2633
 4984WAT     H220657   4.612   3.672   2.804  1.3414  0.2134 -0.2368
 4984WAT    EPW20658   4.647   3.712   2.861  0.4019  0.0991  0.4561
 4985WAT      O20659   4.959   5.161   3.212  0.0831  0.0257 -0.2224
 4985WAT     H120660   4.875   5.148   3.230  0.6013 -1.7967  1.2383
 4985WAT     H220661   4.966   5.137   3.128 -0.8406  0.2301 -0.3635
 4985WAT    EPW20662   4.948   5.155   3.202  0.0232 -0.2133 -0.0275
 4986WAT      O20663   2.944   5.763   3.019  0.1226 -0.3914  0.2113
 4986WAT     H120664   2.868   5.778   2.979 -0.2787  1.9831  1.6659
 4986WAT     H220665   2.929   5.691   3.065 -1.9901  1.0043  1.9331
 4986WAT    EPW20666   2.930   5.755   3.019 -0.2488  0.1655  0.6805
 4987WAT      O20667   4.296   4.387   2.003 -0.0581  0.1072  0.1104
 4987WAT     H120668   4.232   4.415   2.055  0.7183  0.7286  0.7499
 4987WAT     H220669   4.345   4.337   2.055  0.9662  1.0704  0.1066
 4987WAT    EPW20670   4.294   4.384   2.018  0.2079  0.3413  0.2043
 4988WAT      O20671   6.257   4.859   2.649  0.8318  0.4251 -0.6922
 4988WAT     H120672   6.280   4.941   2.664 -2.1911  1.3307 -0.4280
 4988WAT     H220673   6.246   4.856   2.562 -1.5706  1.1259 -0.4694
 4988WAT    EPW20674   6.259   4.871   2.638  0.0303  0.6624 -0.6203
 4989WAT      O20675   4.852   4.250   4.096 -0.1407 -0.1708 -0.6936
 4989WAT     H120676   4.876   4.283   4.020 -1.1890  0.6266 -0.6953
 4989WAT     H220677   4.802   4.182   4.075 -0.8190  0.3362 -0.7241
 4989WAT    EPW20678   4.849   4.245   4.082 -0.3957  0.0219 -0.6984
 4990WAT      O20679   5.803   4.609   2.820 -0.0380 -0.6498 -0.2904
 4990WAT     H120680   5.856   4.660   2.773 -0.2583 -0.0659  0.0777
 4990WAT     H220681   5.791   4.655   2.894 -1.0953 -0.7434 -0.3904
 4990WAT    EPW20682   5.809   4.624   2.824 -0.2268 -0.5774 -0.2508
 4991WAT      O20683   4.398   1.650   3.719  0.5397  0.0841  0.3358
 4991WAT     H120684   4.446   1.657   3.792 -0.2909 -0.2604  0.9375
 4991WAT     H220685   4.394   1.731   3.689  1.3953  0.1374  0.3428
 4991WAT    EPW20686   4.405   1.663   3.725  0.5434  0.0411  0.4257
 4992WAT      O20687   6.819   3.245   1.880  0.3604 -0.2389 -0.1500
 4992WAT     H120688   6.856   3.172   1.911  2.0153  0.8989  0.6502
 4992WAT     H220689   6.878   3.307   1.895 -1.0802  1.3343 -0.6311
 4992WAT    EPW20690   6.833   3.243   1.887  0.3921  0.1616 -0.1028
 4993WAT      O20691   5.716   1.831   3.724 -0.4074 -0.0412 -0.0464
 4993WAT     H120692   5.732   1.865   3.802  2.7476 -0.2700 -0.4446
 4993WAT     H220693   5.711   1.745   3.739 -1.2764  0.0188  0.0572
 4993WAT    EPW20694   5.717   1.823   3.738 -0.0697 -0.0661 -0.0899
 4994WAT      O20695   4.979   3.796   1.513 -0.0622 -0.3479 -0.0202
 4994WAT     H120696   4.948   3.845   1.579 -0.8572 -0.7988 -0.0441
 4994WAT     H220697   5.043   3.750   1.550 -0.2196 -0.2838  0.3366
 4994WAT    EPW20698   4.984   3.797   1.528 -0.2029 -0.4050  0.0290
 4995WAT      O20699   5.842   3.490   0.576 -0.2229  0.2429  0.1493
 4995WAT     H120700   5.905   3.532   0.620  0.5472  0.3188 -0.9926
 4995WAT     H220701   5.780   3.551   0.568  0.5458  0.9465 -0.7692
 4995WAT    EPW20702   5.842   3.506   0.581  0.0044  0.3580 -0.1550
 4996WAT      O20703   4.772   3.546   2.025 -0.3813  0.5455 -0.6255
 4996WAT     H120704   4.716   3.608   2.004  1.3065  1.6920 -1.9780
 4996WAT     H220705   4.824   3.584   2.084 -0.4293 -0.2107 -0.0638
 4996WAT    EPW20706   4.772   3.561   2.031 -0.1391  0.6031 -0.7423
 4997WAT      O20707   4.333   4.068   2.152  0.2184 -0.0624  0.0264
 4997WAT     H120708   4.305   4.018   2.217 -0.6253  1.3681  0.8289
 4997WAT     H220709   4.262   4.077   2.101  0.4534  0.0340 -0.2871
 4997WAT    EPW20710   4.318   4.062   2.154  0.1285  0.1632  0.0987
 4998WAT      O20711   4.885   4.114   7.301  0.0392 -0.0252  0.3863
 4998WAT     H120712   4.799   4.121   7.295 -0.0855 -1.9791 -0.8563
 4998WAT     H220713   4.914   4.146   7.225  0.1316 -2.2533 -0.6004
 4998WAT    EPW20714   4.877   4.120   7.289  0.0344 -0.6429  0.0570
 4999WAT      O20715   4.178   4.232   6.871 -0.2535  0.3403 -0.1353
 4999WAT     H120716   4.120   4.183   6.914 -1.2418  0.9328 -0.7495
 4999WAT     H220717   4.253   4.218   6.914 -0.9989  0.1466  1.1517
 4999WAT    EPW20718   4.181   4.223   6.884 -0.5096  0.3992 -0.0359
 5000WAT      O20719   5.255   2.561   0.118  0.2423 -0.2601 -0.2395
 5000WAT     H120720   5.169   2.571   0.116 -0.1699 -2.2853  2.1924
 5000WAT     H220721   5.278   2.591   0.197  2.0358  1.4703 -1.3067
 5000WAT    EPW20722   5.246   2.567   0.129  0.4464 -0.3037 -0.0379
 5001WAT      O20723   4.282   4.665   1.539 -0.4529  0.0322 -1.1947
 5001WAT     H120724   4.299   4.591   1.582  1.1931  0.9129 -0.2380
 5001WAT     H220725   4.235   4.711   1.597 -1.2703 -0.1451 -1.6992
 5001WAT    EPW20726   4.277   4.661   1.554 -0.3305  0.1361 -1.1279
 5002WAT      O20727   4.316   4.695   0.584 -0.1319 -0.1096  0.7587
 5002WAT     H120728   4.321   4.609   0.591  0.2953 -0.2537 -1.0495
 5002WAT     H220729   4.369   4.724   0.648  0.4495 -1.1917  0.7778
 5002WAT    EPW20730   4.325   4.687   0.595  0.0171 -0.2907  0.4944
 5003WAT      O20731   4.674   1.073   1.213  0.1837 -0.2637 -0.8581
 5003WAT     H120732   4.588   1.060   1.206  0.4209 -1.5113 -1.7504
 5003WAT     H220733   4.695   1.035   1.289 -0.3099  1.7056  0.3407
 5003WAT    EPW20734   4.664   1.066   1.223  0.1458 -0.1571 -0.8128
 5004WAT      O20735   3.946   3.408   0.012 -0.1923 -0.4763 -0.7121
 5004WAT     H120736   3.923   3.482  -0.027 -0.5558  0.2118  0.7458
 5004WAT     H220737   3.950   3.350  -0.054 -1.6072  0.4254 -1.6421
 5004WAT    EPW20738   3.943   3.410  -0.003 -0.4550 -0.2414 -0.6341
 5005WAT      O20739   2.678   5.028   0.545 -0.6816 -0.5104  0.1736
 5005WAT     H120740   2.669   4.941   0.544 -0.0249 -0.6035 -1.2987
 5005WAT     H220741   2.757   5.040   0.580 -1.1498 -0.4324  1.2407
 5005WAT    EPW20742   2.689   5.017   0.550 -0.6537 -0.5127  0.1137
 5006WAT      O20743   4.075   5.550   1.935  0.1350 -0.0832  0.0614
 5006WAT     H120744   4.134   5.597   1.979 -0.7842  0.6545  0.5466
 5006WAT     H220745   4.030   5.510   1.997 -0.0904 -0.3880 -0.2923
 5006WAT    EPW20746   4.077   5.551   1.950 -0.0341 -0.0193  0.0808
 5007WAT      O20747   3.949   3.489   1.235  0.3897 -0.4988  0.2307
 5007WAT     H120748   3.981   3.450   1.307 -1.2006 -1.1144  0.6450
 5007WAT     H220749   3.875   3.446   1.220  0.8025 -0.5254 -1.9464
 5007WAT    EPW20750   3.943   3.477   1.244  0.2157 -0.5937 -0.0297
 5008WAT      O20751   4.439   1.944   2.533  0.4796  0.1689  0.0395
 5008WAT     H120752   4.384   1.981   2.590 -1.1476 -0.8363 -0.7871
 5008WAT     H220753   4.466   2.012   2.485 -0.8207  0.6043 -0.1342
 5008WAT    EPW20754   4.435   1.960   2.534  0.0472  0.0847 -0.1083
 5009WAT      O20755   5.706   4.031   0.267  0.5764 -0.5038  0.1614
 5009WAT     H120756   5.623   4.030   0.295 -0.1495 -1.5805 -1.8766
 5009WAT     H220757   5.707   3.973   0.202  2.5661  0.5833 -0.8698
 5009WAT    EPW20758   5.694   4.023   0.262  0.7631 -0.5023 -0.2920
 5010WAT      O20759   4.184   2.545   7.546  0.5368  0.0327  0.5130
 5010WAT     H120760   4.140   2.593   7.488  0.0923 -0.0582  0.7713
 5010WAT     H220761   4.181   2.593   7.618 -0.2585 -0.5471  0.8878
 5010WAT    EPW20762   4.177   2.559   7.548  0.3536 -0.0664  0.6065
 5011WAT      O20763   3.930   5.136   1.764 -0.4544 -0.2286  0.5715
 5011WAT     H120764   3.880   5.200   1.735  0.1006  0.1866  0.5251
 5011WAT     H220765   3.874   5.084   1.806 -0.7523  0.8158  1.5118
 5011WAT    EPW20766   3.914   5.137   1.766 -0.4164 -0.0130  0.7035
 5012WAT      O20767   3.705   5.352   7.283 -0.2369  0.2139  0.0794
 5012WAT     H120768   3.743   5.377   7.357 -0.0344 -2.1608  0.8563
 5012WAT     H220769   3.655   5.284   7.306  2.1019 -2.6282 -2.2342
 5012WAT    EPW20770   3.703   5.345   7.297  0.1385 -0.5567 -0.1476
 5013WAT      O20771   5.046   2.849   1.324  0.0100  0.2892 -0.7913
 5013WAT     H120772   4.991   2.883   1.265  0.1946  0.5715 -0.7992
 5013WAT     H220773   5.074   2.776   1.285 -1.3364 -0.5401 -0.2668
 5013WAT    EPW20774   5.042   2.843   1.309 -0.1617  0.2084 -0.7150
 5014WAT      O20775   5.167   3.972   7.090 -0.7012 -0.1467  0.4966
 5014WAT     H120776   5.131   4.051   7.085  1.1277  0.6735 -0.5764
 5014WAT     H220777   5.251   3.987   7.076 -0.2228 -2.2395  0.8326
 5014WAT    EPW20778   5.174   3.986   7.087 -0.3604 -0.3347  0.3877
 5015WAT      O20779   5.732   3.222   1.449  0.0311  0.1951  0.2754
 5015WAT     H120780   5.780   3.293   1.433  0.7030  0.0520  1.5003
 5015WAT     H220781   5.666   3.252   1.497 -1.3345  0.4396 -1.6474
 5015WAT    EPW20782   5.729   3.237   1.454 -0.0714  0.2101  0.1723
 5016WAT      O20783   3.435   4.177   1.378  0.1019  0.3287  0.1803
 5016WAT     H120784   3.493   4.181   1.314 -1.2823 -1.0692 -1.2524
 5016WAT     H220785   3.449   4.099   1.414 -1.2178 -0.2890 -0.5738
 5016WAT    EPW20786   3.446   4.167   1.374 -0.2975  0.0309 -0.1427
 5017WAT      O20787   2.898   4.384   0.604  0.4390  0.5727 -0.1010
 5017WAT     H120788   2.894   4.307   0.564 -1.2990  1.0655 -0.9727
 5017WAT     H220789   2.834   4.379   0.663 -0.2595  1.6277 -0.7427
 5017WAT    EPW20790   2.888   4.372   0.607  0.0791  0.8013 -0.3246
 5018WAT      O20791   3.287   4.301   0.569 -0.2550 -0.5699 -0.0367
 5018WAT     H120792   3.331   4.229   0.547  0.2566  0.4360 -2.7382
 5018WAT     H220793   3.238   4.317   0.499 -1.6850  0.7679  1.1948
 5018WAT    EPW20794   3.286   4.293   0.556 -0.3907 -0.2237 -0.2539
 5019WAT      O20795   3.939   5.347   1.139  0.1590  0.1268  0.5086
 5019WAT     H120796   3.897   5.423   1.143 -2.0205 -0.8173 -2.0450
 5019WAT     H220797   3.895   5.296   1.195 -0.6248 -0.2001 -0.3917
 5019WAT    EPW20798   3.926   5.351   1.148 -0.2787 -0.0609 -0.0016
 5020WAT      O20799   4.581   3.389   0.710  0.0671 -0.2866 -0.6116
 5020WAT     H120800   4.622   3.397   0.634 -0.5258 -1.4763 -1.0790
 5020WAT     H220801   4.605   3.461   0.754  1.5271 -0.2764 -1.3727
 5020WAT    EPW20802   4.590   3.401   0.705  0.1952 -0.4609 -0.7931
 5021WAT      O20803   4.822   5.495   7.502  0.0865  0.4191  0.0183
 5021WAT     H120804   4.791   5.452   7.433 -3.0250 -0.0613  1.5393
 5021WAT     H220805   4.883   5.441   7.534 -1.3676 -1.3761 -0.0364
 5021WAT    EPW20806   4.827   5.481   7.496 -0.5879  0.0829  0.2349
 5022WAT      O20807   4.344   4.065   0.550 -0.2949  0.2146 -0.3445
 5022WAT     H120808   4.394   4.116   0.498  0.2229 -0.5501 -0.6228
 5022WAT     H220809   4.264   4.076   0.519  0.1123 -0.9096 -1.9423
 5022WAT    EPW20810   4.340   4.074   0.538 -0.1582 -0.0644 -0.6216
 5023WAT      O20811   4.502   2.710   0.244  0.1591  0.4607 -0.1019
 5023WAT     H120812   4.543   2.693   0.320  1.1471  1.6809 -0.3304
 5023WAT     H220813   4.530   2.647   0.191  1.7634  1.2394 -0.2382
 5023WAT    EPW20814   4.512   2.698   0.248  0.5421  0.7560 -0.1558
 5024WAT      O20815   6.006   4.588   1.675 -0.3264 -0.2497 -0.7224
 5024WAT     H120816   6.014   4.622   1.595  0.2645 -0.6522 -0.8468
 5024WAT     H220817   5.925   4.556   1.676 -1.2896  1.9911 -0.2425
 5024WAT    EPW20818   5.995   4.588   1.663 -0.3814  0.0219 -0.6699
 5025WAT      O20819   3.816   3.728   1.277 -0.0356 -0.0344  0.0693
 5025WAT     H120820   3.780   3.749   1.200  1.0313  0.5436 -0.2862
 5025WAT     H220821   3.839   3.645   1.267  0.3228  0.1116 -0.3229
 5025WAT    EPW20822   3.814   3.719   1.264  0.1750  0.0725 -0.0412
 5026WAT      O20823   4.095   5.207   0.934 -0.2198  0.0287 -0.1570
 5026WAT     H120824   4.045   5.204   0.863  0.8202  0.0572 -0.9109
 5026WAT     H220825   4.051   5.259   0.989 -0.9989  0.0553 -0.8003
 5026WAT    EPW20826   4.081   5.214   0.932 -0.1813  0.0368 -0.3634
 5027WAT      O20827   4.258   2.534   1.189 -0.0283 -0.2349  0.5011
 5027WAT     H120828   4.176   2.547   1.161  0.5346 -0.7266 -1.5406
 5027WAT     H220829   4.270   2.449   1.176  0.5776 -0.3009  1.4751
 5027WAT    EPW20830   4.247   2.524   1.183  0.1443 -0.3173  0.3434
 5028WAT      O20831   4.913   3.203   1.676 -0.4405 -0.1705  0.0524
 5028WAT     H120832   4.896   3.119   1.658  0.0950 -0.0969 -0.8978
 5028WAT     H220833   4.860   3.221   1.742 -0.6273 -1.2386  0.2177
 5028WAT    EPW20834   4.903   3.193   1.683 -0.3890 -0.3174 -0.0635
 5029WAT      O20835   4.197   3.074   0.145 -0.2708 -0.2537  0.1689
 5029WAT     H120836   4.243   3.147   0.131  1.3951 -0.9404  1.5377
 5029WAT     H220837   4.170   3.051   0.066  1.7428  0.2555 -0.7432
 5029WAT    EPW20838   4.200   3.081   0.131  0.2727 -0.2799  0.2363
 5030WAT      O20839   3.925   6.111   7.138 -0.5432 -0.6327  0.0593
 5030WAT     H120840   3.880   6.059   7.084 -2.3096  1.9960 -1.1988
 5030WAT     H220841   3.864   6.144   7.191  0.4933  0.2408  0.7492
 5030WAT    EPW20842   3.909   6.108   7.138 -0.6510 -0.1154 -0.0247
 5031WAT      O20843   5.135   4.084   1.690  0.2694 -0.0579  0.3616
 5031WAT     H120844   5.070   4.115   1.739 -1.4655 -1.6987 -0.7673
 5031WAT     H220845   5.182   4.156   1.670 -1.3788  1.2355  0.9247
 5031WAT    EPW20846   5.133   4.100   1.694 -0.2304 -0.1092  0.2780
 5032WAT      O20847   5.423   3.924   1.958  0.3361  0.0162 -0.2169
 5032WAT     H120848   5.346   3.891   1.934  0.2828 -0.0213  0.0037
 5032WAT     H220849   5.481   3.868   1.925  0.1820 -2.4805  3.3335
 5032WAT    EPW20850   5.420   3.911   1.949  0.3054 -0.3582  0.3402
 5033WAT      O20851   5.043   4.229   7.074 -0.0883 -0.9618 -0.4480
 5033WAT     H120852   5.060   4.227   6.988 -0.6033 -1.7815 -0.5371
 5033WAT     H220853   5.114   4.267   7.107 -0.6628  1.1318 -1.4200
 5033WAT    EPW20854   5.056   4.235   7.066 -0.2493 -0.7736 -0.6048
 5034WAT      O20855   4.000   3.630   1.577  0.4800 -0.2130 -0.1813
 5034WAT     H120856   3.921   3.596   1.564  0.3108  0.2387 -0.3730
 5034WAT     H220857   4.034   3.580   1.639 -0.3579  0.2137  0.6527
 5034WAT    EPW20858   3.993   3.618   1.584  0.3312 -0.0832 -0.0864
 5035WAT      O20859   3.971   2.891   1.134  0.8033 -0.2144  0.3603
 5035WAT     H120860   3.947   2.924   1.212 -1.0870  0.9203 -0.6216
 5035WAT     H220861   3.969   2.805   1.148 -1.1996 -0.0970  1.1816
 5035WAT    EPW20862   3.967   2.883   1.148  0.2282 -0.0294  0.3366
 5036WAT      O20863   4.105   6.350   1.109 -0.8472  0.1530  0.3265
 5036WAT     H120864   4.172   6.379   1.062 -2.5108  1.0771 -1.5947
 5036WAT     H220865   4.071   6.287   1.060 -1.8613  0.2476  0.8839
 5036WAT    EPW20866   4.110   6.345   1.095 -1.2428  0.3035  0.1250
 5037WAT      O20867   4.314   3.336   0.323 -0.9772  0.4118  0.4443
 5037WAT     H120868   4.271   3.318   0.397 -1.7439  1.3169  0.2403
 5037WAT     H220869   4.265   3.397   0.285 -0.0552  0.7078 -0.3214
 5037WAT    EPW20870   4.301   3.343   0.328 -0.9543  0.5892  0.3011
 5038WAT      O20871   5.247   4.986   2.308 -0.2197 -0.1250  0.0622
 5038WAT     H120872   5.190   4.927   2.337 -0.4049  0.6054  1.2544
 5038WAT     H220873   5.311   4.938   2.274 -0.4991 -1.0124  0.7621
 5038WAT    EPW20874   5.248   4.970   2.307 -0.2883 -0.1482  0.3417
 5039WAT      O20875   4.107   2.644   0.449 -0.5852  0.2118  0.1651
 5039WAT     H120876   4.112   2.725   0.417 -1.2042 -0.2407 -1.1024
 5039WAT     H220877   4.059   2.601   0.391 -2.1181 -0.5477  1.8862
 5039WAT    EPW20878   4.101   2.650   0.436 -0.9031  0.0328  0.2321
 5040WAT      O20879   6.069   4.274   1.887  0.0033  0.7059 -0.0994
 5040WAT     H120880   6.029   4.346   1.916 -1.4144  0.4734 -1.3647
 5040WAT     H220881   6.050   4.215   1.948 -2.1502  0.4578 -0.9182
 5040WAT    EPW20882   6.060   4.276   1.900 -0.5243  0.6349 -0.4073
 5041WAT      O20883   6.109   1.711   7.456 -0.0485  0.1258 -0.3508
 5041WAT     H120884   6.169   1.666   7.411 -0.7269 -2.2268  0.8826
 5041WAT     H220885   6.156   1.765   7.505  1.0314 -0.8621 -0.2506
 5041WAT    EPW20886   6.125   1.712   7.457  0.0108 -0.3677 -0.1538
 5042WAT      O20887   6.620   5.804   0.500 -0.2132  0.1684  0.0204
 5042WAT     H120888   6.652   5.870   0.453 -1.4313  2.8076  2.6260
 5042WAT     H220889   6.683   5.790   0.560 -0.0980 -0.8616 -0.3267
 5042WAT    EPW20890   6.634   5.811   0.502 -0.3761  0.4061  0.3540
 5043WAT      O20891   3.664   4.533   0.856  0.2991  0.5273  0.2055
 5043WAT     H120892   3.628   4.586   0.797 -0.0127  1.0454  0.8581
 5043WAT     H220893   3.606   4.532   0.921 -0.2147 -1.4378 -0.2043
 5043WAT    EPW20894   3.650   4.540   0.857  0.1771  0.3136  0.2414
 5044WAT      O20895   3.488   2.276   1.412 -0.0270  0.1050 -0.2387
 5044WAT     H120896   3.437   2.279   1.483  0.2258  0.3418 -0.0591
 5044WAT     H220897   3.512   2.192   1.407  0.1618  0.1329  0.1158
 5044WAT    EPW20898   3.484   2.264   1.422  0.0382  0.1441 -0.1598
 5045WAT      O20899   5.117   3.041   1.825  0.4183  0.3285  0.4022
 5045WAT     H120900   5.058   3.105   1.833  0.1243  0.0827  0.2081
 5045WAT     H220901   5.107   3.014   1.742  0.7947  0.2782  0.3710
 5045WAT    EPW20902   5.107   3.047   1.814  0.4304  0.2848  0.3689
 5046WAT      O20903   4.378   3.772   2.135 -0.6671  0.2753  0.1254
 5046WAT     H120904   4.406   3.824   2.199 -0.0009  0.1562 -0.0583
 5046WAT     H220905   4.420   3.801   2.065 -0.3278 -0.4675  0.0071
 5046WAT    EPW20906   4.388   3.784   2.134 -0.5186  0.1480  0.0808
 5047WAT      O20907   2.601   3.841   1.610 -0.0968  0.3912  0.1015
 5047WAT     H120908   2.514   3.838   1.618 -0.0657  0.3245  0.4095
 5047WAT     H220909   2.628   3.769   1.650  0.0953  0.3376 -0.1212
 5047WAT    EPW20910   2.592   3.830   1.617 -0.0638  0.3734  0.1141
 5048WAT      O20911   5.118   3.113   1.284  0.3133  0.0417  0.3303
 5048WAT     H120912   5.099   3.028   1.288 -2.4927  0.4706 -1.4001
 5048WAT     H220913   5.056   3.150   1.332  1.2289  1.2037  0.6719
 5048WAT    EPW20914   5.106   3.106   1.291  0.0341  0.2767  0.1251
 5049WAT      O20915   5.630   2.200   0.139  0.0561  0.3206 -0.5449
 5049WAT     H120916   5.619   2.116   0.122 -1.6003  0.7409 -1.7634
 5049WAT     H220917   5.554   2.224   0.174  1.0228  1.0165  1.1997
 5049WAT    EPW20918   5.617   2.191   0.142 -0.0458  0.4855 -0.4672
 5050WAT      O20919   2.380   4.377   1.935 -0.6095  0.2210  0.0719
 5050WAT     H120920   2.420   4.455   1.930 -1.6007  0.8032  0.9253
 5050WAT     H220921   2.447   4.321   1.942  0.0963  1.1175  0.8484
 5050WAT    EPW20922   2.396   4.381   1.935 -0.6517  0.4394  0.3127
 5051WAT      O20923   4.425   1.557   2.038 -0.6983 -0.2777 -0.0113
 5051WAT     H120924   4.470   1.515   1.977  0.7866 -0.2177  0.9977
 5051WAT     H220925   4.376   1.613   1.993 -0.2319 -0.7802 -1.1756
 5051WAT    EPW20926   4.424   1.559   2.022 -0.4101 -0.3431 -0.0342
 5052WAT      O20927   4.336   3.465   0.626 -0.0572  0.5117  0.3775
 5052WAT     H120928   4.418   3.450   0.652  0.3413  0.3546 -0.9438
 5052WAT     H220929   4.289   3.449   0.698  1.0120  0.0491  0.9938
 5052WAT    EPW20930   4.341   3.461   0.641  0.1596  0.4201  0.2734
 5053WAT      O20931   5.192   3.385   0.650  0.6876  0.5125  0.1635
 5053WAT     H120932   5.205   3.407   0.567 -0.2873  1.3834  0.2282
 5053WAT     H220933   5.266   3.344   0.672  1.1090  0.6047 -1.0123
 5053WAT    EPW20934   5.205   3.382   0.641  0.6058  0.6548 -0.0007
 5054WAT      O20935   4.657   5.056   7.854 -0.1892  0.2843 -0.0329
 5054WAT     H120936   4.738   5.082   7.875  0.2950 -1.8144  0.9376
 5054WAT     H220937   4.657   5.057   7.767  0.0261  2.6268 -0.0793
 5054WAT    EPW20938   4.669   5.060   7.845 -0.0859  0.3203  0.1036
 5055WAT      O20939   4.320   4.399   1.601 -0.3983  0.4319  0.0112
 5055WAT     H120940   4.251   4.351   1.623  0.6290 -1.7531 -1.2049
 5055WAT     H220941   4.361   4.411   1.677 -1.5093  0.8072  0.5757
 5055WAT    EPW20942   4.316   4.394   1.616 -0.4107  0.1646 -0.0851
 5056WAT      O20943   4.642   4.282   2.001  0.2663 -0.0265  0.2841
 5056WAT     H120944   4.592   4.324   2.059 -1.5334 -1.3334 -0.2380
 5056WAT     H220945   4.637   4.199   2.025 -2.5959 -1.0571 -2.9415
 5056WAT    EPW20946   4.633   4.276   2.013 -0.4223 -0.3718 -0.2695
 5057WAT      O20947   6.775   2.534   2.177 -0.0532  0.6185 -0.4490
 5057WAT     H120948   6.778   2.549   2.263 -0.2508  0.4052 -0.4045
 5057WAT     H220949   6.706   2.481   2.168  0.9759 -0.7550 -0.5328
 5057WAT    EPW20950   6.765   2.528   2.188  0.0697  0.3841 -0.4548
 5058WAT      O20951   4.636   3.590   1.130 -0.0103  0.4632  0.0132
 5058WAT     H120952   4.666   3.661   1.170 -0.3466 -0.2425  1.6033
 5058WAT     H220953   4.704   3.535   1.131  0.5849  1.0571 -2.1398
 5058WAT    EPW20954   4.650   3.592   1.136  0.0280  0.4467 -0.0700
 5059WAT      O20955   4.527   2.804   0.559  0.2982  0.8769  0.2055
 5059WAT     H120956   4.468   2.868   0.552 -0.1882  0.3943 -0.2036
 5059WAT     H220957   4.483   2.738   0.595  0.8691  0.8535  0.8815
 5059WAT    EPW20958   4.512   2.804   0.563  0.3107  0.8021  0.2450
 5060WAT      O20959   5.863   4.241   7.579  0.1585 -0.3849  0.7020
 5060WAT     H120960   5.777   4.253   7.590 -0.0091 -1.6356  0.8555
 5060WAT     H220961   5.898   4.287   7.644 -0.5177 -1.9422  2.2386
 5060WAT    EPW20962   5.855   4.250   7.590  0.0339 -0.7997  0.9517
 5061WAT      O20963   4.548   3.715   0.364  0.1096 -0.3247 -0.0213
 5061WAT     H120964   4.499   3.743   0.430 -0.9373 -0.8362 -0.5479
 5061WAT     H220965   4.489   3.700   0.301  1.0855  0.2701 -1.1137
 5061WAT    EPW20966   4.532   3.717   0.364  0.0991 -0.3124 -0.2605
 5062WAT      O20967   6.538   5.558   0.390  0.2002  0.1165  0.1966
 5062WAT     H120968   6.549   5.632   0.434 -1.6881 -0.3038  1.5139
 5062WAT     H220969   6.504   5.584   0.314  0.6259  0.6620  0.1885
 5062WAT    EPW20970   6.534   5.573   0.385 -0.0159  0.1350  0.3900
 5063WAT      O20971   4.642   4.300   0.532 -0.3073  0.4462  0.0143
 5063WAT     H120972   4.659   4.217   0.511 -1.2019  0.0039  0.9226
 5063WAT     H220973   4.702   4.345   0.488  0.8581 -0.7572  0.2937
 5063WAT    EPW20974   4.654   4.294   0.523 -0.2673  0.2031  0.1898
 5064WAT      O20975   5.642   3.026   0.070 -0.1967  0.0789 -0.6910
 5064WAT     H120976   5.654   3.035  -0.016 -1.6565  0.1578 -0.9109
 5064WAT     H220977   5.555   3.019   0.078 -0.2277  1.5807  0.9019
 5064WAT    EPW20978   5.631   3.027   0.059 -0.4169  0.3124 -0.4882
 5065WAT      O20979   2.754   4.096   2.409  0.0152 -0.6403  0.0605
 5065WAT     H120980   2.826   4.132   2.443 -1.7646  2.7407  0.6718
 5065WAT     H220981   2.758   4.118   2.325 -0.2116 -0.6613  0.0450
 5065WAT    EPW20982   2.765   4.105   2.402 -0.2812 -0.1440  0.1485
 5066WAT      O20983   3.779   5.868   6.972  0.1016  0.2036  0.2800
 5066WAT     H120984   3.815   5.820   6.909 -0.2163 -0.4607  0.5865
 5066WAT     H220985   3.803   5.826   7.045  2.5183  2.3014  0.8099
 5066WAT    EPW20986   3.788   5.855   6.974  0.4117  0.4154  0.4036
 5067WAT      O20987   3.717   4.697   1.978 -0.2505 -0.1226 -0.1143
 5067WAT     H120988   3.734   4.772   1.937  0.7588 -0.6557 -0.7194
 5067WAT     H220989   3.796   4.670   2.004 -0.2846 -1.9695 -1.6827
 5067WAT    EPW20990   3.731   4.704   1.976 -0.1065 -0.4742 -0.4354
 5068WAT      O20991   3.908   3.778   1.927  0.5637 -0.3002 -0.0738
 5068WAT     H120992   3.964   3.712   1.940 -1.2165 -1.8510  0.2019
 5068WAT     H220993   3.845   3.741   1.878  1.6224  2.3977 -3.9678
 5068WAT    EPW20994   3.907   3.763   1.922  0.4571 -0.1308 -0.6083
 5069WAT      O20995   4.390   3.880   7.651 -0.6486  0.4936 -0.1326
 5069WAT     H120996   4.384   3.796   7.632  0.6961 -0.3358  2.5666
 5069WAT     H220997   4.307   3.908   7.649 -1.0205 -0.6219 -1.9249
 5069WAT    EPW20998   4.377   3.872   7.648 -0.5049  0.2063  0.0014
 5070WAT      O20999   3.983   2.585   1.129  0.4200  0.5810  0.3358
 5070WAT     H121000   3.971   2.543   1.054  0.2414  1.3916 -0.0932
 5070WAT     H221001   3.956   2.527   1.189  2.0190 -0.6866 -0.0914
 5070WAT    EPW21002   3.977   2.570   1.127  0.6298  0.5135  0.2094
 5071WAT      O21003   5.035   2.118   7.793 -0.7845  0.6837 -0.4646
 5071WAT     H121004   5.113   2.112   7.831 -0.6746  1.0718 -0.6305
 5071WAT     H221005   5.012   2.035   7.780 -0.7602  0.5464  0.3194
 5071WAT    EPW21006   5.043   2.105   7.797 -0.7647  0.7208 -0.3733
 5072WAT      O21007   6.688   6.194   2.069  0.1803 -0.0933 -0.4204
 5072WAT     H121008   6.641   6.241   2.012  0.4871  1.2309  0.3847
 5072WAT     H221009   6.763   6.180   2.026  0.0043 -0.0312 -0.7523
 5072WAT    EPW21010   6.692   6.199   2.054  0.1996  0.1115 -0.3505
 5073WAT      O21011   4.009   3.780   0.598  0.2888  0.4784  0.8899
 5073WAT     H121012   4.064   3.718   0.572 -0.0537 -0.2730  1.8839
 5073WAT     H221013   4.062   3.840   0.633  0.5197 -0.1452  1.6508
 5073WAT    EPW21014   4.025   3.780   0.599  0.2723  0.2753  1.1492
 5074WAT      O21015   4.537   4.036   0.244 -0.0096  0.3206  0.2914
 5074WAT     H121016   4.585   3.984   0.296 -0.0312  1.1143  1.1486
 5074WAT     H221017   4.548   4.002   0.165  0.2719 -0.7588  0.7759
 5074WAT    EPW21018   4.546   4.024   0.240  0.0288  0.2784  0.4896
 5075WAT      O21019   3.508   3.510   2.010  0.3726  0.6875 -0.4579
 5075WAT     H121020   3.589   3.485   1.988 -0.4858 -2.8450 -0.2217
 5075WAT     H221021   3.479   3.551   1.938  2.7237  3.2800 -0.0583
 5075WAT    EPW21022   3.516   3.512   1.996  0.5931  0.5486 -0.3640
 5076WAT      O21023   3.756   5.884   2.362  0.3409  0.4376  0.5897
 5076WAT     H121024   3.819   5.937   2.334 -0.0078 -0.5998 -2.6036
 5076WAT     H221025   3.684   5.933   2.355  0.1524 -0.0466 -1.3281
 5076WAT    EPW21026   3.755   5.899   2.357  0.2615  0.2128 -0.1653
 5077WAT      O21027   4.792   3.474   0.121  0.4476 -0.0828  0.1934
 5077WAT     H121028   4.741   3.430   0.176 -1.3485  0.6712 -0.7728
 5077WAT     H221029   4.799   3.421   0.052 -1.0831  0.7448 -0.6553
 5077WAT    EPW21030   4.785   3.460   0.119 -0.0438  0.1508 -0.0747
 5078WAT      O21031   4.710   4.103   1.555 -0.1473  0.1298  0.5246
 5078WAT     H121032   4.719   4.190   1.558  0.6289  0.0545  0.8404
 5078WAT     H221033   4.629   4.089   1.584 -0.0731  0.7186  1.0410
 5078WAT    EPW21034   4.700   4.114   1.559 -0.0217  0.2057  0.6475
 5079WAT      O21035   5.124   3.921   0.283  0.1294  0.0175  0.1531
 5079WAT     H121036   5.070   3.856   0.303  2.3669 -1.3869  2.1585
 5079WAT     H221037   5.202   3.893   0.311  1.5488  2.7780 -0.6452
 5079WAT    EPW21038   5.128   3.908   0.290  0.6696  0.2178  0.3314
 5080WAT      O21039   4.775   2.044   1.119  0.4700 -0.3570  0.0865
 5080WAT     H121040   4.809   2.098   1.179 -1.4128  0.1791  0.7408
 5080WAT     H221041   4.824   2.058   1.049  1.6761  0.2466  1.0065
 5080WAT    EPW21042   4.788   2.054   1.118  0.3700 -0.1886  0.3190
 5081WAT      O21043   6.391   5.883   3.068 -0.2257 -0.0848  0.1622
 5081WAT     H121044   6.327   5.921   3.114 -1.1106 -0.6477 -0.5604
 5081WAT     H221045   6.394   5.803   3.100  0.3759  0.0498  0.4413
 5081WAT    EPW21046   6.382   5.877   3.080 -0.2675 -0.1481  0.0967
 5082WAT      O21047   3.161   4.487   2.300  0.2342 -0.1781 -0.0735
 5082WAT     H121048   3.228   4.503   2.353  0.0418 -0.6629  0.3269
 5082WAT     H221049   3.149   4.563   2.259  1.7144 -0.3912 -0.9595
 5082WAT    EPW21050   3.169   4.501   2.302  0.4245 -0.2812 -0.1452
 5083WAT      O21051   5.215   3.463   2.954  0.3563  0.0200 -0.1436
 5083WAT     H121052   5.187   3.480   2.873 -0.6522 -1.9032 -0.2533
 5083WAT     H221053   5.186   3.532   3.000 -0.6294  0.2885 -1.1088
 5083WAT    EPW21054   5.206   3.476   2.949  0.0617 -0.2244 -0.3024
 5084WAT      O21055   4.916   3.665   0.905  0.9823 -0.0678  0.0663
 5084WAT     H121056   4.935   3.740   0.944 -0.8628 -0.0599  1.0649
 5084WAT     H221057   4.934   3.680   0.821 -0.8798  2.1083 -0.0405
 5084WAT    EPW21058   4.922   3.678   0.898  0.4347  0.2548  0.1980
 5085WAT      O21059   6.025   4.644   0.854  0.3209  0.2573  0.6066
 5085WAT     H121060   5.986   4.612   0.783  1.8834  1.0485 -0.6551
 5085WAT     H221061   6.067   4.575   0.887  0.7987  0.2070 -0.0942
 5085WAT    EPW21062   6.025   4.629   0.849  0.6223  0.3667  0.3167
 5086WAT      O21063   4.644   4.627   2.580  0.3324 -0.0579  0.0908
 5086WAT     H121064   4.619   4.557   2.625  1.5266 -1.2274 -0.9813
 5086WAT     H221065   4.687   4.675   2.639 -0.6057 -0.1347  0.8673
 5086WAT    EPW21066   4.646   4.624   2.595  0.3702 -0.2420  0.0471
 5087WAT      O21067   4.232   3.749   1.785  0.3772  0.1841 -0.0665
 5087WAT     H121068   4.206   3.666   1.782 -2.0314  0.8957 -3.2483
 5087WAT     H221069   4.319   3.743   1.795  0.4897 -2.7747 -1.7700
 5087WAT    EPW21070   4.241   3.736   1.786  0.0380 -0.1478 -0.7882
 5088WAT      O21071   4.055   5.157   7.512 -0.3323  0.5379 -0.6553
 5088WAT     H121072   4.125   5.171   7.463 -0.3845  0.6863 -0.6874
 5088WAT     H221073   4.012   5.094   7.470  0.9449 -1.2321  0.5621
 5088WAT    EPW21074   4.059   5.150   7.499 -0.1513  0.2984 -0.4802
 5089WAT      O21075   3.891   2.999   1.372 -0.7458 -0.1120 -0.0972
 5089WAT     H121076   3.887   3.031   1.453  1.0662  0.7650 -0.3068
 5089WAT     H221077   3.826   3.040   1.331 -0.3185  1.0849  0.3838
 5089WAT    EPW21078   3.881   3.010   1.378 -0.4150  0.1944 -0.0571
 5090WAT      O21079   5.607   3.312   0.721  0.0726 -0.3524 -0.3289
 5090WAT     H121080   5.581   3.289   0.641 -0.3894 -2.0554  0.2698
 5090WAT     H221081   5.693   3.299   0.719  0.1099 -0.0689 -0.6476
 5090WAT    EPW21082   5.616   3.307   0.709  0.0099 -0.5621 -0.2875
 5091WAT      O21083   3.855   2.090   0.951  0.0095  0.2161 -0.6953
 5091WAT     H121084   3.850   2.093   0.864 -2.7635 -0.8345 -0.6500
 5091WAT     H221085   3.784   2.133   0.978  0.7123  0.3476  1.0720
 5091WAT    EPW21086   3.844   2.097   0.942 -0.2963  0.0803 -0.4276
 5092WAT      O21087   5.516   5.919   1.016 -0.3485 -0.0690  0.5793
 5092WAT     H121088   5.463   5.985   0.993 -1.2160 -0.6672  0.8301
 5092WAT     H221089   5.489   5.898   1.096  1.3488  0.6811  1.4033
 5092WAT    EPW21090   5.504   5.926   1.024 -0.2259 -0.0465  0.7381
 5093WAT      O21091   5.462   1.819   0.333  0.2204 -0.7441 -0.1976
 5093WAT     H121092   5.466   1.742   0.374  1.6590 -0.9864 -0.7238
 5093WAT     H221093   5.377   1.836   0.329 -0.2587 -3.0530 -1.4216
 5093WAT    EPW21094   5.450   1.810   0.338  0.3621 -1.1210 -0.4561
 5094WAT      O21095   3.319   4.088   1.700  0.4430  0.3986  0.8397
 5094WAT     H121096   3.372   4.155   1.715  2.7284 -1.3142  0.8309
 5094WAT     H221097   3.320   4.043   1.775  0.7706 -0.8111  0.1337
 5094WAT    EPW21098   3.327   4.092   1.713  0.8290 -0.0331  0.7341
 5095WAT      O21099   4.961   2.940   2.090 -0.2839  0.5710 -0.5122
 5095WAT     H121100   4.996   2.892   2.026 -1.9675  0.2331 -1.2516
 5095WAT     H221101   4.920   2.881   2.139  1.0551  0.8162  0.9890
 5095WAT    EPW21102   4.960   2.924   2.088 -0.3348  0.5574 -0.3997
 5096WAT      O21103   4.817   3.597   7.623  0.1259  0.6408  0.3063
 5096WAT     H121104   4.842   3.513   7.626  1.5342  1.0276  0.3119
 5096WAT     H221105   4.870   3.632   7.563 -1.4896  1.2282 -0.8539
 5096WAT    EPW21106   4.829   3.590   7.615  0.0953  0.7847  0.1358
 5097WAT      O21107   5.542   2.933   0.525  0.3686  0.3399  0.0880
 5097WAT     H121108   5.553   2.938   0.611  0.2016 -3.4730  0.5071
 5097WAT     H221109   5.621   2.952   0.493  0.6415  1.0191  1.1086
 5097WAT    EPW21110   5.555   2.937   0.533  0.3842 -0.1230  0.3007
 5098WAT      O21111   4.260   3.428   0.884 -0.4139  0.5257 -1.0148
 5098WAT     H121112   4.178   3.413   0.912  0.3455 -0.7016  0.7241
 5098WAT     H221113   4.295   3.348   0.879  0.9231  1.0841 -0.9307
 5098WAT    EPW21114   4.253   3.414   0.887 -0.1042  0.4269 -0.7455
 5099WAT      O21115   5.992   2.686   0.886 -0.1191  0.6296  0.2733
 5099WAT     H121116   5.979   2.738   0.955 -1.1647 -0.4096  0.8966
 5099WAT     H221117   5.933   2.713   0.828  0.3631  1.1124 -0.0074
 5099WAT    EPW21118   5.982   2.697   0.888 -0.2023  0.5474  0.3239
 5100WAT      O21119   4.930   3.303   2.274  0.0866  0.1042  0.9323
 5100WAT     H121120   4.968   3.232   2.240 -1.6610 -0.4851  0.0897
 5100WAT     H221121   4.894   3.274   2.347 -0.4661  0.1677  0.6856
 5100WAT    EPW21122   4.931   3.288   2.280 -0.2532  0.0265  0.7714
 5101WAT      O21123   4.122   3.954   1.952 -0.0541  0.3797  0.2465
 5101WAT     H121124   4.163   3.897   1.900 -2.0128 -0.1310 -0.8226
 5101WAT     H221125   4.047   3.914   1.973 -0.8348  1.9576  0.6692
 5101WAT    EPW21126   4.117   3.940   1.947 -0.4588  0.5373  0.1510
 5102WAT      O21127   3.178   3.362   0.991  0.5224  0.5815  0.5929
 5102WAT     H121128   3.111   3.396   0.947 -1.6108 -2.9302  0.6626
 5102WAT     H221129   3.179   3.406   1.066 -1.4101  1.1090  0.3538
 5102WAT    EPW21130   3.168   3.373   0.995 -0.0782  0.1407  0.5678
 5103WAT      O21131   3.655   3.089   1.235  0.0555  0.0963 -0.4652
 5103WAT     H121132   3.662   3.173   1.213  0.5115  0.2515  0.2316
 5103WAT     H221133   3.578   3.085   1.276 -0.1067  0.1072 -0.7645
 5103WAT    EPW21134   3.644   3.101   1.238  0.0989  0.1208 -0.4065
 5104WAT      O21135   3.325   2.941   0.949 -0.3594 -0.0688 -0.0301
 5104WAT     H121136   3.395   2.891   0.956 -0.7378 -0.5928  0.0684
 5104WAT     H221137   3.350   3.017   0.983 -0.1277 -0.5404  0.8749
 5104WAT    EPW21138   3.339   2.945   0.955 -0.3810 -0.2159  0.1182
 5105WAT      O21139   5.220   5.103   1.068  0.5437  0.0315 -0.2687
 5105WAT     H121140   5.150   5.088   1.117  1.2546 -0.7779  0.5225
 5105WAT     H221141   5.241   5.024   1.037  1.1265  0.2611 -0.4739
 5105WAT    EPW21142   5.213   5.089   1.070  0.7348 -0.0542 -0.1821
 5106WAT      O21143   3.967   4.492   1.848 -0.3539  0.1161 -0.3147
 5106WAT     H121144   3.986   4.560   1.899 -0.0165 -0.0527 -0.2162
 5106WAT     H221145   3.974   4.524   1.767  1.0540 -0.1123 -0.3114
 5106WAT    EPW21146   3.971   4.507   1.844 -0.0961  0.0574 -0.2997
 5107WAT      O21147   4.594   2.387   0.312  0.3409 -0.1856  0.3795
 5107WAT     H121148   4.594   2.300   0.317 -2.6635 -0.2268  2.6744
 5107WAT     H221149   4.661   2.410   0.363  1.0574 -1.1252 -0.1094
 5107WAT    EPW21150   4.604   2.377   0.320  0.0029 -0.3305  0.6463
 5108WAT      O21151   6.030   4.218   6.343 -0.6716  0.0822 -0.3329
 5108WAT     H121152   6.024   4.244   6.260  1.3763 -0.9205 -0.8501
 5108WAT     H221153   6.052   4.290   6.386  0.3622  0.1940 -1.0194
 5108WAT    EPW21154   6.032   4.232   6.338 -0.2164 -0.0494 -0.5107
 5109WAT      O21155   5.191   2.917   1.560  0.1620 -0.5336 -0.6970
 5109WAT     H121156   5.214   3.000   1.548  0.2972 -0.6345 -1.1266
 5109WAT     H221157   5.148   2.896   1.487 -1.1801 -0.3967  0.0220
 5109WAT    EPW21158   5.188   2.926   1.548 -0.0163 -0.5283 -0.6543
 5110WAT      O21159   4.593   3.065   0.312  0.5275 -0.2867  0.1213
 5110WAT     H121160   4.539   3.076   0.378  1.5152 -0.1476  0.9329
 5110WAT     H221161   4.549   3.014   0.257 -0.7834  0.6373  0.2881
 5110WAT    EPW21162   4.579   3.059   0.313  0.4798 -0.1296  0.2659
 5111WAT      O21163   4.150   5.704   2.476 -0.2457 -0.1756  0.1432
 5111WAT     H121164   4.119   5.727   2.398  1.3915  0.9519 -0.2131
 5111WAT     H221165   4.100   5.636   2.498 -1.3790  0.0892 -1.4316
 5111WAT    EPW21166   4.138   5.697   2.467 -0.1713  0.0301 -0.1420
 5112WAT      O21167   4.037   3.980   1.151  0.1736 -0.0316  0.8449
 5112WAT     H121168   4.066   3.901   1.172 -0.1025 -0.0213  1.2873
 5112WAT     H221169   4.100   4.013   1.101 -1.2324 -1.8957 -2.4319
 5112WAT    EPW21170   4.050   3.973   1.147 -0.0749 -0.3054  0.4262
 5113WAT      O21171   5.439   4.345   1.129  0.1050  0.4163  0.7442
 5113WAT     H121172   5.361   4.333   1.166  0.1187 -1.1592  0.3076
 5113WAT     H221173   5.420   4.392   1.057 -0.2694  1.0822  1.2660
 5113WAT    EPW21174   5.425   4.351   1.124  0.0517  0.2819  0.7568
 5114WAT      O21175   5.642   3.883   7.170 -0.0171 -0.1104 -0.6007
 5114WAT     H121176   5.714   3.933   7.166 -0.1867  0.0622 -1.8181
 5114WAT     H221177   5.636   3.863   7.255  1.0164  0.5303 -0.3565
 5114WAT    EPW21178   5.652   3.887   7.182  0.1105  0.0098 -0.7444
 5115WAT      O21179   5.208   3.946   2.365 -0.0040 -0.4116 -0.4097
 5115WAT     H121180   5.250   3.965   2.439  1.2328 -1.6264 -0.7695
 5115WAT     H221181   5.126   3.930   2.391  0.4535 -0.9913  0.7083
 5115WAT    EPW21182   5.202   3.947   2.380  0.2463 -0.6767 -0.2977
 5116WAT      O21183   5.716   2.779   3.242 -0.3164 -0.5842 -0.0852
 5116WAT     H121184   5.793   2.739   3.246  0.9147  1.7653  1.8086
 5116WAT     H221185   5.717   2.834   3.309 -3.3704  0.0892 -0.4355
 5116WAT    EPW21186   5.727   2.781   3.252 -0.5857 -0.1377  0.1428
 5117WAT      O21187   7.081   4.546   1.149 -0.2559 -0.3107  0.0155
 5117WAT     H121188   7.087   4.514   1.068  1.0102  0.8603 -0.4102
 5117WAT     H221189   7.042   4.483   1.194  0.1907 -1.5189 -1.2322
 5117WAT    EPW21190   7.076   4.532   1.144 -0.0029 -0.3162 -0.2317
 5118WAT      O21191   4.397   5.281   0.522 -0.7960 -1.0433 -0.0436
 5118WAT     H121192   4.325   5.241   0.491 -0.9390 -0.9226  0.1308
 5118WAT     H221193   4.388   5.363   0.493  0.2765 -1.4864 -1.7482
 5118WAT    EPW21194   4.385   5.288   0.513 -0.6587 -1.0909 -0.2696
 5119WAT      O21195   3.000   3.536   0.849 -0.8382 -0.1939  0.0541
 5119WAT     H121196   2.919   3.564   0.865  0.1739  3.3879 -0.2089
 5119WAT     H221197   2.997   3.511   0.765 -1.5353  0.7159 -0.2091
 5119WAT    EPW21198   2.988   3.537   0.839 -0.7917  0.4696 -0.0236
 5120WAT      O21199   3.301   3.752   2.090 -0.1563 -0.4161 -0.3607
 5120WAT     H121200   3.347   3.704   2.032  0.9772 -0.1869  0.3110
 5120WAT     H221201   3.241   3.696   2.119  0.9636 -1.3874  0.1933
 5120WAT    EPW21202   3.299   3.736   2.086  0.1766 -0.5257 -0.1797
 5121WAT      O21203   2.991   4.021   0.825  0.5962 -0.0093 -0.8228
 5121WAT     H121204   2.936   4.020   0.893 -1.5006  1.0234 -2.3983
 5121WAT     H221205   3.032   3.944   0.831 -1.8370 -1.3496 -0.1749
 5121WAT    EPW21206   2.989   4.010   0.836 -0.0730 -0.0547 -0.9598
 5122WAT      O21207   3.434   4.316   1.824 -0.4763  0.3047 -0.3007
 5122WAT     H121208   3.496   4.275   1.870 -1.2039  0.7285  1.1150
 5122WAT     H221209   3.466   4.397   1.813 -1.6023  1.2157  2.3345
 5122WAT    EPW21210   3.448   4.322   1.829 -0.7501  0.5019  0.2977
 5123WAT      O21211   4.014   2.841   2.279 -0.6666 -0.2171 -0.0335
 5123WAT     H121212   3.960   2.853   2.212  0.1215 -0.5093 -0.7366
 5123WAT     H221213   4.017   2.919   2.318  0.1233  0.4050 -1.2953
 5123WAT    EPW21214   4.006   2.854   2.275 -0.4335 -0.1683 -0.3238
 5124WAT      O21215   5.817   3.959   1.872 -0.0747 -0.6342 -0.0195
 5124WAT     H121216   5.857   3.915   1.808 -0.7534  0.0101 -0.9157
 5124WAT     H221217   5.769   3.897   1.910  4.1274 -2.3063  3.3594
 5124WAT    EPW21218   5.816   3.943   1.868  0.4458 -0.7860  0.3473
 5125WAT      O21219   5.409   2.945   7.683 -0.2397  0.7616  0.2791
 5125WAT     H121220   5.388   2.966   7.765  0.0477 -0.3229  0.6441
 5125WAT     H221221   5.401   2.859   7.681  0.4153  0.7106 -0.6513
 5125WAT    EPW21222   5.405   2.936   7.695 -0.1005  0.5939  0.1956
 5126WAT      O21223   4.602   4.364   1.265  0.7007  0.8296  0.2122
 5126WAT     H121224   4.584   4.424   1.205  0.0868 -0.7947 -1.3288
 5126WAT     H221225   4.524   4.329   1.284  1.2901 -1.4637 -1.2090
 5126WAT    EPW21226   4.588   4.367   1.259  0.6971  0.2509 -0.2254
 5127WAT      O21227   5.129   4.067   1.403 -0.3705 -0.2025  0.3077
 5127WAT     H121228   5.043   4.067   1.387 -0.6746  2.6151  1.3583
 5127WAT     H221229   5.134   4.056   1.489  0.0751  2.2784  0.6684
 5127WAT    EPW21230   5.117   4.066   1.413 -0.3496  0.5802  0.5162
 5128WAT      O21231   3.939   4.218   1.920 -0.2033 -0.3367  0.0824
 5128WAT     H121232   3.966   4.298   1.897  0.2222 -0.7529 -0.9202
 5128WAT     H221233   3.959   4.169   1.851 -0.0525 -1.4032  0.8597
 5128WAT    EPW21234   3.946   4.222   1.906 -0.1182 -0.5557  0.0491
 5129WAT      O21235   6.206   2.686   1.285 -0.2262  0.2975  0.0512
 5129WAT     H121236   6.189   2.611   1.327  0.4348 -0.1284 -0.4146
 5129WAT     H221237   6.197   2.747   1.347 -0.5623 -0.1828  0.4866
 5129WAT    EPW21238   6.202   2.684   1.300 -0.1782  0.1636  0.0467
 5130WAT      O21239   3.796   3.207   0.783 -0.3768 -0.0243  0.3628
 5130WAT     H121240   3.841   3.170   0.848  0.8177  1.4077  0.4081
 5130WAT     H221241   3.852   3.265   0.750 -1.3099 -0.0159 -1.3032
 5130WAT    EPW21242   3.811   3.210   0.788 -0.3381  0.1885  0.1234
 5131WAT      O21243   4.884   3.225   1.403  0.0294  0.3180  0.4333
 5131WAT     H121244   4.849   3.294   1.363 -0.4663 -0.2551 -0.1247
 5131WAT     H221245   4.881   3.247   1.488  2.6116  2.2580  0.1591
 5131WAT    EPW21246   4.879   3.239   1.410  0.3376  0.5199  0.3104
 5132WAT      O21247   4.127   3.724   1.218  0.0976  0.0871  0.3437
 5132WAT     H121248   4.073   3.657   1.232  0.3333  0.1285  1.5541
 5132WAT     H221249   4.191   3.690   1.171  0.1873 -0.5269  0.9026
 5132WAT    EPW21250   4.128   3.709   1.213  0.1457  0.0025  0.6051
 5133WAT      O21251   5.755   3.877   1.468  0.1743 -0.7217 -0.1434
 5133WAT     H121252   5.742   3.868   1.383  0.6860 -0.4949 -0.2497
 5133WAT     H221253   5.825   3.930   1.473 -0.5074  0.1582  0.4178
 5133WAT    EPW21254   5.764   3.884   1.456  0.1492 -0.5583 -0.0762
 5134WAT      O21255   6.257   3.542   0.072 -0.4760  0.1838 -0.0129
 5134WAT     H121256   6.306   3.536   0.000 -0.5849  1.8672 -0.2656
 5134WAT     H221257   6.200   3.605   0.052 -2.4258 -1.3281  0.4629
 5134WAT    EPW21258   6.256   3.550   0.058 -0.7801  0.2092  0.0201
 5135WAT      O21259   4.677   1.572   1.354 -0.5206 -0.1231  0.2193
 5135WAT     H121260   4.671   1.504   1.300 -0.2965 -0.2693  0.3740
 5135WAT     H221261   4.716   1.538   1.425 -1.3852 -0.0826  0.7230
 5135WAT    EPW21262   4.682   1.557   1.357 -0.6152 -0.1387  0.3166
 5136WAT      O21263   4.603   2.537   0.070  0.2630  0.2032 -0.6074
 5136WAT     H121264   4.599   2.482   0.138 -4.2526  0.8135 -0.0816
 5136WAT     H221265   4.624   2.485   0.003  0.0940 -1.3743  0.5032
 5136WAT    EPW21266   4.606   2.521   0.070 -0.4290  0.0603 -0.3656
 5137WAT      O21267   5.043   3.532   1.206  0.1380  0.1672  0.1106
 5137WAT     H121268   5.068   3.615   1.213  1.0838 -0.1595  0.8535
 5137WAT     H221269   5.089   3.491   1.268 -1.6098 -0.6316  0.9611
 5137WAT    EPW21270   5.053   3.538   1.216  0.0196  0.0009  0.3460
 5138WAT      O21271   4.877   3.085   0.518 -0.2797  0.3820 -0.2254
 5138WAT     H121272   4.827   3.078   0.447 -1.6784 -3.1294  0.8543
 5138WAT     H221273   4.923   3.011   0.517  1.2235  1.2298  1.4361
 5138WAT    EPW21274   4.876   3.073   0.508 -0.2642 -0.0114  0.1795
 5139WAT      O21275   5.144   2.705   1.107 -0.1576  0.0074 -0.0932
 5139WAT     H121276   5.077   2.684   1.055 -1.1729  0.9674  0.7807
 5139WAT     H221277   5.167   2.785   1.079 -0.5872  0.4465  0.7838
 5139WAT    EPW21278   5.137   2.714   1.095 -0.3710  0.2141  0.1654
 5140WAT      O21279   4.333   1.396   1.339  0.1545  0.1317  0.1432
 5140WAT     H121280   4.407   1.363   1.306 -0.6904 -1.5342 -0.1977
 5140WAT     H221281   4.313   1.460   1.284 -0.8566 -2.1267 -2.3436
 5140WAT    EPW21282   4.341   1.401   1.326 -0.1196 -0.4480 -0.2745
 5141WAT      O21283   5.026   3.519   2.418 -0.0044  0.9789  0.5906
 5141WAT     H121284   5.001   3.596   2.386  0.7220  0.2698 -1.9361
 5141WAT     H221285   5.018   3.465   2.350  0.2151 -1.0445  2.0729
 5141WAT    EPW21286   5.021   3.522   2.403  0.1354  0.5752  0.4363
 5142WAT      O21287   3.057   4.993   1.372  0.0426 -0.3447 -0.3934
 5142WAT     H121288   2.982   4.962   1.339 -0.8306  2.5434 -1.4787
 5142WAT     H221289   3.109   5.000   1.302  0.1175  0.7068 -0.2570
 5142WAT    EPW21290   3.053   4.989   1.357 -0.0754  0.2372 -0.5336
 5143WAT      O21291   4.883   5.342   2.324 -0.7064 -0.3591  0.3607
 5143WAT     H121292   4.913   5.325   2.404  0.4200  1.1703  0.3192
 5143WAT     H221293   4.854   5.424   2.330  2.8160  1.2659 -1.5928
 5143WAT    EPW21294   4.884   5.352   2.337 -0.0197  0.1069  0.0660
 5144WAT      O21295   4.892   3.525   1.611  0.2160 -0.2991 -0.1006
 5144WAT     H121296   4.826   3.468   1.622 -0.3902  0.2674 -0.7130
 5144WAT     H221297   4.852   3.597   1.583  1.1731 -0.1506 -1.1567
 5144WAT    EPW21298   4.876   3.527   1.609  0.2678 -0.1935 -0.3470
 5145WAT      O21299   5.199   3.930   3.101 -0.7020  0.4774 -0.0278
 5145WAT     H121300   5.208   4.014   3.079  3.2404  0.1454 -0.3834
 5145WAT     H221301   5.217   3.887   3.028  0.3983 -0.6585  0.8703
 5145WAT    EPW21302   5.203   3.936   3.087  0.0429  0.2605  0.0523
 5146WAT      O21303   5.218   5.805   1.391 -0.1707  0.2583 -0.0158
 5146WAT     H121304   5.166   5.761   1.337  0.7119 -2.2118  0.9945
 5146WAT     H221305   5.248   5.744   1.445  1.3979  2.0937  1.3457
 5146WAT    EPW21306   5.215   5.790   1.391  0.1914  0.1645  0.3346
 5147WAT      O21307   5.721   4.775   1.826  0.0511 -0.1623 -0.2159
 5147WAT     H121308   5.757   4.835   1.775  2.5641 -0.2492  1.3043
 5147WAT     H221309   5.769   4.777   1.898 -1.0878 -2.5442  0.7422
 5147WAT    EPW21310   5.733   4.784   1.829  0.2541 -0.5270  0.1502
 5148WAT      O21311   4.414   6.160   1.997  0.1691  0.1882 -0.0712
 5148WAT     H121312   4.351   6.104   1.972  0.0803  0.8198 -1.3645
 5148WAT     H221313   4.475   6.108   2.030 -0.6027 -0.5296  0.2663
 5148WAT    EPW21314   4.413   6.144   1.998  0.0420  0.1755 -0.2124
 5149WAT      O21315   6.849   4.800   1.594 -0.1763  0.3875 -0.1292
 5149WAT     H121316   6.905   4.867   1.602 -0.1427  0.5390 -1.4896
 5149WAT     H221317   6.827   4.782   1.677  1.0894  0.9947  0.3652
 5149WAT    EPW21318   6.854   4.807   1.607  0.0157  0.4996 -0.2571
 5150WAT      O21319   5.411   5.375   1.922 -0.1974  0.0278 -0.3134
 5150WAT     H121320   5.470   5.314   1.899 -1.3123 -1.7657  1.2675
 5150WAT     H221321   5.448   5.450   1.897  2.2936 -1.1096 -0.3326
 5150WAT    EPW21322   5.425   5.377   1.915  0.0059 -0.4051 -0.0827
 5151WAT      O21323   3.803   2.582   1.806  0.6320  0.0501 -0.4938
 5151WAT     H121324   3.866   2.612   1.753 -0.2067  0.7628 -1.1179
 5151WAT     H221325   3.733   2.628   1.782  0.2733  0.6065  1.4283
 5151WAT    EPW21326   3.802   2.593   1.795  0.4551  0.2375 -0.3021
 5152WAT      O21327   5.230   4.268   0.275 -0.0821 -0.3167 -0.1604
 5152WAT     H121328   5.291   4.222   0.316  0.3628  0.9447  0.6710
 5152WAT     H221329   5.210   4.220   0.205  0.8753 -1.3864  0.2821
 5152WAT    EPW21330   5.236   4.254   0.271  0.1251 -0.2884  0.0278
 5153WAT      O21331   4.229   2.288   1.042 -0.1646  0.3533 -0.7262
 5153WAT     H121332   4.296   2.247   1.005  0.8643  0.5075  0.8481
 5153WAT     H221333   4.189   2.327   0.975  1.4052  0.3738 -1.7005
 5153WAT    EPW21334   4.233   2.288   1.027  0.2193  0.3791 -0.6376
 5154WAT      O21335   4.619   3.874   0.716 -0.3574 -0.1727  0.1104
 5154WAT     H121336   4.545   3.839   0.686  0.7474 -2.9718  0.3272
 5154WAT     H221337   4.641   3.821   0.783  1.0547  1.4772  1.0411
 5154WAT    EPW21338   4.611   3.861   0.722  0.0144 -0.3424  0.2799
 5155WAT      O21339   4.437   2.671   1.351 -0.2239 -0.2047  0.1089
 5155WAT     H121340   4.384   2.622   1.302 -0.7986  0.4054  0.0979
 5155WAT     H221341   4.479   2.614   1.401 -0.4976 -0.7408 -0.2712
 5155WAT    EPW21342   4.436   2.656   1.351 -0.3492 -0.1938  0.0511
 5156WAT      O21343   4.309   4.954   2.105  0.6206 -0.0321 -0.0441
 5156WAT     H121344   4.259   5.013   2.065  0.2192  0.3799  1.0249
 5156WAT     H221345   4.389   4.969   2.074 -0.0437 -1.6490 -2.9142
 5156WAT    EPW21346   4.313   4.965   2.095  0.4632 -0.2101 -0.3102
 5157WAT      O21347   4.373   3.411   1.705 -0.6363  0.0473 -0.1545
 5157WAT     H121348   4.337   3.466   1.649  0.0161  2.3036  1.4758
 5157WAT     H221349   4.323   3.418   1.776  0.1444 -0.5693  0.4796
 5157WAT    EPW21350   4.361   3.420   1.708 -0.4246  0.2895  0.1800
 5158WAT      O21351   4.433   4.621   2.175 -0.3948  0.3634  0.3255
 5158WAT     H121352   4.418   4.539   2.203 -1.4716  1.2321  2.5769
 5158WAT     H221353   4.365   4.637   2.123  0.2625 -0.4164 -0.8157
 5158WAT    EPW21354   4.420   4.611   2.172 -0.4568  0.3765  0.4895
 5159WAT      O21355   3.458   5.019   7.153  0.3101  0.5895 -0.4197
 5159WAT     H121356   3.379   4.992   7.176  0.2086  2.5056  1.7924
 5159WAT     H221357   3.443   5.090   7.106  0.6756  1.4309  0.6891
 5159WAT    EPW21358   3.444   5.025   7.149  0.3491  0.9968  0.0708
 5160WAT      O21359   4.547   2.266   1.928 -0.5548 -0.0440  0.1624
 5160WAT     H121360   4.608   2.322   1.900 -0.4719 -0.6040 -0.7898
 5160WAT     H221361   4.593   2.197   1.956 -0.5642  0.8113  2.5666
 5160WAT    EPW21362   4.563   2.264   1.928 -0.5439 -0.0004  0.3769
 5161WAT      O21363   4.760   4.815   1.185 -0.4184 -0.1153  0.5855
 5161WAT     H121364   4.690   4.763   1.188  0.4091 -1.2618  1.0217
 5161WAT     H221365   4.751   4.865   1.256 -1.1318  0.2327  0.2620
 5161WAT    EPW21366   4.748   4.815   1.196 -0.4016 -0.2333  0.6022
 5162WAT      O21367   5.464   3.668   0.132 -0.0653 -0.0001  1.2490
 5162WAT     H121368   5.401   3.721   0.102 -1.2775 -1.7192  0.6208
 5162WAT     H221369   5.516   3.657   0.063  1.0126  1.4515  1.7790
 5162WAT    EPW21370   5.462   3.674   0.117 -0.0851 -0.0396  1.2345
 5163WAT      O21371   5.577   4.109   1.082  0.4821  0.5543  0.0375
 5163WAT     H121372   5.530   4.038   1.061  1.2912  0.4879 -1.7264
 5163WAT     H221373   5.518   4.163   1.118 -0.0780 -1.1171  1.7884
 5163WAT    EPW21374   5.561   4.106   1.084  0.5189  0.2976  0.0356
 5164WAT      O21375   3.995   3.093   0.356 -0.1488 -0.2009 -0.5581
 5164WAT     H121376   4.053   3.104   0.292 -0.6620  0.3670 -0.9292
 5164WAT     H221377   3.930   3.147   0.335 -0.3761 -0.0868  0.3817
 5164WAT    EPW21378   3.994   3.103   0.344 -0.2582 -0.1002 -0.4741
 5165WAT      O21379   4.398   3.777   7.301 -0.1492  0.0101 -0.5900
 5165WAT     H121380   4.381   3.705   7.346  0.8417  0.7393  1.0573
 5165WAT     H221381   4.480   3.796   7.323 -0.1866  1.3052 -1.4488
 5165WAT    EPW21382   4.408   3.770   7.311 -0.0083  0.3091 -0.4735
 5166WAT      O21383   3.172   3.095   1.390 -0.5624 -0.2510  0.6572
 5166WAT     H121384   3.138   3.167   1.426  1.1792  1.1874 -0.4305
 5166WAT     H221385   3.148   3.100   1.307  0.5517 -0.2796  0.3200
 5166WAT    EPW21386   3.163   3.107   1.383 -0.1406 -0.0428  0.4467
 5167WAT      O21387   7.103   0.791   0.994  0.3177  0.2657 -0.3700
 5167WAT     H121388   7.145   0.859   0.957 -0.0401  0.0683 -1.1514
 5167WAT     H221389   7.030   0.784   0.947  0.0828 -0.3126  0.0708
 5167WAT    EPW21390   7.099   0.800   0.982  0.2302  0.1511 -0.4203
 5168WAT      O21391   4.612   4.026   2.113  0.1130  1.1369  0.0979
 5168WAT     H121392   4.597   3.968   2.049  0.3075  2.2466 -0.9951
 5168WAT     H221393   4.532   4.052   2.136  0.0644  1.3437 -0.2906
 5168WAT    EPW21394   4.598   4.021   2.107  0.1346  1.3314 -0.1210
 5169WAT      O21395   4.306   3.870   0.887  0.3082 -0.1646 -0.2702
 5169WAT     H121396   4.343   3.817   0.829  1.7254  0.7698 -0.2573
 5169WAT     H221397   4.298   3.819   0.958 -0.1420 -0.8977 -0.8212
 5169WAT    EPW21398   4.310   3.854   0.889  0.4510 -0.1348 -0.3497
 5170WAT      O21399   5.344   4.595   2.182  1.3243  0.0645  0.4606
 5170WAT     H121400   5.391   4.647   2.234  1.9468 -1.4216  1.4422
 5170WAT     H221401   5.296   4.548   2.238 -1.0611  1.2120 -0.4963
 5170WAT    EPW21402   5.344   4.595   2.198  1.0639  0.0145  0.4643
 5171WAT      O21403   4.560   3.678   2.313 -0.7554 -0.3479  0.6842
 5171WAT     H121404   4.527   3.684   2.233 -1.6876  0.0245  1.0792
 5171WAT     H221405   4.583   3.594   2.319  2.1207  0.1927 -0.9947
 5171WAT    EPW21406   4.558   3.666   2.302 -0.4683 -0.2130  0.4945
 5172WAT      O21407   4.852   4.043   1.324  0.2864 -0.5917  0.3395
 5172WAT     H121408   4.810   4.061   1.398  1.8134  0.4555  1.0058
 5172WAT     H221409   4.846   4.116   1.278  1.1300 -0.5110  0.3408
 5172WAT    EPW21410   4.845   4.056   1.328  0.6366 -0.4251  0.4381
 5173WAT      O21411   3.154   4.593   1.198  0.0295  0.2730 -0.6970
 5173WAT     H121412   3.198   4.520   1.218 -0.0566  0.4281  0.0662
 5173WAT     H221413   3.071   4.567   1.197  0.0015  0.3497 -0.4567
 5173WAT    EPW21414   3.148   4.578   1.201  0.0126  0.3072 -0.5488
 5174WAT      O21415   4.759   5.546   0.382 -0.2931 -0.2172  0.1084
 5174WAT     H121416   4.808   5.497   0.328  1.4036  1.7620 -0.2546
 5174WAT     H221417   4.817   5.584   0.434 -1.5280  1.3260  0.4447
 5174WAT    EPW21418   4.775   5.544   0.382 -0.2249  0.3032  0.1044
 5175WAT      O21419   3.005   2.586   1.483 -0.1006  0.3176 -0.5142
 5175WAT     H121420   2.981   2.538   1.414  0.1035  0.0375 -0.3943
 5175WAT     H221421   3.037   2.527   1.538 -0.9770  0.4451  0.1450
 5175WAT    EPW21422   3.006   2.570   1.481 -0.1999  0.2951 -0.3991
 5176WAT      O21423   4.582   3.069   1.476  0.6012 -0.6463 -0.2027
 5176WAT     H121424   4.525   3.079   1.541  0.0479  0.3965 -0.8196
 5176WAT     H221425   4.592   3.150   1.445  0.0561 -1.2390 -2.0634
 5176WAT    EPW21426   4.575   3.082   1.481  0.4390 -0.5798 -0.5687
 5177WAT      O21427   3.502   4.680   0.655 -0.2539 -0.2754  0.4572
 5177WAT     H121428   3.471   4.641   0.583  0.0672 -1.0224  0.7070
 5177WAT     H221429   3.432   4.721   0.688 -0.8680 -1.4541  0.6979
 5177WAT    EPW21430   3.487   4.680   0.649 -0.2972 -0.5598  0.5296
 5178WAT      O21431   4.691   4.359   1.720 -0.1094 -0.1374  0.2558
 5178WAT     H121432   4.704   4.442   1.745 -1.7941  0.7024 -1.4017
 5178WAT     H221433   4.666   4.320   1.794  3.5569 -0.0127  1.7741
 5178WAT    EPW21434   4.689   4.366   1.735  0.1834  0.0050  0.2352
 5179WAT      O21435   5.181   3.592   7.201  0.0516 -0.5655  0.3438
 5179WAT     H121436   5.266   3.609   7.191  0.6112 -1.2065  3.0168
 5179WAT     H221437   5.142   3.643   7.142  2.2661 -0.1445 -0.8624
 5179WAT    EPW21438   5.188   3.602   7.191  0.4614 -0.5980  0.5605
 5180WAT      O21439   3.887   4.887   2.235 -0.4450  0.2064 -0.1168
 5180WAT     H121440   3.867   4.966   2.206 -1.7394 -0.2607 -0.5765
 5180WAT     H221441   3.811   4.856   2.265  0.0284 -0.8671  0.0253
 5180WAT    EPW21442   3.873   4.894   2.235 -0.5663 -0.0212 -0.1637
 5181WAT      O21443   5.576   3.839   0.494  0.0756 -0.6017  0.0041
 5181WAT     H121444   5.520   3.777   0.469  0.0976 -0.7124  0.2310
 5181WAT     H221445   5.649   3.820   0.450  0.0267 -0.6269 -0.0677
 5181WAT    EPW21446   5.578   3.827   0.484  0.0716 -0.6218  0.0270
 5182WAT      O21447   4.025   5.479   0.717 -0.7498 -0.1665 -0.3566
 5182WAT     H121448   4.103   5.444   0.736 -1.0767 -0.9201 -0.3511
 5182WAT     H221449   4.040   5.524   0.644  0.0167  0.9173  0.4370
 5182WAT    EPW21450   4.039   5.480   0.709 -0.6849 -0.1177 -0.2386
 5183WAT      O21451   3.768   4.271   0.914  0.1692  0.1188  0.2543
 5183WAT     H121452   3.848   4.297   0.891  0.5718 -0.6561  0.7202
 5183WAT     H221453   3.740   4.336   0.965  1.3457 -0.5078  1.7898
 5183WAT    EPW21454   3.776   4.284   0.918  0.4025 -0.0882  0.5499
 5184WAT      O21455   5.382   6.198   0.969  0.7733  0.1786  0.2257
 5184WAT     H121456   5.340   6.157   0.905  0.8195  0.3393  0.0913
 5184WAT     H221457   5.450   6.235   0.929 -1.4258  3.9394 -0.4997
 5184WAT    EPW21458   5.386   6.197   0.954  0.4553  0.7579  0.0987
 5185WAT      O21459   4.945   4.234   1.821 -0.3140 -0.2566 -0.5271
 5185WAT     H121460   4.985   4.295   1.870  1.7696 -0.4283 -1.8759
 5185WAT     H221461   4.896   4.281   1.766  0.3828  0.1488 -0.8125
 5185WAT    EPW21462   4.944   4.250   1.820  0.0968 -0.2221 -0.7685
 5186WAT      O21463   5.765   3.073   0.450  0.0796  0.0345  0.3517
 5186WAT     H121464   5.790   3.040   0.374 -0.7836 -0.3813  0.2304
 5186WAT     H221465   5.831   3.056   0.504 -0.6037 -2.6166  0.4954
 5186WAT    EPW21466   5.778   3.066   0.447 -0.1489 -0.4185  0.3550
 5187WAT      O21467   6.095   3.548   1.704 -0.9642  0.0159  0.1325
 5187WAT     H121468   6.050   3.537   1.777 -0.4960 -0.9312  0.2905
 5187WAT     H221469   6.108   3.634   1.701 -1.5912  0.1444  0.7894
 5187WAT    EPW21470   6.090   3.559   1.714 -0.9877 -0.1050  0.2529
 5188WAT      O21471   5.696   3.634   1.695  0.1280  0.4281 -0.6071
 5188WAT     H121472   5.621   3.589   1.700 -0.0643  0.8272  0.1662
 5188WAT     H221473   5.694   3.668   1.614  0.5487 -1.3924 -1.4509
 5188WAT    EPW21474   5.685   3.632   1.683  0.1617  0.2182 -0.6175
 5189WAT      O21475   5.175   5.123   2.064 -0.4289  0.2285 -0.2736
 5189WAT     H121476   5.193   5.075   1.993  2.4735  1.0453 -0.2328
 5189WAT     H221477   5.176   5.065   2.129 -2.2812 -0.3985 -0.7626
 5189WAT    EPW21478   5.178   5.108   2.063 -0.2738  0.2565 -0.3398
 5190WAT      O21479   3.724   4.425   1.138 -0.7106 -0.2046  0.0266
 5190WAT     H121480   3.801   4.459   1.160  0.1469 -2.0212  0.0404
 5190WAT     H221481   3.669   4.492   1.145  0.5881  0.7627  1.5823
 5190WAT    EPW21482   3.727   4.440   1.142 -0.3921 -0.3300  0.2585
 5191WAT      O21483   3.893   4.566   7.757  0.4823 -0.2727 -0.6199
 5191WAT     H121484   3.887   4.619   7.826 -0.3466 -0.7897 -0.2749
 5191WAT     H221485   3.977   4.572   7.733  0.3015  1.5753 -0.9190
 5191WAT    EPW21486   3.905   4.575   7.764  0.3331 -0.0761 -0.6131
 5192WAT      O21487   3.644   4.022   1.649 -0.0066 -0.3252 -0.4811
 5192WAT     H121488   3.681   4.081   1.598 -0.3137 -0.3742 -0.7653
 5192WAT     H221489   3.572   3.999   1.605 -0.3086 -0.3185  0.0014
 5192WAT    EPW21490   3.639   4.027   1.635 -0.0966 -0.3314 -0.4518
 5193WAT      O21491   5.975   0.649   6.778  0.0468 -0.1076  0.2767
 5193WAT     H121492   5.933   0.639   6.853  0.5941 -0.7318  0.5099
 5193WAT     H221493   6.007   0.731   6.784  1.7817 -0.8111  1.6336
 5193WAT    EPW21494   5.974   0.660   6.790  0.3839 -0.3037  0.5116
 5194WAT      O21495   5.405   1.352   7.044 -0.0478 -0.3361  0.1370
 5194WAT     H121496   5.340   1.319   6.996 -0.5522  0.5244  0.2159
 5194WAT     H221497   5.477   1.331   6.999 -0.5100  0.4350 -0.9985
 5194WAT    EPW21498   5.406   1.344   7.030 -0.1906 -0.0951 -0.0191
 5195WAT      O21499   4.027   1.391   6.518  0.3598 -1.1820  0.2210
 5195WAT     H121500   4.048   1.454   6.461 -1.6350  0.8081  1.4934
 5195WAT     H221501   3.957   1.353   6.482 -2.4357  1.6257  2.0594
 5195WAT    EPW21502   4.019   1.395   6.505 -0.3478 -0.4733  0.6806
 5196WAT      O21503   5.190   2.805   6.510  0.6335  0.6779  0.0337
 5196WAT     H121504   5.207   2.873   6.561  0.3567  0.8874 -0.1532
 5196WAT     H221505   5.163   2.743   6.565 -1.1399  1.3773  0.0015
 5196WAT    EPW21506   5.189   2.806   6.525  0.3306  0.8121  0.0014
 5197WAT      O21507   5.972   1.769   7.223  0.0620 -0.7526  0.2072
 5197WAT     H121508   6.010   1.759   7.301  1.0594 -1.0444 -0.2936
 5197WAT     H221509   5.979   1.855   7.207 -1.7387 -0.3732  1.1915
 5197WAT    EPW21510   5.979   1.780   7.232 -0.0567 -0.7397  0.2786
 5198WAT      O21511   4.411   2.511   5.542 -1.0382  0.3911  0.3239
 5198WAT     H121512   4.372   2.460   5.601 -0.0991 -1.3352 -0.4641
 5198WAT     H221513   4.460   2.565   5.589  1.0708 -2.0692  1.1866
 5198WAT    EPW21514   4.412   2.511   5.557 -0.5879 -0.2273  0.3349
 5199WAT      O21515   5.241   1.338   6.170 -0.1311 -0.2528 -0.2465
 5199WAT     H121516   5.196   1.359   6.242  0.9254 -0.2335  0.4375
 5199WAT     H221517   5.304   1.399   6.168  0.3506 -0.7571 -0.7086
 5199WAT    EPW21518   5.244   1.350   6.181  0.0961 -0.3244 -0.2137
 5200WAT      O21519   5.635   1.225   5.393  0.1314 -0.1973  0.0719
 5200WAT     H121520   5.648   1.219   5.479 -1.6749 -0.3372  0.3761
 5200WAT     H221521   5.649   1.144   5.365 -1.2678 -0.6312  0.5693
 5200WAT    EPW21522   5.639   1.212   5.402 -0.3421 -0.2821  0.1903
 5201WAT      O21523   4.916   1.571   6.343  0.0414 -0.1770 -0.5648
 5201WAT     H121524   4.989   1.524   6.351  0.6258  0.7775 -0.0934
 5201WAT     H221525   4.877   1.562   6.421  0.0432 -0.0622 -0.5510
 5201WAT    EPW21526   4.921   1.562   6.356  0.1280 -0.0191 -0.4931
 5202WAT      O21527   4.178   2.713   5.661  0.7389  0.1988 -0.1817
 5202WAT     H121528   4.129   2.658   5.615  0.7162 -0.1135  0.2051
 5202WAT     H221529   4.215   2.764   5.601  0.9855 -0.4205 -0.5636
 5202WAT    EPW21530   4.176   2.713   5.646  0.7720  0.0612 -0.1810
 5203WAT      O21531   5.504   2.363   5.556 -0.0407  0.8668 -0.3941
 5203WAT     H121532   5.529   2.348   5.474 -0.6716  0.9735 -0.6181
 5203WAT     H221533   5.442   2.303   5.569  1.2341 -0.2955  0.6127
 5203WAT    EPW21534   5.498   2.352   5.546  0.0544  0.7108 -0.2784
 5204WAT      O21535   5.556   4.084   7.486  0.1968  0.1836  0.7119
 5204WAT     H121536   5.587   4.150   7.438 -1.7859  0.5742 -0.1469
 5204WAT     H221537   5.586   4.013   7.445 -0.8496  0.5242 -0.7383
 5204WAT    EPW21538   5.565   4.083   7.472 -0.2507  0.2916  0.3708
 5205WAT      O21539   3.492   1.724   7.132 -0.2766  0.0005 -0.1686
 5205WAT     H121540   3.541   1.730   7.060 -0.2658  0.8970 -0.1061
 5205WAT     H221541   3.497   1.804   7.166 -0.6143 -0.3031  0.6109
 5205WAT    EPW21542   3.500   1.737   7.126 -0.3249  0.0881 -0.0442
 5206WAT      O21543   4.377   2.493   6.324 -0.5333 -0.8202  0.5741
 5206WAT     H121544   4.340   2.414   6.317 -0.2253 -1.0471  1.3931
 5206WAT     H221545   4.336   2.529   6.391 -0.1140 -0.5980  0.7174
 5206WAT    EPW21546   4.366   2.486   6.333 -0.4259 -0.8209  0.7163
 5207WAT      O21547   5.517   2.897   6.576  0.2855  0.4158  0.0442
 5207WAT     H121548   5.464   2.966   6.577  0.4247  0.5665 -1.3955
 5207WAT     H221549   5.595   2.930   6.555  0.2091 -0.2328 -1.4080
 5207WAT    EPW21550   5.521   2.912   6.573  0.2948  0.3422 -0.3830
 5208WAT      O21551   4.716   2.141   6.340  0.2983 -0.1119  1.0238
 5208WAT     H121552   4.671   2.216   6.343 -0.2408 -0.4051  0.5530
 5208WAT     H221553   4.791   2.164   6.302  0.1434  0.1942  0.8940
 5208WAT    EPW21554   4.720   2.156   6.334  0.1958 -0.1100  0.9351
 5209WAT      O21555   2.726   1.498   6.551 -0.2881 -0.1671  0.0658
 5209WAT     H121556   2.707   1.420   6.516 -1.3441  0.2282 -0.2550
 5209WAT     H221557   2.765   1.541   6.485 -0.4315 -0.1409 -0.0018
 5209WAT    EPW21558   2.729   1.493   6.536 -0.4653 -0.1049  0.0084
 5210WAT      O21559   5.548   2.181   5.914  0.5246  0.4985 -0.0034
 5210WAT     H121560   5.503   2.224   5.975  0.7253  0.2083  0.3489
 5210WAT     H221561   5.494   2.181   5.845  1.5446  3.7194 -0.9715
 5210WAT    EPW21562   5.533   2.187   5.913  0.7050  0.9314 -0.0944
 5211WAT      O21563   4.993   1.390   6.944 -0.4881  0.9081  0.2736
 5211WAT     H121564   4.977   1.468   6.907 -0.4508  0.5015 -0.6415
 5211WAT     H221565   5.068   1.366   6.907  0.1912  1.0223  1.5486
 5211WAT    EPW21566   5.002   1.398   6.933 -0.3822  0.8649  0.3268
 5212WAT      O21567   2.951   0.634   6.399 -0.3683 -0.0128 -0.1177
 5212WAT     H121568   2.905   0.560   6.396  0.2032 -0.4423  1.1009
 5212WAT     H221569   2.941   0.661   6.482  0.8554  0.3398 -0.0743
 5212WAT    EPW21570   2.942   0.627   6.411 -0.1031 -0.0242  0.0687
 5213WAT      O21571   5.097   1.209   7.181 -0.0824  0.3123  0.3389
 5213WAT     H121572   5.115   1.294   7.190  0.8071  0.3735 -1.4199
 5213WAT     H221573   5.136   1.172   7.249  0.0498  1.2563  0.7882
 5213WAT    EPW21574   5.105   1.216   7.192  0.0685  0.4608  0.1455
 5214WAT      O21575   3.595   1.097   7.190 -0.0895 -0.0956 -0.2746
 5214WAT     H121576   3.673   1.136   7.186  0.9211 -1.9254  0.0631
 5214WAT     H221577   3.551   1.143   7.249  0.4965  1.3603 -0.9464
 5214WAT    EPW21578   3.600   1.109   7.198  0.1464 -0.1508 -0.3240
 5215WAT      O21579   4.633   2.408   6.348  0.5632  0.3644  0.5676
 5215WAT     H121580   4.652   2.460   6.415 -0.1877  0.4555  0.7173
 5215WAT     H221581   4.550   2.426   6.331  0.2848 -0.7792  0.6194
 5215WAT    EPW21582   4.624   2.418   6.355  0.4112  0.2090  0.5973
 5216WAT      O21583   3.376   0.485   7.814 -0.4163  0.1636 -0.4095
 5216WAT     H121584   3.316   0.481   7.877  1.2244  0.8322  1.2943
 5216WAT     H221585   3.393   0.402   7.797 -1.2351 -0.0283 -0.3236
 5216WAT    EPW21586   3.369   0.472   7.821 -0.2949  0.2340 -0.1451
 5217WAT      O21587   4.443   3.256   6.513  0.6045 -0.4395  0.0923
 5217WAT     H121588   4.471   3.206   6.447  0.9714 -1.2039  0.8070
 5217WAT     H221589   4.407   3.324   6.473 -0.6210 -1.6363 -0.9580
 5217WAT    EPW21590   4.441   3.259   6.498  0.4776 -0.7292  0.0427
 5218WAT      O21591   4.432   2.808   5.149  0.2600  0.1008 -0.3267
 5218WAT     H121592   4.428   2.721   5.141 -1.1169  0.2759 -2.4695
 5218WAT     H221593   4.478   2.833   5.080  1.0699  1.0838  0.5362
 5218WAT    EPW21594   4.438   2.799   5.138  0.1763  0.2719 -0.5158
 5219WAT      O21595   5.751   3.272   6.453  0.1521  0.5195  0.1398
 5219WAT     H121596   5.825   3.269   6.407  0.8786 -1.3883  1.3214
 5219WAT     H221597   5.689   3.274   6.391  1.0712 -2.4593 -1.0632
 5219WAT    EPW21598   5.753   3.271   6.437  0.3952 -0.2024  0.1366
 5220WAT      O21599   5.084   3.435   6.073 -0.1373  0.2558 -0.2571
 5220WAT     H121600   5.084   3.464   5.991 -2.6779  1.5016  0.1089
 5220WAT     H221601   5.048   3.356   6.067  0.8975 -0.2217 -0.4572
 5220WAT    EPW21602   5.079   3.428   6.060 -0.3597  0.3693 -0.2326
 5221WAT      O21603   3.764   0.865   7.343  0.0105  0.1243  1.0541
 5221WAT     H121604   3.829   0.843   7.290  0.0924  2.3712  0.0962
 5221WAT     H221605   3.693   0.859   7.293 -0.1792  0.2799  1.3025
 5221WAT    EPW21606   3.763   0.861   7.328 -0.0054  0.4792  0.9493
 5222WAT      O21607   3.915   2.406   5.302 -0.6162  0.1165  0.0161
 5222WAT     H121608   3.868   2.470   5.265  0.4355  1.3560  0.7383
 5222WAT     H221609   3.918   2.430   5.386  0.4660 -0.4612  0.1556
 5222WAT    EPW21610   3.908   2.419   5.309 -0.3009  0.2142  0.1434
 5223WAT      O21611   6.810   7.466   5.973 -0.3124  0.4494 -0.2531
 5223WAT     H121612   6.836   7.383   5.985 -0.4756 -0.2292 -3.6655
 5223WAT     H221613   6.783   7.490   6.052  1.0832 -2.2591  1.1915
 5223WAT    EPW21614   6.810   7.457   5.986 -0.1304 -0.0509 -0.5438
 5224WAT      O21615   4.974   2.581   0.053  0.1322 -0.3780 -0.6561
 5224WAT     H121616   4.961   2.603  -0.030  0.5589  0.5720 -0.4941
 5224WAT     H221617   4.923   2.637   0.097  2.2061  1.2886 -0.1677
 5224WAT    EPW21618   4.965   2.593   0.048  0.5016  0.0085 -0.5600
 5225WAT      O21619   4.358   2.753   7.335 -0.2197 -0.0203 -0.3641
 5225WAT     H121620   4.420   2.814   7.326 -0.1938  0.2305  1.2068
 5225WAT     H221621   4.403   2.681   7.353 -0.3338  0.5770  2.9311
 5225WAT    EPW21622   4.373   2.752   7.336 -0.2327  0.1050  0.3547
 5226WAT      O21623   3.447   2.628   6.076  0.7294 -0.4118 -0.1249
 5226WAT     H121624   3.444   2.623   5.989  0.3380  0.3685 -0.1641
 5226WAT     H221625   3.397   2.562   6.102  0.4588 -0.3596 -0.5021
 5226WAT    EPW21626   3.439   2.618   6.067  0.6316 -0.2888 -0.1864
 5227WAT      O21627   5.624   4.368   7.671  0.3435 -0.1606 -0.2130
 5227WAT     H121628   5.663   4.346   7.746  0.6546 -0.4336 -0.4480
 5227WAT     H221629   5.545   4.331   7.677  0.9848 -1.7185 -0.7603
 5227WAT    EPW21630   5.618   4.359   7.683  0.4842 -0.4311 -0.3286
 5228WAT      O21631   4.090   2.258   6.422  0.5788  0.2456 -0.1162
 5228WAT     H121632   4.063   2.208   6.489  1.8596 -0.3296  0.0033
 5228WAT     H221633   4.089   2.203   6.354 -3.9601  1.5819 -1.4862
 5228WAT    EPW21634   4.086   2.242   6.422  0.0975  0.3580 -0.3009
 5229WAT      O21635   4.789   1.838   6.999 -0.3027 -0.2835 -0.3463
 5229WAT     H121636   4.826   1.917   6.992  1.2173 -0.7268  1.6558
 5229WAT     H221637   4.816   1.796   6.927  1.2734  0.1509 -0.0373
 5229WAT    EPW21638   4.799   1.843   6.988  0.1547 -0.2848 -0.0049
 5230WAT      O21639   4.547   0.954   5.513  0.4381  1.1256 -0.7796
 5230WAT     H121640   4.503   0.986   5.445  0.5947  1.4882 -0.7132
 5230WAT     H221641   4.491   0.962   5.580  0.6124  1.6317 -0.6853
 5230WAT    EPW21642   4.532   0.960   5.513  0.4870  1.2539 -0.7559
 5231WAT      O21643   5.340   4.814   7.007 -0.2669 -0.4457 -0.0449
 5231WAT     H121644   5.291   4.875   7.043  0.4475  0.4154 -0.4813
 5231WAT     H221645   5.333   4.746   7.061  0.4916  0.6780  1.5060
 5231WAT    EPW21646   5.332   4.813   7.020 -0.0493 -0.1525  0.1198
 5232WAT      O21647   4.071   2.119   6.173  0.1247  0.2109 -0.0335
 5232WAT     H121648   4.060   2.104   6.088 -1.0585  0.3030  0.0838
 5232WAT     H221649   4.093   2.042   6.205 -0.2424 -0.0101 -0.3052
 5232WAT    EPW21650   4.073   2.106   6.165 -0.1043  0.1919 -0.0563
 5233WAT      O21651   5.446   0.268   5.436 -0.2458 -0.1627 -0.5152
 5233WAT     H121652   5.525   0.234   5.426 -0.6445 -1.2083 -0.1976
 5233WAT     H221653   5.429   0.255   5.521 -0.0789  1.5761 -0.1804
 5233WAT    EPW21654   5.455   0.261   5.447 -0.2800 -0.0603 -0.4188
 5234WAT      O21655   4.131   2.002   6.992  0.0675 -0.0003  0.5888
 5234WAT     H121656   4.211   2.021   6.963  0.0183 -1.8737 -0.9698
 5234WAT     H221657   4.083   1.995   6.920 -0.4561 -3.1424  1.0656
 5234WAT    EPW21658   4.135   2.003   6.977 -0.0171 -0.7412  0.4290
 5235WAT      O21659   4.386   2.378   0.533  0.5499 -0.2266  0.0293
 5235WAT     H121660   4.302   2.383   0.558  0.1863 -1.4495 -0.8276
 5235WAT     H221661   4.381   2.360   0.448  1.6954 -0.1119 -0.0790
 5235WAT    EPW21662   4.373   2.376   0.524  0.6654 -0.3903 -0.1133
 5236WAT      O21663   6.453   1.797   6.305 -0.5435 -1.0807 -0.1606
 5236WAT     H121664   6.528   1.756   6.326  0.2899  0.0627 -0.7916
 5236WAT     H221665   6.480   1.874   6.275 -2.0908  1.2131  3.5790
 5236WAT    EPW21666   6.468   1.802   6.304 -0.6490 -0.5729  0.2986
 5237WAT      O21667   6.187   1.331   5.212  0.0418 -0.3416  0.6790
 5237WAT     H121668   6.167   1.413   5.231 -0.4288  0.4702 -2.7317
 5237WAT     H221669   6.120   1.304   5.163  2.5889 -0.7003 -3.0985
 5237WAT    EPW21670   6.174   1.339   5.207  0.3485 -0.2747 -0.3829
 5238WAT      O21671   4.955   0.522   6.524 -0.0032  0.6162  0.4059
 5238WAT     H121672   4.983   0.455   6.476 -0.4157 -0.9408  2.2351
 5238WAT     H221673   5.015   0.529   6.587 -0.7635  0.9401  1.1116
 5238WAT    EPW21674   4.968   0.513   6.526 -0.1765  0.4340  0.7804
 5239WAT      O21675   4.928   1.854   6.396 -0.1829  0.4031 -0.1981
 5239WAT     H121676   4.904   1.772   6.380 -0.2486  0.0615  1.4551
 5239WAT     H221677   5.010   1.846   6.426 -0.6190  0.7787  1.1681
 5239WAT    EPW21678   4.937   1.841   6.398 -0.2570  0.4081  0.2479
 5240WAT      O21679   4.357   1.535   6.407 -0.1233 -0.4307 -0.2163
 5240WAT     H121680   4.335   1.525   6.491 -0.6529 -0.2101 -0.3240
 5240WAT     H221681   4.425   1.482   6.397  0.8632  0.6183  0.7187
 5240WAT    EPW21682   4.364   1.526   6.418 -0.0558 -0.2431 -0.0941
 5241WAT      O21683   5.611   4.528   7.433 -0.0453  0.2142  0.1051
 5241WAT     H121684   5.597   4.444   7.451 -2.3063  0.2299 -1.2165
 5241WAT     H221685   5.638   4.526   7.350  0.4148  0.7622  0.2398
 5241WAT    EPW21686   5.613   4.515   7.423 -0.3114  0.2974 -0.0702
 5242WAT      O21687   6.590   1.777   5.612  0.0631 -0.7947  0.2565
 5242WAT     H121688   6.633   1.813   5.545 -1.1535 -1.2250 -0.8052
 5242WAT     H221689   6.642   1.711   5.636 -0.3651 -1.8710 -1.5981
 5242WAT    EPW21690   6.604   1.772   5.606 -0.1798 -1.0173 -0.1743
 5243WAT      O21691   4.848   0.984   6.910 -0.4429  0.4323  0.2234
 5243WAT     H121692   4.818   0.944   6.838  1.8665  1.6760 -1.5854
 5243WAT     H221693   4.820   1.066   6.901 -1.4883  0.2627  1.6396
 5243WAT    EPW21694   4.839   0.990   6.898 -0.2562  0.5909  0.1654
 5244WAT      O21695   4.544   1.908   7.704  0.0732 -0.0376  0.1408
 5244WAT     H121696   4.485   1.857   7.743 -2.1195  3.6170  2.0785
 5244WAT     H221697   4.500   1.941   7.636  0.0110  2.2281  1.2170
 5244WAT    EPW21698   4.529   1.905   7.699 -0.2599  0.8369  0.5860
 5245WAT      O21699   6.979   0.798   7.640 -0.4269  0.4346  0.4779
 5245WAT     H121700   6.966   0.728   7.589  0.4996  0.2551  0.4681
 5245WAT     H221701   7.036   0.846   7.595  1.2797 -0.2567  1.8066
 5245WAT    EPW21702   6.985   0.795   7.626 -0.0380  0.3059  0.6727
 5246WAT      O21703   4.811   2.568   7.405  0.1590 -0.7702  0.4504
 5246WAT     H121704   4.753   2.619   7.366  0.3354 -0.1797  0.9479
 5246WAT     H221705   4.766   2.495   7.422  0.3180 -1.4286 -1.6512
 5246WAT    EPW21706   4.796   2.565   7.402  0.2086 -0.7803  0.2134
 5247WAT      O21707   3.317   0.851   6.714 -0.3083 -0.1918 -0.1521
 5247WAT     H121708   3.309   0.887   6.635 -1.1681  1.0620  0.4575
 5247WAT     H221709   3.393   0.882   6.743 -0.0456 -0.5632 -0.4477
 5247WAT    EPW21710   3.327   0.861   6.707 -0.3965 -0.0615 -0.1057
 5248WAT      O21711   4.844   2.565   6.746 -0.6311 -0.3790  0.4847
 5248WAT     H121712   4.811   2.610   6.679 -0.9310 -0.5894  0.4890
 5248WAT     H221713   4.903   2.620   6.780 -0.3368 -0.3480 -0.0660
 5248WAT    EPW21714   4.848   2.580   6.741 -0.6319 -0.4055  0.4040
 5249WAT      O21715   4.428   2.010   7.463 -0.4989  0.4148  0.5461
 5249WAT     H121716   4.477   2.002   7.391 -0.4460  2.0341  0.3532
 5249WAT     H221717   4.363   1.953   7.451  0.4603 -0.5983  0.0487
 5249WAT    EPW21718   4.426   2.001   7.451 -0.3494  0.5044  0.4441
 5250WAT      O21719   2.984   1.900   7.304 -0.6345  0.1586  0.1863
 5250WAT     H121720   3.038   1.845   7.264 -1.3768 -0.4464 -0.0108
 5250WAT     H221721   2.966   1.860   7.380 -0.6157  0.4678  0.3550
 5250WAT    EPW21722   2.989   1.886   7.310 -0.7414  0.1149  0.1821
 5251WAT      O21723   4.628   2.146   6.829 -0.6155  0.1862  1.2397
 5251WAT     H121724   4.673   2.170   6.758 -2.2391  2.1622  0.7642
 5251WAT     H221725   4.689   2.137   6.890  0.7483 -0.7829 -0.1917
 5251WAT    EPW21726   4.643   2.148   6.827 -0.6539  0.3349  0.9580
 5252WAT      O21727   3.668   7.025   5.555  0.3524  0.4392  0.3813
 5252WAT     H121728   3.715   6.992   5.621 -0.6940 -0.6569  0.6146
 5252WAT     H221729   3.721   7.017   5.486  0.4396 -1.0240  0.5878
 5252WAT    EPW21730   3.682   7.019   5.555  0.2107  0.0612  0.4463
 5253WAT      O21731   5.234   0.859   7.298 -0.2886  0.1770  0.5809
 5253WAT     H121732   5.292   0.856   7.233  0.0803 -2.6523  0.9233
 5253WAT     H221733   5.157   0.849   7.258 -0.2041  0.0837  0.4392
 5253WAT    EPW21734   5.231   0.857   7.283 -0.2216 -0.2547  0.6105
 5254WAT      O21735   3.680   0.855   0.186 -0.3997  0.5189 -0.5212
 5254WAT     H121736   3.727   0.814   0.248 -0.9998 -1.2059 -1.1641
 5254WAT     H221737   3.725   0.839   0.113 -0.8346  0.7309 -0.8317
 5254WAT    EPW21738   3.694   0.847   0.185 -0.5526  0.2954 -0.6620
 5255WAT      O21739   4.846   3.441   6.544 -0.0292 -0.3919  0.4988
 5255WAT     H121740   4.900   3.498   6.582  2.0111 -1.7625 -0.1686
 5255WAT     H221741   4.899   3.379   6.515 -1.9494 -1.5622 -0.7328
 5255WAT    EPW21742   4.862   3.440   6.545 -0.0115 -0.7673  0.2183
 5256WAT      O21743   4.974   2.007   5.583 -0.1518  0.7021  0.1756
 5256WAT     H121744   4.999   2.086   5.555 -0.2391  0.4331 -0.7026
 5256WAT     H221745   5.044   1.977   5.626 -0.1477  1.2861  0.5810
 5256WAT    EPW21746   4.988   2.014   5.585 -0.1641  0.7486  0.1057
 5257WAT      O21747   5.209   3.515   0.332 -0.1036  0.1242  0.0974
 5257WAT     H121748   5.134   3.560   0.335  0.8831  1.8751 -0.6663
 5257WAT     H221749   5.223   3.503   0.247  1.3908  1.4652  0.1017
 5257WAT    EPW21750   5.200   3.520   0.320  0.2630  0.5809 -0.0148
 5258WAT      O21751   3.853   1.211   7.129  0.6739  0.2454  0.1376
 5258WAT     H121752   3.832   1.282   7.084  2.3502  1.0364  0.5525
 5258WAT     H221753   3.912   1.239   7.187  1.2356 -1.4361  0.4414
 5258WAT    EPW21754   3.858   1.225   7.131  1.0045  0.1139  0.2437
 5259WAT      O21755   6.214   2.358   6.799  0.0447  0.2659 -0.3754
 5259WAT     H121756   6.162   2.303   6.843 -0.4038  1.3706  0.5363
 5259WAT     H221757   6.161   2.424   6.778  1.1033  1.5659  0.8480
 5259WAT    EPW21758   6.199   2.360   6.803  0.1348  0.6211 -0.0600
 5260WAT      O21759   6.085   1.166   6.690  0.4113 -0.0270 -0.4991
 5260WAT     H121760   6.073   1.235   6.741 -0.2763 -0.9681  0.6682
 5260WAT     H221761   6.165   1.177   6.658  0.1707  1.4856 -0.6396
 5260WAT    EPW21762   6.095   1.178   6.692  0.2742  0.0574 -0.3474
 5261WAT      O21763   4.510   1.852   6.956 -0.5117  0.4522  0.0373
 5261WAT     H121764   4.505   1.911   7.020  0.4957  0.9944 -0.3604
 5261WAT     H221765   4.596   1.839   6.947 -0.6990 -0.6773 -0.2491
 5261WAT    EPW21766   4.522   1.859   6.964 -0.3906  0.3654 -0.0638
 5262WAT      O21767   4.832   1.035   5.229 -0.2134  0.1976  0.3483
 5262WAT     H121768   4.790   1.078   5.166 -0.2925  0.7554  0.7811
 5262WAT     H221769   4.917   1.049   5.211 -0.1147 -1.7709 -1.1304
 5262WAT    EPW21770   4.839   1.043   5.217 -0.2105 -0.0108  0.1938
 5263WAT      O21771   4.882   3.371   5.666  0.2531 -0.0540 -0.0601
 5263WAT     H121772   4.882   3.304   5.611 -0.5191  0.4218 -0.6670
 5263WAT     H221773   4.831   3.430   5.626  2.0105  1.4429 -0.2308
 5263WAT    EPW21774   4.874   3.370   5.652  0.3986  0.2374 -0.1749
 5264WAT      O21775   5.568   2.623   0.213  0.2348  0.1968  0.1114
 5264WAT     H121776   5.606   2.644   0.137  0.7412 -0.9319  0.0362
 5264WAT     H221777   5.520   2.693   0.231 -0.4592  0.2227 -1.6099
 5264WAT    EPW21778   5.567   2.636   0.204  0.2071  0.0339 -0.1540
 5265WAT      O21779   3.850   1.419   7.680  0.5903 -0.1464  0.1438
 5265WAT     H121780   3.932   1.398   7.700  0.6207  1.2463  1.6474
 5265WAT     H221781   3.852   1.506   7.674 -0.6525 -0.1433 -0.4767
 5265WAT    EPW21782   3.863   1.428   7.682  0.4112  0.0598  0.2743
 5266WAT      O21783   5.306   0.927   6.638  0.9358 -0.0839 -0.4037
 5266WAT     H121784   5.355   0.864   6.675 -0.9951 -1.1197  0.5835
 5266WAT     H221785   5.273   0.888   6.567 -1.1505 -0.6896  0.7953
 5266WAT    EPW21786   5.308   0.912   6.633  0.3424 -0.3264 -0.0808
 5267WAT      O21787   4.467   1.992   6.263  0.0306  0.4055 -0.2880
 5267WAT     H121788   4.542   2.014   6.224  0.7204 -0.2477  0.6120
 5267WAT     H221789   4.482   2.012   6.347 -0.3141 -0.9163  0.1137
 5267WAT    EPW21790   4.480   1.998   6.270  0.0816  0.1138 -0.0957
 5268WAT      O21791   5.375   3.022   5.879  0.1221 -0.3436  0.1569
 5268WAT     H121792   5.403   3.090   5.926 -0.7107 -0.7388  1.2793
 5268WAT     H221793   5.341   3.059   5.808 -0.5027  0.4354  0.8436
 5268WAT    EPW21794   5.374   3.037   5.876 -0.0932 -0.2869  0.4241
 5269WAT      O21795   6.183   1.820   5.791  0.5147  0.6254 -0.1445
 5269WAT     H121796   6.247   1.863   5.751  2.7321 -2.0783  0.2410
 5269WAT     H221797   6.197   1.836   5.876  0.2148  0.6130 -0.0905
 5269WAT    EPW21798   6.194   1.829   5.798  0.7979  0.2242 -0.0796
 5270WAT      O21799   5.392   1.583   5.839  0.0732  0.0699  0.0053
 5270WAT     H121800   5.316   1.554   5.808  0.0487  0.6612 -0.5204
 5270WAT     H221801   5.449   1.522   5.815 -0.0082  0.3387 -0.8860
 5270WAT    EPW21802   5.389   1.570   5.831  0.0576  0.1969 -0.2040
 5271WAT      O21803   4.331   3.451   6.332  0.1883  0.4839 -0.2373
 5271WAT     H121804   4.284   3.401   6.278  0.0638  1.8584 -1.4788
 5271WAT     H221805   4.271   3.493   6.379  0.3010 -0.8892  1.2028
 5271WAT    EPW21806   4.316   3.450   6.331  0.1865  0.4841 -0.2079
 5272WAT      O21807   4.103   1.579   6.308  0.7946  0.4617 -0.3409
 5272WAT     H121808   4.186   1.573   6.334  0.8678  1.1033 -0.3970
 5272WAT     H221809   4.101   1.534   6.233  0.7399 -0.8124  0.3994
 5272WAT    EPW21810   4.115   1.572   6.301  0.7974  0.3683 -0.2398
 5273WAT      O21811   4.644   1.268   5.562  0.2325 -0.0647 -0.0793
 5273WAT     H121812   4.622   1.337   5.514  0.8551  0.2155  0.0347
 5273WAT     H221813   4.577   1.260   5.618  0.5495  0.9745  0.4701
 5273WAT    EPW21814   4.631   1.277   5.563  0.3713  0.1302  0.0187
 5274WAT      O21815   5.544   4.652   0.788 -0.4034  0.0923  0.3121
 5274WAT     H121816   5.575   4.692   0.859 -0.1097  0.9707 -0.2906
 5274WAT     H221817   5.499   4.715   0.748 -1.0046 -0.5363 -0.0273
 5274WAT    EPW21818   5.542   4.667   0.793 -0.4488  0.1292  0.1729
 5275WAT      O21819   4.305   2.875   5.487  0.7960  0.4777  0.1143
 5275WAT     H121820   4.380   2.849   5.450  0.9522  1.6061 -0.4241
 5275WAT     H221821   4.267   2.923   5.424 -1.8005 -2.3502 -0.7475
 5275WAT    EPW21822   4.310   2.878   5.472  0.4355  0.2266 -0.0926
 5276WAT      O21823   4.717   2.143   7.720 -0.2038  0.5565 -0.1948
 5276WAT     H121824   4.673   2.068   7.713  1.7111 -0.6043 -0.9253
 5276WAT     H221825   4.745   2.157   7.638  0.1886  1.6082  0.1077
 5276WAT    EPW21826   4.715   2.134   7.707  0.1370  0.5404 -0.2580
 5277WAT      O21827   2.790   2.556   5.788  0.5419  0.7356 -0.1094
 5277WAT     H121828   2.860   2.530   5.743  0.7611  1.6053 -0.2980
 5277WAT     H221829   2.763   2.484   5.828  0.8156  0.1145 -1.0096
 5277WAT    EPW21830   2.797   2.542   5.787  0.6147  0.7723 -0.2702
 5278WAT      O21831   4.492   1.525   7.269  0.0582  0.3654 -0.4324
 5278WAT     H121832   4.422   1.530   7.321  0.8157  1.1304  0.5652
 5278WAT     H221833   4.514   1.441   7.272 -0.0190  0.3602  0.3707
 5278WAT    EPW21834   4.485   1.513   7.277  0.1587  0.4776 -0.1664
 5279WAT      O21835   5.134   2.092   6.890 -0.3826 -0.1197  0.1368
 5279WAT     H121836   5.208   2.079   6.935 -0.1847  1.3722  0.3012
 5279WAT     H221837   5.151   2.165   6.845 -0.2063 -2.0126 -3.1680
 5279WAT    EPW21838   5.147   2.101   6.890 -0.3273 -0.1789 -0.3271
 5280WAT      O21839   5.235   3.058   6.624 -0.5303  0.0357  0.8382
 5280WAT     H121840   5.287   3.099   6.680  0.3663  0.4024 -0.2202
 5280WAT     H221841   5.155   3.072   6.656 -0.1501  1.3892  1.2773
 5280WAT    EPW21842   5.231   3.066   6.637 -0.3417  0.2898  0.7467
 5281WAT      O21843   3.808   4.303   6.222  0.2540 -0.1124  0.2032
 5281WAT     H121844   3.723   4.303   6.202  0.8082  1.0424 -2.6036
 5281WAT     H221845   3.825   4.387   6.237  0.9412 -0.3161  0.5912
 5281WAT    EPW21846   3.798   4.315   6.221  0.4374  0.0281 -0.1541
 5282WAT      O21847   4.555   3.048   6.349 -0.0482  0.1129 -0.3715
 5282WAT     H121848   4.518   2.972   6.373  0.7030 -0.2632 -0.3803
 5282WAT     H221849   4.547   3.048   6.262 -2.3253  1.2468 -0.2522
 5282WAT    EPW21850   4.548   3.037   6.340 -0.2736  0.2249 -0.3552
 5283WAT      O21851   6.200   1.568   5.687  0.9181 -0.1350  0.2189
 5283WAT     H121852   6.268   1.555   5.634  1.2009  1.4434  0.1661
 5283WAT     H221853   6.203   1.653   5.705 -1.1593  0.0162  0.0721
 5283WAT    EPW21854   6.211   1.578   5.682  0.6530  0.1205  0.1894
 5284WAT      O21855   3.635   0.575   0.393  0.0110 -0.7040 -0.2983
 5284WAT     H121856   3.571   0.626   0.422  1.1561  1.2568 -1.0141
 5284WAT     H221857   3.594   0.518   0.341 -1.3093 -0.5184  0.4857
 5284WAT    EPW21858   3.619   0.574   0.389 -0.0149 -0.3869 -0.2882
 5285WAT      O21859   4.644   3.021   7.052  0.0745  0.6025  0.2630
 5285WAT     H121860   4.648   2.995   6.968 -1.1287 -0.4723  0.5139
 5285WAT     H221861   4.685   2.958   7.095  3.5502  2.6156  0.2988
 5285WAT    EPW21862   4.651   3.008   7.046  0.4102  0.7411  0.3053
 5286WAT      O21863   4.907   4.598   7.339 -0.5164 -0.0093 -0.2943
 5286WAT     H121864   4.897   4.547   7.269 -0.8923 -0.8024  0.3267
 5286WAT     H221865   4.895   4.544   7.406  0.6913  0.5604  0.4070
 5286WAT    EPW21866   4.903   4.583   7.339 -0.3935 -0.0423 -0.0990
 5287WAT      O21867   4.582   1.387   6.331  0.4106  0.0443  0.3265
 5287WAT     H121868   4.560   1.307   6.306 -0.0271  0.5650 -1.0005
 5287WAT     H221869   4.658   1.375   6.372 -0.2856 -1.2078  1.3278
 5287WAT    EPW21870   4.590   1.373   6.334  0.2431 -0.0637  0.2784
 5288WAT      O21871   4.923   2.442   7.174  0.2922  0.2012  0.6094
 5288WAT     H121872   4.895   2.482   7.246 -0.7582 -1.7963  1.4152
 5288WAT     H221873   4.855   2.447   7.120  0.7638  0.9376  0.0731
 5288WAT    EPW21874   4.909   2.448   7.177  0.2067  0.0149  0.6492
 5289WAT      O21875   5.380   3.801   5.649 -0.2989 -0.5222 -0.5734
 5289WAT     H121876   5.396   3.845   5.575  2.0151  2.5835  1.5001
 5289WAT     H221877   5.298   3.825   5.670  0.1661  1.2024 -0.5826
 5289WAT    EPW21878   5.370   3.811   5.641  0.1116  0.1913 -0.2684
 5290WAT      O21879   5.046   3.404   4.660 -0.1317  0.0405  0.1143
 5290WAT     H121880   5.117   3.455   4.664  1.4225 -2.0944  2.1649
 5290WAT     H221881   5.059   3.355   4.590 -0.5364  0.8888 -0.5724
 5290WAT    EPW21882   5.058   3.404   4.651  0.0381 -0.1495  0.3158
 5291WAT      O21883   4.664   0.414   6.401  0.3401  0.1155  0.6668
 5291WAT     H121884   4.733   0.385   6.445  0.8647  1.3478  0.7067
 5291WAT     H221885   4.621   0.462   6.460 -1.2179 -1.5461  0.9880
 5291WAT    EPW21886   4.668   0.417   6.416  0.1875  0.0521  0.7201
 5292WAT      O21887   2.617   1.488   7.769  0.4795  0.5029  0.3910
 5292WAT     H121888   2.686   1.459   7.815 -0.5683 -0.4089  1.4444
 5292WAT     H221889   2.642   1.478   7.686  0.9477 -1.5204  0.7331
 5292WAT    EPW21890   2.631   1.482   7.764  0.3938  0.0693  0.5972
 5293WAT      O21891   4.070   4.300   6.577  0.2341  0.3181  0.3684
 5293WAT     H121892   4.115   4.267   6.644  1.9224  2.5175  0.4443
 5293WAT     H221893   4.109   4.267   6.507 -0.4019 -0.6090  0.4390
 5293WAT    EPW21894   4.082   4.290   6.577  0.3895  0.5060  0.3900
 5294WAT      O21895   4.733   1.819   0.243  0.0763 -0.1151 -0.6835
 5294WAT     H121896   4.702   1.740   0.265  0.6464  0.3697  2.3692
 5294WAT     H221897   4.756   1.810   0.160 -2.4742 -2.3018 -1.3143
 5294WAT    EPW21898   4.732   1.806   0.234 -0.2162 -0.3665 -0.3257
 5295WAT      O21899   6.850   2.379   6.200  0.3021 -0.2827 -0.7032
 5295WAT     H121900   6.920   2.382   6.252 -1.3033 -2.2626  1.8390
 5295WAT     H221901   6.789   2.422   6.245 -0.5563  0.0503 -2.1236
 5295WAT    EPW21902   6.851   2.386   6.215 -0.0619 -0.5260 -0.5375
 5296WAT      O21903   5.016   1.751   3.565  0.1027  0.0204  0.2011
 5296WAT     H121904   4.961   1.803   3.522  1.3143  0.7440 -0.5267
 5296WAT     H221905   5.032   1.793   3.639 -0.2192 -0.1352  0.3615
 5296WAT    EPW21906   5.011   1.765   3.569  0.2341  0.1043  0.1173
 5297WAT      O21907   4.797   1.089   7.380  0.0125  0.3015 -0.1330
 5297WAT     H121908   4.731   1.114   7.431  0.3977  0.4047  0.3232
 5297WAT     H221909   4.830   1.020   7.422  0.5405  0.5862 -0.0704
 5297WAT    EPW21910   4.792   1.082   7.394  0.1474  0.3588 -0.0564
 5298WAT      O21911   2.931   2.568   6.318 -0.0179  0.0740  0.5995
 5298WAT     H121912   2.894   2.647   6.319 -0.7832 -0.2749  1.6323
 5298WAT     H221913   2.972   2.563   6.394  1.2451  0.0164 -0.0666
 5298WAT    EPW21914   2.931   2.579   6.329  0.0556  0.0139  0.6536
 5299WAT      O21915   5.600   1.958   6.550 -0.4666  0.1623  0.1179
 5299WAT     H121916   5.605   2.045   6.547 -1.0268  0.2034  0.2623
 5299WAT     H221917   5.604   1.934   6.467  0.9559  0.2418  0.1412
 5299WAT    EPW21918   5.601   1.967   6.538 -0.3392  0.1801  0.1427
 5300WAT      O21919   5.864   2.947   0.213  0.4604 -0.4013 -0.2398
 5300WAT     H121920   5.907   2.873   0.198  2.2110  0.5072  0.1087
 5300WAT     H221921   5.811   2.955   0.143  1.7385 -0.9433 -1.3051
 5300WAT    EPW21922   5.863   2.937   0.200  0.9078 -0.3472 -0.3457
 5301WAT      O21923   4.342   0.442   6.674  0.3933 -0.2531  0.5908
 5301WAT     H121924   4.288   0.436   6.605 -1.4310  0.0686  1.9281
 5301WAT     H221925   4.400   0.502   6.649 -0.7878  0.5517 -0.3366
 5301WAT    EPW21926   4.343   0.450   6.660 -0.0506 -0.0867  0.6513
 5302WAT      O21927   6.288   0.214   6.661  0.3191 -0.2579 -0.2108
 5302WAT     H121928   6.209   0.249   6.676  0.0048 -0.2425 -1.7962
 5302WAT     H221929   6.293   0.211   6.574  2.8720  1.5556 -0.2233
 5302WAT    EPW21930   6.277   0.219   6.650  0.6497  0.0123 -0.4469
 5303WAT      O21931   5.334   3.514   5.092 -0.3621  0.3338 -0.6965
 5303WAT     H121932   5.338   3.534   5.177  0.7108 -1.8304 -0.1615
 5303WAT     H221933   5.283   3.576   5.059 -2.2845  0.2844  1.8449
 5303WAT    EPW21934   5.327   3.526   5.100 -0.4876  0.0068 -0.2421
 5304WAT      O21935   4.763   0.621   7.398  0.1310 -0.0903 -0.2421
 5304WAT     H121936   4.738   0.672   7.464  0.7027  1.5826 -1.2697
 5304WAT     H221937   4.769   0.542   7.434 -0.2317  0.6578  1.5317
 5304WAT    EPW21938   4.760   0.617   7.413  0.1619  0.2674 -0.1318
 5305WAT      O21939   4.344   3.340   5.678 -0.0202 -0.0331 -0.5348
 5305WAT     H121940   4.340   3.320   5.593 -1.7584  0.5130 -0.6232
 5305WAT     H221941   4.391   3.413   5.680 -2.5462  1.7506 -1.4521
 5305WAT    EPW21942   4.350   3.348   5.666 -0.6501  0.3110 -0.6834
 5306WAT      O21943   6.008   2.615   6.041  0.4093  0.1976  0.1499
 5306WAT     H121944   5.942   2.646   5.993  2.1991  1.3844 -1.6590
 5306WAT     H221945   6.033   2.543   5.999  1.0233  0.4055  0.1499
 5306WAT    EPW21946   6.002   2.609   6.028  0.7644  0.4036 -0.1173
 5307WAT      O21947   2.445   1.243   6.649 -0.2572 -0.3182  0.3140
 5307WAT     H121948   2.445   1.285   6.572 -0.7930  0.7629  0.8846
 5307WAT     H221949   2.526   1.212   6.655 -0.5564 -1.5127 -1.2497
 5307WAT    EPW21950   2.457   1.245   6.638 -0.3806 -0.3349  0.1673
 5308WAT      O21951   5.878   1.879   7.608 -0.2708 -0.6401 -0.4106
 5308WAT     H121952   5.903   1.952   7.650 -0.0804 -1.1256  0.3520
 5308WAT     H221953   5.952   1.851   7.570 -0.3516 -0.4138 -0.7309
 5308WAT    EPW21954   5.893   1.885   7.609 -0.2546 -0.6784 -0.3453
 5309WAT      O21955   4.934   3.161   5.502  0.3787 -0.3023  0.2746
 5309WAT     H121956   4.935   3.092   5.555  1.5904 -0.5352 -0.0331
 5309WAT     H221957   4.874   3.139   5.442  0.8242 -1.1366  0.1197
 5309WAT    EPW21958   4.925   3.148   5.501  0.6235 -0.4599  0.2062
 5310WAT      O21959   5.959   2.278   7.344 -0.4027 -0.3994  0.2728
 5310WAT     H121960   5.877   2.302   7.329 -0.0532  0.2232 -0.7654
 5310WAT     H221961   5.956   2.242   7.423 -1.6182 -0.1500  0.3582
 5310WAT    EPW21962   5.947   2.276   7.353 -0.5306 -0.2706  0.1320
 5311WAT      O21963   5.643   3.523   5.766 -0.0600 -0.7512 -0.0230
 5311WAT     H121964   5.661   3.452   5.717  0.8287 -0.2127 -0.4965
 5311WAT     H221965   5.691   3.586   5.730 -0.1037 -0.1158  0.9862
 5311WAT    EPW21966   5.653   3.522   5.753  0.0648 -0.5778  0.0561
 5312WAT      O21967   5.317   1.945   5.919 -0.3667 -0.2067  0.0779
 5312WAT     H121968   5.368   1.897   5.971 -1.1078 -0.5880  0.4500
 5312WAT     H221969   5.253   1.972   5.971 -1.0211 -0.4527 -0.5855
 5312WAT    EPW21970   5.315   1.942   5.934 -0.5728 -0.2994  0.0349
 5313WAT      O21971   6.060   3.067   6.897  0.1002  0.2937  0.2387
 5313WAT     H121972   6.050   2.982   6.911  0.7500  0.2330  0.3708
 5313WAT     H221973   6.090   3.071   6.815  0.9131  0.3308  0.5295
 5313WAT    EPW21974   6.063   3.055   6.887  0.3163  0.2902  0.3012
 5314WAT      O21975   2.705   0.125   7.674 -0.0776  0.2871  0.2225
 5314WAT     H121976   2.750   0.148   7.602 -0.4606 -1.2612 -0.5565
 5314WAT     H221977   2.668   0.200   7.700  1.0386  1.1181 -0.4876
 5314WAT    EPW21978   2.706   0.140   7.667  0.0307  0.1812  0.0025
 5315WAT      O21979   6.197   2.796   6.118 -0.0558  0.0539 -0.0702
 5315WAT     H121980   6.132   2.743   6.094 -0.8706 -0.1279  2.2835
 5315WAT     H221981   6.246   2.747   6.170  1.7702  0.3402 -1.4193
 5315WAT    EPW21982   6.195   2.781   6.122  0.0936  0.0693  0.0782
 5316WAT      O21983   5.315   1.611   7.022  0.6841 -0.4261 -0.0806
 5316WAT     H121984   5.355   1.533   7.024  1.1529 -0.1875  0.1149
 5316WAT     H221985   5.368   1.662   7.070 -0.4636 -0.3783  1.2207
 5316WAT    EPW21986   5.329   1.607   7.030  0.5838 -0.3838  0.1405
 5317WAT      O21987   7.025   2.531   0.406 -0.5554 -0.1483 -0.0335
 5317WAT     H121988   7.039   2.498   0.327 -4.3488 -0.4747 -0.7238
 5317WAT     H221989   7.083   2.488   0.456  1.1757 -0.7470 -2.3609
 5317WAT    EPW21990   7.036   2.519   0.402 -0.8601 -0.2850 -0.4793
 5318WAT      O21991   4.463   2.798   6.445  0.8582 -0.1741  0.3622
 5318WAT     H121992   4.397   2.813   6.499  1.4336  1.7722  0.6132
 5318WAT     H221993   4.425   2.789   6.367  0.1227 -1.8832  0.8683
 5318WAT    EPW21994   4.448   2.799   6.441  0.8345 -0.1390  0.4741
 5319WAT      O21995   5.780   0.891   6.676  0.1786  0.1854 -0.3213
 5319WAT     H121996   5.850   0.885   6.728 -1.0439  0.3821  1.4395
 5319WAT     H221997   5.744   0.966   6.700 -2.8136 -1.7155  1.7915
 5319WAT    EPW21998   5.785   0.901   6.687 -0.4440 -0.0663  0.2509
 5320WAT      O21999   5.670   4.420   0.707  0.2487  0.3122  0.2677
 5320WAT     H122000   5.628   4.490   0.738 -0.5688 -0.9069  2.0459
 5320WAT     H222001   5.693   4.377   0.779  2.8863 -0.0664 -0.7195
 5320WAT    EPW22002   5.667   4.424   0.722  0.5176  0.0762  0.3846
 5321WAT      O22003   4.564   1.978   7.225  0.0426  0.0409 -0.0831
 5321WAT     H122004   4.589   2.055   7.194 -0.2394 -0.2777 -1.1417
 5321WAT     H222005   4.636   1.929   7.219  0.0932  0.0863  0.1431
 5321WAT    EPW22006   4.578   1.982   7.220  0.0084  0.0006 -0.2061
 5322WAT      O22007   4.216   1.807   7.347  0.0128 -0.0947  0.5633
 5322WAT     H122008   4.193   1.829   7.266  2.0614  0.2185 -0.0030
 5322WAT     H222009   4.219   1.720   7.345 -1.8409 -0.2015  0.9197
 5322WAT    EPW22010   4.213   1.798   7.335  0.0416 -0.0642  0.5323
 5323WAT      O22011   3.801   2.667   6.512 -0.0412 -0.6972 -0.0359
 5323WAT     H122012   3.792   2.655   6.426  0.3515  0.6283 -0.2934
 5323WAT     H222013   3.758   2.741   6.526  1.5734  0.1884  0.5284
 5323WAT    EPW22014   3.794   2.676   6.501  0.2553 -0.3705  0.0094
 5324WAT      O22015   5.291   2.151   7.426 -0.8549 -0.6415  0.0077
 5324WAT     H122016   5.237   2.190   7.482 -0.1983  1.0081 -0.4503
 5324WAT     H222017   5.343   2.103   7.477 -1.4514 -0.6222  0.6382
 5324WAT    EPW22018   5.291   2.150   7.442 -0.8461 -0.3949  0.0332
 5325WAT      O22019   6.001   0.932   6.829  0.4296 -0.4175  0.0909
 5325WAT     H122020   6.043   0.999   6.792 -0.8427  0.8027  0.7582
 5325WAT     H222021   5.974   0.965   6.905 -0.7515 -1.5111  0.1696
 5325WAT    EPW22022   6.003   0.947   6.835  0.0672 -0.3988  0.2011
 5326WAT      O22023   3.981   1.447   7.287  0.0949  0.3517  0.2976
 5326WAT     H122024   3.896   1.463   7.296  0.1796  1.7307 -0.9124
 5326WAT     H222025   4.002   1.489   7.214  2.2570  1.9511  1.7022
 5326WAT    EPW22026   3.972   1.456   7.278  0.4268  0.7917  0.3263
 5327WAT      O22027   5.982   3.270   6.295 -0.0655 -0.3191 -0.5244
 5327WAT     H122028   6.000   3.204   6.241  0.9824  0.0169 -0.6107
 5327WAT     H222029   6.009   3.340   6.251 -2.4241  0.3628 -1.0293
 5327WAT    EPW22030   5.988   3.271   6.281 -0.2591 -0.1687 -0.6117
 5328WAT      O22031   4.232   2.406   6.935  0.5965  0.1917 -0.3892
 5328WAT     H122032   4.226   2.484   6.973 -0.7801 -0.4178  0.7146
 5328WAT     H222033   4.294   2.418   6.874  2.6132  1.3378  1.6999
 5328WAT    EPW22034   4.241   2.419   6.931  0.6910  0.2709  0.0825
 5329WAT      O22035   4.235   1.274   7.230 -0.6411 -0.2791  0.0692
 5329WAT     H122036   4.183   1.342   7.250  1.9926  1.3891  1.7700
 5329WAT     H222037   4.193   1.206   7.265 -0.8663  1.2582  3.0401
 5329WAT    EPW22038   4.221   1.274   7.238 -0.2853  0.1944  0.7593
 5330WAT      O22039   4.002   2.317   6.823  0.0211 -0.4428  0.7671
 5330WAT     H122040   4.039   2.255   6.773  1.1479  0.0708  0.9278
 5330WAT     H222041   4.068   2.347   6.871 -0.3409  1.2736  0.2974
 5330WAT    EPW22042   4.017   2.313   6.823  0.1341 -0.1134  0.7215
 5331WAT      O22043   6.685   3.380   6.295  0.1859  0.3108  0.0755
 5331WAT     H122044   6.722   3.319   6.346  2.3308  0.8628 -0.7390
 5331WAT     H222045   6.701   3.454   6.337 -1.8372  0.4380  0.7216
 5331WAT    EPW22046   6.693   3.382   6.309  0.2039  0.4111  0.0506
 5332WAT      O22047   4.576   3.317   0.228  0.4362  0.0218  0.6800
 5332WAT     H122048   4.495   3.332   0.255 -0.0142  0.1140 -0.6326
 5332WAT     H222049   4.594   3.237   0.257  0.1515  0.2675  1.5716
 5332WAT    EPW22050   4.567   3.308   0.236  0.3276  0.0717  0.6178
 5333WAT      O22051   6.906   7.197   6.840 -0.2363  0.1020 -0.1096
 5333WAT     H122052   6.850   7.220   6.903 -0.0967 -1.5471  0.6724
 5333WAT     H222053   6.971   7.253   6.848 -1.3220  1.4570 -0.4133
 5333WAT    EPW22054   6.907   7.208   6.851 -0.3761  0.0585 -0.0390
 5334WAT      O22055   5.318   3.228   4.791  0.2201 -0.0067  0.0087
 5334WAT     H122056   5.273   3.164   4.751  0.1472 -1.8070  2.7191
 5334WAT     H222057   5.261   3.259   4.850  1.0996  0.7879  0.4652
 5334WAT    EPW22058   5.303   3.223   4.794  0.3393 -0.1552  0.4765
 5335WAT      O22059   2.482   2.464   6.835 -0.1414 -0.1046 -0.0111
 5335WAT     H122060   2.453   2.489   6.913  2.0450  0.6561  0.6295
 5335WAT     H222061   2.557   2.508   6.826  0.8967 -2.0229 -1.4728
 5335WAT    EPW22062   2.489   2.474   6.845  0.3350 -0.2756 -0.1324
 5336WAT      O22063   4.629   1.053   6.605  0.0294  0.6214 -0.1852
 5336WAT     H122064   4.694   1.111   6.609 -0.9353  1.7308  4.3398
 5336WAT     H222065   4.560   1.097   6.633 -1.2461 -2.0753  1.3316
 5336WAT    EPW22066   4.628   1.068   6.609 -0.3015  0.3869  0.7073
 5337WAT      O22067   4.357   2.691   6.747  0.2540 -0.0947  0.8496
 5337WAT     H122068   4.398   2.616   6.765  1.9730  0.1577 -1.5106
 5337WAT     H222069   4.306   2.670   6.679  0.0811  0.6573  0.7404
 5337WAT    EPW22070   4.356   2.676   6.739  0.4824  0.0537  0.4848
 5338WAT      O22071   6.210   4.334   7.384  0.3563  0.2571  0.2836
 5338WAT     H122072   6.196   4.359   7.466 -0.5874 -0.2338  0.2789
 5338WAT     H222073   6.149   4.274   7.369  1.1174 -0.3570 -0.4716
 5338WAT    EPW22074   6.199   4.329   7.394  0.3293  0.0939  0.1714
 5339WAT      O22075   4.730   1.567   6.571 -1.1766 -0.4601 -0.0989
 5339WAT     H122076   4.649   1.598   6.560 -1.2050  0.4741  2.1137
 5339WAT     H222077   4.770   1.629   6.618  0.6381 -1.1940 -0.5544
 5339WAT    EPW22078   4.724   1.581   6.577 -0.9127 -0.4305  0.1606
 5340WAT      O22079   6.074   0.413   6.693 -0.2370  0.4344  0.1413
 5340WAT     H122080   6.049   0.339   6.733  0.7965  0.0464  0.1186
 5340WAT     H222081   6.016   0.472   6.721  0.0107  0.0176  1.6528
 5340WAT    EPW22082   6.062   0.410   6.703 -0.0477  0.3155  0.3612
 5341WAT      O22083   6.677   6.051   6.528 -0.1710 -0.4511 -0.0507
 5341WAT     H122084   6.616   6.104   6.561  0.0238 -0.2911  0.0525
 5341WAT     H222085   6.689   5.991   6.590 -0.5629 -0.7557 -0.2643
 5341WAT    EPW22086   6.670   6.050   6.542 -0.2001 -0.4725 -0.0670
 5342WAT      O22087   5.384   1.820   6.681  0.6859 -0.0571 -0.6343
 5342WAT     H122088   5.465   1.839   6.653  0.8785 -0.6835 -0.5214
 5342WAT     H222089   5.393   1.814   6.767  0.1819  1.4330 -0.4420
 5342WAT    EPW22090   5.398   1.822   6.689  0.6399  0.0705 -0.5892
 5343WAT      O22091   5.198   3.319   7.565  0.2300 -0.1269 -0.9722
 5343WAT     H122092   5.249   3.363   7.620 -1.0744  1.2623 -0.8271
 5343WAT     H222093   5.222   3.236   7.577  1.4349  0.3469  0.1280
 5343WAT    EPW22094   5.209   3.313   7.575  0.2153  0.1483 -0.7883
 5344WAT      O22095   5.373   2.233   6.178  0.0464 -0.3328 -0.1620
 5344WAT     H122096   5.335   2.190   6.244 -1.1432 -1.8180 -1.7390
 5344WAT     H222097   5.431   2.284   6.218 -2.3243  0.7178  2.2547
 5344WAT    EPW22098   5.376   2.234   6.194 -0.4795 -0.3970 -0.0380
 5345WAT      O22099   5.970   2.042   7.147 -0.0591 -0.4303  0.4603
 5345WAT     H122100   6.054   2.054   7.169 -0.2108  0.3775  0.6312
 5345WAT     H222101   5.926   2.069   7.217 -0.5047  0.7444 -0.2355
 5345WAT    EPW22102   5.976   2.047   7.160 -0.1474 -0.1374  0.3828
 5346WAT      O22103   3.624   0.669   6.358 -0.1605 -0.1805  0.3548
 5346WAT     H122104   3.594   0.587   6.361 -1.7398  0.3257 -0.4124
 5346WAT     H222105   3.600   0.696   6.278  1.3247  0.6792  0.1765
 5346WAT    EPW22106   3.616   0.661   6.347 -0.1744  0.0213  0.2151
 5347WAT      O22107   6.497   3.675   6.006 -0.2875 -0.1500  0.0406
 5347WAT     H122108   6.453   3.610   6.045 -0.7681  0.6603  0.8749
 5347WAT     H222109   6.459   3.680   5.928 -2.0903  0.8730  0.9183
 5347WAT    EPW22110   6.485   3.666   6.000 -0.6248  0.1208  0.2935
 5348WAT      O22111   5.758   1.350   7.186  0.9405  0.0598  0.5507
 5348WAT     H122112   5.771   1.430   7.217 -0.8280  0.5763  0.0885
 5348WAT     H222113   5.689   1.322   7.231  0.0539 -0.2414 -0.9212
 5348WAT    EPW22114   5.750   1.358   7.197  0.5483  0.0916  0.2650
 5349WAT      O22115   6.234   2.092   7.230  0.1518  0.3263  0.9094
 5349WAT     H122116   6.287   2.027   7.207 -0.8476  0.1988 -1.1771
 5349WAT     H222117   6.277   2.164   7.206 -0.3379  0.2475 -0.2453
 5349WAT    EPW22118   6.248   2.093   7.223 -0.0682  0.2958  0.4306
 5350WAT      O22119   7.235   7.576   7.273  0.2111 -0.1998 -0.0348
 5350WAT     H122120   7.290   7.509   7.280 -1.3723 -1.4526  1.0546
 5350WAT     H222121   7.260   7.615   7.199  2.3397 -0.8756  0.2568
 5350WAT    EPW22122   7.247   7.572   7.263  0.2916 -0.4847  0.1692
 5351WAT      O22123   4.798   2.115   0.124 -0.3574 -0.1204  0.3542
 5351WAT     H122124   4.845   2.044   0.104 -1.6640 -1.3585  1.4812
 5351WAT     H222125   4.780   2.150   0.046  0.3780 -0.9734 -0.2240
 5351WAT    EPW22126   4.802   2.110   0.110 -0.4418 -0.4293  0.4352
 5352WAT      O22127   4.855   3.363   6.854 -0.1990 -0.1876 -0.0653
 5352WAT     H122128   4.839   3.363   6.940 -1.3525 -0.4755 -0.2640
 5352WAT     H222129   4.791   3.414   6.822  2.2686  3.0497 -0.4317
 5352WAT    EPW22130   4.843   3.371   6.862 -0.0049  0.2481 -0.1488
 5353WAT      O22131   5.325   2.576   7.336  0.4776  0.0692  0.1122
 5353WAT     H122132   5.367   2.622   7.397  0.7562  1.1716 -0.8838
 5353WAT     H222133   5.287   2.637   7.287  0.0454 -0.8097 -0.6776
 5353WAT    EPW22134   5.325   2.592   7.338  0.4549  0.1022 -0.1516
 5354WAT      O22135   5.537   2.778   5.724 -0.3057 -0.0271 -0.1588
 5354WAT     H122136   5.495   2.724   5.670 -1.1685  0.1507  0.3154
 5354WAT     H222137   5.585   2.828   5.671 -1.5414  0.4915 -0.8307
 5354WAT    EPW22138   5.538   2.778   5.708 -0.6157  0.0758 -0.1880
 5355WAT      O22139   5.613   3.116   7.645 -0.3377  0.2712 -0.3368
 5355WAT     H122140   5.557   3.049   7.638  0.4556 -0.4011 -0.4151
 5355WAT     H222141   5.688   3.082   7.616  0.4437  0.7197  1.1117
 5355WAT    EPW22142   5.616   3.101   7.640 -0.1051  0.2381 -0.1344
 5356WAT      O22143   4.101   3.093   6.375  0.4520  0.1064  0.6780
 5356WAT     H122144   4.143   3.018   6.393 -0.7632 -1.4426 -2.1957
 5356WAT     H222145   4.141   3.121   6.303 -2.5552 -0.8900 -1.5621
 5356WAT    EPW22146   4.113   3.086   6.367 -0.1717 -0.2696 -0.0774
 5357WAT      O22147   2.200   0.133   6.695 -0.7211 -0.1145  0.2462
 5357WAT     H122148   2.133   0.134   6.640 -1.4501  0.5666  1.1072
 5357WAT     H222149   2.190   0.057   6.738 -0.8463 -0.0834  0.2713
 5357WAT    EPW22150   2.189   0.122   6.693 -0.8473 -0.0093  0.3771
 5358WAT      O22151   4.361   2.114   6.900  0.8131 -0.5408 -0.5299
 5358WAT     H122152   4.317   2.183   6.868 -0.2822 -1.2752 -0.6528
 5358WAT     H222153   4.442   2.127   6.870  1.3671  2.1333  1.6730
 5358WAT    EPW22154   4.366   2.126   6.891  0.7331 -0.2543 -0.2226
 5359WAT      O22155   2.814   7.539   7.699  0.3797  0.4209  0.1002
 5359WAT     H122156   2.801   7.494   7.773 -0.1201 -0.1377 -0.3158
 5359WAT     H222157   2.798   7.622   7.722 -2.2334  0.0145  0.0851
 5359WAT    EPW22158   2.810   7.545   7.713 -0.0802  0.2783  0.0365
 5360WAT      O22159   4.861   2.860   7.160 -0.1796 -0.6511 -0.5824
 5360WAT     H122160   4.909   2.804   7.113 -0.3556 -0.2227 -1.2888
 5360WAT     H222161   4.919   2.922   7.183 -0.5755  0.4783 -2.4123
 5360WAT    EPW22162   4.877   2.861   7.156 -0.2641 -0.4210 -0.9571
 5361WAT      O22163   5.227   2.048   7.183 -0.1166  0.1305  0.1631
 5361WAT     H122164   5.282   2.097   7.136  1.5831 -1.2278  0.6376
 5361WAT     H222165   5.248   2.066   7.265 -2.6896  2.0559  0.5317
 5361WAT    EPW22166   5.238   2.057   7.188 -0.2456  0.2143  0.2877
 5362WAT      O22167   3.736   1.360   7.438  0.1461  0.3275  0.1827
 5362WAT     H122168   3.665   1.410   7.429 -0.8463 -1.3374 -2.2036
 5362WAT     H222169   3.776   1.395   7.507 -1.4153  3.2194 -0.1945
 5362WAT    EPW22170   3.731   1.373   7.446 -0.2312  0.5088 -0.2255
 5363WAT      O22171   4.442   1.992   5.925  0.3947  0.1612 -0.1034
 5363WAT     H122172   4.369   1.999   5.877 -0.0430 -0.7116  0.4085
 5363WAT     H222173   4.415   1.951   5.997  0.9273  1.8568  1.1176
 5363WAT    EPW22174   4.427   1.987   5.928  0.4087  0.2828  0.1526
 5364WAT      O22175   3.210   0.605   6.994 -0.2980 -0.3858 -0.1324
 5364WAT     H122176   3.185   0.688   6.995 -1.1254 -0.6168 -0.2261
 5364WAT     H222177   3.149   0.565   7.042  0.3072 -0.8794  0.2271
 5364WAT    EPW22178   3.197   0.611   7.001 -0.3308 -0.4928 -0.0931
 5365WAT      O22179   4.873   1.522   7.289  0.0204  0.1547 -0.3873
 5365WAT     H122180   4.846   1.449   7.252  0.4875 -0.7930  1.0501
 5365WAT     H222181   4.800   1.568   7.302 -0.5261 -0.8907  0.3815
 5365WAT    EPW22182   4.858   1.518   7.286  0.0087 -0.1397 -0.0614
 5366WAT      O22183   5.311   2.850   5.349  0.0997  0.3695 -0.1840
 5366WAT     H122184   5.239   2.875   5.392 -0.3734  0.5986 -1.1022
 5366WAT     H222185   5.315   2.905   5.282  0.3072 -0.5957 -0.9745
 5366WAT    EPW22186   5.301   2.862   5.346  0.0605  0.2607 -0.4364
 5367WAT      O22187   3.974   2.871   6.671  0.8198  0.2245 -0.6828
 5367WAT     H122188   3.924   2.814   6.627  0.7510 -1.3755  1.2913
 5367WAT     H222189   3.941   2.948   6.650 -2.4171 -0.7268  0.2979
 5367WAT    EPW22190   3.962   2.874   6.661  0.3315 -0.1524 -0.2463
 5368WAT      O22191   5.120   1.620   6.802  0.1945 -0.0403 -0.3767
 5368WAT     H122192   5.170   1.615   6.873  0.3193 -1.7343 -0.5460
 5368WAT     H222193   5.175   1.603   6.736 -0.4543 -1.4046 -0.6061
 5368WAT    EPW22194   5.136   1.617   6.803  0.1171 -0.4921 -0.4356
 5369WAT      O22195   5.296   3.132   5.626  0.1863  0.5677 -0.2834
 5369WAT     H122196   5.256   3.165   5.556  0.3881  0.1523 -0.5951
 5369WAT     H222197   5.376   3.168   5.623  0.1521  0.6522 -0.1927
 5369WAT    EPW22198   5.302   3.142   5.615  0.2110  0.5188 -0.3161
 5370WAT      O22199   5.476   2.881   6.995 -0.2652  0.4212  0.2223
 5370WAT     H122200   5.446   2.806   6.961  0.4672  0.0030  0.4737
 5370WAT     H222201   5.558   2.885   6.965  0.5718 -0.1832  2.2499
 5370WAT    EPW22202   5.484   2.870   6.986 -0.0334  0.2701  0.5589
 5371WAT      O22203   3.762   2.020   6.453 -0.3634 -0.3522  0.4933
 5371WAT     H122204   3.758   1.942   6.414  2.3337  0.6224 -2.1536
 5371WAT     H222205   3.825   2.010   6.512  1.1019  0.1337 -0.9269
 5371WAT    EPW22206   3.771   2.007   6.456  0.2515 -0.1365 -0.1075
 5372WAT      O22207   4.394   2.666   5.828 -0.9530  0.4832 -0.1637
 5372WAT     H122208   4.381   2.602   5.886  0.6091  0.7147  0.4684
 5372WAT     H222209   4.318   2.670   5.786 -1.6516 -0.6434  0.9173
 5372WAT    EPW22210   4.381   2.657   5.830 -0.8255  0.3510  0.0894
 5373WAT      O22211   4.622   0.047   6.934 -0.0008  0.0441  0.2933
 5373WAT     H122212   4.661   0.110   6.981  1.9524 -1.0327  0.2529
 5373WAT     H222213   4.539   0.049   6.961  0.1625  2.1440  0.7876
 5373WAT    EPW22214   4.616   0.057   6.945  0.3119  0.1952  0.3603
 5374WAT      O22215   5.818   0.616   6.988  0.0596 -0.0362  0.3670
 5374WAT     H122216   5.809   0.684   7.042 -0.1168  1.4048 -1.3551
 5374WAT     H222217   5.736   0.602   6.959 -0.0561 -1.5917  1.3472
 5374WAT    EPW22218   5.804   0.624   6.992  0.0165 -0.0531  0.2574
 5375WAT      O22219   5.165   0.573   6.732  0.3909 -0.4864  0.1355
 5375WAT     H122220   5.248   0.553   6.712  0.4284  0.4885 -0.7694
 5375WAT     H222221   5.172   0.622   6.804  0.5551 -0.8657  0.3798
 5375WAT    EPW22222   5.178   0.577   6.739  0.4207 -0.3984  0.0379
 5376WAT      O22223   4.619   2.770   6.055 -0.1761  0.6553 -0.5462
 5376WAT     H122224   4.650   2.834   6.005 -0.5217  1.7845  0.6170
 5376WAT     H222225   4.668   2.776   6.127 -1.4294  0.8289  0.3164
 5376WAT    EPW22226   4.631   2.780   6.058 -0.4123  0.8477 -0.2469
 5377WAT      O22227   5.165   3.180   0.168 -0.3414  0.3670 -0.3696
 5377WAT     H122228   5.165   3.259   0.132 -2.2253  0.8704  0.6141
 5377WAT     H222229   5.162   3.196   0.254  1.5386 -0.8002 -0.0130
 5377WAT    EPW22230   5.165   3.194   0.175 -0.3420  0.2690 -0.1716
 5378WAT      O22231   4.322   2.899   0.328  0.2819 -0.3394  0.1371
 5378WAT     H122232   4.259   2.920   0.271 -1.8221 -2.2290  1.6002
 5378WAT     H222233   4.360   2.829   0.291  2.2985  1.2910 -1.1664
 5378WAT    EPW22234   4.319   2.892   0.314  0.2690 -0.3777  0.1607
 5379WAT      O22235   3.516   1.492   6.756 -0.2991 -0.0208 -0.4546
 5379WAT     H122236   3.436   1.465   6.778 -0.0193  0.6298  1.6408
 5379WAT     H222237   3.504   1.532   6.680 -1.7338 -0.9548 -0.7700
 5379WAT    EPW22238   3.502   1.494   6.748 -0.4697 -0.0627 -0.1917
 5380WAT      O22239   5.674   4.047   6.848  0.6224  0.6552 -0.1148
 5380WAT     H122240   5.716   3.971   6.836 -0.3581  0.3844 -2.1886
 5380WAT     H222241   5.734   4.107   6.826  0.8612  0.3927 -0.1852
 5380WAT    EPW22242   5.689   4.045   6.843  0.5128  0.5764 -0.4315
 5381WAT      O22243   4.907   1.442   7.776  0.1430  0.0583 -0.0042
 5381WAT     H122244   4.960   1.435   7.707  0.6954 -0.6444  0.4724
 5381WAT     H222245   4.906   1.362   7.810 -2.2039 -0.2847 -0.6693
 5381WAT    EPW22246   4.915   1.429   7.771 -0.1221 -0.0962 -0.0320
 5382WAT      O22247   6.593   4.282   6.433 -0.4430  0.3166 -0.1007
 5382WAT     H122248   6.653   4.340   6.409 -0.0064  0.1455  0.5616
 5382WAT     H222249   6.625   4.206   6.407  0.5279 -0.0031  1.8346
 5382WAT    EPW22250   6.606   4.279   6.426 -0.2351  0.2441  0.2831
 5383WAT      O22251   5.012   1.010   7.754 -0.6233  0.6185 -0.3294
 5383WAT     H122252   5.020   0.948   7.815  1.7319  0.2719 -0.8807
 5383WAT     H222253   4.967   0.971   7.690  1.1869 -0.7368 -0.8481
 5383WAT    EPW22254   5.007   0.996   7.753 -0.0080  0.3671 -0.4875
 5384WAT      O22255   6.228   1.529   5.958 -0.2825  0.5559  0.4428
 5384WAT     H122256   6.281   1.593   5.982  0.0518  0.6161 -0.4393
 5384WAT     H222257   6.222   1.537   5.871  1.4388 -1.8447  0.0019
 5384WAT    EPW22258   6.235   1.540   5.949  0.0211  0.2101  0.2474
 5385WAT      O22259   4.789   3.264   7.815  0.0920  0.0138  0.1125
 5385WAT     H122260   4.818   3.203   7.871 -1.0646  0.1826  0.9334
 5385WAT     H222261   4.844   3.258   7.748  0.1635 -1.7954  0.2722
 5385WAT    EPW22262   4.801   3.254   7.813 -0.0683 -0.2285  0.2574
 5386WAT      O22263   4.791   1.310   5.789  0.6854 -0.3715  0.1133
 5386WAT     H122264   4.841   1.239   5.790 -0.4308 -1.2669 -1.6892
 5386WAT     H222265   4.744   1.301   5.716  0.1605  1.9965  0.0710
 5386WAT    EPW22266   4.791   1.298   5.778  0.4429 -0.1540 -0.1592
 5387WAT      O22267   3.806   2.212   6.251 -0.3197  0.3851  0.6224
 5387WAT     H122268   3.784   2.151   6.310 -1.5379  0.1721 -0.0104
 5387WAT     H222269   3.883   2.184   6.221 -1.0238 -1.1008  0.0590
 5387WAT    EPW22270   3.814   2.199   6.255 -0.6037  0.1341  0.4457
 5388WAT      O22271   2.899   1.705   7.468  0.1016 -0.3393 -0.2948
 5388WAT     H122272   2.891   1.755   7.539  0.2006 -0.9643  0.1704
 5388WAT     H222273   2.825   1.720   7.424  0.7171  1.2542 -0.8722
 5388WAT    EPW22274   2.887   1.715   7.472  0.2071 -0.1962 -0.3114
 5389WAT      O22275   5.565   1.047   6.238 -0.2347  0.7035  0.1531
 5389WAT     H122276   5.488   1.050   6.198 -0.8671  0.7739  1.3205
 5389WAT     H222277   5.559   0.976   6.288  0.3436  0.8760  0.4795
 5389WAT    EPW22278   5.553   1.037   6.239 -0.2427  0.7394  0.3738
 5390WAT      O22279   3.539   1.633   6.524 -0.0298  0.9319 -0.1575
 5390WAT     H122280   3.626   1.635   6.517 -0.0665  2.0953 -0.5697
 5390WAT     H222281   3.512   1.659   6.446 -0.7534  0.5024 -0.0521
 5390WAT    EPW22282   3.548   1.637   6.512 -0.1421  1.0403 -0.2028
 5391WAT      O22283   5.141   2.004   3.946 -0.1831  0.1475  0.1054
 5391WAT     H122284   5.143   1.921   3.920  0.3157  0.0411  0.4769
 5391WAT     H222285   5.085   2.042   3.890 -1.0800 -0.6134  0.4499
 5391WAT    EPW22286   5.133   1.998   3.934 -0.2419  0.0193  0.2112
 5392WAT      O22287   5.628   2.227   6.578 -0.2841 -0.2426 -0.4651
 5392WAT     H122288   5.606   2.260   6.500 -0.3991 -0.0570 -0.3554
 5392WAT     H222289   5.715   2.235   6.579 -0.4368  2.8007  0.7143
 5392WAT    EPW22290   5.638   2.233   6.566 -0.3236  0.2343 -0.2746
 5393WAT      O22291   5.692   1.454   6.470 -0.4802  0.5264  0.2821
 5393WAT     H122292   5.645   1.401   6.419  1.6799 -2.0814  0.8100
 5393WAT     H222293   5.772   1.419   6.470  1.2176  3.9370  0.5387
 5393WAT    EPW22294   5.697   1.441   6.463  0.0897  0.6450  0.3980
 5394WAT      O22295   5.905   1.574   5.652  0.7374  0.1212 -0.1098
 5394WAT     H122296   5.901   1.569   5.565  0.2589  0.6226 -0.1265
 5394WAT     H222297   5.986   1.605   5.667  1.1967 -0.9542 -0.3158
 5394WAT    EPW22298   5.916   1.578   5.641  0.7345  0.0364 -0.1427
 5395WAT      O22299   5.966   2.783   7.567 -0.0730 -0.3118 -0.3232
 5395WAT     H122300   5.880   2.783   7.583 -0.0337  0.0847 -0.0820
 5395WAT     H222301   5.975   2.724   7.504 -0.7594  0.8564 -1.5897
 5395WAT    EPW22302   5.954   2.774   7.560 -0.1686 -0.0807 -0.4746
 5396WAT      O22303   5.239   3.002   7.006 -0.1046  0.1493  0.1644
 5396WAT     H122304   5.315   2.959   7.001 -0.3274 -0.2124 -4.0160
 5396WAT     H222305   5.240   3.037   7.085  2.3986 -3.3938  1.9765
 5396WAT    EPW22306   5.251   3.001   7.017  0.2322 -0.4275 -0.1855
 5397WAT      O22307   5.641   0.806   6.372  0.1663  0.0797  0.0717
 5397WAT     H122308   5.612   0.794   6.454 -2.2437  1.5398 -0.4764
 5397WAT     H222309   5.724   0.829   6.383 -0.1820  0.5682  2.1446
 5397WAT    EPW22310   5.649   0.808   6.386 -0.2411  0.3675  0.2970
 5398WAT      O22311   6.613   0.901   7.664  0.0627 -0.1391  0.5181
 5398WAT     H122312   6.670   0.952   7.705 -0.1315  0.1920  0.3807
 5398WAT     H222313   6.634   0.821   7.691 -0.4428  0.1150  1.7190
 5398WAT    EPW22314   6.625   0.897   7.674 -0.0407 -0.0526  0.6752
 5399WAT      O22315   6.133   2.210   6.229 -0.7533  0.0786 -0.6903
 5399WAT     H122316   6.100   2.257   6.164 -1.5605  0.5684  0.0721
 5399WAT     H222317   6.115   2.128   6.206 -1.6254  0.2874 -0.7615
 5399WAT    EPW22318   6.126   2.204   6.216 -1.0013  0.1818 -0.5882
 5400WAT      O22319   4.633   2.849   4.939  0.0609 -0.0435 -0.0770
 5400WAT     H122320   4.696   2.909   4.943 -0.0759  0.2493 -1.6005
 5400WAT     H222321   4.675   2.778   4.910 -0.3048  0.2127 -1.3096
 5400WAT    EPW22322   4.649   2.847   4.935 -0.0133  0.0376 -0.4841
 5401WAT      O22323   5.451   2.398   6.714 -0.4001 -0.0641 -0.5958
 5401WAT     H122324   5.488   2.325   6.683  0.5328  0.3809 -0.5573
 5401WAT     H222325   5.497   2.414   6.786  1.9393  2.5965 -2.4863
 5401WAT    EPW22326   5.463   2.389   6.720  0.0833  0.3947 -0.8693
 5402WAT      O22327   4.671   0.842   3.671 -0.3166  0.4608  0.3643
 5402WAT     H122328   4.601   0.876   3.712 -0.3949 -0.0472  0.6558
 5402WAT     H222329   4.727   0.827   3.736 -0.0609  0.5638  0.1676
 5402WAT    EPW22330   4.669   0.845   3.687 -0.2904  0.4010  0.3783
 5403WAT      O22331   5.065   2.102   5.175  0.0105  0.6434  0.4404
 5403WAT     H122332   5.150   2.114   5.161  0.0674  1.5352  1.4058
 5403WAT     H222333   5.055   2.015   5.169  0.9530  0.5463  0.1588
 5403WAT    EPW22334   5.076   2.091   5.172  0.1581  0.7608  0.5414
 5404WAT      O22335   4.214   2.718   4.768 -0.0120  0.2055  0.1387
 5404WAT     H122336   4.277   2.775   4.789 -0.1165  0.9211 -1.3617
 5404WAT     H222337   4.202   2.732   4.683  1.0301 -3.1481 -0.6832
 5404WAT    EPW22338   4.222   2.729   4.759  0.1265 -0.1842 -0.2044
 5405WAT      O22339   4.849   2.188   4.542 -0.1426  0.1335  0.0504
 5405WAT     H122340   4.803   2.239   4.596  2.1025  0.0545  2.2006
 5405WAT     H222341   4.798   2.118   4.532 -2.0257  1.4883 -0.6606
 5405WAT    EPW22342   4.834   2.185   4.548 -0.0891  0.3220  0.2630
 5406WAT      O22343   3.565   2.093   4.069 -0.2819  0.1665  0.2564
 5406WAT     H122344   3.562   2.179   4.080 -1.1382 -0.0207  1.7163
 5406WAT     H222345   3.619   2.083   4.001 -2.4372  1.9830 -1.9166
 5406WAT    EPW22346   3.573   2.104   4.061 -0.7268  0.4072  0.1511
 5407WAT      O22347   3.728   1.298   5.434 -0.4832  0.2248 -0.0565
 5407WAT     H122348   3.689   1.367   5.398 -0.1021  0.3531 -0.2223
 5407WAT     H222349   3.684   1.287   5.509 -0.6895  0.5067 -0.1338
 5407WAT    EPW22350   3.715   1.306   5.440 -0.4574  0.2854 -0.0924
 5408WAT      O22351   3.910   3.025   4.898  0.0551  0.2583  0.1881
 5408WAT     H122352   3.889   3.095   4.850 -1.0933 -0.0537  0.2007
 5408WAT     H222353   3.835   2.981   4.904  0.5737 -0.5710  0.8540
 5408WAT    EPW22354   3.896   3.029   4.892 -0.0379  0.0897  0.2883
 5409WAT      O22355   4.739   1.985   5.320 -0.4830  0.2126 -0.2423
 5409WAT     H122356   4.671   1.986   5.376 -1.1117  2.0769 -0.9514
 5409WAT     H222357   4.787   1.918   5.348 -1.5981  0.0689  1.5310
 5409WAT    EPW22358   4.736   1.975   5.333 -0.7406  0.4667 -0.0851
 5410WAT      O22359   4.531   2.289   5.188  0.0124  0.0013 -0.2886
 5410WAT     H122360   4.571   2.331   5.253  0.6884 -0.4467 -0.4028
 5410WAT     H222361   4.480   2.231   5.230 -2.7913  2.3989 -0.0195
 5410WAT    EPW22362   4.529   2.286   5.204 -0.3019  0.2893 -0.2657
 5411WAT      O22363   4.527   1.800   4.942 -0.3136 -0.0401 -0.0261
 5411WAT     H122364   4.611   1.822   4.952 -1.3016  3.8853  1.4288
 5411WAT     H222365   4.510   1.750   5.012  1.0806 -2.3813 -1.2411
 5411WAT    EPW22366   4.537   1.796   4.954 -0.2536  0.1939  0.0093
 5412WAT      O22367   5.067   3.533   5.793 -0.1101 -0.6391 -0.3902
 5412WAT     H122368   5.027   3.475   5.741  0.3433 -0.7130 -0.6629
 5412WAT     H222369   5.152   3.518   5.780  0.0204  0.2252 -0.6216
 5412WAT    EPW22370   5.074   3.522   5.784 -0.0239 -0.5223 -0.4647
 5413WAT      O22371   4.994   2.450   4.683 -0.3198  0.4923  0.1064
 5413WAT     H122372   4.994   2.514   4.742  3.1773  0.7256  0.1063
 5413WAT     H222373   4.967   2.490   4.610 -0.7910  1.2616  0.6824
 5413WAT    EPW22374   4.990   2.465   4.681  0.1272  0.6404  0.1915
 5414WAT      O22375   5.043   2.057   4.223 -0.4041 -0.6503 -0.1134
 5414WAT     H122376   5.068   2.076   4.142  1.5914 -0.1306  0.5654
 5414WAT     H222377   5.029   1.971   4.221  1.1644 -0.9197 -0.6613
 5414WAT    EPW22378   5.045   2.047   4.211  0.1224 -0.6134 -0.0941
 5415WAT      O22379   5.203   3.012   4.672 -0.1645 -0.3600 -0.4597
 5415WAT     H122380   5.240   2.964   4.609 -0.0466  0.8221 -1.3251
 5415WAT     H222381   5.144   3.061   4.630  0.4340  1.0001  0.1953
 5415WAT    EPW22382   5.200   3.012   4.657 -0.0587  0.0155 -0.4908
 5416WAT      O22383   4.803   3.181   4.317  0.6888 -0.3448  0.2798
 5416WAT     H122384   4.759   3.173   4.392  1.2281  0.7184  0.7264
 5416WAT     H222385   4.789   3.263   4.293  2.1667 -0.0571  0.2875
 5416WAT    EPW22386   4.795   3.192   4.324  0.9868 -0.1452  0.3469
 5417WAT      O22387   4.773   1.906   5.060  0.0087  0.1358 -0.2182
 5417WAT     H122388   4.763   1.988   5.031 -1.6030 -0.1670 -0.5762
 5417WAT     H222389   4.768   1.914   5.147 -3.1360  0.1080 -0.3083
 5417WAT    EPW22390   4.771   1.920   5.068 -0.6939  0.0870 -0.2844
 5418WAT      O22391   5.041   7.011   5.346  0.8495 -0.5001 -0.0940
 5418WAT     H122392   4.982   6.970   5.396 -0.6183  0.6645 -0.8049
 5418WAT     H222393   5.078   7.068   5.401 -2.4895  2.5646 -0.6647
 5418WAT    EPW22394   5.038   7.014   5.362  0.1394  0.1247 -0.2834
 5419WAT      O22395   4.469   0.648   3.889 -0.3515 -0.0173  0.4245
 5419WAT     H122396   4.553   0.671   3.883 -0.3304 -0.3108 -0.6053
 5419WAT     H222397   4.463   0.577   3.838 -1.0842 -0.4103  1.0272
 5419WAT    EPW22398   4.480   0.641   3.880 -0.4566 -0.1187  0.3614
 5420WAT      O22399   5.181   2.666   2.173  0.1072  0.2140  0.0583
 5420WAT     H122400   5.172   2.580   2.162 -0.7673  0.2098  0.7127
 5420WAT     H222401   5.174   2.698   2.092  1.9671 -0.4267 -0.4074
 5420WAT    EPW22402   5.179   2.658   2.159  0.2528  0.1187  0.0862
 5421WAT      O22403   4.672   0.795   4.292 -0.1096 -0.1659  0.4043
 5421WAT     H122404   4.628   0.730   4.331 -0.9649 -1.4207 -2.4349
 5421WAT     H222405   4.609   0.848   4.265  0.4726  0.7086  0.7205
 5421WAT    EPW22406   4.656   0.793   4.294 -0.1499 -0.2221  0.0316
 5422WAT      O22407   5.164   1.238   3.540  0.3085  0.6567 -0.1362
 5422WAT     H122408   5.153   1.191   3.467  1.0708 -0.4546  0.4249
 5422WAT     H222409   5.101   1.209   3.593  0.5894  0.4636  0.1022
 5422WAT    EPW22410   5.153   1.227   3.537  0.4626  0.4640 -0.0181
 5423WAT      O22411   5.174   1.504   3.651 -0.2743  0.2606  0.3675
 5423WAT     H122412   5.136   1.544   3.584  0.1203 -0.1909 -0.1315
 5423WAT     H222413   5.160   1.419   3.636  0.5880  0.1072  0.3721
 5423WAT    EPW22414   5.167   1.497   3.639 -0.0886  0.1713  0.2944
 5424WAT      O22415   5.102   2.216   5.791  0.7070  0.3547 -0.0345
 5424WAT     H122416   5.021   2.193   5.813  0.6958 -1.8694 -1.9951
 5424WAT     H222417   5.093   2.254   5.714  1.5599 -0.9526 -0.8316
 5424WAT    EPW22418   5.089   2.218   5.783  0.8314 -0.1670 -0.4419
 5425WAT      O22419   5.151   2.356   6.031  0.4413 -0.4511 -0.3270
 5425WAT     H122420   5.143   2.309   5.957  0.1842 -0.1947 -0.4652
 5425WAT     H222421   5.212   2.312   6.076 -0.3714 -1.3906 -0.0972
 5425WAT    EPW22422   5.159   2.342   6.026  0.2833 -0.5520 -0.3135
 5426WAT      O22423   5.404   1.775   3.491  0.3311  0.0811  0.1390
 5426WAT     H122424   5.489   1.764   3.479  0.1045 -0.2128 -1.4474
 5426WAT     H222425   5.390   1.857   3.465  0.3415  0.6983  1.9146
 5426WAT    EPW22426   5.414   1.786   3.485  0.2992  0.1289  0.1669
 5427WAT      O22427   6.761   2.324   5.169 -0.4029 -0.0042  0.1608
 5427WAT     H122428   6.678   2.346   5.183 -0.5105  1.4135 -2.2134
 5427WAT     H222429   6.788   2.381   5.109  2.0206 -1.0154  0.1744
 5427WAT    EPW22430   6.753   2.335   5.162 -0.0608  0.0558 -0.1879
 5428WAT      O22431   5.290   1.070   3.101  0.4290  0.1454 -0.5299
 5428WAT     H122432   5.341   1.140   3.113 -0.1542  0.4132  0.4562
 5428WAT     H222433   5.346   1.003   3.107  1.1225  0.5158 -2.2164
 5428WAT    EPW22434   5.306   1.070   3.103  0.4453  0.2397 -0.6334
 5429WAT      O22435   3.834   2.917   5.480  0.2758  0.0001  0.3030
 5429WAT     H122436   3.880   2.990   5.468  1.7138 -1.1045 -1.3566
 5429WAT     H222437   3.869   2.861   5.423 -1.6813 -1.5920  0.5702
 5429WAT    EPW22438   3.846   2.919   5.470  0.1991 -0.3983  0.0973
 5430WAT      O22439   4.364   7.653   5.296  0.3253 -1.0369 -0.7183
 5430WAT     H122440   4.304   7.717   5.297 -1.3494 -2.5122 -1.4817
 5430WAT     H222441   4.423   7.683   5.239  2.1319  1.8807  2.3291
 5430WAT    EPW22442   4.364   7.667   5.287  0.3448 -0.8238 -0.3809
 5431WAT      O22443   6.234   2.124   2.536 -0.0537 -0.4101  0.2782
 5431WAT     H122444   6.282   2.139   2.464 -0.8727 -0.8450 -0.3852
 5431WAT     H222445   6.273   2.056   2.573  0.2756 -0.2922  0.1457
 5431WAT    EPW22446   6.247   2.116   2.531 -0.1261 -0.4569  0.1606
 5432WAT      O22447   4.754   2.141   4.139  0.1786  0.9922 -0.1626
 5432WAT     H122448   4.788   2.114   4.063 -0.4129 -1.5480  0.3807
 5432WAT     H222449   4.686   2.191   4.115  0.4022  0.7827 -1.2765
 5432WAT    EPW22450   4.749   2.145   4.124  0.1243  0.5860 -0.2469
 5433WAT      O22451   4.429   3.974   5.280  0.0855 -0.1311 -0.2380
 5433WAT     H122452   4.342   3.982   5.281  0.1276  0.3883  1.2277
 5433WAT     H222453   4.455   4.036   5.224 -0.4886 -0.4645 -0.8878
 5433WAT    EPW22454   4.420   3.984   5.272  0.0069 -0.1037 -0.1175
 5434WAT      O22455   4.125   3.270   5.950  0.2901  0.2598 -0.1642
 5434WAT     H122456   4.040   3.286   5.965  0.2704  0.8442 -0.9122
 5434WAT     H222457   4.125   3.230   5.873  0.7809  1.1326 -0.6244
 5434WAT    EPW22458   4.112   3.266   5.941  0.3597  0.4751 -0.3426
 5435WAT      O22459   6.730   1.237   4.512  0.1554  0.1471 -0.1583
 5435WAT     H122460   6.728   1.323   4.499 -0.4417  0.1444 -0.1449
 5435WAT     H222461   6.770   1.206   4.441 -0.7638  0.3395 -0.7827
 5435WAT    EPW22462   6.735   1.245   4.500 -0.0686  0.1752 -0.2485
 5436WAT      O22463   3.824   1.088   7.503 -0.6464 -0.2343  0.1701
 5436WAT     H122464   3.797   1.021   7.454 -1.8520 -1.0299  1.8394
 5436WAT     H222465   3.793   1.158   7.461 -0.8391 -0.8198 -0.6904
 5436WAT    EPW22466   3.816   1.089   7.490 -0.8530 -0.4383  0.2896
 5437WAT      O22467   6.562   3.441   5.768  0.3351  0.1403 -0.2228
 5437WAT     H122468   6.495   3.496   5.757  0.0140 -0.1086  0.4144
 5437WAT     H222469   6.542   3.375   5.714  0.3669  0.3314 -0.4703
 5437WAT    EPW22470   6.549   3.439   5.758  0.2924  0.1317 -0.1652
 5438WAT      O22471   5.730   1.715   3.382  0.3060  0.1996 -0.4403
 5438WAT     H122472   5.752   1.752   3.457 -0.3818 -1.1669  0.4766
 5438WAT     H222473   5.684   1.777   3.341 -1.3616  0.2302  1.3083
 5438WAT    EPW22474   5.726   1.730   3.387 -0.0419  0.0023 -0.0466
 5439WAT      O22475   5.276   1.462   2.983 -0.3576  0.6362  0.0798
 5439WAT     H122476   5.304   1.442   2.903  0.7177 -0.9393  0.7915
 5439WAT     H222477   5.213   1.521   2.969 -1.4804 -0.9213 -2.0441
 5439WAT    EPW22478   5.270   1.468   2.969 -0.3646  0.1734 -0.1288
 5440WAT      O22479   5.787   0.908   4.808  0.1963  0.2773  0.2274
 5440WAT     H122480   5.840   0.904   4.878  0.5368  0.3018 -0.0281
 5440WAT     H222481   5.716   0.863   4.834 -0.5279  1.9378  1.3042
 5440WAT    EPW22482   5.784   0.900   4.822  0.1396  0.5262  0.3488
 5441WAT      O22483   4.640   3.374   5.220 -0.0498  0.2577 -0.0227
 5441WAT     H122484   4.645   3.306   5.274 -0.4952  0.1821 -0.0775
 5441WAT     H222485   4.621   3.338   5.143  0.9593  0.3272 -0.3217
 5441WAT    EPW22486   4.638   3.359   5.216  0.0335  0.2568 -0.0750
 5442WAT      O22487   5.801   2.432   4.245  0.1363  0.3200  0.4081
 5442WAT     H122488   5.836   2.498   4.292  0.1006 -0.8345  2.1299
 5442WAT     H222489   5.870   2.382   4.226  0.4224  1.5497 -2.2495
 5442WAT    EPW22490   5.817   2.435   4.249  0.1733  0.3311  0.2699
 5443WAT      O22491   6.135   3.019   5.751 -0.1580 -0.0054  0.5197
 5443WAT     H122492   6.175   2.948   5.783  0.0418  0.3570  1.0806
 5443WAT     H222493   6.118   2.997   5.668  0.9014 -0.2894  0.3663
 5443WAT    EPW22494   6.138   3.005   5.743  0.0280  0.0062  0.5799
 5444WAT      O22495   6.619   1.926   2.753  0.1540  0.0655 -0.0939
 5444WAT     H122496   6.682   1.938   2.693  1.5106 -1.9720  0.8190
 5444WAT     H222497   6.552   1.896   2.707  0.2456  1.0549 -0.9160
 5444WAT    EPW22498   6.618   1.923   2.738  0.3679 -0.0893 -0.0805
 5445WAT      O22499   4.923   1.925   4.820 -0.3622 -0.0070  0.2760
 5445WAT     H122500   4.879   1.887   4.886 -0.0037 -1.3496 -0.2314
 5445WAT     H222501   4.863   1.932   4.757 -0.0054 -1.4173 -0.2551
 5445WAT    EPW22502   4.908   1.920   4.821 -0.2565 -0.4137  0.1226
 5446WAT      O22503   5.232   1.143   4.090 -0.0832 -0.4884  0.5324
 5446WAT     H122504   5.220   1.216   4.043 -0.1885  0.3436  1.7828
 5446WAT     H222505   5.160   1.139   4.140  0.0419 -1.3205  0.6587
 5446WAT    EPW22506   5.220   1.153   4.090 -0.0803 -0.4884  0.7357
 5447WAT      O22507   5.649   1.316   4.359 -0.5413 -0.0500 -0.2687
 5447WAT     H122508   5.562   1.320   4.369 -0.5194  2.0355 -0.5254
 5447WAT     H222509   5.677   1.294   4.439 -1.2729  0.0240  0.0163
 5447WAT    EPW22510   5.640   1.313   4.373 -0.6461  0.2690 -0.2645
 5448WAT      O22511   4.754   2.182   4.981 -0.1329  0.2474  0.2243
 5448WAT     H122512   4.711   2.225   5.043 -2.1907 -0.5930 -0.5267
 5448WAT     H222513   4.763   2.241   4.917  0.6154  0.6572  0.6843
 5448WAT    EPW22514   4.749   2.197   4.981 -0.3264  0.1838  0.1813
 5449WAT      O22515   4.661   7.499   2.556 -0.0185 -0.4021  0.3116
 5449WAT     H122516   4.597   7.453   2.519 -0.2222  0.2533 -0.1641
 5449WAT     H222517   4.733   7.467   2.519 -0.3046  1.2075 -1.7576
 5449WAT    EPW22518   4.662   7.487   2.545 -0.0909 -0.0676 -0.0644
 5450WAT      O22519   4.241   2.251   4.304 -0.1657  0.1231  0.7856
 5450WAT     H122520   4.270   2.278   4.226 -0.0773 -0.0166  0.7697
 5450WAT     H222521   4.155   2.241   4.292  0.0253 -1.1457  0.3425
 5450WAT    EPW22522   4.233   2.254   4.291 -0.1244 -0.0850  0.7178
 5451WAT      O22523   4.967   0.470   5.924 -0.7523  0.1222 -0.7955
 5451WAT     H122524   4.905   0.516   5.883 -1.0711 -1.3268 -2.0379
 5451WAT     H222525   4.929   0.445   5.998 -1.5181 -0.4028 -1.3572
 5451WAT    EPW22526   4.952   0.473   5.929 -0.9125 -0.1694 -1.0620
 5452WAT      O22527   6.142   2.461   5.646  0.1111 -0.0083  0.1755
 5452WAT     H122528   6.169   2.425   5.721  1.2079 -0.0446 -0.2214
 5452WAT     H222529   6.130   2.392   5.594 -1.0933 -0.0177  0.4349
 5452WAT    EPW22530   6.145   2.446   5.649  0.0952 -0.0151  0.1552
 5453WAT      O22531   5.138   1.789   4.659  0.1452 -0.4341  0.0303
 5453WAT     H122532   5.066   1.816   4.701  1.8832  0.9149  2.3358
 5453WAT     H222533   5.136   1.702   4.671 -0.5024 -0.2961  1.1374
 5453WAT    EPW22534   5.127   1.780   4.667  0.3063 -0.2144  0.5344
 5454WAT      O22535   5.896   3.118   2.833 -0.3204  0.0578 -0.0667
 5454WAT     H122536   5.884   3.128   2.747 -0.7972 -0.3404 -0.0506
 5454WAT     H222537   5.973   3.078   2.839 -0.3208  0.0194 -0.3109
 5454WAT    EPW22538   5.905   3.114   2.821 -0.3909 -0.0067 -0.1004
 5455WAT      O22539   5.331   2.521   4.257  0.0537  0.4533  0.2397
 5455WAT     H122540   5.397   2.537   4.202 -0.2584  1.4794  0.1522
 5455WAT     H222541   5.367   2.535   4.335  0.1370  0.3001  0.2292
 5455WAT    EPW22542   5.346   2.525   4.260  0.0199  0.5822  0.2252
 5456WAT      O22543   5.301   1.146   5.803 -0.0780  0.9168  0.0617
 5456WAT     H122544   5.237   1.205   5.807 -0.9919 -0.0906  0.7992
 5456WAT     H222545   5.315   1.125   5.887 -0.7641 -0.9381 -0.2476
 5456WAT    EPW22546   5.294   1.152   5.816 -0.3143  0.4940  0.1250
 5457WAT      O22547   5.626   1.083   4.097  0.4658  0.2197 -0.5393
 5457WAT     H122548   5.686   1.123   4.145 -0.0604  0.7205 -0.2796
 5457WAT     H222549   5.648   0.999   4.101  0.0902  0.1670  1.1021
 5457WAT    EPW22550   5.638   1.077   4.105  0.3326  0.2859 -0.2585
 5458WAT      O22551   5.359   2.768   3.524 -0.3475 -0.2592 -0.2842
 5458WAT     H122552   5.407   2.839   3.508  1.4852 -1.5241 -0.6553
 5458WAT     H222553   5.278   2.795   3.509  0.4393  1.2688 -2.2051
 5458WAT    EPW22554   5.354   2.783   3.520  0.0395 -0.2204 -0.6228
 5459WAT      O22555   4.875   2.548   4.178 -0.0477  0.1803 -0.3072
 5459WAT     H122556   4.803   2.598   4.171 -0.7674 -0.8290 -0.3057
 5459WAT     H222557   4.906   2.547   4.096 -0.7643 -0.4195 -0.5828
 5459WAT    EPW22558   4.869   2.555   4.165 -0.2598 -0.0574 -0.3477
 5460WAT      O22559   5.360   2.132   5.723  0.2609  0.2403 -0.3062
 5460WAT     H122560   5.355   2.049   5.750  1.7703  0.6148  1.3462
 5460WAT     H222561   5.278   2.160   5.730 -0.4036 -1.2399 -1.4827
 5460WAT    EPW22562   5.347   2.124   5.728  0.3857  0.0769 -0.2359
 5461WAT      O22563   6.524   2.501   6.184 -0.2314 -0.5502  0.0145
 5461WAT     H122564   6.537   2.571   6.134 -0.2406 -1.1212 -0.7995
 5461WAT     H222565   6.452   2.521   6.229  0.3141  0.3606  0.5138
 5461WAT    EPW22566   6.515   2.514   6.183 -0.1522 -0.5000 -0.0320
 5462WAT      O22567   4.590   1.550   3.249  0.3399 -0.2987  0.1937
 5462WAT     H122568   4.593   1.546   3.336 -1.5669 -1.0385  0.2820
 5462WAT     H222569   4.507   1.571   3.232  0.4528 -1.0191 -1.4631
 5462WAT    EPW22570   4.578   1.553   3.259  0.0749 -0.5144 -0.0380
 5463WAT      O22571   4.468   2.555   4.217  0.2486  0.5858 -0.1480
 5463WAT     H122572   4.439   2.586   4.293  1.6160  2.0753 -0.1786
 5463WAT     H222573   4.399   2.513   4.184 -0.2377 -0.4770  2.0832
 5463WAT    EPW22574   4.454   2.553   4.223  0.3788  0.6489  0.1770
 5464WAT      O22575   5.140   1.733   2.489  0.3109 -0.3947  0.5102
 5464WAT     H122576   5.089   1.775   2.546 -0.4918  0.2335 -0.6246
 5464WAT     H222577   5.100   1.746   2.412  1.1874 -1.4812 -0.1568
 5464WAT    EPW22578   5.127   1.741   2.486  0.3218 -0.4624  0.2441
 5465WAT      O22579   3.835   2.170   5.148 -0.4327 -0.0677  0.0860
 5465WAT     H122580   3.750   2.178   5.131 -0.6893 -0.6102  1.0370
 5465WAT     H222581   3.852   2.238   5.201 -0.3581 -0.1576  0.1776
 5465WAT    EPW22582   3.825   2.181   5.154 -0.4596 -0.1611  0.2400
 5466WAT      O22583   5.514   3.030   4.760 -0.2731 -0.7279  0.1767
 5466WAT     H122584   5.552   3.004   4.834  0.3795 -2.2007 -0.6279
 5466WAT     H222585   5.447   3.079   4.787  0.6953 -0.1721  1.6896
 5466WAT    EPW22586   5.510   3.034   4.775 -0.0336 -0.8634  0.2813
 5467WAT      O22587   5.216   1.715   5.387  0.5361  0.1568 -0.0190
 5467WAT     H122588   5.208   1.670   5.461  0.8515  0.3301  0.1257
 5467WAT     H222589   5.139   1.756   5.380  0.4246 -0.0298  0.0991
 5467WAT    EPW22590   5.203   1.715   5.397  0.5662  0.1548  0.0198
 5468WAT      O22591   4.563   2.860   5.367 -0.2808  0.3132  0.5048
 5468WAT     H122592   4.553   2.945   5.385 -0.9790  0.0422  1.5193
 5468WAT     H222593   4.519   2.849   5.293  0.0292  0.8740  0.2274
 5468WAT    EPW22594   4.555   2.871   5.359 -0.3381  0.3560  0.6137
 5469WAT      O22595   5.985   7.527   1.789 -0.0045  0.1509 -0.4468
 5469WAT     H122596   5.909   7.530   1.745  0.6352  0.3566 -1.5755
 5469WAT     H222597   6.021   7.604   1.771 -0.0859  0.5956  1.1546
 5469WAT    EPW22598   5.979   7.539   1.779  0.0780  0.2470 -0.3769
 5470WAT      O22599   4.428   3.452   4.784 -0.1917 -0.1045  0.4478
 5470WAT     H122600   4.350   3.432   4.819  0.8584 -1.4934  2.1718
 5470WAT     H222601   4.427   3.410   4.707 -1.5505  0.8546 -0.1001
 5470WAT    EPW22602   4.416   3.443   4.778 -0.2373 -0.1680  0.6215
 5471WAT      O22603   4.465   2.050   4.593 -0.5581  0.4087  0.3391
 5471WAT     H122604   4.383   2.036   4.617 -0.4435 -1.2594 -0.1548
 5471WAT     H222605   4.467   2.136   4.578 -2.1196  0.5312  0.6598
 5471WAT    EPW22606   4.453   2.061   4.594 -0.7718  0.1804  0.3135
 5472WAT      O22607   5.453   1.907   5.428 -0.3903  0.0214 -0.2803
 5472WAT     H122608   5.395   1.849   5.397  0.1496 -0.2216 -0.8556
 5472WAT     H222609   5.461   1.885   5.512  1.4584 -2.1920 -0.9449
 5472WAT    EPW22610   5.445   1.895   5.436 -0.0375 -0.3415 -0.4634
 5473WAT      O22611   5.432   2.185   4.560 -0.3070 -0.0811  0.4541
 5473WAT     H122612   5.385   2.229   4.620 -0.0555  1.0291 -0.1447
 5473WAT     H222613   5.499   2.154   4.606 -0.2544  0.5440  0.8099
 5473WAT    EPW22614   5.435   2.187   4.576 -0.2621  0.1752  0.4182
 5474WAT      O22615   6.935   3.160   5.417 -0.1985  0.3649 -0.3747
 5474WAT     H122616   6.863   3.128   5.380 -1.4204  3.1648 -0.6202
 5474WAT     H222617   6.940   3.117   5.493 -1.6626 -0.4545 -0.7095
 5474WAT    EPW22618   6.925   3.149   5.423 -0.5953  0.6575 -0.4604
 5475WAT      O22619   5.467   1.030   4.913  0.5427 -0.0248 -0.0055
 5475WAT     H122620   5.478   1.088   4.849 -0.8478  0.1936 -0.0690
 5475WAT     H222621   5.486   1.075   4.985 -1.7148  0.9279  0.0618
 5475WAT    EPW22622   5.472   1.045   4.914  0.0038  0.1482 -0.0050
 5476WAT      O22623   4.836   1.501   4.333 -0.0036 -0.0668  0.3252
 5476WAT     H122624   4.792   1.440   4.378 -0.7207  0.6127  0.5809
 5476WAT     H222625   4.919   1.485   4.353  0.0220 -2.1609 -1.1404
 5476WAT    EPW22626   4.842   1.490   4.343 -0.1057 -0.2758  0.1465
 5477WAT      O22627   4.723   2.366   4.784 -0.5633  0.0316 -0.1670
 5477WAT     H122628   4.641   2.395   4.772 -0.1770  0.3852 -2.3707
 5477WAT     H222629   4.772   2.435   4.765  0.2805 -0.3150  0.6870
 5477WAT    EPW22630   4.718   2.381   4.779 -0.3816  0.0327 -0.3664
 5478WAT      O22631   4.744   1.409   4.087 -0.0032 -0.3005  0.1799
 5478WAT     H122632   4.674   1.455   4.065 -1.9616 -2.7083  0.9426
 5478WAT     H222633   4.761   1.435   4.169 -1.1431 -0.9463  0.6378
 5478WAT    EPW22634   4.736   1.419   4.096 -0.4609 -0.7516  0.3602
 5479WAT      O22635   4.572   0.058   5.144 -0.2191 -0.0286  0.6358
 5479WAT     H122636   4.645   0.012   5.154 -0.5472 -0.5518  0.6323
 5479WAT     H222637   4.570   0.075   5.058  0.4123  0.8524  0.7823
 5479WAT    EPW22638   4.582   0.054   5.133 -0.1743  0.0243  0.6569
 5480WAT      O22639   6.021   3.040   6.121  0.0235 -0.0442  0.2154
 5480WAT     H122640   5.969   2.997   6.177  1.3657  1.0915  2.4987
 5480WAT     H222641   6.092   2.990   6.116 -0.1093 -0.1608 -0.5389
 5480WAT    EPW22642   6.023   3.026   6.129  0.2022  0.1063  0.4413
 5481WAT      O22643   4.416   2.091   5.592 -0.5289  0.0535  0.4106
 5481WAT     H122644   4.501   2.072   5.594 -0.2319  1.0028 -1.3791
 5481WAT     H222645   4.410   2.161   5.645 -0.2051  0.0048  0.5177
 5481WAT    EPW22646   4.428   2.098   5.600 -0.4372  0.1866  0.1620
 5482WAT      O22647   5.949   2.544   4.653  0.0221 -0.1406  0.1036
 5482WAT     H122648   6.028   2.521   4.624  0.7591  0.2894  1.6141
 5482WAT     H222649   5.967   2.588   4.727 -1.6354  0.0063  0.4631
 5482WAT    EPW22650   5.963   2.547   4.660 -0.1138 -0.0554  0.3799
 5483WAT      O22651   3.780   1.735   7.334 -0.5449  0.1515  0.0996
 5483WAT     H122652   3.737   1.809   7.321  0.0841  0.7843  1.4636
 5483WAT     H222653   3.845   1.739   7.276 -1.3525 -0.0724 -0.8680
 5483WAT    EPW22654   3.783   1.746   7.323 -0.5713  0.2119  0.1582
 5484WAT      O22655   4.802   1.886   6.143  1.4109 -0.0756  0.2097
 5484WAT     H122656   4.810   1.800   6.127  2.0003 -0.0284  0.2280
 5484WAT     H222657   4.838   1.895   6.222 -0.2375 -0.0912  1.0048
 5484WAT    EPW22658   4.808   1.874   6.152  1.2545 -0.0709  0.3298
 5485WAT      O22659   4.335   2.455   5.996  0.1868  0.0647 -0.3599
 5485WAT     H122660   4.371   2.408   6.060 -0.1438 -2.4553 -1.8582
 5485WAT     H222661   4.249   2.451   6.012  0.2338  2.3890  0.8460
 5485WAT    EPW22662   4.328   2.447   6.008  0.1449  0.0358 -0.4031
 5486WAT      O22663   5.875   2.062   5.441  0.2445 -0.1387 -0.0395
 5486WAT     H122664   5.834   1.988   5.418  2.2844 -1.3835  0.0453
 5486WAT     H222665   5.901   2.045   5.522 -0.9355  1.5069  0.7346
 5486WAT    EPW22666   5.873   2.048   5.450  0.3715 -0.0795  0.0874
 5487WAT      O22667   6.867   2.091   4.749 -0.2289  0.2526 -0.0972
 5487WAT     H122668   6.863   2.058   4.830 -0.1300 -0.3329 -0.3220
 5487WAT     H222669   6.829   2.169   4.757  1.2042  0.8994  0.8598
 5487WAT    EPW22670   6.861   2.097   4.762 -0.0026  0.2617  0.0110
 5488WAT      O22671   4.722   3.566   5.546  0.3903  0.1827 -0.5121
 5488WAT     H122672   4.663   3.555   5.483 -1.7491 -1.2717  1.5584
 5488WAT     H222673   4.673   3.579   5.617  2.6476  0.6458  1.0555
 5488WAT    EPW22674   4.706   3.566   5.547  0.4077  0.0363  0.0254
 5489WAT      O22675   3.963   2.384   4.533  0.5740  0.3956 -0.5345
 5489WAT     H122676   4.039   2.425   4.546 -0.3499  1.6620  1.2578
 5489WAT     H222677   3.913   2.412   4.599 -0.5177 -2.7443  0.1325
 5489WAT    EPW22678   3.967   2.394   4.545  0.2763  0.1188 -0.1712
 5490WAT      O22679   5.485   2.032   2.496 -0.6414 -0.5643 -0.3893
 5490WAT     H122680   5.401   2.048   2.518 -1.1742 -0.7486 -2.1604
 5490WAT     H222681   5.481   1.957   2.453  0.3746 -0.3606 -0.8583
 5490WAT    EPW22682   5.472   2.023   2.493 -0.5700 -0.5615 -0.7202
 5491WAT      O22683   4.469   2.904   4.084 -0.3472 -0.4088  0.2211
 5491WAT     H122684   4.413   2.922   4.018 -0.5414 -1.1888  0.1673
 5491WAT     H222685   4.419   2.908   4.155 -0.4267 -0.8673  0.1948
 5491WAT    EPW22686   4.453   2.907   4.084 -0.3876 -0.5917  0.2093
 5492WAT      O22687   4.706   2.042   5.632 -0.3222 -0.2879  0.2353
 5492WAT     H122688   4.702   1.986   5.698 -0.2219 -0.2379  0.2841
 5492WAT     H222689   4.786   2.032   5.601 -0.1648  0.1103  0.4946
 5492WAT    EPW22690   4.717   2.032   5.637 -0.2842 -0.2217  0.2808
 5493WAT      O22691   6.205   3.879   6.110  0.2528 -0.3070 -0.4307
 5493WAT     H122692   6.185   3.904   6.191 -0.9303 -1.4571 -0.3210
 5493WAT     H222693   6.225   3.795   6.119 -0.3233 -0.5672 -1.3728
 5493WAT    EPW22694   6.205   3.870   6.123 -0.0071 -0.5153 -0.5537
 5494WAT      O22695   4.238   0.045   6.385 -0.0331  0.0156  0.8013
 5494WAT     H122696   4.245  -0.042   6.379  3.0462  0.2087 -0.1798
 5494WAT     H222697   4.319   0.073   6.370 -0.9603  3.1020  0.8714
 5494WAT    EPW22698   4.251   0.036   6.382  0.2848  0.5001  0.6667
 5495WAT      O22699   3.860   2.333   4.079 -0.0827  0.0525  0.3529
 5495WAT     H122700   3.777   2.359   4.067  0.0433  1.4073  2.0125
 5495WAT     H222701   3.905   2.383   4.024 -0.4104 -1.6371 -1.5773
 5495WAT    EPW22702   3.854   2.344   4.069 -0.1125  0.0030  0.3129
 5496WAT      O22703   5.599   2.157   5.102  0.0902 -0.1528  0.0754
 5496WAT     H122704   5.512   2.149   5.094  0.1348  0.0173 -0.6714
 5496WAT     H222705   5.609   2.201   5.177 -0.5587  1.5240 -0.7748
 5496WAT    EPW22706   5.587   2.162   5.112  0.0010  0.1200 -0.1605
 5497WAT      O22707   3.719   0.920   3.111 -0.3110 -0.5053  0.3542
 5497WAT     H122708   3.667   0.851   3.124 -0.4909 -0.3993  0.2126
 5497WAT     H222709   3.721   0.928   3.024 -1.3646  0.4648  0.4002
 5497WAT    EPW22710   3.712   0.911   3.100 -0.4932 -0.3463  0.3401
 5498WAT      O22711   5.054   0.701   3.728 -0.0035 -0.0394  0.4189
 5498WAT     H122712   4.997   0.636   3.738 -0.2135  0.3494  2.0265
 5498WAT     H222713   5.029   0.740   3.653 -1.9109  0.1699  1.1098
 5498WAT    EPW22714   5.042   0.697   3.718 -0.3163  0.0489  0.7585
 5499WAT      O22715   6.079   2.329   5.975 -0.2202 -0.5409  0.0752
 5499WAT     H122716   6.013   2.279   5.947 -0.2194  0.1640 -1.2524
 5499WAT     H222717   6.150   2.283   5.955 -0.2581 -0.5832  0.0364
 5499WAT    EPW22718   6.080   2.315   5.968 -0.2257 -0.4430 -0.1267
 5500WAT      O22719   4.380   1.274   3.747 -0.0794 -0.6033  0.6928
 5500WAT     H122720   4.434   1.210   3.724  1.0852 -0.2306  2.2778
 5500WAT     H222721   4.359   1.311   3.670 -0.6687 -2.7272 -0.2555
 5500WAT    EPW22722   4.385   1.270   3.732  0.0056 -0.8620  0.7869
 5501WAT      O22723   4.584   0.636   4.778 -0.4168 -0.3696  0.1778
 5501WAT     H122724   4.656   0.666   4.817  0.7297  0.7528 -2.6029
 5501WAT     H222725   4.612   0.567   4.733 -1.2258 -0.3654 -0.3564
 5501WAT    EPW22726   4.599   0.630   4.777 -0.3669 -0.2032 -0.3119
 5502WAT      O22727   4.597   2.590   4.537 -0.1762 -0.0711 -0.1044
 5502WAT     H122728   4.512   2.603   4.522  0.1202  0.5783 -1.4009
 5502WAT     H222729   4.618   2.527   4.480  0.3276  0.1599 -0.1770
 5502WAT    EPW22730   4.588   2.583   4.526 -0.0580  0.0589 -0.3067
 5503WAT      O22731   5.208   2.183   6.415  0.0350  0.7001  0.4508
 5503WAT     H122732   5.260   2.253   6.408 -0.0592  1.0165  2.4351
 5503WAT     H222733   5.131   2.212   6.386  0.2483  1.0926  0.2599
 5503WAT    EPW22734   5.205   2.198   6.410  0.0526  0.8048  0.7157
 5504WAT      O22735   4.845   3.056   4.990  0.1580  0.0399 -0.2815
 5504WAT     H122736   4.890   2.987   4.964 -1.3984 -0.7210 -1.1303
 5504WAT     H222737   4.832   3.102   4.916 -1.1355 -0.2089 -0.2435
 5504WAT    EPW22738   4.849   3.053   4.975 -0.2630 -0.1092 -0.4013
 5505WAT      O22739   3.922   2.534   5.012  0.1971 -0.3191 -0.0511
 5505WAT     H122740   3.900   2.489   4.940 -0.3139 -0.7295  0.3598
 5505WAT     H222741   3.992   2.491   5.041 -0.0243 -0.5879  0.0920
 5505WAT    EPW22742   3.929   2.521   5.006  0.0889 -0.4195  0.0307
 5506WAT      O22743   5.567   2.613   5.026  0.0340  0.5492  0.4785
 5506WAT     H122744   5.534   2.638   5.103  1.6737  0.4026  1.2804
 5506WAT     H222745   5.548   2.679   4.973 -1.2735  0.5816  0.9556
 5506WAT    EPW22746   5.559   2.626   5.029  0.0831  0.5323  0.6674
 5507WAT      O22747   5.211   1.792   4.388  0.2209 -0.6674 -0.8742
 5507WAT     H122748   5.171   1.775   4.464  0.7482  0.8508 -0.2021
 5507WAT     H222749   5.151   1.774   4.328 -1.3073  0.9535  0.0790
 5507WAT    EPW22750   5.196   1.787   4.391  0.0730 -0.2037 -0.6341
 5508WAT      O22751   5.473   0.816   4.555 -0.2140  0.0651  0.0285
 5508WAT     H122752   5.423   0.752   4.521  0.2862 -0.5886  0.4931
 5508WAT     H222753   5.493   0.786   4.634 -0.2808  0.9812  0.4034
 5508WAT    EPW22754   5.468   0.802   4.562 -0.1500  0.1039  0.1525
 5509WAT      O22755   4.717   3.983   5.509  0.0593 -0.0238 -0.1732
 5509WAT     H122756   4.637   3.958   5.533  1.1427 -2.4289  1.2405
 5509WAT     H222757   4.749   3.914   5.468  1.2099  1.1654 -1.3708
 5509WAT    EPW22758   4.710   3.969   5.506  0.3893 -0.2034 -0.1413
 5510WAT      O22759   6.645   0.141   5.182  0.0182 -0.6126  0.5168
 5510WAT     H122760   6.613   0.061   5.169 -3.0205  0.6185 -0.5613
 5510WAT     H222761   6.640   0.178   5.103  2.4498  0.3729  0.7246
 5510WAT    EPW22762   6.640   0.135   5.168 -0.0715 -0.2852  0.3882
 5511WAT      O22763   5.700   0.433   5.122  0.0587 -0.7775 -0.2537
 5511WAT     H122764   5.688   0.348   5.109  1.5340 -1.0847  0.1769
 5511WAT     H222765   5.644   0.452   5.186  0.4296 -1.6672  0.3565
 5511WAT    EPW22766   5.690   0.424   5.130  0.3314 -0.9543 -0.0999
 5512WAT      O22767   5.597   1.256   5.717 -0.4527  0.3522  0.0079
 5512WAT     H122768   5.645   1.184   5.722  1.8585  1.7962  0.0303
 5512WAT     H222769   5.519   1.231   5.747  0.8248 -1.6293  1.9491
 5512WAT    EPW22770   5.592   1.242   5.722  0.0774  0.2728  0.2979
 5513WAT      O22771   4.314   1.509   7.695 -0.2290  0.2023 -0.1381
 5513WAT     H122772   4.386   1.504   7.743 -0.2597  0.6306 -0.0446
 5513WAT     H222773   4.254   1.469   7.744 -0.0876 -0.0381 -0.1590
 5513WAT    EPW22774   4.316   1.502   7.709 -0.2126  0.2301 -0.1274
 5514WAT      O22775   5.527   0.081   5.184 -0.2865  0.0868 -0.2443
 5514WAT     H122776   5.567   0.011   5.218 -0.1771  0.4892  0.4731
 5514WAT     H222777   5.447   0.053   5.166  0.0525 -0.4968 -0.8998
 5514WAT    EPW22778   5.521   0.066   5.186 -0.2203  0.0601 -0.2352
 5515WAT      O22779   6.219   1.343   3.072 -0.1998  0.1421  0.1353
 5515WAT     H122780   6.239   1.425   3.047 -0.7839  0.0630 -0.6429
 5515WAT     H222781   6.134   1.338   3.055  0.1611 -1.1915 -1.4822
 5515WAT    EPW22782   6.209   1.355   3.066 -0.2328 -0.0666 -0.2186
 5516WAT      O22783   4.839   2.132   3.281  0.3866  0.8122 -0.2410
 5516WAT     H122784   4.843   2.195   3.341 -4.8165  1.0085  0.3264
 5516WAT     H222785   4.768   2.152   3.234 -0.1274 -3.3116 -1.6239
 5516WAT    EPW22786   4.829   2.144   3.283 -0.4579  0.2320 -0.3615
 5517WAT      O22787   4.797   1.801   7.284  0.0143 -0.7548  0.2027
 5517WAT     H122788   4.774   1.798   7.200 -1.0360  1.4875  0.3471
 5517WAT     H222789   4.883   1.815   7.280 -0.2286  0.8064 -0.5878
 5517WAT    EPW22790   4.806   1.803   7.271 -0.1767 -0.1930  0.1073
 5518WAT      O22791   4.458   2.488   4.789 -0.3486 -0.7448 -0.0773
 5518WAT     H122792   4.455   2.575   4.779 -1.2481 -0.5863  1.3252
 5518WAT     H222793   4.444   2.476   4.874  1.6100 -2.2014  0.1354
 5518WAT    EPW22794   4.456   2.499   4.800 -0.1921 -0.9366  0.1613
 5519WAT      O22795   4.988   2.597   3.674  0.2987  0.4371 -0.7696
 5519WAT     H122796   4.905   2.611   3.697 -0.2050 -1.2022 -1.4708
 5519WAT     H222797   5.008   2.665   3.624  0.3174  2.3153  1.6174
 5519WAT    EPW22798   4.979   2.609   3.670  0.2271  0.4724 -0.5206
 5520WAT      O22799   5.327   1.089   6.085 -0.0587 -0.3525  0.4255
 5520WAT     H122800   5.270   1.029   6.114 -1.5150  1.4659  1.5383
 5520WAT     H222801   5.297   1.164   6.118  1.2154  1.1462 -1.5962
 5520WAT    EPW22802   5.314   1.091   6.094 -0.0856  0.1375  0.2912
 5521WAT      O22803   4.970   1.000   4.428 -0.9634 -0.5562 -0.1495
 5521WAT     H122804   5.021   0.945   4.383  0.8176  1.3332 -0.5523
 5521WAT     H222805   5.011   1.009   4.504 -0.6358  1.0215 -0.4863
 5521WAT    EPW22806   4.983   0.993   4.432 -0.6519 -0.0441 -0.2588
 5522WAT      O22807   6.666   1.628   6.356 -0.0217  0.3113  0.5269
 5522WAT     H122808   6.694   1.608   6.436 -0.2593 -0.3293  0.4556
 5522WAT     H222809   6.740   1.638   6.310  0.1305 -1.6631  0.2675
 5522WAT    EPW22810   6.681   1.626   6.361 -0.0343 -0.0750  0.4781
 5523WAT      O22811   5.377   2.099   4.097  0.0781 -0.3267 -0.2926
 5523WAT     H122812   5.400   2.015   4.087  0.6109 -0.3414  0.8858
 5523WAT     H222813   5.300   2.104   4.056  0.0743 -1.3743 -0.4489
 5523WAT    EPW22814   5.369   2.087   4.089  0.1563 -0.4836 -0.1416
 5524WAT      O22815   3.512   1.802   5.971 -0.3392 -0.1931 -0.0203
 5524WAT     H122816   3.535   1.773   5.892 -2.4946  0.3287 -0.8865
 5524WAT     H222817   3.583   1.846   5.997 -0.3283  1.5669 -2.6458
 5524WAT    EPW22818   3.526   1.804   5.963 -0.6560  0.1439 -0.5361
 5525WAT      O22819   4.323   3.134   4.984  0.0243  0.2790  0.0765
 5525WAT     H122820   4.253   3.179   5.012 -0.8450 -0.8834 -0.1428
 5525WAT     H222821   4.390   3.183   5.011 -0.8565  1.2894  0.5511
 5525WAT    EPW22822   4.322   3.148   4.992 -0.2343  0.2566  0.1142
 5526WAT      O22823   4.554   0.091   7.748 -0.5163 -0.2776 -0.2244
 5526WAT     H122824   4.483   0.041   7.759 -0.5494  0.0636  1.2309
 5526WAT     H222825   4.522   0.172   7.745 -0.1780 -0.0839  0.8850
 5526WAT    EPW22826   4.539   0.095   7.749 -0.4712 -0.1986  0.1545
 5527WAT      O22827   5.227   0.607   6.015 -0.3460 -0.5779  0.9213
 5527WAT     H122828   5.299   0.575   5.977  0.8368  1.1326  1.5934
 5527WAT     H222829   5.164   0.587   5.959  0.7089 -1.7053  0.0641
 5527WAT    EPW22830   5.229   0.599   6.001 -0.0155 -0.4918  0.8939
 5528WAT      O22831   4.166   3.407   4.876 -0.3334  0.0943 -0.1461
 5528WAT     H122832   4.142   3.356   4.942 -0.6727 -0.6825 -0.8536
 5528WAT     H222833   4.091   3.429   4.838 -0.1025 -0.3586 -0.9092
 5528WAT    EPW22834   4.152   3.403   4.880 -0.3494 -0.0874 -0.3633
 5529WAT      O22835   5.273   4.045   5.230 -0.4028 -0.0320  0.2352
 5529WAT     H122836   5.268   4.043   5.143 -0.7262 -2.4855  0.2313
 5529WAT     H222837   5.351   4.082   5.245 -0.1023 -0.0477 -1.1218
 5529WAT    EPW22838   5.284   4.050   5.219 -0.4062 -0.3968  0.0342
 5530WAT      O22839   4.545   1.622   5.995  0.0738 -0.2254 -0.0183
 5530WAT     H122840   4.497   1.667   6.053  0.1352  0.8500 -0.7566
 5530WAT     H222841   4.519   1.540   6.006  0.7940 -0.2197  2.2063
 5530WAT    EPW22842   4.534   1.617   6.005  0.1893 -0.0657  0.2012
 5531WAT      O22843   6.685   2.892   3.538  0.4357 -0.0862 -0.2445
 5531WAT     H122844   6.600   2.872   3.538  0.1464  0.7312 -2.7766
 5531WAT     H222845   6.724   2.815   3.527 -0.1563 -0.2549 -1.3747
 5531WAT    EPW22846   6.678   2.878   3.536  0.3055  0.0096 -0.7855
 5532WAT      O22847   4.383   2.176   3.767 -0.0232 -0.1957  0.2488
 5532WAT     H122848   4.322   2.233   3.792 -1.0757 -1.3923  0.4898
 5532WAT     H222849   4.416   2.211   3.694 -1.6352  0.0413 -0.3907
 5532WAT    EPW22850   4.379   2.189   3.760 -0.4168 -0.3375  0.1899
 5533WAT      O22851   3.589   2.190   6.036  0.0676  0.0702  0.0643
 5533WAT     H122852   3.554   2.207   6.114  0.4525  0.4442  0.1601
 5533WAT     H222853   3.633   2.263   6.018  1.0972 -0.5262  0.1141
 5533WAT    EPW22854   3.590   2.203   6.045  0.2765  0.0373  0.0858
 5534WAT      O22855   4.102   1.031   4.131  0.2285 -0.1293 -0.0345
 5534WAT     H122856   4.027   0.988   4.116  1.0234 -1.4789 -0.2719
 5534WAT     H222857   4.076   1.115   4.139 -1.0921 -0.3160 -1.8110
 5534WAT    EPW22858   4.087   1.037   4.130  0.1508 -0.3562 -0.3320
 5535WAT      O22859   5.975   0.088   4.360 -0.6570  0.0621  0.3066
 5535WAT     H122860   5.966   0.013   4.403 -0.6940 -1.3355 -1.9376
 5535WAT     H222861   6.061   0.101   4.359 -0.7458  1.1457  2.3296
 5535WAT    EPW22862   5.986   0.079   4.366 -0.6756  0.0157  0.2739
 5536WAT      O22863   3.561   3.533   5.904  0.3926  0.0812  0.2709
 5536WAT     H122864   3.645   3.518   5.887  0.4425 -3.2366  2.4759
 5536WAT     H222865   3.563   3.584   5.975  0.4280  1.8533 -0.9549
 5536WAT    EPW22866   3.574   3.538   5.912  0.4052 -0.1472  0.4155
 5537WAT      O22867   4.124   1.119   3.784 -0.2061  0.6949  0.3573
 5537WAT     H122868   4.204   1.134   3.816 -0.2060  1.6149 -0.0631
 5537WAT     H222869   4.083   1.195   3.794 -0.5098  0.7229 -0.9357
 5537WAT    EPW22870   4.129   1.132   3.791 -0.2509  0.8349  0.1042
 5538WAT      O22871   3.313   6.515   5.924  0.3479 -0.2394  0.2622
 5538WAT     H122872   3.319   6.579   5.865 -0.0112 -0.6309 -0.1926
 5538WAT     H222873   3.397   6.499   5.944  0.4533  0.1764  0.1797
 5538WAT    EPW22874   3.326   6.522   5.918  0.3104 -0.2358  0.1828
 5539WAT      O22875   5.410   1.452   3.398 -0.4942 -0.3696 -0.0453
 5539WAT     H122876   5.474   1.451   3.457 -0.3210  0.6536 -0.2110
 5539WAT     H222877   5.342   1.420   3.443 -0.2189 -0.1772  0.5281
 5539WAT    EPW22878   5.409   1.447   3.414 -0.4279 -0.1900  0.0149
 5540WAT      O22879   5.639   1.454   2.612  0.0330  0.1219 -0.3215
 5540WAT     H122880   5.629   1.376   2.574  2.1875  0.2747 -1.3501
 5540WAT     H222881   5.718   1.449   2.649 -0.2283  1.4781  0.4749
 5540WAT    EPW22882   5.649   1.441   2.612  0.3126  0.3448 -0.3558
 5541WAT      O22883   5.141   2.308   5.517 -0.4279  0.2463  0.4009
 5541WAT     H122884   5.104   2.368   5.466  0.8622  1.9771  1.3682
 5541WAT     H222885   5.201   2.271   5.466 -0.2617  0.7979  0.1969
 5541WAT    EPW22886   5.145   2.311   5.502 -0.2128  0.5835  0.5137
 5542WAT      O22887   5.168   1.553   5.630 -0.1790  0.3129 -0.4863
 5542WAT     H122888   5.098   1.569   5.678 -0.3038 -1.1300 -0.1385
 5542WAT     H222889   5.157   1.470   5.604  0.5059  0.6482 -1.9459
 5542WAT    EPW22890   5.156   1.543   5.633 -0.0962  0.1493 -0.6506
 5543WAT      O22891   3.799   3.232   4.771  0.1869 -0.0281 -0.5461
 5543WAT     H122892   3.765   3.238   4.691  2.0633 -0.1714 -1.4069
 5543WAT     H222893   3.822   3.315   4.789 -1.6797  0.2949  0.5673
 5543WAT    EPW22894   3.797   3.245   4.762  0.1883 -0.0016 -0.5088
 5544WAT      O22895   4.049   2.218   4.955 -0.1109 -0.4489 -0.0282
 5544WAT     H122896   3.988   2.190   5.011 -0.3538 -2.4709 -1.1999
 5544WAT     H222897   4.124   2.189   4.989 -0.1264 -0.6274 -0.1481
 5544WAT    EPW22898   4.051   2.210   4.968 -0.1491 -0.7740 -0.2190
 5545WAT      O22899   4.635   2.413   5.413 -0.3567 -0.5099  0.1890
 5545WAT     H122900   4.682   2.484   5.398  0.9769 -0.7316  2.6772
 5545WAT     H222901   4.561   2.443   5.447  0.7102 -0.2310  2.4482
 5545WAT    EPW22902   4.631   2.428   5.416 -0.0021 -0.5014  0.8902
 5546WAT      O22903   5.582   2.109   3.661  0.1350  0.5561 -0.0877
 5546WAT     H122904   5.539   2.103   3.585  2.3193  0.7029 -1.4124
 5546WAT     H222905   5.596   2.195   3.669 -0.5519  0.6004  0.7957
 5546WAT    EPW22906   5.578   2.121   3.651  0.3562  0.5843 -0.1529
 5547WAT      O22907   6.444   3.860   5.679 -0.5391  0.2870  0.1328
 5547WAT     H122908   6.524   3.828   5.673 -1.0734 -1.8555  2.6069
 5547WAT     H222909   6.455   3.937   5.720  0.3165  0.6799 -0.8012
 5547WAT    EPW22910   6.457   3.867   5.684 -0.4916  0.0285  0.3603
 5548WAT      O22911   5.296   1.559   5.163  1.0026  0.2045  0.1553
 5548WAT     H122912   5.310   1.600   5.239  1.6212  1.8954 -0.8209
 5548WAT     H222913   5.348   1.601   5.107 -1.0284  0.4361 -1.6720
 5548WAT    EPW22914   5.306   1.571   5.166  0.7940  0.4885 -0.2588
 5549WAT      O22915   5.409   1.152   4.291  0.5751 -0.0580 -0.2628
 5549WAT     H122916   5.352   1.157   4.226  1.9733  0.5638 -1.5092
 5549WAT     H222917   5.486   1.140   4.251  1.4521  0.0029  1.2831
 5549WAT    EPW22918   5.412   1.151   4.276  0.9112  0.0428 -0.2185
 5550WAT      O22919   4.605   3.144   5.399  0.1326 -0.7583 -0.1503
 5550WAT     H122920   4.523   3.172   5.409  1.0130  1.8469  0.5548
 5550WAT     H222921   4.627   3.115   5.478  0.6704  1.0265  0.4035
 5550WAT    EPW22922   4.596   3.144   5.412  0.3421 -0.1098  0.0357
 5551WAT      O22923   5.249   2.721   5.785 -0.3310  0.4964  0.0893
 5551WAT     H122924   5.279   2.795   5.821 -0.3114  0.2577  0.5708
 5551WAT     H222925   5.164   2.737   5.772  0.1526  1.5274 -2.1647
 5551WAT    EPW22926   5.241   2.734   5.788 -0.2567  0.6134 -0.1725
 5552WAT      O22927   5.215   1.905   6.473  0.0873 -0.8630  0.0487
 5552WAT     H122928   5.202   1.991   6.472 -1.0298 -1.0105  0.1312
 5552WAT     H222929   5.267   1.892   6.541  1.0687 -0.1677 -0.5310
 5552WAT    EPW22930   5.221   1.916   6.483  0.0673 -0.7821 -0.0248
 5553WAT      O22931   4.661   3.052   5.633 -0.4010 -0.6314 -0.0056
 5553WAT     H122932   4.606   2.990   5.661 -1.4702 -0.0014 -0.6299
 5553WAT     H222933   4.636   3.123   5.677  1.3968 -0.8011  1.3752
 5553WAT    EPW22934   4.649   3.054   5.644 -0.2934 -0.5634  0.1062
 5554WAT      O22935   5.131   2.802   5.085  0.1834 -0.3433 -0.1388
 5554WAT     H122936   5.163   2.880   5.107 -2.1013 -0.0207  2.6779
 5554WAT     H222937   5.166   2.748   5.144 -0.4960 -0.8976 -0.2334
 5554WAT    EPW22938   5.141   2.806   5.097 -0.2545 -0.3776  0.2633
 5555WAT      O22939   4.062   3.215   5.052 -0.7529 -0.0030 -0.3443
 5555WAT     H122940   4.022   3.251   5.120 -0.8756 -0.6848 -0.0426
 5555WAT     H222941   3.998   3.171   5.012 -0.5694 -0.0388 -0.6003
 5555WAT    EPW22942   4.047   3.214   5.056 -0.7439 -0.1090 -0.3376
 5556WAT      O22943   3.235   1.753   6.026  0.0976  0.8970 -0.5837
 5556WAT     H122944   3.301   1.784   5.978 -0.2195 -0.5087 -2.0293
 5556WAT     H222945   3.231   1.669   6.003 -1.9057  0.8279 -0.2049
 5556WAT    EPW22946   3.244   1.745   6.015 -0.2452  0.6791 -0.7413
 5557WAT      O22947   4.267   2.113   5.150 -0.0628 -0.7987 -1.3675
 5557WAT     H122948   4.252   2.113   5.236  0.5013  1.4528 -1.2073
 5557WAT     H222949   4.278   2.029   5.131  0.7036 -1.2847  0.9207
 5557WAT    EPW22950   4.266   2.100   5.160  0.1338 -0.5379 -1.0058
 5558WAT      O22951   3.322   0.036   4.845  0.5038 -0.4596 -0.4499
 5558WAT     H122952   3.308   0.062   4.763 -0.5207  0.0346 -0.1218
 5558WAT     H222953   3.398   0.074   4.866 -0.6945  1.9018 -0.1500
 5558WAT    EPW22954   3.331   0.045   4.836  0.1754 -0.0378 -0.3571
 5559WAT      O22955   5.345   3.015   3.857  0.2220 -0.9035  0.0682
 5559WAT     H122956   5.386   2.980   3.789  1.6213 -1.2347  1.0494
 5559WAT     H222957   5.348   2.953   3.918 -1.9763 -1.0330  0.1395
 5559WAT    EPW22958   5.351   3.001   3.856  0.1040 -0.9716  0.2237
 5560WAT      O22959   4.768   1.042   4.785 -0.1436  0.4190  0.6621
 5560WAT     H122960   4.825   1.051   4.719  0.9419 -0.0940  1.4890
 5560WAT     H222961   4.696   1.012   4.746  1.0700 -1.7383 -0.0956
 5560WAT    EPW22962   4.766   1.039   4.769  0.1960  0.0246  0.6724
 5561WAT      O22963   4.111   1.156   3.142 -0.1371  0.5379  0.6092
 5561WAT     H122964   4.067   1.125   3.211  0.2076  0.0043  0.6023
 5561WAT     H222965   4.071   1.231   3.123 -0.1937  0.7319  1.4399
 5561WAT    EPW22966   4.099   1.162   3.149 -0.0946  0.4878  0.7309
 5562WAT      O22967   4.055   1.965   4.318  0.2388 -0.0127  0.1342
 5562WAT     H122968   4.027   2.047   4.312  1.5057  0.5534  1.3682
 5562WAT     H222969   3.989   1.918   4.284  1.0050  1.6627 -4.3045
 5562WAT    EPW22970   4.041   1.970   4.312  0.5391  0.3184 -0.3392
 5563WAT      O22971   4.642   0.183   7.374 -0.2587  0.1088  0.3210
 5563WAT     H122972   4.613   0.223   7.302  0.7817  1.9786  0.8548
 5563WAT     H222973   4.578   0.196   7.432 -0.4168  0.0207  0.1650
 5563WAT    EPW22974   4.629   0.191   7.372 -0.1283  0.3720  0.3768
 5564WAT      O22975   4.440   0.370   4.671 -0.0622 -0.3311  0.0005
 5564WAT     H122976   4.526   0.358   4.664 -0.1201 -0.3656 -0.8483
 5564WAT     H222977   4.409   0.290   4.685  0.0825 -0.2397  0.9171
 5564WAT    EPW22978   4.448   0.357   4.672 -0.0494 -0.3227  0.0105
 5565WAT      O22979   5.902   1.393   2.755  0.1232 -0.4583 -0.5949
 5565WAT     H122980   5.973   1.424   2.715  0.5644 -1.5103 -0.6378
 5565WAT     H222981   5.883   1.455   2.813  1.1528 -0.2256 -0.4918
 5565WAT    EPW22982   5.910   1.407   2.758  0.3405 -0.5793 -0.5860
 5566WAT      O22983   4.697   1.047   4.454 -0.0937 -0.5883  0.3523
 5566WAT     H122984   4.774   1.028   4.418 -0.4421 -0.8880 -0.2372
 5566WAT     H222985   4.668   0.970   4.483 -0.3809 -0.5555  0.1596
 5566WAT    EPW22986   4.704   1.033   4.453 -0.1876 -0.6277  0.2367
 5567WAT      O22987   6.401   1.658   4.706  0.4012  0.0944  0.0037
 5567WAT     H122988   6.410   1.702   4.780  1.4236 -1.9076  1.1622
 5567WAT     H222989   6.482   1.657   4.673  0.2375 -0.2122 -0.3994
 5567WAT    EPW22990   6.414   1.664   4.712  0.5280 -0.2466  0.1153
 5568WAT      O22991   6.308   4.637   3.264  0.2502 -0.3463 -0.2996
 5568WAT     H122992   6.230   4.600   3.278 -1.0581  2.2512 -0.1308
 5568WAT     H222993   6.337   4.653   3.345 -0.5047  1.4223 -0.3406
 5568WAT    EPW22994   6.301   4.634   3.278 -0.0546  0.2987 -0.2808
 5569WAT      O22995   3.873   1.186   5.823  0.0760  0.1294  0.1967
 5569WAT     H122996   3.808   1.214   5.772  0.6745  2.0044  0.4143
 5569WAT     H222997   3.870   1.240   5.892  1.8137  0.2200  0.2425
 5569WAT    EPW22998   3.863   1.198   5.826  0.4211  0.4198  0.2356
 5570WAT      O22999   6.068   1.578   5.240  0.0713  0.1214  0.2712
 5570WAT     H123000   6.072   1.641   5.300  1.4047  0.9563 -0.6303
 5570WAT     H223001   6.009   1.608   5.183 -0.2749 -0.0766  0.5270
 5570WAT    EPW23002   6.060   1.592   5.241  0.2171  0.2155  0.1759
 5571WAT      O23003   5.860   1.665   5.033  0.3918 -0.2966  0.1916
 5571WAT     H123004   5.811   1.594   5.027 -0.0813  0.0995 -0.8000
 5571WAT     H223005   5.803   1.730   5.020  0.9302  0.2305  0.4327
 5571WAT    EPW23006   5.844   1.664   5.030  0.4015 -0.1602  0.0807
 5572WAT      O23007   5.022   2.850   5.443  0.9035 -0.5381  0.8921
 5572WAT     H123008   5.020   2.763   5.444  0.7390 -0.5661 -0.2957
 5572WAT     H223009   4.952   2.871   5.395  2.0678  0.1651 -0.5759
 5572WAT    EPW23010   5.011   2.840   5.436  1.0512 -0.4383  0.4998
 5573WAT      O23011   4.800   3.858   6.581  0.1240 -0.4511  0.2341
 5573WAT     H123012   4.728   3.810   6.577  0.9828 -1.7152 -0.7612
 5573WAT     H223013   4.863   3.804   6.553  1.4944  0.5521  1.2190
 5573WAT    EPW23014   4.799   3.843   6.576  0.4533 -0.4897  0.2326
 5574WAT      O23015   4.539   1.344   5.968 -0.3766 -0.1538  0.2677
 5574WAT     H123016   4.621   1.317   5.956  0.7513  2.2480  1.9165
 5574WAT     H223017   4.499   1.319   5.895  2.1967 -0.0167 -1.3283
 5574WAT    EPW23018   4.545   1.336   5.955  0.1701  0.2212  0.2755
 5575WAT      O23019   3.719   0.416   2.335  0.0170  0.3992 -0.8151
 5575WAT     H123020   3.643   0.377   2.351 -0.0492  0.6518 -0.5011
 5575WAT     H223021   3.699   0.501   2.333  0.6718  0.7004  1.8239
 5575WAT    EPW23022   3.705   0.423   2.337  0.1039  0.4810 -0.3789
 5576WAT      O23023   5.566   3.231   5.679 -0.2232 -0.0743  0.1740
 5576WAT     H123024   5.609   3.175   5.628 -1.4656  0.5181 -1.5895
 5576WAT     H223025   5.555   3.185   5.753 -2.6411 -2.8994 -1.7100
 5576WAT    EPW23026   5.571   3.216   5.683 -0.7639 -0.4041 -0.3648
 5577WAT      O23027   4.247   3.119   6.137  0.2803 -0.0735  0.3338
 5577WAT     H123028   4.212   3.185   6.092  0.9555  0.6593  0.8431
 5577WAT     H223029   4.326   3.109   6.102  0.8976  0.6459  1.4427
 5577WAT    EPW23030   4.254   3.128   6.125  0.4712  0.1411  0.5728
 5578WAT      O23031   6.965   1.141   5.901  0.6204  0.2522  0.9057
 5578WAT     H123032   7.019   1.074   5.917  0.9666  0.3774  0.2874
 5578WAT     H223033   6.918   1.114   5.833  1.2953  0.9194  0.1460
 5578WAT    EPW23034   6.966   1.127   5.894  0.7713  0.3693  0.7022
 5579WAT      O23035   4.914   1.026   4.054  0.4701  0.6391 -0.3998
 5579WAT     H123036   4.978   1.017   3.995  1.3095  0.7391  0.4567
 5579WAT     H223037   4.940   1.095   4.101  0.9300 -0.6607  1.3730
 5579WAT    EPW23038   4.928   1.035   4.052  0.6621  0.4619 -0.0114
 5580WAT      O23039   5.119   1.281   5.558  0.1062 -0.0829 -0.4885
 5580WAT     H123040   5.187   1.247   5.516  0.5136  1.5485 -1.2336
 5580WAT     H223041   5.063   1.300   5.493 -0.3924  0.0249 -0.0325
 5580WAT    EPW23042   5.120   1.279   5.542  0.0927  0.1740 -0.5312
 5581WAT      O23043   4.340   2.291   6.571  1.0587  0.5087  0.2740
 5581WAT     H123044   4.279   2.297   6.509  0.1783  2.5789  1.2551
 5581WAT     H223045   4.364   2.207   6.568 -1.7922 -0.4054 -0.1968
 5581WAT    EPW23046   4.334   2.280   6.561  0.5075  0.6795  0.3494
 5582WAT      O23047   5.713   1.425   4.988  0.1315  0.0765  0.2123
 5582WAT     H123048   5.729   1.412   4.903 -1.9095 -0.0945 -0.2020
 5582WAT     H223049   5.649   1.368   5.005  0.0716  0.5661  1.7152
 5582WAT    EPW23050   5.706   1.414   4.978 -0.1789  0.1236  0.3731
 5583WAT      O23051   4.544   0.864   4.633 -0.4883  0.0301  0.2686
 5583WAT     H123052   4.560   0.779   4.643  0.2152  0.1473  0.1288
 5583WAT     H223053   4.459   0.866   4.612 -0.2360 -0.7301 -0.9317
 5583WAT    EPW23054   4.534   0.852   4.631 -0.3471 -0.0649  0.0706
 5584WAT      O23055   4.667   1.843   5.827  0.1774 -0.3068  0.2326
 5584WAT     H123056   4.606   1.895   5.860  1.0659  0.1559  1.1974
 5584WAT     H223057   4.653   1.767   5.866 -0.4423 -0.5046 -0.3606
 5584WAT    EPW23058   4.656   1.839   5.837  0.2171 -0.2676  0.2875
 5585WAT      O23059   5.897   2.952   4.430 -0.2692 -0.3629 -0.0126
 5585WAT     H123060   5.891   3.038   4.415  1.8172 -0.2163 -0.2839
 5585WAT     H223061   5.890   2.946   4.516  0.3531  0.1875  0.0864
 5585WAT    EPW23062   5.895   2.964   4.440  0.1309 -0.2600 -0.0380
 5586WAT      O23063   4.660   2.693   4.051 -0.1170  0.0637  0.1095
 5586WAT     H123064   4.582   2.661   4.073 -0.4875 -0.7568 -2.1120
 5586WAT     H223065   4.656   2.776   4.079 -1.3385 -0.2711  1.0245
 5586WAT    EPW23066   4.648   2.701   4.058 -0.3522 -0.1070 -0.0835
 5587WAT      O23067   6.549   2.687   3.904  0.5657 -0.1350  0.0110
 5587WAT     H123068   6.485   2.683   3.963 -0.3910  1.3269 -0.8744
 5587WAT     H223069   6.576   2.770   3.908  1.4330 -0.3764 -0.6198
 5587WAT    EPW23070   6.544   2.699   3.913  0.5525  0.0453 -0.2130
 5588WAT      O23071   6.293   2.126   4.231  0.8126  0.0441 -0.1292
 5588WAT     H123072   6.376   2.117   4.208  1.8161 -0.2775  3.1367
 5588WAT     H223073   6.258   2.048   4.213  1.3104  0.0301 -1.0756
 5588WAT    EPW23074   6.300   2.113   4.225  1.0344 -0.0055  0.2134
 5589WAT      O23075   6.306   3.126   5.374  0.5405 -0.7537 -0.0415
 5589WAT     H123076   6.284   3.189   5.430 -1.9452  0.2279 -1.9432
 5589WAT     H223077   6.274   3.054   5.411  1.3196 -0.5797  1.0311
 5589WAT    EPW23078   6.298   3.125   5.388  0.2884 -0.5830 -0.1640
 5590WAT      O23079   5.312   2.134   5.070 -0.9405  0.3559  0.2354
 5590WAT     H123080   5.307   2.087   4.996  0.8379  3.3224 -2.0137
 5590WAT     H223081   5.281   2.212   5.046  0.2919  1.6088  2.4368
 5590WAT    EPW23082   5.307   2.138   5.055 -0.4957  0.9792  0.2284
 5591WAT      O23083   4.539   1.620   5.582 -0.1667  0.0927  0.3331
 5591WAT     H123084   4.489   1.610   5.653  0.4264 -0.6710  0.6630
 5591WAT     H223085   4.509   1.559   5.527 -0.4898  0.5469 -0.0033
 5591WAT    EPW23086   4.527   1.609   5.584 -0.1268  0.0470  0.3321
 5592WAT      O23087   4.686   0.551   5.659  0.0307  0.3242  0.6119
 5592WAT     H123088   4.710   0.512   5.585 -0.0410 -1.1036  1.3010
 5592WAT     H223089   4.721   0.630   5.653  1.6313 -0.3993 -0.1290
 5592WAT    EPW23090   4.695   0.557   5.647  0.2565  0.0064  0.6043
 5593WAT      O23091   6.006   0.954   5.044 -0.3156 -0.0469 -0.1185
 5593WAT     H123092   6.074   0.941   5.097  0.6235  0.3570 -1.1890
 5593WAT     H223093   5.983   1.037   5.059 -0.1302  0.0290 -0.2579
 5593WAT    EPW23094   6.013   0.965   5.054 -0.1495  0.0240 -0.2972
 5594WAT      O23095   5.669   1.568   5.272  0.0834 -0.0208 -0.3411
 5594WAT     H123096   5.721   1.505   5.303 -1.9314 -2.2110 -1.0896
 5594WAT     H223097   5.662   1.549   5.187 -0.3893  1.4009 -0.6509
 5594WAT    EPW23098   5.675   1.556   5.264 -0.2841 -0.1343 -0.4974
 5595WAT      O23099   5.840   3.286   3.241 -0.0850 -0.2894  0.6367
 5595WAT     H123100   5.757   3.259   3.234 -0.4135  1.1343 -3.1358
 5595WAT     H223101   5.887   3.214   3.226 -0.7544 -0.4340 -0.8835
 5595WAT    EPW23102   5.835   3.271   3.238 -0.2324 -0.1004 -0.1451
 5596WAT      O23103   5.845   1.415   2.211  0.1051  0.2531 -0.2554
 5596WAT     H123104   5.906   1.402   2.150  0.9669  0.0682  0.6251
 5596WAT     H223105   5.783   1.459   2.169 -0.6179 -2.2233 -2.0081
 5596WAT    EPW23106   5.845   1.419   2.196  0.1256 -0.1400 -0.3843
 5597WAT      O23107   3.453   1.877   3.166  0.4007 -0.0997 -0.3182
 5597WAT     H123108   3.432   1.962   3.160  1.9068  0.3109 -0.0538
 5597WAT     H223109   3.444   1.859   3.250  0.6018 -0.0684 -0.2909
 5597WAT    EPW23110   3.448   1.887   3.177  0.6529 -0.0344 -0.2751
 5598WAT      O23111   5.900   2.909   1.899 -0.3377  0.5755 -0.1689
 5598WAT     H123112   5.881   2.967   1.837  1.0880  1.7493  0.4355
 5598WAT     H223113   5.939   2.956   1.961  0.1142 -0.8945  0.7340
 5598WAT    EPW23114   5.903   2.924   1.899 -0.0603  0.5318  0.0538
 5599WAT      O23115   3.228   2.064   3.350  0.1289  0.1869 -0.9396
 5599WAT     H123116   3.247   1.988   3.388 -1.2475  0.4751  0.4474
 5599WAT     H223117   3.304   2.106   3.349  0.4676 -0.3231  0.4204
 5599WAT    EPW23118   3.242   2.059   3.355 -0.0244  0.1541 -0.5338
 5600WAT      O23119   4.422   2.199   2.391 -0.2272 -0.2206  0.2533
 5600WAT     H123120   4.405   2.284   2.397 -0.5025  0.0559 -2.7163
 5600WAT     H223121   4.355   2.167   2.344  1.1523 -1.5202 -0.9676
 5600WAT    EPW23122   4.410   2.207   2.385 -0.0641 -0.3718 -0.3657
 5601WAT      O23123   4.540   0.197   1.824 -0.2411  0.2829  0.0586
 5601WAT     H123124   4.581   0.226   1.753  1.4168 -0.2835  0.7398
 5601WAT     H223125   4.466   0.244   1.826 -0.2494  0.4097 -1.9275
 5601WAT    EPW23126   4.535   0.208   1.814  0.0026  0.2180 -0.1341
 5602WAT      O23127   5.142   2.773   1.891  0.0502  0.7289 -0.6036
 5602WAT     H123128   5.176   2.854   1.890 -1.7191  1.5020 -1.2278
 5602WAT     H223129   5.068   2.781   1.847  0.3620 -1.5123 -1.6629
 5602WAT    EPW23130   5.136   2.786   1.885 -0.1651  0.5120 -0.8523
 5603WAT      O23131   4.993   1.313   2.071 -0.1359 -0.0563 -0.3593
 5603WAT     H123132   4.924   1.302   2.018 -1.2568 -0.3244  1.0776
 5603WAT     H223133   4.956   1.331   2.149  1.2716 -2.8173  1.1171
 5603WAT    EPW23134   4.977   1.314   2.075 -0.0935 -0.5038  0.0710
 5604WAT      O23135   3.337   2.250   1.673 -0.5511  0.1066 -0.4275
 5604WAT     H123136   3.262   2.281   1.704  0.6939  1.0172  1.9776
 5604WAT     H223137   3.397   2.287   1.724  1.5790 -0.4669 -2.3272
 5604WAT    EPW23138   3.335   2.260   1.685 -0.0525  0.1564 -0.3529
 5605WAT      O23139   2.962   1.612   4.365  0.3435  0.3028 -0.0388
 5605WAT     H123140   2.993   1.680   4.411 -0.4650  0.0604  0.9105
 5605WAT     H223141   2.953   1.644   4.285  0.2582  1.2341  0.3287
 5605WAT    EPW23142   2.965   1.627   4.360  0.2115  0.4046  0.1557
 5606WAT      O23143   5.006   1.486   2.560 -0.0182  0.5853  0.1397
 5606WAT     H123144   4.982   1.509   2.641 -0.4937  2.0036 -0.3835
 5606WAT     H223145   5.060   1.550   2.536  0.4258 -0.0260 -0.5500
 5606WAT    EPW23146   5.011   1.498   2.569 -0.0228  0.7045 -0.0394
 5607WAT      O23147   2.183   0.635   3.269  0.5746  0.2008 -0.5331
 5607WAT     H123148   2.116   0.583   3.249 -0.4292  0.9230  0.7924
 5607WAT     H223149   2.197   0.618   3.354  1.0015  1.2455 -0.3845
 5607WAT    EPW23150   2.175   0.625   3.279  0.4894  0.4618 -0.3154
 5608WAT      O23151   3.719   1.581   2.829 -0.1103  0.1832 -0.1979
 5608WAT     H123152   3.721   1.496   2.810  1.2529 -0.2824  1.6423
 5608WAT     H223153   3.668   1.584   2.900  0.7940  0.7073  0.4431
 5608WAT    EPW23154   3.712   1.569   2.837  0.2246  0.1918  0.1686
 5609WAT      O23155   4.206   2.318   2.701  0.7235 -0.1527 -0.3866
 5609WAT     H123156   4.197   2.235   2.676  1.1469 -0.3223  0.0058
 5609WAT     H223157   4.293   2.330   2.700  0.6733  0.2272 -0.2627
 5609WAT    EPW23158   4.218   2.308   2.697  0.7786 -0.1216 -0.3103
 5610WAT      O23159   3.809   0.915   2.809  0.8464  0.0984 -0.1909
 5610WAT     H123160   3.732   0.945   2.836  1.4385 -0.3488  2.2552
 5610WAT     H223161   3.855   0.987   2.794  0.6049  0.3845  0.4175
 5610WAT    EPW23162   3.804   0.930   2.810  0.8982  0.0746  0.2603
 5611WAT      O23163   4.799   1.738   3.208  0.1065 -0.7102  0.2796
 5611WAT     H123164   4.721   1.707   3.232 -0.8015  1.7087  0.6410
 5611WAT     H223165   4.822   1.791   3.273  1.9330 -1.1108  0.0198
 5611WAT    EPW23166   4.790   1.741   3.221  0.2422 -0.4121  0.2946
 5612WAT      O23167   5.992   0.938   2.374 -0.2719  0.5537 -0.3374
 5612WAT     H123168   5.963   1.020   2.387 -0.3430  0.3159  1.2302
 5612WAT     H223169   6.003   0.934   2.288 -1.4671  1.8171 -0.5960
 5612WAT    EPW23170   5.990   0.950   2.364 -0.4590  0.7052 -0.1440
 5613WAT      O23171   4.414   0.949   0.945  0.3475  0.0957  0.0194
 5613WAT     H123172   4.465   0.906   0.888 -0.3288  0.6659 -1.0603
 5613WAT     H223173   4.340   0.902   0.945  0.3435  0.0985  0.4442
 5613WAT    EPW23174   4.410   0.935   0.936  0.2470  0.1803 -0.0773
 5614WAT      O23175   3.222   2.659   2.292 -0.6823  0.6749  0.2345
 5614WAT     H123176   3.286   2.651   2.351 -0.9689 -0.5632  0.3996
 5614WAT     H223177   3.153   2.682   2.339 -0.8570 -0.0961  0.3803
 5614WAT    EPW23178   3.221   2.661   2.307 -0.7504  0.3781  0.2804
 5615WAT      O23179   4.709   2.386   2.389  0.0786  0.0043  0.2836
 5615WAT     H123180   4.695   2.310   2.429  0.1764 -0.1932 -0.0475
 5615WAT     H223181   4.646   2.438   2.420 -0.8902 -0.6215 -0.5629
 5615WAT    EPW23182   4.698   2.383   2.399 -0.0501 -0.1173  0.1096
 5616WAT      O23183   5.661   3.721   1.964  0.3765  0.6621 -0.6689
 5616WAT     H123184   5.661   3.670   1.893  0.0356 -1.1042  0.5173
 5616WAT     H223185   5.605   3.681   2.018  2.7072  0.2576  1.6762
 5616WAT    EPW23186   5.653   3.708   1.962  0.6705  0.3414 -0.1472
 5617WAT      O23187   6.939   3.750   2.422 -0.0484  0.4175 -0.1361
 5617WAT     H123188   6.940   3.822   2.471  0.7075 -0.1779  0.7447
 5617WAT     H223189   7.023   3.733   2.408 -0.2354  0.0091 -0.8102
 5617WAT    EPW23190   6.951   3.758   2.427  0.0356  0.2692 -0.1056
 5618WAT      O23191   5.940   1.604   3.575 -0.1498 -0.0382 -0.5500
 5618WAT     H123192   5.918   1.575   3.496  0.3969  1.0212 -1.1097
 5618WAT     H223193   5.871   1.583   3.625 -0.3091 -1.1130 -1.1943
 5618WAT    EPW23194   5.926   1.597   3.571 -0.0926 -0.0405 -0.7279
 5619WAT      O23195   4.045   1.729   3.117 -0.5486 -0.1847 -0.4014
 5619WAT     H123196   4.091   1.802   3.130  0.2702 -0.7888  0.1605
 5619WAT     H223197   4.006   1.744   3.040 -3.4071  2.3623  1.3289
 5619WAT    EPW23198   4.046   1.742   3.107 -0.8499  0.1023 -0.0628
 5620WAT      O23199   5.252   2.029   2.654 -0.0484  0.2592 -0.1811
 5620WAT     H123200   5.265   2.075   2.727 -1.2931  1.6326 -0.7945
 5620WAT     H223201   5.256   1.946   2.681  0.5258  0.7283  1.2474
 5620WAT    EPW23202   5.255   2.024   2.669 -0.1475  0.5314 -0.0607
 5621WAT      O23203   5.177   0.803   4.253  0.2014 -0.7865  0.3434
 5621WAT     H123204   5.215   0.857   4.195 -1.6331  0.2271 -0.0017
 5621WAT     H223205   5.099   0.786   4.217  0.0963 -2.3758  1.2434
 5621WAT    EPW23206   5.171   0.809   4.239 -0.0851 -0.8716  0.4254
 5622WAT      O23207   4.712   0.960   2.804  0.0657 -0.3976  0.1260
 5622WAT     H123208   4.644   0.984   2.853  0.5909 -1.3122  1.3601
 5622WAT     H223209   4.741   0.887   2.843  1.2012 -0.5304 -0.8956
 5622WAT    EPW23210   4.706   0.953   2.817  0.3110 -0.5523  0.1574
 5623WAT      O23211   5.015   2.012   2.994 -0.0200  0.8487 -0.6261
 5623WAT     H123212   5.029   2.098   3.004 -0.6350  0.9577 -0.6454
 5623WAT     H223213   5.008   1.983   3.076  2.8569  0.3142 -0.4654
 5623WAT    EPW23214   5.016   2.021   3.008  0.3141  0.7858 -0.6052
 5624WAT      O23215   3.921   0.956   0.490 -0.3594 -0.0384  0.6306
 5624WAT     H123216   3.913   0.969   0.576  0.0374 -2.3568  1.0901
 5624WAT     H223217   4.008   0.949   0.479 -0.4750 -2.2567  0.5667
 5624WAT    EPW23218   3.933   0.957   0.501 -0.3179 -0.7085  0.6890
 5625WAT      O23219   5.213   2.529   1.336 -0.2920  0.0765 -0.0309
 5625WAT     H123220   5.260   2.585   1.383  1.2726 -0.5722 -0.7495
 5625WAT     H223221   5.206   2.568   1.258  1.9170 -1.1886 -0.9513
 5625WAT    EPW23222   5.219   2.543   1.331  0.2654 -0.2062 -0.2730
 5626WAT      O23223   5.615   1.581   3.139  0.0257  0.4437  0.1806
 5626WAT     H123224   5.531   1.564   3.151 -0.2694  1.8775  0.3190
 5626WAT     H223225   5.642   1.609   3.217  0.3989  0.9045 -0.1062
 5626WAT    EPW23226   5.607   1.583   3.152  0.0372  0.7236  0.1587
 5627WAT      O23227   3.623   1.486   3.650  0.4221 -0.3763 -0.5181
 5627WAT     H123228   3.544   1.468   3.680  0.2530  2.2168  0.8310
 5627WAT     H223229   3.609   1.542   3.584  1.0970  1.6487  0.9590
 5627WAT    EPW23230   3.610   1.492   3.645  0.4968  0.3059 -0.1006
 5628WAT      O23231   5.480   1.801   5.694 -1.1076 -0.2356 -0.5103
 5628WAT     H123232   5.467   1.715   5.689  0.0664 -0.6519  1.9689
 5628WAT     H223233   5.440   1.823   5.769 -0.6143  1.1882 -0.6460
 5628WAT    EPW23234   5.472   1.791   5.705 -0.8613 -0.0868 -0.1641
 5629WAT      O23235   4.873   2.794   1.768 -0.6465  0.0126 -0.1395
 5629WAT     H123236   4.787   2.785   1.784 -0.8653  2.9398  0.8636
 5629WAT     H223237   4.875   2.853   1.703  0.5613  1.6761  1.3129
 5629WAT    EPW23238   4.860   2.802   1.761 -0.5004  0.6907  0.2232
 5630WAT      O23239   5.181   1.524   0.763 -0.3371 -1.0741  0.3136
 5630WAT     H123240   5.112   1.470   0.760 -1.1354 -0.0946  0.3987
 5630WAT     H223241   5.146   1.599   0.789  0.7521 -0.5128  0.1867
 5630WAT    EPW23242   5.166   1.527   0.766 -0.2941 -0.8465  0.3075
 5631WAT      O23243   4.046   1.306   4.123 -0.1814  0.2135  0.4756
 5631WAT     H123244   4.107   1.333   4.066  0.6818 -0.7949  0.8923
 5631WAT     H223245   4.019   1.380   4.161  0.3981  0.7290 -0.0938
 5631WAT    EPW23246   4.051   1.321   4.120  0.0317  0.1407  0.4530
 5632WAT      O23247   2.807   1.210   4.118  0.2015 -0.3952 -0.2090
 5632WAT     H123248   2.770   1.132   4.131  2.8923 -1.7947 -0.2670
 5632WAT     H223249   2.801   1.248   4.197  0.2083 -1.2850  0.2370
 5632WAT    EPW23250   2.800   1.204   4.132  0.6000 -0.7334 -0.1517
 5633WAT      O23251   3.239   1.344   3.271 -0.2381  0.2074 -0.0396
 5633WAT     H123252   3.266   1.265   3.248 -0.6166 -0.0548  0.4036
 5633WAT     H223253   3.165   1.355   3.227  0.2456  0.6609 -0.7498
 5633WAT    EPW23254   3.232   1.334   3.261 -0.2226  0.2357 -0.0790
 5634WAT      O23255   5.374   1.806   2.354 -0.3599  0.3743 -0.2878
 5634WAT     H123256   5.320   1.784   2.419 -0.6768  0.4607 -0.5195
 5634WAT     H223257   5.443   1.754   2.366 -1.0981 -0.7745 -0.8367
 5634WAT    EPW23258   5.376   1.795   2.365 -0.5158  0.2173 -0.4031
 5635WAT      O23259   3.720   1.319   3.087  0.5253 -0.1421  0.0063
 5635WAT     H123260   3.724   1.303   3.002  1.1341 -0.5325  0.0993
 5635WAT     H223261   3.803   1.335   3.109  1.0495 -3.4965  1.1369
 5635WAT    EPW23262   3.733   1.319   3.078  0.6927 -0.6953  0.1870
 5636WAT      O23263   4.197   2.202   2.223 -0.3271  0.1714  0.3794
 5636WAT     H123264   4.119   2.223   2.256 -0.3086  0.1174  0.4577
 5636WAT     H223265   4.225   2.277   2.188 -1.9010 -0.5073 -2.7177
 5636WAT    EPW23266   4.190   2.216   2.222 -0.5569  0.0632 -0.0666
 5637WAT      O23267   3.428   2.426   2.106  0.6447  0.1428 -0.1772
 5637WAT     H123268   3.354   2.399   2.145  1.7138  0.0621  1.9139
 5637WAT     H223269   3.399   2.462   2.032 -1.5447  0.5444  0.7828
 5637WAT    EPW23270   3.413   2.427   2.101  0.4792  0.1902  0.2735
 5638WAT      O23271   4.794   1.896   3.439  0.4071 -0.2139  0.2313
 5638WAT     H123272   4.789   1.976   3.405 -1.5224 -0.7723 -0.9564
 5638WAT     H223273   4.763   1.905   3.520  1.5604  0.4693  0.6150
 5638WAT    EPW23274   4.789   1.909   3.446  0.2925 -0.1955  0.1125
 5639WAT      O23275   5.055   1.580   2.009 -0.1724 -0.0622 -0.3898
 5639WAT     H123276   5.139   1.600   2.019 -0.4811  0.3384  1.9930
 5639WAT     H223277   5.050   1.496   2.031 -0.3476 -0.2363 -1.0505
 5639WAT    EPW23278   5.067   1.571   2.013 -0.2439 -0.0288 -0.1354
 5640WAT      O23279   4.401   1.646   2.702 -0.0232 -0.1905 -0.1133
 5640WAT     H123280   4.330   1.691   2.682  0.3163  0.6609  0.5140
 5640WAT     H223281   4.420   1.603   2.629 -0.4389  0.5852 -0.6890
 5640WAT    EPW23282   4.394   1.646   2.688 -0.0344  0.0499 -0.1057
 5641WAT      O23283   5.395   1.313   1.384  0.0752 -0.0232 -0.0437
 5641WAT     H123284   5.382   1.332   1.300 -2.1854  0.5898  0.3733
 5641WAT     H223285   5.376   1.228   1.390  0.6675 -0.1725 -0.2087
 5641WAT    EPW23286   5.390   1.304   1.373 -0.1712  0.0453 -0.0065
 5642WAT      O23287   5.018   2.050   3.702  0.6150 -0.1942  0.3300
 5642WAT     H123288   5.082   2.099   3.668  0.6345  1.2260  2.2091
 5642WAT     H223289   4.947   2.101   3.694 -0.0609 -1.2309 -0.5787
 5642WAT    EPW23290   5.017   2.065   3.696  0.5180 -0.1375  0.4733
 5643WAT      O23291   4.957   2.151   2.725  0.1458 -0.6122 -0.4292
 5643WAT     H123292   5.003   2.168   2.653 -1.4924  0.6196 -1.2443
 5643WAT     H223293   4.965   2.065   2.734  2.2117 -0.5089 -0.7684
 5643WAT    EPW23294   4.965   2.141   2.716  0.2090 -0.4150 -0.5997
 5644WAT      O23295   5.265   3.195   1.542  0.2279 -0.4644  0.3992
 5644WAT     H123296   5.207   3.260   1.533  2.1982  1.2980 -0.6025
 5644WAT     H223297   5.287   3.176   1.460  0.5675 -1.5958  0.7323
 5644WAT    EPW23298   5.259   3.202   1.528  0.5691 -0.3712  0.3004
 5645WAT      O23299   4.672   2.165   2.584 -0.4379 -0.3750 -0.2813
 5645WAT     H123300   4.652   2.081   2.591 -2.2114  0.0844  0.5188
 5645WAT     H223301   4.747   2.172   2.628  0.2411 -1.6828 -1.1741
 5645WAT    EPW23302   4.680   2.154   2.591 -0.5996 -0.5004 -0.2950
 5646WAT      O23303   3.122   1.571   3.681  0.5418  0.2079 -0.5065
 5646WAT     H123304   3.090   1.565   3.600 -2.0745 -0.0046  0.4689
 5646WAT     H223305   3.125   1.657   3.696  0.4691  0.2278 -0.6122
 5646WAT    EPW23306   3.118   1.583   3.671  0.1446  0.1794 -0.3781
 5647WAT      O23307   5.622   4.360   4.151  0.2709  0.2241  0.1064
 5647WAT     H123308   5.545   4.343   4.187  0.0479 -0.3644 -0.5984
 5647WAT     H223309   5.608   4.343   4.066  1.7308 -2.0994  0.2346
 5647WAT    EPW23310   5.609   4.355   4.143  0.4536 -0.2061  0.0212
 5648WAT      O23311   4.996   0.927   0.435  0.2734  0.0899  0.1006
 5648WAT     H123312   5.072   0.905   0.400 -0.2084 -1.5592  0.0153
 5648WAT     H223313   4.992   0.879   0.508 -1.3292 -1.0393 -0.6737
 5648WAT    EPW23314   5.006   0.917   0.441 -0.0345 -0.3205 -0.0264
 5649WAT      O23315   4.720   3.752   2.539  0.7891 -0.0205  0.4058
 5649WAT     H123316   4.745   3.671   2.561  0.0193 -0.1934  0.6536
 5649WAT     H223317   4.680   3.740   2.462  0.9666  0.1837  0.2786
 5649WAT    EPW23318   4.718   3.738   2.531  0.7016 -0.0159  0.4236
 5650WAT      O23319   5.082   2.286   3.073  0.3272 -0.2041 -0.5757
 5650WAT     H123320   5.005   2.295   3.034 -0.2251 -0.8732  0.3088
 5650WAT     H223321   5.139   2.317   3.015 -0.5639 -0.1144 -1.4192
 5650WAT    EPW23322   5.079   2.292   3.059  0.1140 -0.2897 -0.5696
 5651WAT      O23323   4.220   2.093   3.405 -0.4951 -0.0152 -0.3009
 5651WAT     H123324   4.191   2.136   3.475 -0.0267 -1.3738  0.7491
 5651WAT     H223325   4.278   2.148   3.370 -0.3302  0.4484  0.6816
 5651WAT    EPW23326   4.224   2.108   3.410 -0.4015 -0.1474 -0.0006
 5652WAT      O23327   3.962   2.205   4.325  0.4760  0.0726 -0.2847
 5652WAT     H123328   3.949   2.266   4.385 -1.8444 -0.2272 -0.4008
 5652WAT     H223329   3.919   2.234   4.255 -1.0067 -1.7577 -0.2373
 5652WAT    EPW23330   3.954   2.218   4.323 -0.0858 -0.2421 -0.2949
 5653WAT      O23331   5.137   3.465   1.455  0.0375  0.0536 -0.2848
 5653WAT     H123332   5.060   3.462   1.496  0.3113 -0.2068  0.2214
 5653WAT     H223333   5.179   3.530   1.495  0.0121  0.3297 -0.6960
 5653WAT    EPW23334   5.132   3.475   1.467  0.0742  0.0559 -0.2708
 5654WAT      O23335   3.866   1.813   1.779 -0.5174 -0.1131 -0.6408
 5654WAT     H123336   3.801   1.870   1.766  1.2921  2.4466  0.4406
 5654WAT     H223337   3.896   1.835   1.858  0.5346 -2.4058 -0.3431
 5654WAT    EPW23338   3.861   1.825   1.789 -0.0947 -0.0737 -0.4371
 5655WAT      O23339   4.147   1.795   0.908  0.4312  0.0906  0.1529
 5655WAT     H123340   4.209   1.854   0.926  0.3981  0.0895  0.2716
 5655WAT     H223341   4.075   1.843   0.900  0.4410  0.0878  0.0519
 5655WAT    EPW23342   4.145   1.811   0.910  0.4278  0.0900  0.1555
 5656WAT      O23343   5.327   2.849   4.492 -0.2076 -0.2031  0.1661
 5656WAT     H123344   5.402   2.805   4.488 -0.9855 -1.8204  1.9505
 5656WAT     H223345   5.274   2.803   4.439 -0.3258  0.1281 -0.0076
 5656WAT    EPW23346   5.330   2.835   4.483 -0.3400 -0.3931  0.4040
 5657WAT      O23347   3.551   3.194   2.020  0.3810 -0.0260 -0.2026
 5657WAT     H123348   3.606   3.174   2.085 -0.2879  0.2192  0.4556
 5657WAT     H223349   3.597   3.249   1.971  0.5306  0.6926  0.6967
 5657WAT    EPW23350   3.566   3.199   2.023  0.3043  0.1164  0.0275
 5658WAT      O23351   4.980   2.282   3.985 -0.0318  0.0941 -0.2409
 5658WAT     H123352   4.940   2.358   3.972  0.1750 -0.0644 -1.9863
 5658WAT     H223353   4.956   2.233   3.917  1.7628 -0.5710 -0.4557
 5658WAT    EPW23354   4.971   2.286   3.973  0.2639 -0.0275 -0.5304
 5659WAT      O23355   4.081   2.185   3.642  0.5871 -0.3882 -0.8453
 5659WAT     H123356   4.069   2.101   3.661 -0.2020  0.0267  0.6870
 5659WAT     H223357   4.100   2.221   3.719 -0.7267  1.0894 -1.1522
 5659WAT    EPW23358   4.082   2.178   3.656  0.2765 -0.1086 -0.6643
 5660WAT      O23359   3.780   2.393   1.578  0.3118 -0.7524 -0.2170
 5660WAT     H123360   3.700   2.399   1.543 -0.0288  0.3280  0.6488
 5660WAT     H223361   3.771   2.435   1.654  2.4015  2.0908 -1.3569
 5660WAT    EPW23362   3.767   2.400   1.584  0.5702 -0.1728 -0.2575
 5661WAT      O23363   6.898   2.227   1.287 -0.2761  0.1807 -0.2842
 5661WAT     H123364   6.884   2.221   1.373 -2.3567 -0.8851 -0.6428
 5661WAT     H223365   6.869   2.150   1.256  0.4177  0.5475 -1.9465
 5661WAT    EPW23366   6.892   2.215   1.295 -0.4810  0.0775 -0.5827
 5662WAT      O23367   3.267   1.881   4.376 -0.2559  0.4757  0.5738
 5662WAT     H123368   3.256   1.838   4.451  0.8435  0.7616  0.9150
 5662WAT     H223369   3.216   1.838   4.320 -0.8925  0.1057  1.4275
 5662WAT    EPW23370   3.258   1.868   4.379 -0.1876  0.4633  0.7503
 5663WAT      O23371   5.287   1.750   2.765 -0.4865  0.3765 -0.0265
 5663WAT     H123372   5.269   1.677   2.722  2.2754 -0.2439 -0.3562
 5663WAT     H223373   5.315   1.721   2.843  0.3521  1.0514 -0.0550
 5663WAT    EPW23374   5.289   1.735   2.770  0.0454  0.3845 -0.0795
 5664WAT      O23375   4.783   2.127   3.860 -0.5672 -0.5832  0.5899
 5664WAT     H123376   4.751   2.057   3.819 -1.6460  0.2871 -0.1293
 5664WAT     H223377   4.746   2.194   3.817  0.8561  0.4449  0.8839
 5664WAT    EPW23378   4.773   2.127   3.847 -0.5163 -0.3028  0.5271
 5665WAT      O23379   4.697   0.072   2.686  0.0646 -0.4190  1.0564
 5665WAT     H123380   4.755   0.104   2.629  0.4382 -2.5058  0.1854
 5665WAT     H223381   4.692  -0.012   2.665 -2.1848 -0.6073  2.0896
 5665WAT    EPW23382   4.705   0.065   2.675 -0.2125 -0.7551  1.0804
 5666WAT      O23383   5.362   1.000   2.246  0.3840  0.4447 -0.5289
 5666WAT     H123384   5.346   0.976   2.328  0.0214  2.4130  0.0323
 5666WAT     H223385   5.284   0.994   2.207 -0.0768  2.0897  0.0330
 5666WAT    EPW23386   5.348   0.995   2.253  0.2623  0.9785 -0.3630
 5667WAT      O23387   4.844   0.076   3.892  0.6522  0.7387  0.3222
 5667WAT     H123388   4.819  -0.005   3.871  1.3759  1.2242 -2.8126
 5667WAT     H223389   4.927   0.066   3.916  0.0544  0.2968  2.4332
 5667WAT    EPW23390   4.853   0.063   3.893  0.6708  0.7452  0.1710
 5668WAT      O23391   5.392   1.141   0.548  0.2345  0.6425  0.2843
 5668WAT     H123392   5.403   1.201   0.611  0.4587  0.7608  0.1358
 5668WAT     H223393   5.407   1.186   0.475  0.4745  0.3892  0.1771
 5668WAT    EPW23394   5.396   1.157   0.547  0.3031  0.6225  0.2465
 5669WAT      O23395   5.062   1.952   3.258  0.1348 -0.1834 -0.4442
 5669WAT     H123396   5.007   2.015   3.281  0.0946  0.2573 -1.6892
 5669WAT     H223397   5.133   1.969   3.306  0.3195  1.1471 -1.1446
 5669WAT    EPW23398   5.065   1.964   3.269  0.1561  0.0783 -0.7316
 5670WAT      O23399   4.493   0.966   2.568  0.0684  0.2704 -0.1961
 5670WAT     H123400   4.455   0.915   2.508  0.6146  1.1801 -1.3464
 5670WAT     H223401   4.558   0.917   2.597 -0.4099 -0.3131 -0.0753
 5670WAT    EPW23402   4.497   0.951   2.563  0.0784  0.3186 -0.3482
 5671WAT      O23403   6.152   1.559   2.729 -0.1447  0.5343  0.5232
 5671WAT     H123404   6.183   1.612   2.792 -3.0627  2.2890  0.6618
 5671WAT     H223405   6.163   1.606   2.657 -0.1276  0.0782  0.2305
 5671WAT    EPW23406   6.158   1.574   2.728 -0.5732  0.7261  0.5004
 5672WAT      O23407   5.808   1.964   0.667  0.5022  0.2199  0.2524
 5672WAT     H123408   5.799   1.889   0.710  0.0663  0.3300  0.3582
 5672WAT     H223409   5.800   2.025   0.729  0.5955  0.3617  0.1283
 5672WAT    EPW23410   5.806   1.962   0.682  0.4516  0.2571  0.2497
 5673WAT      O23411   5.692   1.736   1.875  0.3215  0.0643  0.0829
 5673WAT     H123412   5.748   1.802   1.884  0.2167  0.3236 -0.9422
 5673WAT     H223413   5.743   1.667   1.862  0.4312 -0.0613  1.1476
 5673WAT    EPW23414   5.708   1.736   1.874  0.3222  0.0840  0.0888
 5674WAT      O23415   4.596   2.734   1.753  0.0264  0.2405 -0.1927
 5674WAT     H123416   4.608   2.693   1.829  0.3884  1.0641  0.1993
 5674WAT     H223417   4.545   2.801   1.774  0.2297  0.5437 -0.6546
 5674WAT    EPW23418   4.590   2.738   1.767  0.1099  0.4069 -0.2030
 5675WAT      O23419   3.951   1.763   3.368 -0.1756  0.3285 -0.0070
 5675WAT     H123420   3.866   1.768   3.350  0.0261 -0.3703 -1.2473
 5675WAT     H223421   3.989   1.758   3.290  1.1793  2.5178  0.4117
 5675WAT    EPW23422   3.944   1.763   3.354  0.0543  0.5487 -0.1283
 5676WAT      O23423   5.119   2.170   2.471 -0.1415  0.0008 -0.7223
 5676WAT     H123424   5.094   2.119   2.405  0.8273 -0.1906 -0.9607
 5676WAT     H223425   5.159   2.115   2.526 -0.0338  0.3296 -0.4672
 5676WAT    EPW23426   5.121   2.154   2.469  0.0175  0.0211 -0.7199
 5677WAT      O23427   4.704   2.623   3.776  0.0558 -0.2574  0.1779
 5677WAT     H123428   4.668   2.689   3.733 -1.8007  0.3085  2.3961
 5677WAT     H223429   4.677   2.634   3.858 -0.9750 -4.1335  0.5772
 5677WAT    EPW23430   4.695   2.634   3.782 -0.3707 -0.7464  0.5646
 5678WAT      O23431   5.506   7.228   4.378  0.2453  0.2422 -0.2867
 5678WAT     H123432   5.587   7.196   4.383  0.9482  2.0168  0.3602
 5678WAT     H223433   5.466   7.197   4.449  0.1005 -1.1906 -0.9506
 5678WAT    EPW23434   5.512   7.219   4.389  0.3277  0.2927 -0.2892
 5679WAT      O23435   4.387   1.831   0.284  0.1224  0.4718  0.2682
 5679WAT     H123436   4.332   1.782   0.331 -3.2393  3.2330 -0.3761
 5679WAT     H223437   4.432   1.875   0.344 -1.0502  0.8380  0.9034
 5679WAT    EPW23438   4.385   1.830   0.300 -0.5474  0.9338  0.2669
 5680WAT      O23439   4.212   1.669   3.919  0.0574  0.6095  0.0347
 5680WAT     H123440   4.239   1.654   3.838  1.3347 -0.2201  0.5825
 5680WAT     H223441   4.246   1.603   3.965 -0.1045  1.3896  1.3463
 5680WAT    EPW23442   4.221   1.657   3.914  0.2222  0.6022  0.3093
 5681WAT      O23443   5.154   1.050   3.353  0.1005  0.1406  1.0239
 5681WAT     H123444   5.208   0.985   3.375 -0.6899 -1.3819 -1.2506
 5681WAT     H223445   5.191   1.084   3.282 -1.2925 -0.1804  0.1143
 5681WAT    EPW23446   5.168   1.045   3.346 -0.2220 -0.1317  0.5535
 5682WAT      O23447   4.938   1.838   2.686  0.0877 -0.2263  0.6117
 5682WAT     H123448   4.862   1.820   2.647  1.7818 -2.5113 -2.0707
 5682WAT     H223449   4.947   1.773   2.744 -1.0690  1.4867  2.8128
 5682WAT    EPW23450   4.928   1.825   2.689  0.1671 -0.3108  0.5406
 5683WAT      O23451   5.447   2.261   3.097 -0.1680  0.2171 -0.4835
 5683WAT     H123452   5.436   2.222   3.174 -0.8979 -1.8100 -1.5358
 5683WAT     H223453   5.426   2.345   3.113 -0.9373 -0.2739  1.3501
 5683WAT    EPW23454   5.442   2.268   3.111 -0.3895 -0.1548 -0.3681
 5684WAT      O23455   3.901   2.217   1.825  0.1633 -0.4397 -0.1723
 5684WAT     H123456   3.924   2.190   1.745 -0.0951 -1.0905 -0.0310
 5684WAT     H223457   3.949   2.289   1.836 -0.4934  0.2138 -1.2923
 5684WAT    EPW23458   3.912   2.224   1.815  0.0281 -0.4393 -0.3169
 5685WAT      O23459   5.256   2.249   3.675 -0.1275  0.2520 -0.0806
 5685WAT     H123460   5.271   2.335   3.668 -2.5086  0.6847 -0.8144
 5685WAT     H223461   5.282   2.217   3.598  0.8138  0.2944  0.2138
 5685WAT    EPW23462   5.262   2.257   3.663 -0.3402  0.3222 -0.1455
 5686WAT      O23463   5.410   2.841   2.665 -0.2937 -0.1323  0.1982
 5686WAT     H123464   5.359   2.777   2.695 -0.6337 -0.5584 -1.2192
 5686WAT     H223465   5.484   2.831   2.710 -0.3113 -1.5711 -0.0433
 5686WAT    EPW23466   5.414   2.830   2.676 -0.3466 -0.4078 -0.0469
 5687WAT      O23467   4.568   2.090   3.204 -0.6028 -0.3965  0.1810
 5687WAT     H123468   4.543   2.136   3.134 -1.2162 -1.3212 -0.2289
 5687WAT     H223469   4.534   2.134   3.271 -0.4662  0.2045 -0.1332
 5687WAT    EPW23470   4.559   2.103   3.204 -0.6732 -0.4444  0.0741
 5688WAT      O23471   5.330   1.671   2.079  0.1626  0.2501  0.0240
 5688WAT     H123472   5.373   1.595   2.078 -0.6317 -0.2110 -1.2189
 5688WAT     H223473   5.346   1.702   2.159  0.3217 -1.3423  0.6532
 5688WAT    EPW23474   5.339   1.664   2.091  0.0687 -0.0532 -0.0667
 5689WAT      O23475   6.124   3.842   1.736  0.1438 -0.0479 -0.3634
 5689WAT     H123476   6.116   3.849   1.823 -4.2214  0.0430 -0.5607
 5689WAT     H223477   6.139   3.924   1.710 -0.5444  0.2848  0.2457
 5689WAT    EPW23478   6.125   3.855   1.745 -0.6027  0.0147 -0.3026
 5690WAT      O23479   4.290   1.828   1.653  0.5229 -0.1883  0.5511
 5690WAT     H123480   4.284   1.911   1.626  1.3602 -0.0362  0.7843
 5690WAT     H223481   4.333   1.789   1.588 -0.8139 -0.7035 -0.0575
 5690WAT    EPW23482   4.296   1.834   1.640  0.4491 -0.2419  0.4956
 5691WAT      O23483   6.614   0.993   4.228  0.4750 -0.5339  0.1184
 5691WAT     H123484   6.558   0.935   4.193 -1.4884 -0.1207  2.3287
 5691WAT     H223485   6.692   0.956   4.216  0.2540 -0.0334 -5.3769
 5691WAT    EPW23486   6.617   0.979   4.221  0.1523 -0.3989 -0.3669
 5692WAT      O23487   5.499   0.893   1.335 -0.1486  0.5089 -0.0329
 5692WAT     H123488   5.441   0.831   1.316  0.2431  0.5443 -1.4694
 5692WAT     H223489   5.515   0.930   1.258  0.8108  1.3539  0.5481
 5692WAT    EPW23490   5.493   0.889   1.321  0.0509  0.6389 -0.1593
 5693WAT      O23491   4.808   1.796   0.936  0.0101  0.0550  0.3586
 5693WAT     H123492   4.810   1.845   1.008 -1.2630  0.8238 -0.1017
 5693WAT     H223493   4.770   1.722   0.962 -2.3138  1.0791  0.1054
 5693WAT    EPW23494   4.803   1.792   0.950 -0.5213  0.3199  0.2532
 5694WAT      O23495   3.543   1.192   2.591 -0.3158  0.5169  0.5939
 5694WAT     H123496   3.594   1.182   2.521  0.0934  1.5564  0.7129
 5694WAT     H223497   3.499   1.117   2.596  1.1130 -0.3861  0.4130
 5694WAT    EPW23498   3.544   1.180   2.581 -0.0443  0.5370  0.5848
 5695WAT      O23499   4.676   1.921   3.689  0.1695 -0.4658 -0.0748
 5695WAT     H123500   4.679   1.860   3.751 -0.6967  1.9177  2.5315
 5695WAT     H223501   4.595   1.915   3.658  0.5783 -1.6128 -0.9652
 5695WAT    EPW23502   4.664   1.911   3.693  0.1020 -0.2832  0.1787
 5696WAT      O23503   3.271   1.844   2.653 -0.2648  0.2470 -0.2835
 5696WAT     H123504   3.265   1.810   2.733  1.6758  0.1401 -0.1370
 5696WAT     H223505   3.354   1.871   2.648  0.0456 -0.8726 -2.6875
 5696WAT    EPW23506   3.282   1.843   2.664  0.0677  0.0658 -0.6170
 5697WAT      O23507   6.909   1.826   1.818 -0.2186  0.1005  0.0887
 5697WAT     H123508   6.901   1.740   1.821 -1.5855  0.2263  1.9846
 5697WAT     H223509   6.964   1.840   1.751 -0.8531 -2.1386 -0.9718
 5697WAT    EPW23510   6.916   1.815   1.808 -0.5143 -0.2117  0.2121
 5698WAT      O23511   5.102   1.404   3.232  0.1318  0.3528  0.0490
 5698WAT     H123512   5.120   1.389   3.148 -0.5709 -0.4573  0.0327
 5698WAT     H223513   5.146   1.478   3.250  0.6304  0.2946 -0.9055
 5698WAT    EPW23514   5.111   1.413   3.222  0.1016  0.2246 -0.0944
 5699WAT      O23515   5.687   0.895   2.990  0.0865  0.1144  0.1586
 5699WAT     H123516   5.722   0.968   3.022  1.6460 -1.0927  1.3386
 5699WAT     H223517   5.705   0.900   2.905  0.6393  0.8456  0.3007
 5699WAT    EPW23518   5.695   0.907   2.983  0.3985  0.0441  0.3539
 5700WAT      O23519   5.301   3.161   3.572  0.6834  0.2355  0.1391
 5700WAT     H123520   5.251   3.116   3.627  0.9345  0.5869  0.6695
 5700WAT     H223521   5.258   3.158   3.497  1.2552 -1.8644 -0.1669
 5700WAT    EPW23522   5.288   3.154   3.569  0.8050 -0.0228  0.1722
 5701WAT      O23523   6.566   1.205   0.713 -0.3360  0.1737 -0.4646
 5701WAT     H123524   6.493   1.241   0.681 -0.3172 -0.2974 -1.0494
 5701WAT     H223525   6.545   1.187   0.796 -0.6477  0.6875 -0.4267
 5701WAT    EPW23526   6.552   1.208   0.721 -0.3792  0.1800 -0.5454
 5702WAT      O23527   5.387   2.701   1.492 -0.1720  0.0018 -0.3688
 5702WAT     H123528   5.334   2.765   1.518  1.1067  0.7857  0.4449
 5702WAT     H223529   5.442   2.691   1.559 -0.2080 -1.8491 -0.5455
 5702WAT    EPW23530   5.388   2.709   1.506  0.0116 -0.1559 -0.2747
 5703WAT      O23531   6.526   2.823   1.839  0.3116  0.6597  0.2299
 5703WAT     H123532   6.493   2.793   1.914  0.3541 -2.2031 -0.7445
 5703WAT     H223533   6.612   2.826   1.855  0.2846  0.4755  0.4262
 5703WAT    EPW23534   6.534   2.819   1.853  0.3139  0.2096  0.1150
 5704WAT      O23535   4.286   0.098   0.527  0.0446 -0.4223 -0.3498
 5704WAT     H123536   4.219   0.066   0.572 -0.4128 -0.4860 -1.0718
 5704WAT     H223537   4.258   0.098   0.445  1.2503 -1.3000 -0.7881
 5704WAT    EPW23538   4.272   0.093   0.522  0.1551 -0.5613 -0.5212
 5705WAT      O23539   4.722   0.754   2.555 -0.1105 -0.2466 -0.0047
 5705WAT     H123540   4.722   0.719   2.475  1.5315 -1.8287  0.6403
 5705WAT     H223541   4.786   0.813   2.551  0.0568 -0.4163  0.1784
 5705WAT    EPW23542   4.731   0.758   2.543  0.1568 -0.5054  0.1176
 5706WAT      O23543   5.136   2.354   3.359  0.1313  0.0450  0.4044
 5706WAT     H123544   5.097   2.342   3.281 -0.9120  0.9173  0.7596
 5706WAT     H223545   5.191   2.287   3.365 -0.7823 -0.8165 -0.4797
 5706WAT    EPW23546   5.138   2.343   3.348 -0.1578  0.0466  0.3263
 5707WAT      O23547   6.400   2.130   2.304 -0.2435 -0.0807  0.3633
 5707WAT     H123548   6.430   2.191   2.250 -0.0525  0.6827  1.3064
 5707WAT     H223549   6.466   2.072   2.309 -0.3249 -0.2399 -0.3248
 5707WAT    EPW23550   6.414   2.130   2.297 -0.2273  0.0086  0.4009
 5708WAT      O23551   4.644   1.755   0.684 -0.6993 -0.3398 -0.4176
 5708WAT     H123552   4.589   1.698   0.721  0.8210 -0.9774  0.9946
 5708WAT     H223553   4.700   1.773   0.749  0.7213  0.3002 -1.7778
 5708WAT    EPW23554   4.644   1.749   0.699 -0.2648 -0.3394 -0.4099
 5709WAT      O23555   5.969   0.591   3.392  0.1950 -0.0254  0.5763
 5709WAT     H123556   5.953   0.582   3.477 -1.3755 -1.5555  0.1878
 5709WAT     H223557   6.055   0.601   3.387  0.1409  1.9472  2.4432
 5709WAT    EPW23558   5.979   0.591   3.404 -0.0450  0.0399  0.7947
 5710WAT      O23559   4.958   2.587   4.436 -0.5502  0.0274 -0.2778
 5710WAT     H123560   5.015   2.644   4.401 -0.7175  1.0730  1.0622
 5710WAT     H223561   4.892   2.587   4.379 -0.1558  0.4904 -0.7457
 5710WAT    EPW23562   4.957   2.596   4.422 -0.5167  0.2502 -0.1490
 5711WAT      O23563   4.782   2.924   4.216  0.3613  0.0233 -0.5719
 5711WAT     H123564   4.817   2.997   4.247 -0.0019  0.4053 -1.0520
 5711WAT     H223565   4.732   2.895   4.282 -0.6612  1.0020 -0.8977
 5711WAT    EPW23566   4.780   2.930   4.230  0.1566  0.2243 -0.6909
 5712WAT      O23567   4.317   2.268   3.105 -0.3356  0.4564  0.6412
 5712WAT     H123568   4.353   2.261   3.184  2.2477 -0.3994 -0.5025
 5712WAT     H223569   4.385   2.291   3.054 -2.4098  4.0596 -0.9208
 5712WAT    EPW23570   4.332   2.271   3.109 -0.2604  0.8623  0.2415
 5713WAT      O23571   4.430   0.514   1.720  0.2379  0.3331  0.0377
 5713WAT     H123572   4.346   0.491   1.718  0.4467 -0.4311 -1.8775
 5713WAT     H223573   4.436   0.571   1.654  1.3634 -0.1703 -0.3060
 5713WAT    EPW23574   4.418   0.519   1.710  0.4350  0.1459 -0.2960
 5714WAT      O23575   6.089   1.861   3.549  0.0743 -0.3249 -0.0905
 5714WAT     H123576   6.159   1.848   3.600  1.0085  2.0430 -0.6247
 5714WAT     H223577   6.058   1.781   3.535  3.8873 -1.7713 -1.5071
 5714WAT    EPW23578   6.095   1.848   3.555  0.7755 -0.1888 -0.3787
 5715WAT      O23579   5.051   2.202   4.899 -0.2492  0.4475  0.4599
 5715WAT     H123580   5.009   2.125   4.897  2.0357 -0.9427  1.6859
 5715WAT     H223581   5.020   2.243   4.828 -1.3529 -1.7143 -0.4303
 5715WAT    EPW23582   5.040   2.197   4.888 -0.0747 -0.0772  0.5095
 5716WAT      O23583   5.473   1.448   1.618  0.7846 -0.3300  0.2856
 5716WAT     H123584   5.531   1.505   1.586  0.5423  0.6796  1.5439
 5716WAT     H223585   5.442   1.409   1.547  1.8426  0.2416 -0.5347
 5716WAT    EPW23586   5.477   1.451   1.603  0.9051 -0.0964  0.3503
 5717WAT      O23587   3.935   1.785   1.507 -0.2935 -0.6131  0.1365
 5717WAT     H123588   4.014   1.750   1.509 -0.2036 -0.7712 -2.5638
 5717WAT     H223589   3.910   1.786   1.590  1.5041 -2.9156  0.7789
 5717WAT    EPW23590   3.943   1.780   1.519 -0.0147 -0.9766 -0.1675
 5718WAT      O23591   4.973   1.388   3.899  0.0832  0.3200 -0.4145
 5718WAT     H123592   4.945   1.428   3.826  0.3377  0.5502 -0.3860
 5718WAT     H223593   4.904   1.392   3.952 -0.6731 -1.2869 -1.2066
 5718WAT    EPW23594   4.959   1.395   3.896  0.0090  0.1166 -0.5273
 5719WAT      O23595   5.618   1.095   2.048 -0.8016  0.0562 -0.9633
 5719WAT     H123596   5.604   1.171   2.089 -0.1939 -0.3446  0.0256
 5719WAT     H223597   5.705   1.088   2.047 -0.8606 -1.2328  0.1442
 5719WAT    EPW23598   5.629   1.105   2.054 -0.7205 -0.1934 -0.6536
 5720WAT      O23599   6.002   0.153   2.258  0.0152 -0.1106  0.3311
 5720WAT     H123600   5.948   0.180   2.195  0.4074  3.5073  1.3572
 5720WAT     H223601   6.075   0.133   2.214 -0.8747 -1.4196 -0.6642
 5720WAT    EPW23602   6.004   0.154   2.242 -0.0583  0.2305  0.3356
 5721WAT      O23603   3.759   1.351   4.540 -0.0890 -0.3312  0.7439
 5721WAT     H123604   3.767   1.305   4.467  1.2952 -0.6354  1.0629
 5721WAT     H223605   3.824   1.321   4.591  0.3964  1.4424  1.2388
 5721WAT    EPW23606   3.770   1.340   4.537  0.1872 -0.1141  0.8641
 5722WAT      O23607   4.157   0.760   2.001 -0.1036 -0.6933 -0.1288
 5722WAT     H123608   4.162   0.836   1.957  1.0736 -0.7931 -0.2200
 5722WAT     H223609   4.233   0.721   1.981  0.2620 -0.9522  1.6328
 5722WAT    EPW23610   4.169   0.766   1.991  0.1243 -0.7463  0.1179
 5723WAT      O23611   4.484   2.345   2.691 -0.8943 -0.1795  0.2281
 5723WAT     H123612   4.533   2.287   2.650 -0.3245  1.0460 -0.9045
 5723WAT     H223613   4.509   2.339   2.774  0.4046 -0.3203 -0.1598
 5723WAT    EPW23614   4.495   2.336   2.697 -0.6183 -0.0193  0.0035
 5724WAT      O23615   5.163   2.978   2.502  0.4829 -0.3257  0.0246
 5724WAT     H123616   5.126   2.997   2.578 -0.3696  1.4203 -0.7641
 5724WAT     H223617   5.178   2.892   2.507  0.4762 -0.2475  2.1395
 5724WAT    EPW23618   5.160   2.968   2.514  0.3560 -0.0562  0.2205
 5725WAT      O23619   5.612   2.372   3.726 -0.1382  0.0460  0.7109
 5725WAT     H123620   5.548   2.428   3.706 -0.8726 -1.1168 -0.4574
 5725WAT     H223621   5.663   2.416   3.780 -1.1496  1.5269  0.5137
 5725WAT    EPW23622   5.610   2.387   3.731 -0.3961  0.0930  0.5092
 5726WAT      O23623   3.719   1.142   2.372  0.1349 -0.0414 -0.1084
 5726WAT     H123624   3.773   1.075   2.356  1.2239  0.9591 -0.8812
 5726WAT     H223625   3.772   1.203   2.405 -0.5218  0.9682 -0.8703
 5726WAT    EPW23626   3.735   1.141   2.374  0.1987  0.2556 -0.3351
 5727WAT      O23627   4.648   2.354   3.768  0.2010 -0.0188  0.1428
 5727WAT     H123628   4.684   2.431   3.750 -0.6653  0.4069  0.1869
 5727WAT     H223629   4.576   2.353   3.718 -1.1934  0.3330  2.0456
 5727WAT    EPW23630   4.642   2.365   3.758 -0.1329  0.0960  0.4304
 5728WAT      O23631   5.461   3.127   2.603  0.1580  0.1617 -0.2864
 5728WAT     H123632   5.390   3.077   2.606  0.2195 -0.0659 -1.8950
 5728WAT     H223633   5.511   3.089   2.543  1.1344  0.9957 -0.0459
 5728WAT    EPW23634   5.458   3.114   2.595  0.3113  0.2513 -0.4885
 5729WAT      O23635   5.340   3.757   3.944  0.0892 -0.0058 -0.1648
 5729WAT     H123636   5.390   3.725   4.007 -2.0785  0.5144  1.9788
 5729WAT     H223637   5.283   3.693   3.928 -1.4349  1.0065  0.8842
 5729WAT    EPW23638   5.339   3.743   3.951 -0.4561  0.2206  0.3068
 5730WAT      O23639   4.661   0.517   2.112 -0.3736  0.0756 -0.0663
 5730WAT     H123640   4.678   0.433   2.099  0.4546  0.0957  0.7959
 5730WAT     H223641   4.727   0.558   2.072  0.4991  0.2241  1.4543
 5730WAT    EPW23642   4.673   0.511   2.104 -0.1223  0.1005  0.2857
 5731WAT      O23643   3.904   1.762   2.872 -0.1162  0.1749  0.0331
 5731WAT     H123644   3.857   1.835   2.863 -0.0055  0.1813 -0.5342
 5731WAT     H223645   3.846   1.698   2.865 -0.1948  0.2057  0.3999
 5731WAT    EPW23646   3.889   1.764   2.870 -0.1115  0.1804  0.0035
 5732WAT      O23647   5.205   2.023   1.397  0.4566  0.0764  0.7931
 5732WAT     H123648   5.276   1.972   1.399  0.1057 -0.5124 -0.4703
 5732WAT     H223649   5.237   2.103   1.410  1.4279 -0.1279 -0.1475
 5732WAT    EPW23650   5.220   2.027   1.399  0.5483 -0.0408  0.4675
 5733WAT      O23651   4.661   1.215   3.301 -0.0173  0.7535  0.0670
 5733WAT     H123652   4.578   1.207   3.276  0.3190  0.3357 -0.9883
 5733WAT     H223653   4.698   1.140   3.276  0.4209  0.4037  1.6623
 5733WAT    EPW23654   4.654   1.203   3.294  0.0971  0.6401  0.1468
 5734WAT      O23655   4.063   1.952   2.209 -0.0366 -0.1380  0.4831
 5734WAT     H123656   4.099   2.031   2.198 -0.4390 -0.0807 -0.6105
 5734WAT     H223657   4.009   1.945   2.141 -0.2645 -1.2182  0.7576
 5734WAT    EPW23658   4.060   1.963   2.197 -0.1297 -0.2891  0.3621
 5735WAT      O23659   5.589   2.850   4.150  0.0040 -0.4585  0.0773
 5735WAT     H123660   5.636   2.923   4.150  0.3852 -0.6998 -0.2378
 5735WAT     H223661   5.509   2.877   4.171 -0.2922  0.3293 -1.8704
 5735WAT    EPW23662   5.584   2.864   4.153  0.0165 -0.3778 -0.2570
 5736WAT      O23663   3.826   2.398   3.726  1.1415  0.1262 -0.3242
 5736WAT     H123664   3.888   2.426   3.781 -0.3016 -0.9221  2.0153
 5736WAT     H223665   3.763   2.457   3.735  0.2601 -0.8801  0.4504
 5736WAT    EPW23666   3.826   2.411   3.736  0.7981 -0.1773  0.1358
 5737WAT      O23667   3.816   0.384   1.057  0.3863 -0.3939 -1.0878
 5737WAT     H123668   3.892   0.357   1.023 -0.4345 -1.4544 -2.1757
 5737WAT     H223669   3.761   0.377   0.990 -1.1857 -1.9129  0.2969
 5737WAT    EPW23670   3.819   0.379   1.042  0.0328 -0.7749 -1.0440
 5738WAT      O23671   5.834   0.727   2.469  0.2021  0.5145 -0.0193
 5738WAT     H123672   5.886   0.708   2.537  0.0160 -0.5573 -0.1542
 5738WAT     H223673   5.883   0.780   2.420  1.4880 -1.0253 -0.4939
 5738WAT    EPW23674   5.849   0.732   2.472  0.3646  0.1287 -0.1094
 5739WAT      O23675   3.831   1.415   0.394  0.9999  0.4449  0.0305
 5739WAT     H123676   3.889   1.422   0.328 -0.9365  2.0554 -1.6302
 5739WAT     H223677   3.822   1.329   0.404  0.8708  0.1042 -2.3442
 5739WAT    EPW23678   3.838   1.404   0.385  0.6948  0.6325 -0.5656
 5740WAT      O23679   4.052   3.120   2.140 -0.1397  0.7821 -0.0185
 5740WAT     H123680   3.998   3.155   2.199 -1.2264  0.0154 -0.5134
 5740WAT     H223681   4.040   3.170   2.069 -0.5933  0.3140 -0.2800
 5740WAT    EPW23682   4.042   3.133   2.138 -0.3672  0.5997 -0.1303
 5741WAT      O23683   6.168   1.242   2.475  0.1891  0.1918 -0.2142
 5741WAT     H123684   6.188   1.229   2.391 -1.5804  2.6747 -1.1173
 5741WAT     H223685   6.081   1.234   2.477  0.2460 -0.3705  1.5309
 5741WAT    EPW23686   6.158   1.239   2.463 -0.0638  0.4755 -0.0898
 5742WAT      O23687   4.260   1.380   3.966 -0.3765 -0.1667 -0.0619
 5742WAT     H123688   4.304   1.348   3.898 -0.5034 -0.0209 -0.2132
 5742WAT     H223689   4.303   1.348   4.035  1.6154  2.0381 -0.1213
 5742WAT    EPW23690   4.273   1.371   3.966 -0.1010  0.1806 -0.0931
 5743WAT      O23691   4.861   1.903   1.887  0.4516 -0.2682 -0.0749
 5743WAT     H123692   4.929   1.895   1.941 -0.0197 -2.2324  0.2981
 5743WAT     H223693   4.796   1.930   1.939  1.2481  3.6141 -0.7536
 5743WAT    EPW23694   4.861   1.906   1.902  0.4996  0.0151 -0.1201
 5744WAT      O23695   5.675   4.395   2.950 -0.4130  0.3742 -0.5575
 5744WAT     H123696   5.739   4.444   2.918  0.2376  1.4107  2.0435
 5744WAT     H223697   5.625   4.378   2.881  1.9572  0.6014 -2.4493
 5744WAT    EPW23698   5.677   4.400   2.935  0.0332  0.5609 -0.4527
 5745WAT      O23699   4.247   2.429   2.444  0.2762  0.2798 -0.1565
 5745WAT     H123700   4.223   2.407   2.525  0.1056  0.3706 -0.1805
 5745WAT     H223701   4.242   2.517   2.445 -0.1886  0.2600 -0.4032
 5745WAT    EPW23702   4.242   2.439   2.456  0.1823  0.2903 -0.1965
 5746WAT      O23703   3.161   2.883   2.551  0.0813  0.6682 -0.0789
 5746WAT     H123704   3.112   2.814   2.572 -0.4536  0.9377 -0.4059
 5746WAT     H223705   3.243   2.853   2.555 -0.1690 -0.1503 -0.8303
 5746WAT    EPW23706   3.166   2.868   2.555 -0.0347  0.5871 -0.2382
 5747WAT      O23707   2.491   1.701   3.350 -0.2473  0.6000 -0.1704
 5747WAT     H123708   2.555   1.691   3.408 -1.3052  0.8673  1.0941
 5747WAT     H223709   2.529   1.681   3.274  1.0683 -0.2063  0.6539
 5747WAT    EPW23710   2.506   1.696   3.347 -0.2092  0.5204  0.1382
 5748WAT      O23711   4.272   0.762   3.667 -0.0810 -0.1784  0.3574
 5748WAT     H123712   4.339   0.751   3.721  0.8396  0.3423 -0.6375
 5748WAT     H223713   4.281   0.844   3.639 -2.0044  0.4352  1.3157
 5748WAT    EPW23714   4.283   0.773   3.671 -0.2291 -0.0108  0.3520
 5749WAT      O23715   5.752   0.186   2.787  0.0428 -0.2049 -0.2716
 5749WAT     H123716   5.795   0.171   2.713  1.8669  0.5404  0.5661
 5749WAT     H223717   5.697   0.250   2.766  0.9346  0.3975 -0.8872
 5749WAT    EPW23718   5.750   0.193   2.773  0.4440 -0.0058 -0.2388
 5750WAT      O23719   5.335   4.356   2.937 -0.5313  0.5513  0.2481
 5750WAT     H123720   5.254   4.342   2.967 -0.4877  0.6087  0.3937
 5750WAT     H223721   5.321   4.391   2.858 -0.6434 -2.2724 -1.0875
 5750WAT    EPW23722   5.321   4.359   2.929 -0.5414  0.1427  0.0723
 5751WAT      O23723   5.902   2.731   2.705 -0.1408  0.0533  0.2337
 5751WAT     H123724   5.908   2.656   2.661 -2.4454 -0.1180  0.0828
 5751WAT     H223725   5.958   2.783   2.663  1.0436 -1.3732 -0.0483
 5751WAT    EPW23726   5.912   2.728   2.692 -0.3062 -0.1827  0.1698
 5752WAT      O23727   4.132   1.537   3.498  0.2124  0.2001  0.0806
 5752WAT     H123728   4.087   1.612   3.502 -0.5014 -0.2444  0.9779
 5752WAT     H223729   4.072   1.477   3.517  1.4077 -0.3225  2.6159
 5752WAT    EPW23730   4.116   1.539   3.501  0.2835  0.0572  0.5877
 5753WAT      O23731   4.342   7.571   0.879  0.3880 -0.2909 -0.0387
 5753WAT     H123732   4.405   7.589   0.821 -0.4354  1.1403 -0.5475
 5753WAT     H223733   4.318   7.490   0.858  0.7657 -0.1515 -1.0836
 5753WAT    EPW23734   4.348   7.562   0.867  0.3221 -0.0589 -0.2682
 5754WAT      O23735   4.105   2.470   3.108  0.3299  0.1166  0.3510
 5754WAT     H123736   4.169   2.413   3.121  0.7972  0.9527  1.9953
 5754WAT     H223737   4.094   2.507   3.187 -1.8701  0.3062  0.0270
 5754WAT    EPW23738   4.113   2.467   3.122  0.0739  0.2681  0.5460
 5755WAT      O23739   5.953   2.114   3.342 -0.4642  0.1918  0.4398
 5755WAT     H123740   5.912   2.089   3.414 -0.6995 -0.1111  0.2057
 5755WAT     H223741   5.891   2.154   3.296 -0.0207  1.4933  0.9409
 5755WAT    EPW23742   5.938   2.116   3.346 -0.4335  0.3393  0.4792
 5756WAT      O23743   5.466   0.357   3.975 -0.0381 -0.5918 -0.1941
 5756WAT     H123744   5.487   0.300   3.912 -0.0317  0.9112 -1.6227
 5756WAT     H223745   5.493   0.318   4.048 -0.2167 -2.4852 -1.0866
 5756WAT    EPW23746   5.473   0.343   3.977 -0.0635 -0.6495 -0.5370
 5757WAT      O23747   4.248   0.528   3.467 -0.3590 -0.0359  0.6094
 5757WAT     H123748   4.268   0.605   3.432  0.9650 -0.1444  1.0521
 5757WAT     H223749   4.184   0.547   3.523 -1.3661  0.4042 -0.6379
 5757WAT    EPW23750   4.242   0.542   3.470 -0.3122  0.0131  0.4906
 5758WAT      O23751   3.502   1.647   2.400 -0.0837 -0.7673 -0.2956
 5758WAT     H123752   3.486   1.731   2.381  2.1745 -0.1067  0.3190
 5758WAT     H223753   3.439   1.626   2.456 -0.5472  0.6258 -0.2542
 5758WAT    EPW23754   3.491   1.657   2.405  0.1814 -0.4639 -0.1987
 5759WAT      O23755   5.194   3.099   3.329 -0.1067 -0.1720  0.7191
 5759WAT     H123756   5.235   3.149   3.270  1.0205 -1.6764  0.1594
 5759WAT     H223757   5.151   3.041   3.280  1.1899 -1.7122  1.3126
 5759WAT    EPW23758   5.194   3.098   3.313  0.2513 -0.6217  0.7241
 5760WAT      O23759   5.015   2.172   1.236 -0.2389 -0.4302 -0.2369
 5760WAT     H123760   5.002   2.214   1.311  1.7765  0.5381 -0.3448
 5760WAT     H223761   5.055   2.099   1.261 -0.4863 -0.5841 -0.2946
 5760WAT    EPW23762   5.019   2.168   1.251  0.0223 -0.3099 -0.2614
 5761WAT      O23763   4.533   2.564   2.528  0.3103 -0.0454 -0.3357
 5761WAT     H123764   4.486   2.630   2.560  0.1330  1.0875 -2.7122
 5761WAT     H223765   4.506   2.496   2.574  1.4344  1.6257  3.1723
 5761WAT    EPW23766   4.522   2.564   2.540  0.4502  0.3688 -0.1685
 5762WAT      O23767   4.469   2.972   1.890 -0.6075 -0.4888  0.0679
 5762WAT     H123768   4.446   3.035   1.835 -0.5906 -1.4272 -1.0643
 5762WAT     H223769   4.399   2.961   1.940 -0.3944  0.8229  0.6870
 5762WAT    EPW23770   4.455   2.980   1.889 -0.5735 -0.4336 -0.0079
 5763WAT      O23771   5.571   0.488   3.536  0.6035  0.2805  0.4537
 5763WAT     H123772   5.652   0.455   3.540  0.0195 -1.4129 -0.5113
 5763WAT     H223773   5.521   0.417   3.528 -1.1339  1.1646  2.5047
 5763WAT    EPW23774   5.575   0.472   3.535  0.2606  0.1610  0.6141
 5764WAT      O23775   3.850   2.498   2.150 -0.2945  0.1401  0.2640
 5764WAT     H123776   3.852   2.536   2.229  2.6114 -0.1253  0.4078
 5764WAT     H223777   3.853   2.565   2.095 -1.1437  0.2782  0.3669
 5764WAT    EPW23778   3.851   2.513   2.154  0.0093  0.1213  0.3004
 5765WAT      O23779   5.380   0.599   2.426 -0.1986  0.4690 -0.1388
 5765WAT     H123780   5.362   0.579   2.509 -3.6106  0.6641 -0.6545
 5765WAT     H223781   5.394   0.522   2.388  0.3330  0.2871  0.4258
 5765WAT    EPW23782   5.379   0.585   2.433 -0.6241  0.4709 -0.1316
 5766WAT      O23783   3.574   1.464   4.132 -0.3049  0.0389  0.6101
 5766WAT     H123784   3.624   1.399   4.162  0.0031 -0.4580 -0.9368
 5766WAT     H223785   3.617   1.495   4.064 -1.6851  0.1614 -0.2509
 5766WAT    EPW23786   3.588   1.459   4.127 -0.4633 -0.0164  0.2544
 5767WAT      O23787   5.575   2.577   4.120 -0.6613  0.0034 -0.4859
 5767WAT     H123788   5.635   2.543   4.174 -0.3572 -1.3227 -1.6098
 5767WAT     H223789   5.570   2.660   4.145  2.0876  0.3245 -0.6820
 5767WAT    EPW23790   5.583   2.584   4.132 -0.2103 -0.1451 -0.6809
 5768WAT      O23791   4.602   2.585   1.977 -0.2085  0.9956  0.3999
 5768WAT     H123792   4.677   2.544   1.993 -1.6659 -2.2222 -0.2229
 5768WAT     H223793   4.580   2.619   2.054  0.1340 -1.2129  1.5282
 5768WAT    EPW23794   4.610   2.584   1.991 -0.3732  0.1940  0.4746
 5769WAT      O23795   6.220   7.273   0.882  0.4841  0.2408  0.1539
 5769WAT     H123796   6.300   7.244   0.900  1.2045  0.5360 -2.1580
 5769WAT     H223797   6.187   7.210   0.831  0.7457  1.7667 -2.0319
 5769WAT    EPW23798   6.227   7.259   0.877  0.6291  0.5098 -0.5105
 5770WAT      O23799   4.806   0.928   0.254  0.4822 -0.6634 -0.0551
 5770WAT     H123800   4.839   0.893   0.181  0.6750  1.9169 -1.3160
 5770WAT     H223801   4.870   0.916   0.313  2.0419  0.6374 -1.3838
 5770WAT    EPW23802   4.821   0.921   0.252  0.7411 -0.0901 -0.4377
 5771WAT      O23803   2.784   4.091   1.337  0.2445 -0.2000  0.4445
 5771WAT     H123804   2.698   4.076   1.344  0.4702 -1.5509  0.5657
 5771WAT     H223805   2.804   4.129   1.413 -0.2275  0.0547  0.4492
 5771WAT    EPW23806   2.774   4.095   1.349  0.2081 -0.3619  0.4631
 5772WAT      O23807   6.651   2.300   0.214  0.0374  0.0500 -0.1891
 5772WAT     H123808   6.571   2.267   0.226 -0.1777  1.3912  2.6758
 5772WAT     H223809   6.673   2.269   0.135 -3.1932 -0.5304 -1.0309
 5772WAT    EPW23810   6.642   2.291   0.204 -0.4716  0.1624  0.1098
 5773WAT      O23811   2.733   1.511   1.518  0.8609  0.4124 -0.4475
 5773WAT     H123812   2.668   1.532   1.464  0.4490 -0.6574 -0.3997
 5773WAT     H223813   2.731   1.423   1.519 -0.2310  0.3772  2.6098
 5773WAT    EPW23814   2.723   1.501   1.510  0.6387  0.2492  0.0112
 5774WAT      O23815   4.820   1.272   7.162  0.1027  0.2012  0.3360
 5774WAT     H123816   4.892   1.284   7.113 -0.3747 -1.5902 -0.8956
 5774WAT     H223817   4.849   1.225   7.229  0.7859  2.7708  2.0163
 5774WAT    EPW23818   4.835   1.267   7.165  0.1331  0.3162  0.4022
 5775WAT      O23819   5.148   1.502   1.530 -0.0303 -0.4038  0.2002
 5775WAT     H123820   5.138   1.564   1.592  1.6754  0.6094 -0.4557
 5775WAT     H223821   5.173   1.432   1.576  0.5431  0.1354  0.7382
 5775WAT    EPW23822   5.150   1.501   1.546  0.3064 -0.1745  0.1828
 5776WAT      O23823   4.219   0.639   7.480 -0.4467  0.0349 -0.5510
 5776WAT     H123824   4.212   0.582   7.414 -0.4166  0.4115 -0.8860
 5776WAT     H223825   4.224   0.716   7.440  1.2743  0.1577 -0.1890
 5776WAT    EPW23826   4.219   0.642   7.464 -0.1880  0.1087 -0.5470
 5777WAT      O23827   5.585   1.408   0.191  0.5471 -0.5184  0.4290
 5777WAT     H123828   5.579   1.345   0.130 -0.2459 -1.9044  1.8596
 5777WAT     H223829   5.671   1.426   0.192  0.6913 -1.0683 -0.5141
 5777WAT    EPW23830   5.597   1.401   0.182  0.4512 -0.8044  0.5010
 5778WAT      O23831   3.901   0.734   7.552 -0.3762 -0.6094  0.0174
 5778WAT     H123832   3.851   0.795   7.515  1.8401  1.4566  0.1759
 5778WAT     H223833   3.901   0.669   7.494 -2.3601 -0.2539 -0.4235
 5778WAT    EPW23834   3.894   0.734   7.538 -0.3419 -0.2517 -0.0243
 5779WAT      O23835   4.005   3.458   0.968  0.3856  0.1974  0.3311
 5779WAT     H123836   3.961   3.524   0.932  4.5782  3.3603  0.2179
 5779WAT     H223837   3.990   3.467   1.053 -1.4351 -0.7705  0.1662
 5779WAT    EPW23838   3.996   3.469   0.975  0.7360  0.5216  0.2900
 5780WAT      O23839   7.173   2.914   0.694  0.4403 -0.1472  0.0598
 5780WAT     H123840   7.138   2.926   0.773 -1.0102  0.0856 -0.5881
 5780WAT     H223841   7.182   2.828   0.688 -1.2777 -0.3369 -0.2403
 5780WAT    EPW23842   7.169   2.903   0.705 -0.0278 -0.1409 -0.0802
 5781WAT      O23843   4.998   0.725   0.980 -0.4677  0.3461 -0.1537
 5781WAT     H123844   5.039   0.682   1.045 -1.8807  0.1386  0.6469
 5781WAT     H223845   5.058   0.782   0.952  1.7098 -2.3774 -1.6086
 5781WAT    EPW23846   5.013   0.727   0.986 -0.3548 -0.0869 -0.2503
 5782WAT      O23847   3.733   1.346   0.055  0.7530 -0.2620 -0.0067
 5782WAT     H123848   3.805   1.317   0.094  1.7465  3.2203  1.0461
 5782WAT     H223849   3.760   1.368  -0.025 -0.0410 -2.2096 -0.8760
 5782WAT    EPW23850   3.748   1.345   0.049  0.7825 -0.0353  0.0204
 5783WAT      O23851   4.392   2.348   1.708  0.4516  0.2675  0.5881
 5783WAT     H123852   4.446   2.400   1.663 -0.0524 -0.2330 -0.6511
 5783WAT     H223853   4.437   2.328   1.779  1.5316  0.6176  0.0268
 5783WAT    EPW23854   4.407   2.352   1.712  0.5367  0.2453  0.3221
 5784WAT      O23855   6.433   1.204   7.048 -0.0818  0.6799  0.2814
 5784WAT     H123856   6.479   1.192   7.121  0.9922 -1.5479 -0.6638
 5784WAT     H223857   6.356   1.167   7.066 -0.3114  1.3692  0.7313
 5784WAT    EPW23858   6.428   1.197   7.061  0.0429  0.4527  0.2082
 5785WAT      O23859   4.113   3.095   1.748  0.0899 -0.7197  0.0951
 5785WAT     H123860   4.100   3.135   1.672 -2.1711 -0.6227  0.4772
 5785WAT     H223861   4.106   3.159   1.807  2.3872 -0.6858  0.4287
 5785WAT    EPW23862   4.110   3.110   1.746  0.0953 -0.7003  0.2009
 5786WAT      O23863   6.439   1.541   1.414  0.1579  0.3393 -0.2307
 5786WAT     H123864   6.456   1.604   1.355  0.3783  1.2959  0.8272
 5786WAT     H223865   6.354   1.552   1.432 -0.5621 -1.4897 -2.0880
 5786WAT    EPW23866   6.429   1.552   1.408  0.0841  0.2104 -0.3488
 5787WAT      O23867   4.638   2.956   2.141  1.0112 -0.7605  0.1183
 5787WAT     H123868   4.644   2.990   2.061  2.1010 -1.0227  0.0687
 5787WAT     H223869   4.584   2.889   2.131  0.5716 -0.3594 -0.2418
 5787WAT    EPW23870   4.631   2.951   2.127  1.1073 -0.7400  0.0578
 5788WAT      O23871   3.535   0.970   1.727 -0.0566  0.1780 -0.4573
 5788WAT     H123872   3.584   0.986   1.657  0.3222 -0.3572 -0.3186
 5788WAT     H223873   3.473   0.916   1.697 -1.3425  1.8307 -0.9283
 5788WAT    EPW23874   3.533   0.964   1.712 -0.1906  0.3430 -0.5064
 5789WAT      O23875   4.924   1.585   2.858 -0.2766 -0.4976  0.3577
 5789WAT     H123876   4.854   1.544   2.828 -0.3441 -0.2974  0.2409
 5789WAT     H223877   4.912   1.585   2.944 -1.5481  1.5170  0.2490
 5789WAT    EPW23878   4.912   1.579   2.866 -0.4744 -0.1704  0.3244
 5790WAT      O23879   3.549   1.554   7.413  0.8918 -0.7869 -0.0655
 5790WAT     H123880   3.594   1.598   7.352  0.6159 -0.9139 -0.3635
 5790WAT     H223881   3.535   1.614   7.475  0.9967 -0.6008 -0.2211
 5790WAT    EPW23882   3.553   1.569   7.413  0.8665 -0.7782 -0.1325
 5791WAT      O23883   4.383   1.233   0.008  0.3124 -0.0978 -0.0252
 5791WAT     H123884   4.413   1.314   0.014 -0.6646  0.3171 -0.4386
 5791WAT     H223885   4.298   1.242   0.026 -0.4533 -0.5258 -2.9018
 5791WAT    EPW23886   4.375   1.246   0.012  0.0550 -0.0997 -0.5112
 5792WAT      O23887   4.188   1.669   1.428  0.0087  0.1239  0.0205
 5792WAT     H123888   4.267   1.705   1.415 -1.0630  2.2237 -1.1474
 5792WAT     H223889   4.158   1.654   1.347 -0.2275 -2.1332  0.4549
 5792WAT    EPW23890   4.195   1.672   1.414 -0.1845  0.1007 -0.0878
 5793WAT      O23891   5.577   1.340   7.531  0.5998 -0.0378 -0.5792
 5793WAT     H123892   5.539   1.318   7.456  0.5502  1.2619 -0.9545
 5793WAT     H223893   5.658   1.307   7.524  0.2898 -0.7865 -0.7574
 5793WAT    EPW23894   5.583   1.332   7.519  0.5467  0.0436 -0.6610
 5794WAT      O23895   5.255   3.623   1.660  1.3493 -0.0648  0.1396
 5794WAT     H123896   5.325   3.649   1.614  2.3618 -0.6977  1.2882
 5794WAT     H223897   5.245   3.686   1.720  2.2511 -0.9981  1.3096
 5794WAT    EPW23898   5.264   3.636   1.662  1.6321 -0.2961  0.4821
 5795WAT      O23899   4.703   1.866   1.472  0.2078 -0.2670  0.5817
 5795WAT     H123900   4.773   1.877   1.524  1.6349 -1.2796 -1.0249
 5795WAT     H223901   4.737   1.833   1.399 -2.1938 -2.7892  0.4492
 5795WAT    EPW23902   4.719   1.863   1.469  0.0638 -0.7892  0.3248
 5796WAT      O23903   5.381   0.750   0.915 -0.1923  0.9740  0.3265
 5796WAT     H123904   5.327   0.810   0.945 -0.6986  1.5348 -1.5501
 5796WAT     H223905   5.452   0.796   0.890 -0.7935  0.9578 -1.6162
 5796WAT    EPW23906   5.384   0.765   0.916 -0.3559  1.0544 -0.2377
 5797WAT      O23907   3.745   1.664   1.306 -0.5253 -0.0592 -0.3624
 5797WAT     H123908   3.781   1.709   1.371 -0.8245 -0.1210 -0.1519
 5797WAT     H223909   3.741   1.583   1.336 -1.7847  0.1249  0.0308
 5797WAT    EPW23910   3.750   1.659   1.320 -0.7555 -0.0411 -0.2732
 5798WAT      O23911   4.306   2.019   0.919 -0.2478  0.0366  0.2078
 5798WAT     H123912   4.311   2.066   0.845 -3.7825  1.3322  0.5961
 5798WAT     H223913   4.370   2.051   0.968 -0.9152  2.7994 -0.5116
 5798WAT    EPW23914   4.316   2.031   0.915 -0.8685  0.6361  0.1589
 5799WAT      O23915   5.809   7.237   7.641 -0.2843 -0.2394 -0.0412
 5799WAT     H123916   5.729   7.236   7.676  0.4187 -1.2392  1.6526
 5799WAT     H223917   5.823   7.154   7.617 -0.0537  0.0860 -1.1142
 5799WAT    EPW23918   5.800   7.225   7.642 -0.1464 -0.3390  0.0505
 5800WAT      O23919   5.217   1.982   0.353  0.2096 -0.2992 -0.6935
 5800WAT     H123920   5.213   1.974   0.440 -0.1669  2.6507 -0.3251
 5800WAT     H223921   5.148   1.938   0.324 -0.1149 -0.6494  0.5776
 5800WAT    EPW23922   5.206   1.975   0.362  0.1060  0.0848 -0.4513
 5801WAT      O23923   5.392   2.045   2.126  0.1945 -0.0571 -0.2150
 5801WAT     H123924   5.440   1.987   2.169  0.5903 -0.6625 -1.4280
 5801WAT     H223925   5.448   2.078   2.068 -0.9889 -1.3290 -2.1883
 5801WAT    EPW23926   5.407   2.042   2.124  0.0782 -0.3344 -0.6856
 5802WAT      O23927   4.993   1.499   0.173 -0.4443 -0.0755  0.3984
 5802WAT     H123928   4.960   1.504   0.093 -1.5293 -2.8124  0.5749
 5802WAT     H223929   4.926   1.520   0.225 -0.7163 -1.4172  0.6297
 5802WAT    EPW23930   4.978   1.503   0.169 -0.6448 -0.6780  0.4586
 5803WAT      O23931   4.289   2.195   0.313  0.6275  0.3494  0.3288
 5803WAT     H123932   4.270   2.125   0.361  1.6429  1.8967  3.1976
 5803WAT     H223933   4.370   2.179   0.286  0.0070 -0.5845 -1.1524
 5803WAT    EPW23934   4.298   2.182   0.316  0.6858  0.4400  0.5338
 5804WAT      O23935   6.461   0.560   1.310 -0.0366 -0.6614  0.2813
 5804WAT     H123936   6.520   0.621   1.293  0.7095 -1.8263 -1.5743
 5804WAT     H223937   6.459   0.557   1.397 -0.1220  1.9495  0.4543
 5804WAT    EPW23938   6.469   0.569   1.320  0.0610 -0.4478  0.0327
 5805WAT      O23939   4.396   2.062   1.367  0.2670 -0.1982  0.2890
 5805WAT     H123940   4.480   2.050   1.388  0.4949 -1.2771 -1.1381
 5805WAT     H223941   4.358   2.074   1.445  1.7830  0.6992  0.9341
 5805WAT    EPW23942   4.403   2.062   1.382  0.5246 -0.2250  0.1735
 5806WAT      O23943   4.930   2.659   7.650 -0.5778 -0.1909 -0.2565
 5806WAT     H123944   5.007   2.640   7.615  0.0528  2.2767 -0.3828
 5806WAT     H223945   4.873   2.634   7.588  0.2837  0.4345 -1.3255
 5806WAT    EPW23946   4.933   2.652   7.636 -0.3574  0.2660 -0.4331
 5807WAT      O23947   5.361   2.666   7.752  0.3366 -0.0356 -0.4758
 5807WAT     H123948   5.446   2.648   7.754  0.2509 -0.4078  1.7579
 5807WAT     H223949   5.336   2.658   7.835 -1.3330  2.7792 -0.5831
 5807WAT    EPW23950   5.370   2.662   7.764  0.0773  0.3253 -0.1617
 5808WAT      O23951   2.116   2.599   1.754 -0.5316 -0.4302  0.1080
 5808WAT     H123952   2.176   2.659   1.773 -0.0678 -0.6411 -0.6348
 5808WAT     H223953   2.137   2.532   1.805 -1.9193  0.5009  2.0211
 5808WAT    EPW23954   2.128   2.598   1.764 -0.6681 -0.3238  0.2809
 5809WAT      O23955   7.091   0.756   0.038 -0.8808 -0.3000 -0.5434
 5809WAT     H123956   7.147   0.689   0.034  1.3247  1.1540  1.8679
 5809WAT     H223957   7.079   0.778  -0.045 -0.4750 -2.7094 -1.3207
 5809WAT    EPW23958   7.098   0.749   0.025 -0.4950 -0.4411 -0.3020
 5810WAT      O23959   3.725   0.748   1.339  0.5509 -0.0445 -0.1968
 5810WAT     H123960   3.738   0.829   1.369 -2.4160  0.0509  1.2175
 5810WAT     H223961   3.655   0.721   1.384 -0.1814 -2.4251 -2.5291
 5810WAT    EPW23962   3.717   0.756   1.350  0.0045 -0.3821 -0.3324
 5811WAT      O23963   4.144   2.405   1.496 -0.1933 -0.0698 -0.1800
 5811WAT     H123964   4.133   2.433   1.577 -0.1928  0.3125 -0.3115
 5811WAT     H223965   4.231   2.402   1.486 -0.1922  0.8790 -0.5063
 5811WAT    EPW23966   4.155   2.408   1.506 -0.1931  0.1268 -0.2476
 5812WAT      O23967   5.389   2.817   0.327  0.2382  0.1977 -0.2347
 5812WAT     H123968   5.317   2.776   0.353 -0.7160  1.2627 -1.0888
 5812WAT     H223969   5.422   2.850   0.401  1.1652 -2.2083  0.5055
 5812WAT    EPW23970   5.383   2.816   0.341  0.2342 -0.0004 -0.2515
 5813WAT      O23971   2.884   0.426   7.613  0.5351 -0.6934  0.2590
 5813WAT     H123972   2.806   0.428   7.651  0.4521  0.2233  0.0789
 5813WAT     H223973   2.939   0.446   7.677  0.6203 -1.2690  0.3696
 5813WAT    EPW23974   2.881   0.429   7.628  0.5354 -0.6430  0.2487
 5814WAT      O23975   6.241   0.871   1.295  0.6526 -0.0439 -0.8465
 5814WAT     H123976   6.257   0.833   1.218 -1.6549  0.6436 -1.7778
 5814WAT     H223977   6.186   0.935   1.274 -0.7163 -0.3459  1.4904
 5814WAT    EPW23978   6.235   0.875   1.280  0.1095  0.0131 -0.6389
 5815WAT      O23979   3.780   2.798   2.580 -0.0940 -0.2923 -1.0815
 5815WAT     H123980   3.705   2.796   2.624 -0.1220  0.7135 -1.0613
 5815WAT     H223981   3.760   2.842   2.507 -0.2018 -2.4703 -2.4374
 5815WAT    EPW23982   3.766   2.805   2.576 -0.1141 -0.4655 -1.2788
 5816WAT      O23983   5.173   2.785   7.214  0.1127 -0.3107  0.2303
 5816WAT     H123984   5.132   2.848   7.259 -0.2972 -0.4874  0.0977
 5816WAT     H223985   5.117   2.764   7.151  0.5747 -0.2618 -0.2018
 5816WAT    EPW23986   5.159   2.791   7.212  0.1204 -0.3296  0.1469
 5817WAT      O23987   4.834   1.996   0.650 -0.0603  0.4117  0.3509
 5817WAT     H123988   4.779   1.928   0.647  1.7556 -1.1481 -2.1703
 5817WAT     H223989   4.782   2.066   0.649 -2.0199 -0.9697 -0.9353
 5817WAT    EPW23990   4.818   1.996   0.650 -0.0815 -0.0228 -0.2115
 5818WAT      O23991   4.577   1.152   7.533  0.3215 -0.0016 -0.1438
 5818WAT     H123992   4.566   1.192   7.456 -2.4842 -1.4229 -0.6085
 5818WAT     H223993   4.592   1.218   7.588 -0.2648  1.3036 -1.4798
 5818WAT    EPW23994   4.578   1.168   7.530 -0.1796 -0.0187 -0.4098
 5819WAT      O23995   4.414   2.981   1.227  0.3903 -0.2629  0.5867
 5819WAT     H123996   4.415   2.894   1.230 -1.9527 -0.3270  3.2473
 5819WAT     H223997   4.481   3.004   1.278  0.2171 -0.5537  0.9529
 5819WAT    EPW23998   4.424   2.972   1.235  0.0186 -0.3153  1.0338
 5820WAT      O23999   3.272   2.306   0.903 -0.2237  0.3278 -0.4249
 5820WAT     H124000   3.281   2.267   0.980 -1.2255  0.6658 -0.1162
 5820WAT     H224001   3.354   2.323   0.878  0.2153 -1.3452 -0.2641
 5820WAT    EPW24002   3.285   2.303   0.911 -0.3068  0.1306 -0.3556
 5821WAT      O24003   4.769   2.700   0.462  0.6745  0.4463  0.1034
 5821WAT     H124004   4.700   2.751   0.480  0.0882 -0.3621  0.1958
 5821WAT     H224005   4.787   2.719   0.378  0.1302  0.4205 -0.0236
 5821WAT    EPW24006   4.761   2.710   0.452  0.5075  0.3231  0.0983
 5822WAT      O24007   5.080   3.369   2.009  0.6647  0.7835 -0.1012
 5822WAT     H124008   5.062   3.430   1.949 -0.4599 -0.6895 -1.3327
 5822WAT     H224009   5.016   3.311   1.999  1.8370 -0.7335  0.8529
 5822WAT    EPW24010   5.068   3.370   1.998  0.6717  0.3418 -0.1422
 5823WAT      O24011   5.369   1.087   0.153  0.3352  0.5380  0.2888
 5823WAT     H124012   5.370   1.053   0.072 -0.0126 -0.2424  0.6011
 5823WAT     H224013   5.308   1.148   0.149 -0.5485 -0.3302  0.2791
 5823WAT    EPW24014   5.360   1.091   0.140  0.1533  0.2945  0.3335
 5824WAT      O24015   5.234   1.185   7.660  0.0658  0.2821  0.1044
 5824WAT     H124016   5.302   1.138   7.688  0.7115  1.0847 -0.0939
 5824WAT     H224017   5.165   1.138   7.686  0.6866 -0.6178  0.1884
 5824WAT    EPW24018   5.234   1.171   7.668  0.2529  0.2677  0.0875
 5825WAT      O24019   4.209   1.318   0.968 -0.5237  0.0907  0.6472
 5825WAT     H124020   4.202   1.401   0.942 -0.4703 -0.0045  0.3246
 5825WAT     H224021   4.291   1.297   0.947 -0.6420 -0.1465  0.4137
 5825WAT    EPW24022   4.220   1.327   0.961 -0.5333  0.0416  0.5650
 5826WAT      O24023   4.657   2.161   2.224  0.3750  0.1996  0.0747
 5826WAT     H124024   4.580   2.158   2.264 -0.0036  1.5104 -0.4965
 5826WAT     H224025   4.670   2.246   2.212  1.9662  0.0034  0.2399
 5826WAT    EPW24026   4.647   2.173   2.228  0.5541  0.3643  0.0147
 5827WAT      O24027   4.504   2.111   1.109 -0.3743 -0.2080  0.2191
 5827WAT     H124028   4.472   2.115   1.190 -0.2017  0.6414  0.2501
 5827WAT     H224029   4.578   2.065   1.119 -0.6062 -0.5347  0.4545
 5827WAT    EPW24030   4.510   2.105   1.122 -0.3831 -0.1308  0.2585
 5828WAT      O24031   4.072   0.535   0.442 -0.1431 -0.1484  0.6202
 5828WAT     H124032   4.060   0.557   0.525 -1.3375  0.1705  0.3785
 5828WAT     H224033   4.003   0.569   0.401 -0.5639 -1.8904 -0.2160
 5828WAT    EPW24034   4.060   0.543   0.448 -0.3817 -0.3586  0.4610
 5829WAT      O24035   3.555   3.038   1.644 -0.0441  0.1124  0.4626
 5829WAT     H124036   3.506   3.033   1.572  0.1397 -0.6995  0.3927
 5829WAT     H224037   3.500   3.069   1.704 -0.4887 -0.2318  0.2401
 5829WAT    EPW24038   3.540   3.042   1.642 -0.0826 -0.0584  0.4194
 5830WAT      O24039   5.683   1.191   1.361 -0.0059  0.3373  0.3578
 5830WAT     H124040   5.597   1.206   1.361 -0.1339 -0.3430  0.8867
 5830WAT     H224041   5.701   1.177   1.445  0.8195  1.4919  0.4033
 5830WAT    EPW24042   5.673   1.191   1.374  0.0971  0.4073  0.4426
 5831WAT      O24043   5.933   1.042   7.117  0.3617  0.5337 -0.4027
 5831WAT     H124044   5.869   1.098   7.098  0.1726 -0.1575 -1.9156
 5831WAT     H224045   5.954   1.063   7.199 -0.0551  2.4487 -0.7368
 5831WAT    EPW24046   5.926   1.053   7.126  0.2722  0.7145 -0.6755
 5832WAT      O24047   6.125   1.420   6.814  0.0687 -0.0396 -0.6181
 5832WAT     H124048   6.127   1.426   6.901  1.6492 -1.6291 -0.5002
 5832WAT     H224049   6.198   1.461   6.788 -0.2266  0.1487 -1.1767
 5832WAT    EPW24050   6.136   1.427   6.823  0.2585 -0.2466 -0.6832
 5833WAT      O24051   5.708   2.553   7.393 -0.2290  0.4492 -0.5556
 5833WAT     H124052   5.754   2.510   7.453 -1.7041 -0.7962 -0.2632
 5833WAT     H224053   5.712   2.501   7.323  1.2654  1.7687 -1.5087
 5833WAT    EPW24054   5.715   2.539   7.391 -0.2261  0.4602 -0.6532
 5834WAT      O24055   4.290   3.546   1.491 -0.3825 -0.6847 -0.2245
 5834WAT     H124056   4.351   3.598   1.456  0.3316 -0.0934  1.7606
 5834WAT     H224057   4.261   3.500   1.423  1.4410 -0.1486 -1.4391
 5834WAT    EPW24058   4.295   3.547   1.476 -0.0077 -0.5182 -0.1107
 5835WAT      O24059   4.583   0.115   0.546 -0.1150 -0.0767  0.0965
 5835WAT     H124060   4.594   0.193   0.584 -0.1196 -0.3950  0.7593
 5835WAT     H224061   4.497   0.111   0.532 -0.2404 -0.3499  0.9144
 5835WAT    EPW24062   4.572   0.126   0.549 -0.1342 -0.1641  0.3152
 5836WAT      O24063   5.458   2.110   1.200 -0.3970 -0.5830  0.2300
 5836WAT     H124064   5.378   2.112   1.233 -0.1755  1.8144  0.7833
 5836WAT     H224065   5.465   2.185   1.155  0.8851 -1.6367 -1.4907
 5836WAT    EPW24066   5.447   2.121   1.198 -0.1749 -0.3845  0.0575
 5837WAT      O24067   5.048   1.458   7.531  0.6821 -0.4232  0.0722
 5837WAT     H124068   5.118   1.508   7.518  0.7370 -0.3950  0.4441
 5837WAT     H224069   4.990   1.488   7.473  0.6973  0.1131  0.3208
 5837WAT    EPW24070   5.050   1.470   7.521  0.6924 -0.3398  0.1639
 5838WAT      O24071   5.452   2.376   0.258  0.1516 -0.3900  0.0203
 5838WAT     H124072   5.378   2.406   0.223 -1.4011  0.0225  3.3545
 5838WAT     H224073   5.510   2.437   0.237 -1.0840  0.6941 -0.3615
 5838WAT    EPW24074   5.450   2.389   0.250 -0.2603 -0.1690  0.4564
 5839WAT      O24075   4.268   7.466   6.422  0.0046  0.0363 -0.2372
 5839WAT     H124076   4.338   7.505   6.457 -0.1888 -1.3546  1.9089
 5839WAT     H224077   4.298   7.432   6.348  0.6742  2.3536 -1.1280
 5839WAT    EPW24078   4.283   7.467   6.416  0.0749  0.1731 -0.0518
 5840WAT      O24079   3.273   2.528   0.142 -0.1613  0.0207  0.1171
 5840WAT     H124080   3.267   2.482   0.069 -0.6544  0.1480  0.0776
 5840WAT     H224081   3.265   2.468   0.205 -0.6979  0.0335  0.0659
 5840WAT    EPW24082   3.271   2.512   0.141 -0.3134  0.0414  0.1037
 5841WAT      O24083   4.820   2.108   1.681  0.1040 -0.1113 -0.4309
 5841WAT     H124084   4.853   2.066   1.612  1.7073  0.9401 -0.3536
 5841WAT     H224085   4.833   2.052   1.747  1.6393  0.2053 -0.4386
 5841WAT    EPW24086   4.827   2.093   1.680  0.5677  0.0908 -0.4206
 5842WAT      O24087   5.314   1.579   0.505 -0.4250 -0.5262 -0.0196
 5842WAT     H124088   5.306   1.542   0.583  0.5092  1.9328  1.3278
 5842WAT     H224089   5.234   1.609   0.488 -0.5772 -0.8715  0.0704
 5842WAT    EPW24090   5.301   1.578   0.514 -0.3095 -0.2140  0.1927
 5843WAT      O24091   3.091   2.392   1.682  0.3042  0.3547  0.3807
 5843WAT     H124092   3.058   2.428   1.754 -2.3838 -1.3226  0.1127
 5843WAT     H224093   3.035   2.328   1.663  3.3309 -2.2001 -0.7166
 5843WAT    EPW24094   3.078   2.388   1.690  0.3542 -0.2705  0.1790
 5844WAT      O24095   5.916   1.527   7.520  0.3946  0.1158 -0.4299
 5844WAT     H124096   5.972   1.463   7.536 -0.0930 -0.6295 -1.5728
 5844WAT     H224097   5.967   1.593   7.495  0.8219 -0.2400 -0.4976
 5844WAT    EPW24098   5.932   1.528   7.519  0.3857 -0.0469 -0.6087
 5845WAT      O24099   4.936   2.535   1.636 -0.3313 -0.2727  0.8460
 5845WAT     H124100   5.016   2.510   1.659  0.7614  1.9344 -0.2573
 5845WAT     H224101   4.930   2.617   1.664 -1.7167  0.0405 -0.2052
 5845WAT    EPW24102   4.947   2.543   1.643 -0.3746  0.0996  0.5277
 5846WAT      O24103   3.644   1.973   7.325 -0.1120 -0.4198  0.7025
 5846WAT     H124104   3.643   1.996   7.241  0.3415 -0.1610  0.7653
 5846WAT     H224105   3.560   1.961   7.344 -0.2559 -0.0128  0.3400
 5846WAT    EPW24106   3.632   1.975   7.316 -0.0663 -0.3215  0.6583
 5847WAT      O24107   5.249   1.748   7.461  0.2073  0.1241 -0.1052
 5847WAT     H124108   5.198   1.758   7.531  0.4970  0.0632  0.1202
 5847WAT     H224109   5.312   1.808   7.473  1.4416 -1.2811  0.7804
 5847WAT    EPW24110   5.251   1.758   7.473  0.4325 -0.0925  0.0589
 5848WAT      O24111   6.013   0.925   0.379  0.6614 -0.5221  0.4416
 5848WAT     H124112   6.008   1.010   0.362 -2.5563 -0.7833 -0.6421
 5848WAT     H224113   6.027   0.922   0.465  1.5731  1.0713  0.3800
 5848WAT    EPW24114   6.014   0.937   0.389  0.3208 -0.3253  0.2724
 5849WAT      O24115   3.671   1.960   0.084 -0.7948 -0.5656  0.8355
 5849WAT     H124116   3.743   1.937   0.127 -0.9640 -0.9798  0.8983
 5849WAT     H224117   3.702   1.999   0.012 -0.5126  0.2578  1.3929
 5849WAT    EPW24118   3.686   1.962   0.080 -0.7781 -0.5052  0.9271
 5850WAT      O24119   3.989   2.719   1.655  0.4850 -0.7634 -0.0403
 5850WAT     H124120   4.004   2.792   1.701  0.1563 -1.6099  1.4525
 5850WAT     H224121   4.063   2.709   1.609 -0.0192  1.3038 -1.4833
 5850WAT    EPW24122   4.002   2.728   1.655  0.3620 -0.5831 -0.0330
 5851WAT      O24123   5.214   7.210   0.010  0.3005 -0.0132  0.0288
 5851WAT     H124124   5.269   7.244  -0.049  1.3513  1.9499  1.9804
 5851WAT     H224125   5.217   7.125  -0.006 -2.4424  0.5034 -5.1457
 5851WAT    EPW24126   5.223   7.203  -0.001  0.0506  0.3531 -0.4473
 5852WAT      O24127   4.060   2.677   2.511  0.0862 -0.0687 -0.1831
 5852WAT     H124128   4.127   2.733   2.512 -0.8846  1.1432 -0.4007
 5852WAT     H224129   4.002   2.715   2.458 -0.5883 -1.3282 -0.3897
 5852WAT    EPW24130   4.061   2.691   2.503 -0.1568 -0.0757 -0.2458
 5853WAT      O24131   4.811   2.798   0.185  0.1689  0.1711 -0.1233
 5853WAT     H124132   4.732   2.787   0.150 -1.3618  1.3930  2.6211
 5853WAT     H224133   4.833   2.879   0.161  0.5067 -0.0759 -0.6727
 5853WAT    EPW24134   4.803   2.808   0.177 -0.0073  0.3151  0.2009
 5854WAT      O24135   4.690   1.813   2.566  0.0008 -0.8710 -0.0718
 5854WAT     H124136   4.603   1.812   2.568 -0.0302 -3.1042  0.5219
 5854WAT     H224137   4.709   1.752   2.506  1.0541 -3.2295  2.4363
 5854WAT    EPW24138   4.680   1.804   2.557  0.1518 -1.5493  0.3864
 5855WAT      O24139   5.286   1.889   7.848  0.0824  0.5937  0.4716
 5855WAT     H124140   5.259   1.858   7.926  1.0225  0.4711  0.7593
 5855WAT     H224141   5.371   1.901   7.859  0.0648  1.5022 -0.2505
 5855WAT    EPW24142   5.294   1.886   7.861  0.2186  0.7098  0.4074
 5856WAT      O24143   4.107   2.401   0.600  0.0207  0.4344 -0.0069
 5856WAT     H124144   4.100   2.473   0.552 -2.7924  1.3168  1.5129
 5856WAT     H224145   4.126   2.432   0.680  1.1923 -0.7484  0.2257
 5856WAT    EPW24146   4.109   2.416   0.605 -0.2218  0.3900  0.2520
 5857WAT      O24147   4.145   2.434   1.782 -0.5345 -0.4460 -0.6953
 5857WAT     H124148   4.227   2.415   1.761 -0.4869 -0.0768 -0.8440
 5857WAT     H224149   4.151   2.506   1.831 -0.7957 -0.1872 -1.0383
 5857WAT    EPW24150   4.158   2.441   1.786 -0.5661 -0.3533 -0.7679
 5858WAT      O24151   4.940   1.940   0.377  0.0133  0.1220  0.2076
 5858WAT     H124152   4.867   1.940   0.329  0.3262  0.7041 -0.2792
 5858WAT     H224153   4.922   1.996   0.441 -0.1919 -0.2150  0.4503
 5858WAT    EPW24154   4.926   1.948   0.379  0.0292  0.1582  0.1715
 5859WAT      O24155   5.308   1.460   7.674  0.1961 -0.4258 -0.3779
 5859WAT     H124156   5.261   1.387   7.677  2.4047 -1.9101  0.5092
 5859WAT     H224157   5.338   1.462   7.592 -0.1633 -0.2915 -0.5090
 5859WAT    EPW24158   5.305   1.450   7.662  0.4693 -0.6252 -0.2662
 5860WAT      O24159   4.424   1.162   0.288  0.1344  0.1379  0.2860
 5860WAT     H124160   4.424   1.238   0.331 -0.0694 -0.1268  0.7625
 5860WAT     H224161   4.458   1.182   0.211 -0.1678  0.7697  0.3110
 5860WAT    EPW24162   4.429   1.176   0.283  0.0597  0.1921  0.3600
 5861WAT      O24163   5.568   3.247   1.027 -0.2087  0.5850  0.0012
 5861WAT     H124164   5.600   3.166   1.024  0.2740  0.5239  3.0787
 5861WAT     H224165   5.601   3.285   0.956  3.2528 -0.7370  0.7086
 5861WAT    EPW24166   5.578   3.241   1.016  0.3740  0.3807  0.5603
 5862WAT      O24167   4.924   3.222   0.987 -0.1331 -0.6616 -0.6210
 5862WAT     H124168   4.916   3.271   0.915 -0.2766 -1.5111 -1.1910
 5862WAT     H224169   4.993   3.257   1.028  0.3970 -0.6224 -1.5239
 5862WAT    EPW24170   4.933   3.235   0.982 -0.0760 -0.7813 -0.8386
 5863WAT      O24171   4.632   1.987   2.009 -0.3364  0.2025 -0.0155
 5863WAT     H124172   4.647   2.031   2.082 -2.9968  2.3869 -0.6127
 5863WAT     H224173   4.572   1.928   2.032 -0.5410  0.3217 -0.2306
 5863WAT    EPW24174   4.625   1.985   2.023 -0.7596  0.5428 -0.1355
 5864WAT      O24175   4.538   2.359   7.718  0.1303  0.3317  0.2749
 5864WAT     H124176   4.596   2.294   7.722  1.6054  1.5367 -0.2136
 5864WAT     H224177   4.551   2.394   7.639 -2.4189 -0.3121 -0.5108
 5864WAT    EPW24178   4.549   2.355   7.707 -0.0284  0.4146  0.0867
 5865WAT      O24179   5.152   1.472   7.215  0.1877  0.1983 -0.3664
 5865WAT     H124180   5.183   1.520   7.149 -0.0946  1.1746  0.1801
 5865WAT     H224181   5.069   1.499   7.222 -0.8028 -2.1598 -1.6287
 5865WAT    EPW24182   5.144   1.483   7.206 -0.0003 -0.0058 -0.4722
 5866WAT      O24183   4.920   3.068   0.107  0.7793 -0.0371 -0.0442
 5866WAT     H124184   4.951   3.039   0.031 -0.1904 -1.3956  0.0582
 5866WAT     H224185   4.992   3.085   0.154  1.3967 -1.7461 -0.3252
 5866WAT    EPW24186   4.936   3.066   0.103  0.7273 -0.4902 -0.0706
 5867WAT      O24187   5.787   3.926   1.154 -0.2811  0.0678 -0.3613
 5867WAT     H124188   5.802   3.877   1.083  0.4706  0.4055 -0.4485
 5867WAT     H224189   5.718   3.975   1.131  1.3074  1.8113 -1.7765
 5867WAT    EPW24190   5.779   3.926   1.140  0.0646  0.3752 -0.5833
 5868WAT      O24191   4.267   2.875   7.568  0.1401 -0.1987 -0.2478
 5868WAT     H124192   4.259   2.833   7.492 -1.0756 -0.2781 -0.0999
 5868WAT     H224193   4.326   2.828   7.611  0.2038 -0.6599 -0.8207
 5868WAT    EPW24194   4.274   2.862   7.563 -0.0301 -0.2786 -0.3106
 5869WAT      O24195   4.522   1.934   0.514 -0.4657 -0.1967  0.9270
 5869WAT     H124196   4.559   1.869   0.558 -1.5712 -2.0238 -0.6958
 5869WAT     H224197   4.488   1.984   0.576 -0.9865 -2.0611  2.2265
 5869WAT    EPW24198   4.523   1.932   0.529 -0.7060 -0.7420  0.8792
 5870WAT      O24199   5.865   3.894   0.865 -0.2192 -0.1369  0.0879
 5870WAT     H124200   5.857   3.966   0.815 -1.4349  0.7605  1.4968
 5870WAT     H224201   5.803   3.841   0.835 -0.3626  0.0386  0.0754
 5870WAT    EPW24202   5.855   3.897   0.853 -0.4200  0.0216  0.2942
 5871WAT      O24203   5.291   0.485   6.436 -0.5492  0.0145  0.2745
 5871WAT     H124204   5.251   0.561   6.426 -0.4871  0.1045  0.6921
 5871WAT     H224205   5.350   0.484   6.372 -0.5409  0.3275  0.2777
 5871WAT    EPW24206   5.294   0.496   6.425 -0.5388  0.0740  0.3366
 5872WAT      O24207   4.526   2.528   1.568  0.1345  0.4061 -0.8055
 5872WAT     H124208   4.568   2.582   1.623 -0.9440  0.1079  0.3491
 5872WAT     H224209   4.591   2.485   1.529  0.9535  0.8061  0.0604
 5872WAT    EPW24210   4.542   2.530   1.571  0.0962  0.4211 -0.5071
 5873WAT      O24211   5.595   3.025   1.727 -0.2699 -0.3955  0.1090
 5873WAT     H124212   5.609   3.093   1.675 -1.9331 -0.0092  0.1423
 5873WAT     H224213   5.540   3.055   1.787 -0.7901 -1.6757  0.3066
 5873WAT    EPW24214   5.589   3.039   1.728 -0.5925 -0.5275  0.1431
 5874WAT      O24215   3.662   2.417   1.217 -0.1342  0.5037 -0.0160
 5874WAT     H124216   3.630   2.372   1.285 -1.5958  1.0223 -0.3309
 5874WAT     H224217   3.748   2.416   1.231 -0.3005 -0.5632  1.1110
 5874WAT    EPW24218   3.670   2.410   1.229 -0.3747  0.4227  0.1039
 5875WAT      O24219   5.829   0.228   2.053  0.0977  0.3339 -0.0999
 5875WAT     H124220   5.769   0.207   2.112  2.4028 -0.4633  2.1494
 5875WAT     H224221   5.792   0.207   1.977 -1.6163 -2.2647  1.3152
 5875WAT    EPW24222   5.815   0.222   2.051  0.1850 -0.1677  0.4414
 5876WAT      O24223   4.015   1.769   7.108  0.0704  0.3620 -0.2561
 5876WAT     H124224   4.052   1.839   7.070 -0.8062  0.2542 -1.3388
 5876WAT     H224225   4.053   1.701   7.069 -0.2209  0.2416 -0.3298
 5876WAT    EPW24226   4.026   1.770   7.097 -0.1021  0.3283 -0.4269
 5877WAT      O24227   4.088   1.437   1.539 -0.4053 -0.1901 -0.3343
 5877WAT     H124228   4.135   1.497   1.496  0.0648 -0.8637 -0.7848
 5877WAT     H224229   4.007   1.468   1.536  0.0379  1.2250  0.8466
 5877WAT    EPW24230   4.083   1.451   1.532 -0.2704 -0.0806 -0.2264
 5878WAT      O24231   2.271   0.094   7.146 -0.5304 -0.6815 -0.1284
 5878WAT     H124232   2.330   0.140   7.101 -0.5241 -0.5634  0.0002
 5878WAT     H224233   2.316   0.025   7.174 -0.2900 -0.2715  0.5068
 5878WAT    EPW24234   2.286   0.091   7.143 -0.4939 -0.6035 -0.0156
 5879WAT      O24235   4.866   4.055   2.267  0.0577  0.1194 -0.9059
 5879WAT     H124236   4.905   4.029   2.193 -0.8596 -0.4538 -1.1905
 5879WAT     H224237   4.781   4.049   2.250 -0.2590 -2.4532  1.0082
 5879WAT    EPW24238   4.859   4.051   2.254 -0.1246 -0.3453 -0.6652
 5880WAT      O24239   3.961   0.925   1.172  0.0478  0.2876  0.2400
 5880WAT     H124240   3.914   0.978   1.121  1.3281  2.2810  1.0001
 5880WAT     H224241   4.024   0.896   1.119  0.3347  0.9037  0.2444
 5880WAT    EPW24242   3.963   0.928   1.157  0.2793  0.6731  0.3529
 5881WAT      O24243   4.771   7.287   0.643 -0.2521  0.1746  0.5974
 5881WAT     H124244   4.772   7.354   0.586 -0.0696  0.8752  1.4044
 5881WAT     H224245   4.702   7.240   0.618  0.3851 -0.0740 -0.8012
 5881WAT    EPW24246   4.761   7.290   0.631 -0.1310  0.2414  0.5100
 5882WAT      O24247   3.929   1.405   0.680  0.2634 -0.0214 -0.2764
 5882WAT     H124248   3.919   1.391   0.594  0.0114 -1.8366 -0.0085
 5882WAT     H224249   3.990   1.466   0.684 -0.3763  0.7729 -1.7584
 5882WAT    EPW24250   3.936   1.412   0.668  0.1317 -0.1722 -0.4558
 5883WAT      O24251   2.077   3.675   1.700  0.3497 -0.4060 -0.1731
 5883WAT     H124252   2.145   3.642   1.743  1.9373  1.3060 -1.1933
 5883WAT     H224253   2.062   3.751   1.742  0.4934  0.2342 -1.2534
 5883WAT    EPW24254   2.085   3.681   1.713  0.6054 -0.0585 -0.4834
 5884WAT      O24255   4.779   1.217   0.307  0.1023  0.0738 -0.4240
 5884WAT     H124256   4.795   1.233   0.223 -1.2739 -0.4600 -0.8221
 5884WAT     H224257   4.783   1.131   0.313  0.4837  0.1255  0.1284
 5884WAT    EPW24258   4.782   1.207   0.295 -0.0447  0.0026 -0.4012
 5885WAT      O24259   4.642   3.669   1.557  0.1118  0.1536  0.0042
 5885WAT     H124260   4.627   3.693   1.640  1.8248 -1.7764  0.9598
 5885WAT     H224261   4.641   3.582   1.560  1.3549  0.0132 -1.7700
 5885WAT    EPW24262   4.640   3.660   1.570  0.5485 -0.1522 -0.1167
 5886WAT      O24263   4.660   1.408   7.632  0.2188  0.0880  0.1667
 5886WAT     H124264   4.646   1.490   7.604 -1.4047 -0.0217  0.5222
 5886WAT     H224265   4.717   1.418   7.697 -0.4706  1.0407  0.6527
 5886WAT    EPW24266   4.666   1.422   7.637 -0.1228  0.2125  0.2910
 5887WAT      O24267   4.866   1.006   1.034  0.3749  0.4994  0.1816
 5887WAT     H124268   4.807   1.026   1.095  1.5155  0.8687  1.1957
 5887WAT     H224269   4.896   0.928   1.060  2.1189  1.4292  1.1426
 5887WAT    EPW24270   4.862   0.998   1.047  0.8010  0.6913  0.4733
 5888WAT      O24271   4.270   2.728   0.671 -0.0630  0.4356 -0.0587
 5888WAT     H124272   4.236   2.806   0.690  1.6268  1.7469 -2.0293
 5888WAT     H224273   4.225   2.702   0.601  1.0612  0.9099 -0.9942
 5888WAT    EPW24274   4.259   2.736   0.664  0.3527  0.6994 -0.4880
 5889WAT      O24275   6.383   2.353   0.495 -0.4661  0.4739  0.1019
 5889WAT     H124276   6.431   2.406   0.545 -0.4010 -1.0582  1.7742
 5889WAT     H224277   6.313   2.337   0.544  0.7764 -3.1336  0.9406
 5889WAT    EPW24278   6.380   2.359   0.509 -0.2730 -0.2853  0.4728
 5890WAT      O24279   4.479   1.234   0.914 -0.0037  0.0448  0.2811
 5890WAT     H124280   4.497   1.152   0.938 -0.3925  0.2636  1.3672
 5890WAT     H224281   4.480   1.230   0.827  0.3357 -1.0305  0.3149
 5890WAT    EPW24282   4.482   1.221   0.905 -0.0110 -0.0817  0.4466
 5891WAT      O24283   4.891   1.206   0.041  0.0906 -0.2584  0.3992
 5891WAT     H124284   4.906   1.138  -0.012 -0.0144 -0.7134  0.9480
 5891WAT     H224285   4.967   1.218   0.081  0.2289  0.2181 -0.0012
 5891WAT    EPW24286   4.904   1.198   0.039  0.0955 -0.2552  0.4211
 5892WAT      O24287   5.237   0.093   0.157  0.3715  0.0127  0.3039
 5892WAT     H124288   5.162   0.136   0.145  0.1181 -0.5211 -0.0823
 5892WAT     H224289   5.297   0.145   0.121  0.3460  0.9167  1.4861
 5892WAT    EPW24290   5.235   0.107   0.150  0.3303  0.0674  0.4215
 5893WAT      O24291   6.059   3.423   0.373 -0.4402  0.4086  0.5614
 5893WAT     H124292   6.098   3.346   0.388 -0.4214  0.2652 -0.1837
 5893WAT     H224293   5.996   3.426   0.432  0.0992  0.2071  1.1604
 5893WAT    EPW24294   6.056   3.412   0.384 -0.3578  0.3576  0.5398
 5894WAT      O24295   3.115   1.624   1.929 -0.0740 -0.1146 -0.8239
 5894WAT     H124296   3.188   1.585   1.957  1.6059  2.7026 -0.8682
 5894WAT     H224297   3.136   1.650   1.848 -1.1236  0.7548 -0.8361
 5894WAT    EPW24298   3.129   1.622   1.921  0.0191  0.4300 -0.8322
 5895WAT      O24299   5.953   1.510   1.529 -0.1154  0.0572 -0.7122
 5895WAT     H124300   5.986   1.496   1.608 -0.9541 -0.1892 -0.3930
 5895WAT     H224301   5.982   1.590   1.508  0.2434  0.0580 -0.2260
 5895WAT    EPW24302   5.962   1.520   1.538 -0.1863  0.0209 -0.5932
 5896WAT      O24303   4.581   2.099   0.284  0.3104  0.6474 -0.1894
 5896WAT     H124304   4.640   2.083   0.222 -0.4749 -2.0190 -0.3647
 5896WAT     H224305   4.594   2.036   0.343 -0.9161  1.3308  0.8731
 5896WAT    EPW24306   4.591   2.088   0.284  0.0132  0.3545 -0.0584
 5897WAT      O24307   5.941   3.428   0.980  0.1746  0.4472  0.0763
 5897WAT     H124308   5.899   3.491   1.022  0.4747  0.4176  0.4299
 5897WAT     H224309   6.007   3.470   0.940  0.3364  0.3711  0.2597
 5897WAT    EPW24310   5.945   3.443   0.980  0.2428  0.4316  0.1557
 5898WAT      O24311   6.056   1.940   1.327  0.5615 -0.2763 -0.1206
 5898WAT     H124312   6.036   2.022   1.349  1.7459  0.2221 -0.7924
 5898WAT     H224313   6.018   1.930   1.249  0.1767 -0.4715  0.0896
 5898WAT    EPW24314   6.048   1.951   1.318  0.6796 -0.2315 -0.1888
 5899WAT      O24315   5.089   3.015   3.673  0.0946  0.7465 -0.4002
 5899WAT     H124316   5.006   2.988   3.674 -0.1440  1.1520 -2.8984
 5899WAT     H224317   5.122   2.984   3.747 -2.0867 -0.0896  0.2793
 5899WAT    EPW24318   5.082   3.007   3.684 -0.2629  0.6829 -0.6688
 5900WAT      O24319   6.859   0.734   0.387 -0.5046 -0.1155 -0.1325
 5900WAT     H124320   6.891   0.653   0.387  0.1457 -0.1583  4.5100
 5900WAT     H224321   6.930   0.785   0.379 -0.6481  0.0010 -0.7340
 5900WAT    EPW24322   6.874   0.730   0.386 -0.4298 -0.1046  0.4644
 5901WAT      O24323   3.189   2.628   0.674 -0.2133 -0.3053 -0.2821
 5901WAT     H124324   3.163   2.711   0.670 -0.1680 -0.2856 -0.1651
 5901WAT     H224325   3.262   2.631   0.722  1.7003  0.0774 -2.9221
 5901WAT    EPW24326   3.196   2.640   0.680  0.0760 -0.2459 -0.6548
 5902WAT      O24327   3.783   2.494   2.437  0.3004 -0.1256 -0.5487
 5902WAT     H124328   3.788   2.557   2.498 -0.7350 -0.2923 -0.2651
 5902WAT     H224329   3.708   2.453   2.456  0.4104 -0.7577 -1.3989
 5902WAT    EPW24330   3.772   2.497   2.449  0.1637 -0.2436 -0.6324
 5903WAT      O24331   3.968   2.771   7.853 -0.4423  0.6176  0.6466
 5903WAT     H124332   3.995   2.783   7.935  1.0307  1.0655  0.1289
 5903WAT     H224333   3.989   2.845   7.813  0.6023 -0.2708 -0.5556
 5903WAT    EPW24334   3.975   2.784   7.859 -0.0704  0.5525  0.3926
 5904WAT      O24335   3.407   0.817   0.079  0.0943  0.2052  0.1798
 5904WAT     H124336   3.431   0.791  -0.001  0.5998 -0.0674  0.4172
 5904WAT     H224337   3.481   0.848   0.113  0.0400 -0.3758  0.8239
 5904WAT    EPW24338   3.421   0.818   0.072  0.1609  0.0791  0.3100
 5905WAT      O24339   4.276   2.934   2.078 -0.7102  0.0604 -0.5624
 5905WAT     H124340   4.207   2.971   2.116 -1.6126 -1.4013 -0.7092
 5905WAT     H224341   4.322   2.904   2.146  0.5055  2.1350 -0.3822
 5905WAT    EPW24342   4.273   2.935   2.094 -0.6639  0.1509 -0.5575
 5906WAT      O24343   4.983   1.916   1.519  0.6526 -0.6446 -0.2357
 5906WAT     H124344   4.968   1.851   1.464  0.1399 -0.9107  0.2033
 5906WAT     H224345   5.027   1.975   1.472  0.1332 -0.8232 -0.9455
 5906WAT    EPW24346   4.987   1.915   1.504  0.5001 -0.7103 -0.2757
 5907WAT      O24347   3.452   1.900   2.204  0.3504 -0.3533 -0.1054
 5907WAT     H124348   3.430   1.977   2.168  3.8849  0.9290  0.1288
 5907WAT     H224349   3.424   1.842   2.145 -2.1071  1.0225 -0.4635
 5907WAT    EPW24350   3.444   1.903   2.190  0.5095  0.0394 -0.1237
 5908WAT      O24351   5.016   4.033   7.625  0.1082  0.1212  0.2337
 5908WAT     H124352   5.068   4.030   7.695  0.8769 -1.6611 -0.3365
 5908WAT     H224353   4.938   4.053   7.658  0.4072 -0.8461  1.6263
 5908WAT    EPW24354   5.012   4.036   7.640  0.2659 -0.2850  0.3552
 5909WAT      O24355   3.958   2.885   1.868  0.3985  0.6639  0.0950
 5909WAT     H124356   4.022   2.944   1.857 -0.7976  1.9261 -0.2653
 5909WAT     H224357   3.921   2.909   1.943  0.8008 -0.5314  0.6988
 5909WAT    EPW24358   3.962   2.897   1.877  0.2812  0.6738  0.1310
 5910WAT      O24359   5.807   2.398   3.218  0.1114 -0.0735  0.0701
 5910WAT     H124360   5.737   2.429   3.260  0.1407 -0.4767  0.4231
 5910WAT     H224361   5.858   2.469   3.208 -1.1371  0.6141 -1.8479
 5910WAT    EPW24362   5.804   2.413   3.223 -0.0687 -0.0315 -0.1611
 5911WAT      O24363   5.682   2.366   7.185  0.0116 -0.4334  0.2637
 5911WAT     H124364   5.605   2.329   7.207 -0.2919  0.9433  1.7409
 5911WAT     H224365   5.672   2.385   7.101 -1.8384  0.9112  0.7198
 5911WAT    EPW24366   5.669   2.363   7.176 -0.3065 -0.0314  0.5493
 5912WAT      O24367   3.736   2.328   0.727 -0.1249  0.3572  0.2168
 5912WAT     H124368   3.745   2.362   0.647  0.9308  1.5190  0.8009
 5912WAT     H224369   3.772   2.249   0.720 -0.7806  0.1172 -0.6478
 5912WAT    EPW24370   3.742   2.322   0.714 -0.0658  0.4933  0.1754
 5913WAT      O24371   4.071   0.820   1.415 -0.3733  0.0202  0.4829
 5913WAT     H124372   4.049   0.860   1.490 -0.0624  1.3996 -0.1253
 5913WAT     H224373   4.020   0.858   1.356 -0.5094 -0.9523 -0.0438
 5913WAT    EPW24374   4.061   0.832   1.417 -0.3474  0.0803  0.3153
 5914WAT      O24375   3.728   4.937   1.833  0.0405 -0.1151  0.0344
 5914WAT     H124376   3.643   4.951   1.848 -0.2166  1.9754 -2.5912
 5914WAT     H224377   3.729   4.893   1.758  1.3239 -1.4353  0.7589
 5914WAT    EPW24378   3.716   4.933   1.824  0.1921 -0.0013 -0.2464
 5915WAT      O24379   5.250   2.656   0.727 -0.4217 -0.2947  0.2814
 5915WAT     H124380   5.323   2.611   0.746  1.2659  2.0502 -0.3003
 5915WAT     H224381   5.242   2.646   0.641  0.3070  0.9332  0.0514
 5915WAT    EPW24382   5.260   2.648   0.717 -0.0648  0.2331  0.1615
 5916WAT      O24383   5.306   0.578   7.733  0.2228 -0.3493  0.1729
 5916WAT     H124384   5.294   0.650   7.685 -0.1871 -1.3015 -1.2173
 5916WAT     H224385   5.295   0.513   7.675  2.1376 -1.5062  1.0177
 5916WAT    EPW24386   5.303   0.579   7.717  0.4451 -0.6609  0.0924
 5917WAT      O24387   4.670   2.234   0.698 -0.2425  0.3910  0.2565
 5917WAT     H124388   4.724   2.269   0.758  0.4543  0.5843 -0.4660
 5917WAT     H224389   4.653   2.300   0.644  0.8991 -0.2889 -0.9864
 5917WAT    EPW24390   4.676   2.249   0.699  0.0291  0.3191 -0.0338
 5918WAT      O24391   4.579   7.534   0.270 -0.1779  0.8439  0.2623
 5918WAT     H124392   4.640   7.484   0.308 -1.3390 -1.7098 -0.9781
 5918WAT     H224393   4.587   7.517   0.185 -0.0658  3.5702 -0.3771
 5918WAT    EPW24394   4.589   7.524   0.263 -0.3329  0.8694 -0.0154
 5919WAT      O24395   4.973   2.329   0.183  0.9150 -0.3647  0.2578
 5919WAT     H124396   4.927   2.264   0.149  0.9704 -0.1663 -0.2053
 5919WAT     H224397   4.964   2.393   0.125 -1.9569  1.2511  2.2316
 5919WAT    EPW24398   4.965   2.329   0.170  0.4989 -0.0967  0.4809
 5920WAT      O24399   4.273   3.166   1.070 -0.7928  0.0220  0.3956
 5920WAT     H124400   4.313   3.105   1.119 -0.9682 -0.2705  0.1783
 5920WAT     H224401   4.312   3.159   0.992  0.2795  1.2622  0.7835
 5920WAT    EPW24402   4.284   3.156   1.066 -0.6603  0.1620  0.4208
 5921WAT      O24403   2.962   0.820   1.414  0.1276 -0.0794  0.3943
 5921WAT     H124404   3.033   0.775   1.439 -0.6113 -1.3415  0.3249
 5921WAT     H224405   2.978   0.838   1.330 -0.1385 -1.4408  0.0256
 5921WAT    EPW24406   2.975   0.816   1.405 -0.0209 -0.4669  0.3296
 5922WAT      O24407   4.257   2.785   1.551 -0.1366 -0.0105  0.3745
 5922WAT     H124408   4.257   2.871   1.539 -0.3569  0.0659  0.8895
 5922WAT     H224409   4.317   2.756   1.495 -0.2350  0.4503  0.0249
 5922WAT    EPW24410   4.266   2.793   1.541 -0.1837  0.0688  0.3989
 5923WAT      O24411   4.546   1.611   0.327 -0.0282  0.4523  0.5199
 5923WAT     H124412   4.497   1.550   0.364 -0.9756  1.2879  0.6917
 5923WAT     H224413   4.492   1.679   0.320  0.1274  0.4242 -2.2008
 5923WAT    EPW24414   4.531   1.612   0.331 -0.1452  0.5716  0.1434
 5924WAT      O24415   6.386   3.508   0.977 -0.3848  0.1882 -0.3578
 5924WAT     H124416   6.430   3.441   1.013  0.6551  2.0103  2.0718
 5924WAT     H224417   6.449   3.555   0.939 -0.7291  1.0139  0.0747
 5924WAT    EPW24418   6.402   3.505   0.977 -0.2820  0.5793  0.0650
 5925WAT      O24419   6.137   2.127   7.508 -0.2930 -0.2644 -0.5652
 5925WAT     H124420   6.169   2.132   7.427  2.9821 -2.3725  0.3883
 5925WAT     H224421   6.158   2.204   7.544 -1.3282  0.4879 -1.5016
 5925WAT    EPW24422   6.145   2.139   7.502  0.0379 -0.4647 -0.5627
 5926WAT      O24423   4.493   1.251   2.184 -0.2712  0.6930  0.2563
 5926WAT     H124424   4.541   1.232   2.254 -1.7017  0.4735  1.2312
 5926WAT     H224425   4.546   1.235   2.117  0.7695 -0.2210  1.2579
 5926WAT    EPW24426   4.508   1.246   2.185 -0.3288  0.5255  0.5482
 5927WAT      O24427   5.381   1.382   1.093  0.6127 -0.4288  0.3945
 5927WAT     H124428   5.416   1.460   1.075  2.4388 -1.5910 -1.7137
 5927WAT     H224429   5.299   1.389   1.064  0.9680  0.5065 -0.4705
 5927WAT    EPW24430   5.374   1.394   1.086  0.9349 -0.4623 -0.0447
 5928WAT      O24431   4.420   3.198   0.832  0.5050  0.1705 -0.0306
 5928WAT     H124432   4.472   3.261   0.800 -0.6672  0.8520 -0.6522
 5928WAT     H224433   4.449   3.126   0.793  0.0108  0.7775 -1.5949
 5928WAT    EPW24434   4.432   3.197   0.821  0.2588  0.3609 -0.3535
 5929WAT      O24435   2.967   2.729   2.378 -0.3430  0.1992  0.1522
 5929WAT     H124436   2.915   2.796   2.399 -0.6975  0.2955 -0.9637
 5929WAT     H224437   2.912   2.662   2.372 -0.1674  0.0573  0.1490
 5929WAT    EPW24438   2.951   2.729   2.380 -0.3694  0.1924 -0.0131
 5930WAT      O24439   4.228   1.592   1.155 -0.0691  0.5595  0.3548
 5930WAT     H124440   4.235   1.678   1.140 -0.1819  0.4018 -0.7129
 5930WAT     H224441   4.143   1.575   1.141 -0.0025  0.2339  0.3272
 5930WAT    EPW24442   4.216   1.602   1.151 -0.0759  0.4881  0.1930
 5931WAT      O24443   5.682   3.752   0.745 -0.2542  0.3159 -0.1158
 5931WAT     H124444   5.648   3.783   0.671 -0.8415  3.3206  1.2595
 5931WAT     H224445   5.614   3.716   0.785 -0.5709  1.1023  0.0810
 5931WAT    EPW24446   5.667   3.751   0.740 -0.3878  0.8759  0.1164
 5932WAT      O24447   6.508   3.872   1.342 -0.0513  0.4113 -0.6602
 5932WAT     H124448   6.502   3.958   1.352  1.0893  0.2763  1.9172
 5932WAT     H224449   6.432   3.850   1.304 -0.6235  2.4363 -0.7899
 5932WAT    EPW24450   6.496   3.881   1.338  0.0327  0.6905 -0.2986
 5933WAT      O24451   5.478   2.390   2.677  0.1068 -0.2569  0.1082
 5933WAT     H124452   5.462   2.337   2.744  1.8277 -0.2930  0.5361
 5933WAT     H224453   5.495   2.467   2.714  1.0430 -0.2659 -0.2801
 5933WAT    EPW24454   5.478   2.394   2.692  0.4993 -0.2636  0.1140
 5934WAT      O24455   5.774   0.931   3.269  0.4913 -0.3327 -0.4321
 5934WAT     H124456   5.729   0.998   3.237 -0.8104 -1.9661 -2.2408
 5934WAT     H224457   5.742   0.921   3.350 -1.1759 -0.3579 -1.0558
 5934WAT    EPW24458   5.763   0.940   3.276  0.0527 -0.5777 -0.7914
 5935WAT      O24459   2.531   1.201   1.513  0.2716 -0.2848  0.1367
 5935WAT     H124460   2.455   1.194   1.471  0.5866 -0.1324 -0.4710
 5935WAT     H224461   2.586   1.232   1.452  0.5077  0.9041  0.9349
 5935WAT    EPW24462   2.528   1.204   1.498  0.3530 -0.0867  0.1649
 5936WAT      O24463   6.787   1.835   0.188  0.2965  0.3356 -0.0875
 5936WAT     H124464   6.866   1.850   0.156  0.2770  2.4422  0.6739
 5936WAT     H224465   6.796   1.850   0.273 -0.8446  0.3105  0.0577
 5936WAT    EPW24466   6.800   1.840   0.196  0.1250  0.6431  0.0464
 5937WAT      O24467   4.867   1.481   3.127 -0.0865  0.2322  0.0549
 5937WAT     H124468   4.852   1.557   3.168 -1.2619 -0.1480  0.3808
 5937WAT     H224469   4.945   1.457   3.157 -1.4777 -0.7682  3.3700
 5937WAT    EPW24470   4.876   1.489   3.137 -0.4656  0.0283  0.5928
 5938WAT      O24471   4.402   3.090   0.511  0.5684  0.1740 -0.2877
 5938WAT     H124472   4.348   3.157   0.526  1.8428  1.0237  0.8014
 5938WAT     H224473   4.352   3.032   0.470 -0.6343  1.7079 -1.0959
 5938WAT    EPW24474   4.386   3.092   0.507  0.5790  0.5261 -0.2462
 5939WAT      O24475   4.230   1.982   0.498  0.2900  0.3380 -0.5132
 5939WAT     H124476   4.261   1.972   0.579 -0.1215  0.1922 -0.3674
 5939WAT     H224477   4.194   1.904   0.480  1.2517  0.0426 -1.2232
 5939WAT    EPW24478   4.229   1.969   0.507  0.3712  0.2728 -0.5965
 5940WAT      O24479   3.138   2.936   1.625  0.0467  0.2913  0.1660
 5940WAT     H124480   3.056   2.955   1.650 -0.0343 -0.2263  0.3032
 5940WAT     H224481   3.145   2.975   1.547  0.4800  2.3901  1.1919
 5940WAT    EPW24482   3.127   2.945   1.617  0.0987  0.5249  0.3378
 5941WAT      O24483   5.102   1.159   0.558 -0.4670 -0.5705  0.2847
 5941WAT     H124484   5.188   1.142   0.559 -0.3982 -0.2194  0.7187
 5941WAT     H224485   5.070   1.098   0.504  0.0013 -0.9591  0.4328
 5941WAT    EPW24486   5.110   1.147   0.550 -0.3876 -0.5760  0.3707
 5942WAT      O24487   4.531   7.578   1.369  0.2805 -0.4714  0.5384
 5942WAT     H124488   4.479   7.605   1.433 -1.8377  0.7265 -1.5287
 5942WAT     H224489   4.489   7.602   1.297  1.6802 -3.2998 -1.3982
 5942WAT    EPW24490   4.517   7.586   1.368  0.1744 -0.7122 -0.0530
 5943WAT      O24491   4.322   0.765   0.168 -0.7041  0.9442 -0.2247
 5943WAT     H124492   4.339   0.820   0.103 -0.1182  0.1663 -0.7451
 5943WAT     H224493   4.382   0.785   0.228  0.5544 -0.1658 -1.0643
 5943WAT    EPW24494   4.333   0.776   0.167 -0.4316  0.6653 -0.4256
 5944WAT      O24495   5.182   0.495   0.300 -0.5337 -0.4765 -0.2150
 5944WAT     H124496   5.226   0.533   0.365  1.4283 -1.3648 -0.9293
 5944WAT     H224497   5.244   0.478   0.240 -1.6697 -2.6771 -0.8965
 5944WAT    EPW24498   5.198   0.498   0.300 -0.4117 -0.9328 -0.4212
 5945WAT      O24499   4.587   2.263   2.947 -0.3504 -0.5248 -0.5387
 5945WAT     H124500   4.571   2.178   2.936  0.9947 -0.9360  0.4584
 5945WAT     H224501   4.671   2.271   2.925 -0.4121  0.5270 -0.4371
 5945WAT    EPW24502   4.597   2.252   2.942 -0.1608 -0.4302 -0.3764
 5946WAT      O24503   6.526   0.104   7.280 -0.2186 -0.0345  0.2402
 5946WAT     H124504   6.450   0.065   7.299 -1.1704  1.1219 -1.0212
 5946WAT     H224505   6.505   0.160   7.216  1.6940  0.3505 -0.1021
 5946WAT    EPW24506   6.511   0.107   7.273 -0.0767  0.1932  0.0033
 5947WAT      O24507   6.859   2.877   7.692  0.4993 -0.5968  0.1690
 5947WAT     H124508   6.918   2.817   7.671  1.3439  0.2277  0.1291
 5947WAT     H224509   6.890   2.911   7.767  1.7395  1.9059 -1.3506
 5947WAT    EPW24510   6.872   2.873   7.700  0.8072 -0.1053 -0.0614
 5948WAT      O24511   4.253   1.875   1.205 -0.3953 -0.3696 -0.0561
 5948WAT     H124512   4.316   1.911   1.254  0.7534  0.1134 -1.8124
 5948WAT     H224513   4.206   1.943   1.179 -0.5594 -0.5512 -0.2369
 5948WAT    EPW24514   4.256   1.890   1.208 -0.2498 -0.3251 -0.3423
 5949WAT      O24515   4.130   1.824   0.096  0.3773 -0.0223 -0.1479
 5949WAT     H124516   4.184   1.820   0.165  1.6396 -0.1591 -1.1177
 5949WAT     H224517   4.112   1.909   0.090  1.1885  0.1449 -0.3279
 5949WAT    EPW24518   4.135   1.836   0.106  0.6836 -0.0178 -0.3178
 5950WAT      O24519   4.984   0.749   0.672 -0.2308 -0.1365  0.3666
 5950WAT     H124520   4.929   0.793   0.724  2.8937  1.8295  2.4183
 5950WAT     H224521   4.990   0.671   0.709 -0.5996  0.1030  0.9441
 5950WAT    EPW24522   4.977   0.744   0.685  0.1763  0.1893  0.7550
 5951WAT      O24523   6.441   2.560   2.329  0.1478 -0.2292  0.0996
 5951WAT     H124524   6.358   2.565   2.354  0.3072 -1.0964  0.8446
 5951WAT     H224525   6.486   2.574   2.402  0.6476 -0.8072 -0.0886
 5951WAT    EPW24526   6.435   2.563   2.343  0.2452 -0.4427  0.1818
 5952WAT      O24527   5.271   7.595   7.327  0.3157  0.4487  0.0296
 5952WAT     H124528   5.238   7.676   7.331 -0.1748  0.3531 -1.3860
 5952WAT     H224529   5.353   7.605   7.355  0.9430  1.8933 -2.0166
 5952WAT    EPW24530   5.278   7.609   7.332  0.3359  0.6480 -0.4818
 5953WAT      O24531   4.691   3.026   0.784 -0.1019 -0.3560 -0.0103
 5953WAT     H124532   4.682   2.992   0.705 -0.0511 -1.4680  0.4395
 5953WAT     H224533   4.693   3.112   0.770  1.5580 -0.5717 -1.3740
 5953WAT    EPW24534   4.690   3.033   0.770  0.1508 -0.5522 -0.1453
 5954WAT      O24535   4.547   2.409   0.978 -0.5601  0.1591  0.0248
 5954WAT     H124536   4.518   2.429   0.899 -0.0127 -1.8833 -0.7606
 5954WAT     H224537   4.550   2.321   0.978 -1.2944  0.0248  2.5765
 5954WAT    EPW24538   4.543   2.399   0.967 -0.5877 -0.1625  0.2857
 5955WAT      O24539   5.498   2.300   1.947  0.1101 -0.2445  0.0817
 5955WAT     H124540   5.485   2.272   1.866  1.8074  0.3584 -0.4444
 5955WAT     H224541   5.507   2.386   1.939 -2.8085  0.3089  1.3812
 5955WAT    EPW24542   5.498   2.308   1.934 -0.0703 -0.0737  0.1960
 5956WAT      O24543   5.134   1.731   1.167  0.8720  0.0123 -0.9867
 5956WAT     H124544   5.214   1.697   1.181  0.8128 -0.5297 -1.8948
 5956WAT     H224545   5.151   1.808   1.131  0.9984 -0.0056 -0.9657
 5956WAT    EPW24546   5.149   1.737   1.164  0.8819 -0.0704 -1.1177
 5957WAT      O24547   3.169   2.825   1.894  0.1863 -0.1836  0.1827
 5957WAT     H124548   3.157   2.865   1.818 -0.9882  2.5051  1.6580
 5957WAT     H224549   3.088   2.818   1.926  0.7661  0.0591  1.7831
 5957WAT    EPW24550   3.155   2.830   1.887  0.0984  0.2494  0.6371
 5958WAT      O24551   5.767   0.790   7.389  0.4620  0.2490 -0.1505
 5958WAT     H124552   5.772   0.707   7.413  0.1484  0.2220 -0.1754
 5958WAT     H224553   5.728   0.787   7.311 -0.3432  0.4758  0.2340
 5958WAT    EPW24554   5.762   0.778   7.381  0.2967  0.2785 -0.0974
 5959WAT      O24555   4.399   1.440   2.918 -0.6868 -0.0254 -0.3142
 5959WAT     H124556   4.407   1.492   2.849 -0.5934  0.0819 -0.2227
 5959WAT     H224557   4.382   1.495   2.984  0.8369  0.0535  0.0637
 5959WAT    EPW24558   4.398   1.455   2.918 -0.4479  0.0021 -0.2448
 5960WAT      O24559   5.179   2.218   0.616 -0.4181 -0.5253  0.1790
 5960WAT     H124560   5.153   2.135   0.620 -1.5767 -0.1704  0.6692
 5960WAT     H224561   5.197   2.238   0.699 -1.4020  0.0599  0.2760
 5960WAT    EPW24562   5.178   2.209   0.629 -0.7346 -0.3864  0.2658
 5961WAT      O24563   5.148   1.785   1.715  0.3494  0.0180 -0.1688
 5961WAT     H124564   5.111   1.816   1.787  0.1923 -0.4307 -0.0528
 5961WAT     H224565   5.106   1.825   1.650 -1.0756 -1.2530 -0.0772
 5961WAT    EPW24566   5.136   1.795   1.716  0.1157 -0.2360 -0.1382
 5962WAT      O24567   6.662   7.545   1.290 -0.6157 -0.0542  0.0555
 5962WAT     H124568   6.606   7.602   1.325  0.2912  1.1962 -0.4262
 5962WAT     H224569   6.723   7.596   1.255  1.2821 -1.3479  1.2670
 5962WAT    EPW24570   6.663   7.561   1.290 -0.2014 -0.0606  0.1633
 5963WAT      O24571   4.729   1.000   1.477  0.4294 -0.0776  0.3751
 5963WAT     H124572   4.676   0.984   1.544 -0.0397  0.7949  0.2373
 5963WAT     H224573   4.749   1.085   1.487 -1.3088  0.6784 -1.6852
 5963WAT    EPW24574   4.724   1.010   1.488  0.1033  0.1630  0.0504
 5964WAT      O24575   3.574   2.730   1.700  0.2878 -0.2041 -0.0592
 5964WAT     H124576   3.585   2.813   1.725  0.0413 -0.5769  1.3566
 5964WAT     H224577   3.608   2.728   1.620  0.4410  1.2274 -0.0473
 5964WAT    EPW24578   3.580   2.742   1.692  0.2740 -0.0477  0.1517
 5965WAT      O24579   7.094   2.625   0.766  0.1726  0.0180  0.1001
 5965WAT     H124580   7.107   2.543   0.736  1.1917 -0.0994  0.8155
 5965WAT     H224581   7.022   2.650   0.724  0.1816 -1.0297 -0.6003
 5965WAT    EPW24582   7.085   2.616   0.755  0.3244 -0.1541  0.1023
 5966WAT      O24583   3.338   2.794   1.235  0.7229 -0.3933  0.3603
 5966WAT     H124584   3.412   2.749   1.241  0.9205 -0.0914  0.2474
 5966WAT     H224585   3.330   2.809   1.149  0.0876 -1.1443  0.2790
 5966WAT    EPW24586   3.348   2.790   1.223  0.6583 -0.4596  0.3316
 5967WAT      O24587   6.091   0.889   7.606 -0.4069 -0.5722 -0.3861
 5967WAT     H124588   6.105   0.845   7.680  1.1294 -2.0451 -1.4708
 5967WAT     H224589   6.171   0.917   7.584 -1.1093  1.4090 -0.6006
 5967WAT    EPW24590   6.105   0.887   7.614 -0.2837 -0.4971 -0.5780
 5968WAT      O24591   7.097   3.587   0.758  0.1851  0.0780  0.2427
 5968WAT     H124592   7.144   3.514   0.760 -2.3715 -1.7380 -0.2259
 5968WAT     H224593   7.098   3.615   0.841 -0.2359 -1.5421  0.8224
 5968WAT    EPW24594   7.104   3.581   0.771 -0.2547 -0.4296  0.2591
 5969WAT      O24595   6.142   1.493   0.285 -0.2553  0.7294 -0.3038
 5969WAT     H124596   6.215   1.465   0.245 -0.2410  1.0249 -0.4883
 5969WAT     H224597   6.171   1.517   0.364 -0.1967  0.5959 -0.2855
 5969WAT    EPW24598   6.157   1.493   0.291 -0.2445  0.7533 -0.3284
 5970WAT      O24599   4.934   2.957   1.088  0.4084  0.0057 -0.6759
 5970WAT     H124600   4.922   3.030   1.042 -1.5238  0.1493 -0.0612
 5970WAT     H224601   4.868   2.906   1.063  0.1814 -0.4904  0.7945
 5970WAT    EPW24602   4.922   2.960   1.078  0.0894 -0.0464 -0.3679
 5971WAT      O24603   4.857   2.340   2.897  0.1981 -0.0295 -0.4367
 5971WAT     H124604   4.836   2.408   2.847 -1.8149  0.2939  0.7561
 5971WAT     H224605   4.874   2.276   2.839 -0.3286  0.7997 -1.5344
 5971WAT    EPW24606   4.857   2.340   2.881 -0.1771  0.1407 -0.4227
 5972WAT      O24607   5.000   7.001   7.542  0.0376 -0.1252  0.9562
 5972WAT     H124608   4.941   6.979   7.602 -2.1699  0.9891 -0.6394
 5972WAT     H224609   5.020   6.925   7.504 -1.2059 -0.4299  0.8621
 5972WAT    EPW24610   4.994   6.986   7.545 -0.4722 -0.0056  0.7066
 5973WAT      O24611   4.414   2.138   0.685  0.0150  0.0474 -0.3020
 5973WAT     H124612   4.495   2.165   0.705  1.3803 -1.0155 -3.6911
 5973WAT     H224613   4.381   2.204   0.638 -0.5183 -0.1357 -0.1923
 5973WAT    EPW24614   4.421   2.152   0.681  0.1379 -0.1367 -0.7864
 5974WAT      O24615   5.159   3.096   2.235 -0.5098 -0.5183  0.0920
 5974WAT     H124616   5.103   3.049   2.189  0.7040 -2.1228  0.1750
 5974WAT     H224617   5.148   3.067   2.317  0.2704 -0.6882  0.1413
 5974WAT    EPW24618   5.149   3.085   2.241 -0.2152 -0.7804  0.1116
 5975WAT      O24619   3.784   1.731   7.639  0.3141 -0.8026  0.0723
 5975WAT     H124620   3.696   1.732   7.637  0.3055  0.1042  0.3342
 5975WAT     H224621   3.806   1.751   7.557  0.2176  2.2853  0.6780
 5975WAT    EPW24622   3.774   1.734   7.627  0.2986 -0.2125  0.2005
 5976WAT      O24623   4.306   2.511   7.802  0.4938  0.2791  0.0457
 5976WAT     H124624   4.384   2.473   7.791  0.6845  1.2661 -3.5011
 5976WAT     H224625   4.277   2.477   7.876  3.0337 -2.4105  0.0253
 5976WAT    EPW24626   4.313   2.500   7.811  0.8972  0.0276 -0.4813
 5977WAT      O24627   3.763   2.762   1.491 -0.3161  0.1277 -0.3572
 5977WAT     H124628   3.835   2.737   1.533 -0.4875  0.1009 -0.0759
 5977WAT     H224629   3.776   2.847   1.477 -0.7438  0.3886  0.7516
 5977WAT    EPW24630   3.776   2.771   1.495 -0.4046  0.1623 -0.1519
 5978WAT      O24631   4.770   0.435   5.428  0.3646 -0.4623  0.2103
 5978WAT     H124632   4.844   0.392   5.411  0.5149 -0.3410  0.5270
 5978WAT     H224633   4.711   0.396   5.377  0.5167 -0.9752  0.4159
 5978WAT    EPW24634   4.772   0.423   5.418  0.4093 -0.5201  0.2874
 5979WAT      O24635   6.014   7.549   5.700 -0.0815 -0.4507 -0.2250
 5979WAT     H124636   6.019   7.500   5.628 -2.1084  1.3977 -1.7424
 5979WAT     H224637   6.022   7.631   5.671 -1.4251  0.3938  1.5742
 5979WAT    EPW24638   6.016   7.554   5.685 -0.5794 -0.0529 -0.1834
 5980WAT      O24639   3.028   6.797   4.847 -0.6090 -0.4505 -0.3221
 5980WAT     H124640   3.047   6.881   4.834  0.9831 -0.7660 -0.2956
 5980WAT     H224641   3.009   6.766   4.768 -2.9754  0.2770 -0.1190
 5980WAT    EPW24642   3.028   6.805   4.834 -0.7234 -0.3896 -0.2882
 5981WAT      O24643   4.648   0.123   5.521  0.5614 -0.3142 -0.2013
 5981WAT     H124644   4.640   0.182   5.458 -0.5317 -0.3534 -0.1249
 5981WAT     H224645   4.715   0.073   5.496  0.7051  0.2152 -0.8736
 5981WAT    EPW24646   4.657   0.124   5.508  0.4211 -0.2418 -0.2893
 5982WAT      O24647   4.480   0.158   6.634 -0.2600 -0.9410 -0.1437
 5982WAT     H124648   4.471   0.124   6.713 -0.7038  0.1251  0.2847
 5982WAT     H224649   4.561   0.189   6.634 -0.7429  0.3883  0.4569
 5982WAT    EPW24650   4.491   0.157   6.645 -0.3969 -0.5871  0.0083
 5983WAT      O24651   3.590   7.321   7.163 -0.1145 -0.4175 -0.4763
 5983WAT     H124652   3.649   7.345   7.103 -1.6050 -1.4327 -2.4809
 5983WAT     H224653   3.576   7.394   7.209  0.8401  0.4984 -1.5828
 5983WAT    EPW24654   3.597   7.336   7.161 -0.1937 -0.4322 -0.9359
 5984WAT      O24655   4.591   0.290   7.133 -0.7693 -0.6233  0.6011
 5984WAT     H124656   4.648   0.356   7.137 -0.8441 -0.6081  1.8798
 5984WAT     H224657   4.549   0.303   7.058  0.0409  0.0932  0.2611
 5984WAT    EPW24658   4.594   0.301   7.123 -0.6607 -0.5152  0.7397
 5985WAT      O24659   2.863   0.642   7.320 -0.7109 -0.0375  0.3343
 5985WAT     H124660   2.793   0.591   7.329 -0.9419  0.5881  3.2821
 5985WAT     H224661   2.920   0.610   7.378  0.2364  1.2735  0.1889
 5985WAT    EPW24662   2.861   0.630   7.330 -0.6051  0.2485  0.7483
 5986WAT      O24663   5.002   0.781   0.086 -0.0313  0.1046  0.0059
 5986WAT     H124664   5.084   0.782   0.118  0.9016 -0.0853 -2.2019
 5986WAT     H224665   4.978   0.698   0.092  0.1671  0.0570  0.1478
 5986WAT    EPW24666   5.011   0.769   0.092  0.1358  0.0695 -0.2993
 5987WAT      O24667   4.100   0.357   5.777 -0.3169 -0.2351  0.5280
 5987WAT     H124668   4.174   0.313   5.792  1.0569  1.6518 -0.3009
 5987WAT     H224669   4.053   0.342   5.849  1.8133  0.3031  2.1320
 5987WAT    EPW24670   4.104   0.348   5.790  0.2007  0.1231  0.6425
 5988WAT      O24671   4.758   0.127   5.859  0.5706  0.0448 -0.2937
 5988WAT     H124672   4.712   0.200   5.846 -0.1167 -0.0271  1.4455
 5988WAT     H224673   4.780   0.132   5.944 -0.3185 -2.2232  0.1362
 5988WAT    EPW24674   4.755   0.139   5.870  0.3377 -0.3008  0.0267
 5989WAT      O24675   4.966   0.963   5.987  0.3461 -0.1650 -0.3177
 5989WAT     H124676   4.991   1.000   5.912 -1.6790 -0.8453 -1.4149
 5989WAT     H224677   4.931   0.887   5.962  0.7631 -0.9987  1.4741
 5989WAT    EPW24678   4.964   0.957   5.972  0.1086 -0.3886 -0.2151
 5990WAT      O24679   4.966   1.975   6.680  0.5520  0.5540 -0.4001
 5990WAT     H124680   5.018   1.948   6.616  1.1182  2.6974 -0.9043
 5990WAT     H224681   5.021   2.004   6.741 -0.0290  0.8000  0.0241
 5990WAT    EPW24682   4.982   1.975   6.680  0.5498  0.9069 -0.4119
 5991WAT      O24683   5.190   0.770   6.425 -0.6902  0.3968 -0.3809
 5991WAT     H124684   5.105   0.760   6.441 -0.3340  0.2537  1.7702
 5991WAT     H224685   5.192   0.804   6.345 -2.8070  1.0541 -0.2191
 5991WAT    EPW24686   5.177   0.774   6.416 -0.9503  0.4728 -0.0392
 5992WAT      O24687   4.171   0.660   6.751 -0.2830 -0.5313 -0.7082
 5992WAT     H124688   4.193   0.576   6.750 -0.1937 -0.5184 -0.1407
 5992WAT     H224689   4.101   0.663   6.802  1.3060  0.0797  1.6275
 5992WAT    EPW24690   4.164   0.648   6.758 -0.0351 -0.4391 -0.2793
 5993WAT      O24691   3.448   2.224   7.208 -0.3360  0.2982 -0.4121
 5993WAT     H124692   3.406   2.165   7.257 -0.0047 -0.8616 -1.4662
 5993WAT     H224693   3.425   2.300   7.243  0.5767 -0.4802  2.0820
 5993WAT    EPW24694   3.438   2.227   7.220 -0.1522  0.0119 -0.1994
 5994WAT      O24695   4.952   0.049   5.684  0.0309  0.4344 -0.1204
 5994WAT     H124696   4.923   0.029   5.604  0.9209 -0.8595 -0.1496
 5994WAT     H224697   4.879   0.070   5.727 -0.7293 -0.8488 -0.7191
 5994WAT    EPW24698   4.937   0.049   5.678  0.0501  0.0537 -0.2131
 5995WAT      O24699   4.726   0.392   0.186 -0.5292 -0.0416  0.0368
 5995WAT     H124700   4.657   0.400   0.239 -1.5477  0.8613 -1.3627
 5995WAT     H224701   4.694   0.410   0.107  0.9000 -1.4587 -0.9450
 5995WAT    EPW24702   4.711   0.396   0.182 -0.4686 -0.1176 -0.3150
 5996WAT      O24703   4.524   1.150   6.166  0.4370 -0.4239 -0.6019
 5996WAT     H124704   4.536   1.208   6.103 -0.0004  0.2444 -0.0804
 5996WAT     H224705   4.603   1.116   6.178  0.3433 -1.3080 -2.2020
 5996WAT    EPW24706   4.537   1.153   6.158  0.3585 -0.4558 -0.7612
 5997WAT      O24707   4.558   1.246   7.274 -0.4724 -0.0035  0.6635
 5997WAT     H124708   4.508   1.222   7.206  1.1951  2.3417 -1.6045
 5997WAT     H224709   4.639   1.238   7.243  0.2916  3.5048  1.3753
 5997WAT    EPW24710   4.563   1.241   7.259 -0.1132  0.8612  0.4336
 5998WAT      O24711   4.766   0.788   5.863  0.0157 -0.2269 -0.2256
 5998WAT     H124712   4.778   0.782   5.777 -1.2506 -2.5850 -0.3167
 5998WAT     H224713   4.682   0.811   5.870  0.3197  0.7664  0.4134
 5998WAT    EPW24714   4.755   0.791   5.851 -0.1265 -0.4285 -0.1447
 5999WAT      O24715   3.670   0.208   5.190  0.2784 -0.6701 -0.0887
 5999WAT     H124716   3.684   0.202   5.104 -0.5329  0.5211 -0.3367
 5999WAT     H224717   3.685   0.292   5.207 -0.6838 -0.6419  0.7069
 5999WAT    EPW24718   3.674   0.219   5.179  0.0164 -0.4899 -0.0078
 6000WAT      O24719   5.090   1.678   7.747 -0.3417 -0.3856  0.1640
 6000WAT     H124720   5.134   1.739   7.791 -0.1977  0.7195 -1.4269
 6000WAT     H224721   5.136   1.606   7.759 -0.3956 -0.1556  1.9146
 6000WAT    EPW24722   5.103   1.677   7.755 -0.3284 -0.1884  0.1876
 6001WAT      O24723   5.536   2.374   6.338  0.1333  0.2002  0.2494
 6001WAT     H124724   5.524   2.459   6.350 -0.7990  0.4316 -1.8941
 6001WAT     H224725   5.602   2.370   6.282 -0.2902 -0.4616 -0.2160
 6001WAT    EPW24726   5.544   2.386   6.332 -0.0670  0.1366 -0.1360
 6002WAT      O24727   4.492   0.891   5.885  0.2586 -0.5637 -0.7000
 6002WAT     H124728   4.436   0.940   5.839  1.1736 -0.0708 -1.3261
 6002WAT     H224729   4.466   0.809   5.869 -1.8415 -0.3328  1.0639
 6002WAT    EPW24730   4.480   0.886   5.876  0.0836 -0.4568 -0.5319
 6003WAT      O24731   4.127   6.956   6.618 -0.2128  0.1903  0.0363
 6003WAT     H124732   4.105   6.917   6.544  0.3095 -0.2529  0.1130
 6003WAT     H224733   4.214   6.966   6.612 -0.1490  0.0529  0.6308
 6003WAT    EPW24734   4.137   6.952   6.606 -0.1262  0.1046  0.1354
 6004WAT      O24735   4.805   7.467   0.433  0.0514  0.3639  0.2421
 6004WAT     H124736   4.813   7.553   0.442 -0.4681  0.6193 -1.4733
 6004WAT     H224737   4.871   7.445   0.380 -1.7164  0.2595 -2.0297
 6004WAT    EPW24738   4.816   7.476   0.426 -0.2865  0.3862 -0.3469
 6005WAT      O24739   3.256   2.163   6.202 -0.6005 -0.1115  0.1469
 6005WAT     H124740   3.210   2.099   6.239 -0.6859  0.0663  0.3466
 6005WAT     H224741   3.283   2.211   6.269  0.4407 -0.5803  0.0995
 6005WAT    EPW24742   3.253   2.161   6.217 -0.4593 -0.1545  0.1694
 6006WAT      O24743   4.978   0.780   7.190 -0.0699 -0.3982  0.1126
 6006WAT     H124744   4.944   0.768   7.110  2.0446 -1.2257 -0.7431
 6006WAT     H224745   4.941   0.717   7.237 -1.2553  0.0219 -0.2317
 6006WAT    EPW24746   4.968   0.769   7.185  0.0674 -0.4584 -0.0647
 6007WAT      O24747   5.477   0.478   6.241 -0.3138 -0.6051 -0.4179
 6007WAT     H124748   5.546   0.449   6.195  1.1909  1.9925  0.0234
 6007WAT     H224749   5.441   0.537   6.188  0.1959  0.8999  0.8553
 6007WAT    EPW24750   5.482   0.482   6.226 -0.0162  0.0009 -0.1646
 6008WAT      O24751   6.479   0.064   6.347 -0.0968  0.2493 -0.2810
 6008WAT     H124752   6.418   0.125   6.335  0.3235  1.0162  1.3046
 6008WAT     H224753   6.434  -0.004   6.378 -0.4100  0.1027 -1.0313
 6008WAT    EPW24754   6.464   0.063   6.350 -0.0810  0.3409 -0.1576
 6009WAT      O24755   4.013   7.349   6.725  0.1315  0.1627 -0.1381
 6009WAT     H124756   3.960   7.314   6.665  1.7442 -0.8916 -1.0253
 6009WAT     H224757   4.028   7.429   6.695 -2.6419  1.3476  1.2848
 6009WAT    EPW24758   4.008   7.356   6.712 -0.0400  0.1820 -0.0589
 6010WAT      O24759   2.626   2.201   4.911  0.1069 -0.4588  0.0063
 6010WAT     H124760   2.542   2.223   4.908  0.2749  0.1488 -1.6427
 6010WAT     H224761   2.667   2.276   4.928  0.3648 -0.5058 -0.3758
 6010WAT    EPW24762   2.620   2.215   4.913  0.1698 -0.3760 -0.2937
 6011WAT      O24763   6.025   1.241   0.323 -0.0216  0.7022 -0.6300
 6011WAT     H124764   5.947   1.258   0.360 -0.1341  0.6000 -0.8154
 6011WAT     H224765   6.069   1.316   0.333  0.5139  0.2087  1.0758
 6011WAT    EPW24766   6.020   1.255   0.330  0.0409  0.6142 -0.4054
 6012WAT      O24767   4.059   7.376   7.031  0.3068  0.0764  0.1018
 6012WAT     H124768   4.102   7.434   7.081 -2.1396  1.6808  0.5296
 6012WAT     H224769   4.073   7.404   6.950 -0.6854  1.1893  0.2965
 6012WAT    EPW24770   4.067   7.389   7.027 -0.2012  0.4778  0.1938
 6013WAT      O24771   4.091   0.599   7.204 -0.2995 -0.0163  0.1479
 6013WAT     H124772   4.058   0.676   7.179 -1.2679 -0.7833 -1.0393
 6013WAT     H224773   4.157   0.586   7.148  1.2282  0.8780  1.6591
 6013WAT    EPW24774   4.096   0.608   7.192 -0.2168  0.0025  0.1958
 6014WAT      O24775   4.693   2.328   7.382 -0.2479 -0.2217  0.2562
 6014WAT     H124776   4.692   2.307   7.298  1.8023  2.6930 -0.6112
 6014WAT     H224777   4.728   2.257   7.420  1.4564 -0.5355 -1.7273
 6014WAT    EPW24778   4.698   2.314   7.375  0.3067  0.1625 -0.1650
 6015WAT      O24779   4.147   7.618   6.762  0.3340 -0.2296 -0.1134
 6015WAT     H124780   4.091   7.683   6.780  0.4847 -0.2614  0.4992
 6015WAT     H224781   4.211   7.630   6.820  1.5220  0.4599 -1.5266
 6015WAT    EPW24782   4.148   7.629   6.773  0.5317 -0.1324 -0.2316
 6016WAT      O24783   4.755   0.299   6.677 -0.4750 -0.7216  0.1812
 6016WAT     H124784   4.829   0.335   6.707 -1.2477  0.6527  0.5399
 6016WAT     H224785   4.783   0.241   6.618  0.8845  0.5834 -0.5478
 6016WAT    EPW24786   4.770   0.296   6.673 -0.3883 -0.3258  0.1265
 6017WAT      O24787   3.908   0.960   6.484  0.0075 -0.4021  0.0184
 6017WAT     H124788   3.992   0.980   6.497 -0.3824  1.4383 -0.0020
 6017WAT     H224789   3.905   0.932   6.402  0.6553 -0.8964  0.1556
 6017WAT    EPW24790   3.920   0.959   6.474  0.0456 -0.2033  0.0357
 6018WAT      O24791   4.002   7.633   0.116  0.2027 -0.6946 -0.2435
 6018WAT     H124792   4.068   7.577   0.109  1.6709  0.7998  0.8469
 6018WAT     H224793   4.028   7.687   0.179  0.0823  2.7717 -2.8782
 6018WAT    EPW24794   4.016   7.633   0.124  0.4018  0.0382 -0.4716
 6019WAT      O24795   5.895   0.125   6.575 -0.7806  0.4203  0.5244
 6019WAT     H124796   5.939   0.125   6.650 -0.2506 -0.1586  0.2328
 6019WAT     H224797   5.947   0.079   6.522 -1.9169 -0.6225  0.2736
 6019WAT    EPW24798   5.909   0.118   6.578 -0.8702  0.1808  0.4443
 6020WAT      O24799   5.299   7.281   0.274  0.1443  0.3201 -0.1280
 6020WAT     H124800   5.265   7.263   0.196  0.6301  0.1731 -0.3119
 6020WAT     H224801   5.281   7.366   0.286  0.2491  0.3927 -0.4890
 6020WAT    EPW24802   5.291   7.291   0.264  0.2315  0.3091 -0.2085
 6021WAT      O24803   3.845   2.862   0.574  0.1303  0.0016  0.1983
 6021WAT     H124804   3.930   2.881   0.577  0.2126 -0.2724 -0.3795
 6021WAT     H224805   3.807   2.940   0.562  0.3925 -0.0270 -0.9498
 6021WAT    EPW24806   3.852   2.876   0.573  0.1812 -0.0431 -0.0567
 6022WAT      O24807   5.574   6.910   0.506 -0.6660  0.6452  0.1398
 6022WAT     H124808   5.516   6.976   0.505 -1.9224 -0.2120  3.2582
 6022WAT     H224809   5.612   6.918   0.585  1.7303 -0.3377 -0.8094
 6022WAT    EPW24810   5.571   6.921   0.518 -0.4976  0.3734  0.4602
 6023WAT      O24811   4.673   0.915   7.797 -0.2126  0.4577 -0.5029
 6023WAT     H124812   4.587   0.919   7.811 -0.0423  1.1419  0.4558
 6023WAT     H224813   4.704   0.985   7.839  0.9727 -0.5391  0.3424
 6023WAT    EPW24814   4.665   0.926   7.805 -0.0123  0.4115 -0.2364
 6024WAT      O24815   4.013   2.797   5.290 -0.0466  0.1726 -0.8510
 6024WAT     H124816   4.069   2.823   5.228 -0.1565  0.4714 -0.8287
 6024WAT     H224817   4.056   2.735   5.332  0.5971  0.9735 -0.2920
 6024WAT    EPW24818   4.027   2.792   5.287  0.0322  0.3351 -0.7651
 6025WAT      O24819   5.043   1.243   6.654  0.4622  0.2911 -0.0207
 6025WAT     H124820   5.096   1.245   6.723 -1.8884  0.9702  1.8986
 6025WAT     H224821   5.032   1.158   6.639  1.8309  0.1360 -0.2989
 6025WAT    EPW24822   5.049   1.231   6.662  0.3172  0.3685  0.2217
 6026WAT      O24823   4.938   0.067   7.086  0.0034 -0.1497 -0.6702
 6026WAT     H124824   4.937   0.152   7.108 -0.5942 -0.2185 -0.4141
 6026WAT     H224825   5.013   0.038   7.119  1.5405  0.8435 -2.9853
 6026WAT    EPW24826   4.949   0.076   7.094  0.1422 -0.0132 -0.9744
 6027WAT      O24827   4.403   0.870   6.799  0.0506  0.2208  0.0246
 6027WAT     H124828   4.392   0.946   6.757 -1.6633 -0.5052 -0.9197
 6027WAT     H224829   4.364   0.812   6.747 -0.9805 -0.9277  1.9755
 6027WAT    EPW24830   4.396   0.873   6.785 -0.3549 -0.0561  0.1733
 6028WAT      O24831   4.251   1.229   6.140 -0.6364 -0.0343  0.2282
 6028WAT     H124832   4.223   1.149   6.117 -0.7709  0.4339 -1.2898
 6028WAT     H224833   4.338   1.220   6.143 -0.6753 -0.3417  0.4854
 6028WAT    EPW24834   4.260   1.216   6.137 -0.6620 -0.0106  0.0419
 6029WAT      O24835   5.229   6.946   6.762  0.1143 -0.1984  0.2536
 6029WAT     H124836   5.245   6.925   6.679  0.7586  0.9047  0.0784
 6029WAT     H224837   5.195   6.873   6.795  0.0240 -0.7208 -0.9234
 6029WAT    EPW24838   5.226   6.932   6.754  0.1961 -0.1126  0.0538
 6030WAT      O24839   5.845   7.489   6.997  0.0622 -0.4327 -0.0179
 6030WAT     H124840   5.881   7.458   7.069  2.4168  0.4430 -0.7422
 6030WAT     H224841   5.874   7.436   6.934  0.5583  0.5904 -0.6846
 6030WAT    EPW24842   5.854   7.477   6.998  0.4833 -0.1522 -0.2234
 6031WAT      O24843   4.502   6.856   7.532 -0.0059  0.6842  0.4352
 6031WAT     H124844   4.532   6.916   7.477 -1.5923  0.0379 -1.2494
 6031WAT     H224845   4.417   6.849   7.510  0.3217 -2.9836 -0.3094
 6031WAT    EPW24846   4.494   6.864   7.521 -0.1918  0.0469  0.0763
 6032WAT      O24847   4.562   0.605   6.587  0.0917 -0.1281 -0.3791
 6032WAT     H124848   4.628   0.623   6.641 -0.0733  0.5531 -0.4002
 6032WAT     H224849   4.555   0.677   6.538 -2.5234  1.0117  1.4933
 6032WAT    EPW24850   4.571   0.618   6.588 -0.3190  0.1409 -0.1056
 6033WAT      O24851   3.119   1.163   6.484  0.1322  0.6306 -0.1598
 6033WAT     H124852   3.052   1.181   6.537  1.5459  1.2518  1.4768
 6033WAT     H224853   3.188   1.161   6.537  1.3077 -0.9886 -1.6347
 6033WAT    EPW24854   3.119   1.165   6.500  0.5146  0.4831 -0.1359
 6034WAT      O24855   3.463   6.713   6.639  0.4610  0.1038  0.4890
 6034WAT     H124856   3.475   6.772   6.702 -0.2513  0.4266  0.3275
 6034WAT     H224857   3.545   6.691   6.617  0.7239  0.4064  1.1253
 6034WAT    EPW24858   3.477   6.718   6.645  0.3946  0.1962  0.5592
 6035WAT      O24859   5.885   1.329   6.179  0.1053 -0.4587  0.0675
 6035WAT     H124860   5.941   1.395   6.174  0.5048 -0.9197 -2.6064
 6035WAT     H224861   5.908   1.289   6.254  0.7631  1.5493  1.0130
 6035WAT    EPW24862   5.897   1.333   6.190  0.2615 -0.2302 -0.1878
 6036WAT      O24863   3.191   0.703   7.693 -0.3898 -0.5020  0.4765
 6036WAT     H124864   3.199   0.683   7.609  1.2382 -1.8884  0.9161
 6036WAT     H224865   3.263   0.749   7.711 -0.2275 -1.0659  1.3325
 6036WAT    EPW24866   3.203   0.707   7.684 -0.1253 -0.7901  0.6679
 6037WAT      O24867   4.598   7.507   6.776 -0.2423  0.7151  0.1167
 6037WAT     H124868   4.681   7.506   6.749  0.1745  0.3637  1.3374
 6037WAT     H224869   4.594   7.580   6.825 -0.3901  0.2571  0.8031
 6037WAT    EPW24870   4.609   7.518   6.779 -0.2026  0.5955  0.3984
 6038WAT      O24871   6.315   7.124   7.286 -0.6789  0.3140  0.3782
 6038WAT     H124872   6.264   7.088   7.225 -0.1165 -0.5586  0.4003
 6038WAT     H224873   6.324   7.207   7.259 -2.1443  0.5100  0.4179
 6038WAT    EPW24874   6.309   7.131   7.273 -0.8123  0.2141  0.3874
 6039WAT      O24875   5.467   0.554   5.915  0.4863 -0.5145 -0.2776
 6039WAT     H124876   5.455   0.568   5.830  0.1966  3.4175  0.2297
 6039WAT     H224877   5.532   0.608   5.936  1.8979 -2.7988  1.7519
 6039WAT    EPW24878   5.475   0.564   5.905  0.6520 -0.2711  0.0971
 6040WAT      O24879   5.266   0.420   5.038 -1.1004  0.1602  0.8152
 6040WAT     H124880   5.295   0.384   5.112 -1.1308 -2.0407 -0.1638
 6040WAT     H224881   5.186   0.387   5.030 -0.9437  0.0419 -0.3867
 6040WAT    EPW24882   5.259   0.410   5.048 -1.0818 -0.1824  0.4930
 6041WAT      O24883   3.665   6.174   5.910  0.4258 -0.5103 -0.3536
 6041WAT     H124884   3.688   6.118   5.846 -0.5362 -0.1981 -0.9911
 6041WAT     H224885   3.742   6.200   5.942  0.9798 -0.0747 -1.9233
 6041WAT    EPW24886   3.680   6.169   5.905  0.3655 -0.3998 -0.6796
 6042WAT      O24887   5.808   0.998   6.093 -0.2455  0.3304  0.5804
 6042WAT     H124888   5.728   1.009   6.125 -0.7518 -1.6324  0.1403
 6042WAT     H224889   5.860   1.007   6.162 -0.8827  1.0629  0.9743
 6042WAT    EPW24890   5.804   1.001   6.108 -0.4144  0.1487  0.5736
 6043WAT      O24891   5.249   0.804   7.588 -0.1066 -0.3069 -0.2173
 6043WAT     H124892   5.267   0.815   7.504 -0.8572  2.8320 -0.1124
 6043WAT     H224893   5.293   0.869   7.627 -0.8264 -0.8624  1.6450
 6043WAT    EPW24894   5.258   0.815   7.582 -0.3238  0.0747  0.0733
 6044WAT      O24895   5.534   6.070   7.604 -0.3988 -0.0515  0.2009
 6044WAT     H124896   5.614   6.045   7.630 -0.6404 -2.1079 -0.8654
 6044WAT     H224897   5.524   6.031   7.527 -2.0046  1.1200 -0.2276
 6044WAT    EPW24898   5.544   6.060   7.597 -0.6717 -0.1822 -0.0199
 6045WAT      O24899   5.138   1.354   5.913 -0.5704 -0.2562  0.4556
 6045WAT     H124900   5.099   1.431   5.900  0.1346  0.1594  0.7353
 6045WAT     H224901   5.164   1.358   5.996 -1.4259 -1.2164  0.7879
 6045WAT    EPW24902   5.136   1.366   5.924 -0.5927 -0.3367  0.5460
 6046WAT      O24903   4.502   1.444   6.875  0.1000 -0.4576  0.0008
 6046WAT     H124904   4.482   1.503   6.936 -0.3083 -0.6004  0.0101
 6046WAT     H224905   4.456   1.470   6.806 -1.3340 -1.6326  0.4670
 6046WAT    EPW24906   4.492   1.457   6.874 -0.1721 -0.6522  0.0710
 6047WAT      O24907   5.886   7.134   7.053 -0.5957 -0.3694  0.1575
 6047WAT     H124908   5.864   7.183   7.122 -2.1225  0.8503 -1.1330
 6047WAT     H224909   5.825   7.153   6.994  1.8004  0.2600 -2.3003
 6047WAT    EPW24910   5.874   7.144   7.054 -0.4673 -0.0962 -0.3962
 6048WAT      O24911   6.138   0.138   7.284  0.0425 -0.1091 -0.0926
 6048WAT     H124912   6.105   0.218   7.287 -0.6632 -0.3583 -0.9125
 6048WAT     H224913   6.074   0.091   7.246  0.3638 -1.0884  0.5381
 6048WAT    EPW24914   6.123   0.143   7.279 -0.0143 -0.2906 -0.1206
 6049WAT      O24915   3.640   0.512   5.284  0.2366 -0.4414 -0.4236
 6049WAT     H124916   3.556   0.489   5.289 -0.0913  0.9054  1.7716
 6049WAT     H224917   3.645   0.555   5.208 -0.2169 -3.2578 -2.2004
 6049WAT    EPW24918   3.629   0.515   5.274  0.1212 -0.6585 -0.3618
 6050WAT      O24919   3.843   1.028   6.918 -0.6288 -0.3839  0.0746
 6050WAT     H124920   3.766   1.048   6.882  0.0400  0.5338 -0.9161
 6050WAT     H224921   3.852   1.085   6.983 -0.0848  0.6169 -0.8397
 6050WAT    EPW24922   3.833   1.039   6.922 -0.4496 -0.1005 -0.2068
 6051WAT      O24923   4.595   7.218   6.779  0.1139 -0.4375  0.2192
 6051WAT     H124924   4.579   7.303   6.788  1.6331  0.0999 -1.5801
 6051WAT     H224925   4.526   7.189   6.734  0.2186  0.1161 -0.3051
 6051WAT    EPW24926   4.582   7.226   6.774  0.3538 -0.2764 -0.1241
 6052WAT      O24927   3.556   6.379   0.521 -0.5645 -0.2178  0.1430
 6052WAT     H124928   3.599   6.452   0.502 -2.0638  0.7934  0.5170
 6052WAT     H224929   3.480   6.389   0.481 -1.0030 -1.3452  0.6542
 6052WAT    EPW24930   3.551   6.391   0.512 -0.8508 -0.2350  0.2737
 6053WAT      O24931   4.386   1.625   7.031 -0.1245  0.1209 -0.0556
 6053WAT     H124932   4.434   1.694   7.007 -0.5044 -0.5909 -3.3171
 6053WAT     H224933   4.419   1.604   7.109  0.9329  3.1009  0.4364
 6053WAT    EPW24934   4.398   1.632   7.039 -0.0244  0.4559 -0.4647
 6054WAT      O24935   4.817   6.813   0.121  0.4097  0.0143 -0.9130
 6054WAT     H124936   4.894   6.820   0.160 -0.3381  1.7666  0.4165
 6054WAT     H224937   4.814   6.730   0.094  1.7117 -0.8121  1.2345
 6054WAT    EPW24938   4.828   6.802   0.123  0.4916  0.1510 -0.3994
 6055WAT      O24939   4.043   0.371   6.813 -0.0182  0.2339  0.0864
 6055WAT     H124940   3.980   0.417   6.774 -0.7998  0.1899  1.2383
 6055WAT     H224941   4.072   0.317   6.750 -3.3200 -2.0346  0.2514
 6055WAT    EPW24942   4.038   0.370   6.798 -0.6214 -0.1077  0.2809
 6056WAT      O24943   3.775   1.461   7.034 -0.1528 -0.0880  0.2188
 6056WAT     H124944   3.692   1.447   7.058  0.1353  1.2647  2.3084
 6056WAT     H224945   3.773   1.542   7.003  0.2072 -0.4626 -0.8009
 6056WAT    EPW24946   3.762   1.471   7.033 -0.0571  0.0564  0.3768
 6057WAT      O24947   3.795   0.016   7.615  0.4638  0.1602 -0.1619
 6057WAT     H124948   3.775   0.040   7.697 -1.1403  0.2111 -0.5263
 6057WAT     H224949   3.858   0.072   7.592  4.4094 -2.6141  2.5255
 6057WAT    EPW24950   3.801   0.028   7.624  0.8097 -0.2421  0.1812
 6058WAT      O24951   5.084   0.488   7.394  0.2742 -0.3918 -0.3382
 6058WAT     H124952   5.005   0.462   7.370 -0.7128  0.7034  1.4581
 6058WAT     H224953   5.130   0.489   7.319 -1.8662  0.5342 -1.7329
 6058WAT    EPW24954   5.079   0.484   7.379 -0.1878 -0.0933 -0.2788
 6059WAT      O24955   5.181   0.852   6.163 -0.5187 -0.0383 -0.0687
 6059WAT     H124956   5.103   0.875   6.133 -0.7013 -0.7527 -0.1601
 6059WAT     H224957   5.205   0.786   6.111 -0.2446 -0.4032  0.4978
 6059WAT    EPW24958   5.173   0.845   6.151 -0.5052 -0.1978  0.0015
 6060WAT      O24959   4.909   0.785   6.465 -0.0602 -0.2665 -0.2321
 6060WAT     H124960   4.903   0.698   6.474 -1.6954 -0.4635 -2.2669
 6060WAT     H224961   4.875   0.799   6.386  2.2790  2.0404 -0.9718
 6060WAT    EPW24962   4.903   0.774   6.455  0.0438  0.0452 -0.6419
 6061WAT      O24963   4.326   0.134   7.195 -0.1968  0.3233 -0.2738
 6061WAT     H124964   4.350   0.195   7.138 -1.6581  1.9152  0.6931
 6061WAT     H224965   4.246   0.160   7.220  0.0814 -0.6890  1.9169
 6061WAT    EPW24966   4.318   0.147   7.191 -0.3716  0.4089  0.1926
 6062WAT      O24967   4.829   0.290   7.779 -0.0959 -0.3103 -0.4683
 6062WAT     H124968   4.840   0.369   7.814 -0.6331 -0.8936  1.0663
 6062WAT     H224969   4.797   0.242   7.844  0.6263 -1.9185 -1.2347
 6062WAT    EPW24970   4.826   0.295   7.794 -0.0686 -0.6340 -0.3548
 6063WAT      O24971   3.756   7.295   6.027  0.0417 -0.4477 -0.3382
 6063WAT     H124972   3.704   7.364   6.021  0.4406 -0.1211 -0.0822
 6063WAT     H224973   3.763   7.266   5.945  0.2004  0.0550 -0.5028
 6063WAT    EPW24974   3.750   7.301   6.014  0.1240 -0.3252 -0.3247
 6064WAT      O24975   4.199   6.609   5.806  0.0856  0.5340  0.5760
 6064WAT     H124976   4.129   6.600   5.754  1.5935  2.1602 -1.9217
 6064WAT     H224977   4.179   6.678   5.855 -1.2974 -0.9369  2.2428
 6064WAT    EPW24978   4.186   6.618   5.805  0.1041  0.5569  0.4533
 6065WAT      O24979   5.499   1.873   7.432  0.2088 -0.1712 -0.6358
 6065WAT     H124980   5.534   1.798   7.459 -0.5524 -1.4673 -3.0174
 6065WAT     H224981   5.567   1.916   7.398  0.9662  1.0343  2.0872
 6065WAT    EPW24982   5.514   1.868   7.431  0.2082 -0.1846 -0.5853
 6066WAT      O24983   5.218   0.465   7.136 -0.2570  0.0706 -0.0144
 6066WAT     H124984   5.208   0.405   7.074 -1.7914 -0.2696  0.5327
 6066WAT     H224985   5.223   0.540   7.092  2.4377 -0.4151 -0.7736
 6066WAT    EPW24986   5.217   0.467   7.120 -0.0856 -0.0514 -0.0458
 6067WAT      O24987   5.702   0.243   6.397  0.6032  0.3625 -0.0933
 6067WAT     H124988   5.772   0.215   6.440  0.6679  1.1982  0.3549
 6067WAT     H224989   5.736   0.293   6.334  0.3832  1.8637  0.9285
 6067WAT    EPW24990   5.717   0.246   6.394  0.5802  0.7077  0.1238
 6068WAT      O24991   4.058   0.634   0.082  0.0471 -0.2841  0.3582
 6068WAT     H124992   4.131   0.653   0.126 -0.7935 -0.1417  1.7231
 6068WAT     H224993   3.997   0.683   0.120 -0.6507  0.1378 -1.2209
 6068WAT    EPW24994   4.060   0.644   0.094 -0.1801 -0.2007  0.3266
 6069WAT      O24995   5.011   0.372   6.880 -0.1001  0.1743 -0.1083
 6069WAT     H124996   5.013   0.295   6.841  0.5810  0.2443 -0.2239
 6069WAT     H224997   5.071   0.419   6.838 -0.1480  0.6051  0.2844
 6069WAT    EPW24998   5.020   0.368   6.868 -0.0066  0.2483 -0.0673
 6070WAT      O24999   4.374   1.228   6.979  0.0861  0.0282 -0.1195
 6070WAT     H125000   4.330   1.267   7.044  0.3261  0.8713 -0.4595
 6070WAT     H225001   4.422   1.292   6.945  1.6057 -0.8589  0.2431
 6070WAT    EPW25002   4.375   1.243   6.984  0.3461  0.0217 -0.1162
 6071WAT      O25003   4.800   0.381   7.524  0.3400  0.3089  0.1005
 6071WAT     H125004   4.798   0.352   7.607 -0.4701  1.1358  0.3852
 6071WAT     H225005   4.783   0.310   7.477  0.8382 -0.1806  0.6350
 6071WAT    EPW25006   4.797   0.367   7.529  0.2939  0.3587  0.2215
 6072WAT      O25007   4.361   0.553   7.092  0.2853 -0.3678 -0.5768
 6072WAT     H125008   4.397   0.633   7.086  1.0174 -0.6576 -0.1800
 6072WAT     H225009   4.385   0.526   7.171 -0.9579 -0.5202 -0.2323
 6072WAT    EPW25010   4.370   0.561   7.103  0.2098 -0.4331 -0.4673
 6073WAT      O25011   4.766   0.014   7.559 -0.2210  0.1947  0.4029
 6073WAT     H125012   4.731   0.053   7.489  0.0235  1.9011  1.1610
 6073WAT     H225013   4.729   0.056   7.626  2.8957  1.9607  1.2680
 6073WAT    EPW25014   4.755   0.026   7.558  0.2755  0.7076  0.6427
 6074WAT      O25015   4.197   7.144   6.337 -0.1866  0.0437  0.4234
 6074WAT     H125016   4.132   7.091   6.361 -1.9711  1.7542 -0.2788
 6074WAT     H225017   4.165   7.224   6.355  2.6164  0.9448  2.0871
 6074WAT    EPW25018   4.182   7.148   6.343 -0.0361  0.4295  0.5654
 6075WAT      O25019   5.322   6.981   7.113 -0.5800  0.9125  0.4970
 6075WAT     H125020   5.326   6.908   7.160 -1.8436  0.9820  0.7515
 6075WAT     H225021   5.367   6.961   7.041 -1.8601 -0.5325  0.0445
 6075WAT    EPW25022   5.329   6.967   7.109 -0.9558  0.7093  0.4678
 6076WAT      O25023   3.791   7.624   7.253 -0.4560  0.2811  0.0757
 6076WAT     H125024   3.775   7.604   7.170  1.3906  1.9172 -0.7553
 6076WAT     H225025   3.828   7.551   7.285  1.3360  0.5090 -1.3483
 6076WAT    EPW25026   3.794   7.610   7.246  0.0815  0.5564 -0.2574
 6077WAT      O25027   6.405   7.529   6.485 -0.7369 -0.6794  0.1532
 6077WAT     H125028   6.330   7.518   6.528 -1.1576 -1.8860 -0.8092
 6077WAT     H225029   6.466   7.507   6.544 -1.2790 -1.8744  0.3075
 6077WAT    EPW25030   6.403   7.524   6.500 -0.8791 -1.0342  0.0338
 6078WAT      O25031   4.454   0.465   7.342  0.5449 -0.2523 -0.6778
 6078WAT     H125032   4.440   0.398   7.395  1.4819 -1.0485 -1.3921
 6078WAT     H225033   4.525   0.441   7.297 -0.0785  0.4775 -2.1139
 6078WAT    EPW25034   4.462   0.452   7.343  0.5912 -0.2621 -0.9955
 6079WAT      O25035   3.670   0.296   6.066 -0.0573  0.3852  0.3626
 6079WAT     H125036   3.655   0.315   6.150 -0.2370  1.3800  0.1213
 6079WAT     H225037   3.636   0.217   6.057  0.0798  0.2114  1.2606
 6079WAT    EPW25038   3.663   0.287   6.077 -0.0636  0.5065  0.4596
 6080WAT      O25039   4.221   0.544   7.734 -0.0600 -0.1054  0.1944
 6080WAT     H125040   4.167   0.571   7.796 -0.6489 -0.2491 -0.2459
 6080WAT     H225041   4.195   0.588   7.663  0.2234 -0.3793 -0.0856
 6080WAT    EPW25042   4.209   0.555   7.733 -0.1051 -0.1671  0.0880
 6081WAT      O25043   3.251   0.587   4.382  0.5790  0.2361 -0.0089
 6081WAT     H125044   3.165   0.598   4.367 -0.0888 -0.6179  2.6553
 6081WAT     H225045   3.267   0.643   4.447  1.1712 -2.0482  1.9157
 6081WAT    EPW25046   3.240   0.597   4.389  0.5679 -0.2275  0.6690
 6082WAT      O25047   5.504   7.654   3.899 -0.3363 -0.2077 -0.4730
 6082WAT     H125048   5.524   7.574   3.872 -1.4114 -0.8295  0.4650
 6082WAT     H225049   5.533   7.657   3.981  1.3559  1.0470 -1.0651
 6082WAT    EPW25050   5.511   7.643   3.907 -0.2452 -0.1142 -0.4219
 6083WAT      O25051   3.682   0.563   4.408 -0.3955  0.0097 -0.4206
 6083WAT     H125052   3.612   0.511   4.397 -1.9566  1.7477  0.7490
 6083WAT     H225053   3.734   0.516   4.460 -0.2251 -1.6805 -2.0163
 6083WAT    EPW25054   3.679   0.548   4.414 -0.6010  0.0167 -0.4835
 6084WAT      O25055   5.238   0.580   3.269  0.1253  0.3500 -0.1041
 6084WAT     H125056   5.322   0.559   3.257 -0.1264 -1.7498  1.2163
 6084WAT     H225057   5.203   0.506   3.302 -1.6364  1.9404  1.9154
 6084WAT    EPW25058   5.245   0.566   3.272 -0.1721  0.2748  0.3892
 6085WAT      O25059   4.093   0.841   5.470 -0.4732 -0.1097  0.6433
 6085WAT     H125060   4.007   0.831   5.469 -0.3467 -1.3392 -0.3114
 6085WAT     H225061   4.123   0.759   5.470  0.6950  0.2986  1.1768
 6085WAT    EPW25062   4.085   0.827   5.470 -0.2819 -0.2310  0.5811
 6086WAT      O25063   2.705   0.179   5.619 -0.4787 -0.4375 -0.1879
 6086WAT     H125064   2.662   0.252   5.640 -1.1681  0.2895 -3.6436
 6086WAT     H225065   2.781   0.208   5.587  0.0815 -1.3956  0.2182
 6086WAT    EPW25066   2.710   0.194   5.618 -0.4978 -0.4716 -0.6384
 6087WAT      O25067   4.600   7.262   5.807 -0.8391 -0.0261  0.6430
 6087WAT     H125068   4.575   7.227   5.884 -0.4230  0.3164  0.9355
 6087WAT     H225069   4.576   7.345   5.814  0.3945  0.3274  0.9457
 6087WAT    EPW25070   4.593   7.269   5.820 -0.5954  0.0767  0.7309
 6088WAT      O25071   4.933   1.805   5.395  0.1432 -0.1995 -0.1112
 6088WAT     H125072   4.944   1.872   5.450  1.3815 -0.3463 -0.1504
 6088WAT     H225073   4.921   1.736   5.448  1.3521 -0.3445 -0.0080
 6088WAT    EPW25074   4.933   1.805   5.411  0.5047 -0.2426 -0.1017
 6089WAT      O25075   5.113   0.514   4.134 -0.1264 -0.0138  0.5202
 6089WAT     H125076   5.188   0.554   4.155 -0.7074  0.1137  2.6128
 6089WAT     H225077   5.058   0.580   4.119 -0.6253  0.0275  2.2534
 6089WAT    EPW25078   5.116   0.530   4.135 -0.2859  0.0111  1.0853
 6090WAT      O25079   5.441   1.841   4.041 -0.2840 -0.3662 -0.3470
 6090WAT     H125080   5.438   1.754   4.036 -2.1422 -0.3164 -0.8336
 6090WAT     H225081   5.435   1.866   3.958  0.1013  0.2362 -0.1992
 6090WAT    EPW25082   5.439   1.832   4.028 -0.5016 -0.2698 -0.3971
 6091WAT      O25083   4.141   1.773   5.069  0.0585 -0.3820 -0.0637
 6091WAT     H125084   4.184   1.817   5.008 -0.0689  0.8352  0.6978
 6091WAT     H225085   4.067   1.817   5.079 -1.2859 -2.2563 -1.1086
 6091WAT    EPW25086   4.137   1.786   5.062 -0.1589 -0.4791 -0.1056
 6092WAT      O25087   2.498   7.230   4.298 -1.0357  0.3363  0.2838
 6092WAT     H125088   2.429   7.257   4.253 -1.7217 -0.3488  0.8900
 6092WAT     H225089   2.566   7.248   4.246 -1.5078  2.5075  0.3473
 6092WAT    EPW25090   2.498   7.237   4.284 -1.2068  0.5559  0.3827
 6093WAT      O25091   4.593   1.462   1.811 -0.6084 -0.6026  0.9507
 6093WAT     H125092   4.666   1.501   1.782 -0.4535 -0.5334  1.4235
 6093WAT     H225093   4.530   1.498   1.763 -0.4126 -0.1047  1.0590
 6093WAT    EPW25094   4.594   1.473   1.800 -0.5566 -0.5188  1.0365
 6094WAT      O25095   5.931   1.524   3.306 -0.2425 -0.1350 -0.4187
 6094WAT     H125096   5.845   1.540   3.304 -0.8155 -2.2782  2.1543
 6094WAT     H225097   5.940   1.451   3.260  0.0747 -0.3138 -0.0827
 6094WAT    EPW25098   5.920   1.516   3.299 -0.2803 -0.4780  0.0110
 6095WAT      O25099   4.308   0.380   2.718  0.0591 -0.0570  0.1639
 6095WAT     H125100   4.363   0.317   2.742 -0.9279 -0.3347  1.7922
 6095WAT     H225101   4.320   0.443   2.778  0.1042  0.7781 -0.6884
 6095WAT    EPW25102   4.318   0.380   2.730 -0.0801  0.0254  0.2785
 6096WAT      O25103   6.072   6.479   4.309 -0.5358  0.5064  0.1960
 6096WAT     H125104   6.085   6.396   4.334  0.2632  0.6878  0.4217
 6096WAT     H225105   5.995   6.476   4.268 -1.0360 -0.1457  1.1338
 6096WAT    EPW25106   6.063   6.466   4.307 -0.4916  0.4369  0.3679
 6097WAT      O25107   4.261   1.000   4.365  0.4623  0.8221 -0.0922
 6097WAT     H125108   4.339   1.009   4.327  0.0882 -1.4250 -1.5386
 6097WAT     H225109   4.208   0.982   4.298 -0.7354 -0.6060  1.1800
 6097WAT    EPW25110   4.265   0.999   4.349  0.2301  0.2792 -0.1180
 6098WAT      O25111   6.246   0.958   4.818 -0.4885  0.2943  0.2539
 6098WAT     H125112   6.298   0.890   4.836 -0.9222 -0.0584  0.1811
 6098WAT     H225113   6.176   0.943   4.868 -0.6363  0.6289  0.1451
 6098WAT    EPW25114   6.243   0.946   4.828 -0.5744  0.2916  0.2271
 6099WAT      O25115   5.919   0.565   3.670  0.5568  0.5131  0.1610
 6099WAT     H125116   5.894   0.485   3.694  0.8697  0.6797  1.0809
 6099WAT     H225117   6.004   0.566   3.690  0.8494  0.6565 -1.0082
 6099WAT    EPW25118   5.928   0.553   3.676  0.6462  0.5589  0.1242
 6100WAT      O25119   4.208   1.967   5.798 -0.0466 -0.2760 -0.4512
 6100WAT     H125120   4.209   1.893   5.845  0.8648 -0.5195 -0.8231
 6100WAT     H225121   4.232   1.940   5.719 -0.8219  0.2521 -0.8734
 6100WAT    EPW25122   4.212   1.952   5.794 -0.0265 -0.2339 -0.5685
 6101WAT      O25123   4.300   0.958   5.669 -0.8961 -0.1901  0.1603
 6101WAT     H125124   4.242   0.905   5.632  0.0466 -1.5657  0.6043
 6101WAT     H225125   4.250   1.016   5.711 -1.9517 -1.0302  0.1115
 6101WAT    EPW25126   4.284   0.959   5.670 -0.9128 -0.5174  0.2187
 6102WAT      O25127   4.943   1.164   3.696 -0.4578 -0.0126 -0.1806
 6102WAT     H125128   4.913   1.207   3.766 -0.8092 -0.6556  0.0749
 6102WAT     H225129   4.871   1.148   3.650 -0.5446 -1.5226  0.4125
 6102WAT    EPW25130   4.928   1.168   3.700 -0.5226 -0.3306 -0.0552
 6103WAT      O25131   5.388   7.340   5.270  0.0702 -0.9089 -0.3611
 6103WAT     H125132   5.387   7.338   5.183  1.2149 -0.7051 -0.3987
 6103WAT     H225133   5.317   7.387   5.291 -1.6845 -3.0833 -1.0645
 6103WAT    EPW25134   5.377   7.347   5.260 -0.0199 -1.2000 -0.4706
 6104WAT      O25135   5.194   0.954   4.921 -0.0963  0.0484 -0.2052
 6104WAT     H125136   5.275   0.984   4.930  0.3176 -1.5045  2.1953
 6104WAT     H225137   5.204   0.870   4.899 -1.0545  0.0008 -0.5336
 6104WAT    EPW25138   5.207   0.946   4.919 -0.1767 -0.1880  0.1009
 6105WAT      O25139   5.795   1.959   3.953  0.6175  0.4381  0.1888
 6105WAT     H125140   5.731   2.016   3.933  0.3151 -0.1967 -0.7106
 6105WAT     H225141   5.756   1.905   4.010  0.4785  0.3075 -0.0279
 6105WAT    EPW25142   5.780   1.960   3.958  0.5523  0.3250  0.0239
 6106WAT      O25143   3.058   0.062   3.098  0.9611 -0.2517  0.1288
 6106WAT     H125144   2.988   0.011   3.083  1.0128 -0.3794  0.3061
 6106WAT     H225145   3.125   0.008   3.087  1.0528  0.0007 -0.5463
 6106WAT    EPW25146   3.057   0.046   3.094  0.9823 -0.2333  0.0553
 6107WAT      O25147   4.093   0.965   5.235  0.0307 -0.0027  0.2010
 6107WAT     H125148   4.046   0.928   5.172  0.1595  1.1175 -0.5962
 6107WAT     H225149   4.113   0.899   5.287  0.8893 -1.1997 -1.5421
 6107WAT    EPW25150   4.089   0.950   5.233  0.1765 -0.0140 -0.1743
 6108WAT      O25151   4.347   0.234   6.148  0.0422  0.3718 -0.7624
 6108WAT     H125152   4.424   0.207   6.180  0.2819  0.6833 -1.0797
 6108WAT     H225153   4.341   0.316   6.178 -0.6996 -0.0215  0.2232
 6108WAT    EPW25154   4.358   0.242   6.157 -0.0320  0.3597 -0.6636
 6109WAT      O25155   4.774   6.937   6.552 -0.2638 -0.1446 -0.7502
 6109WAT     H125156   4.838   6.888   6.519  0.3379 -1.0264  1.5272
 6109WAT     H225157   4.707   6.922   6.499  0.0612 -3.0701 -0.4729
 6109WAT    EPW25158   4.773   6.928   6.540 -0.1269 -0.7071 -0.3728
 6110WAT      O25159   5.983   1.832   6.315 -0.3071 -0.3891 -0.1720
 6110WAT     H125160   5.911   1.785   6.301 -0.1581 -0.4739 -0.6571
 6110WAT     H225161   5.959   1.887   6.379 -0.9510 -0.1029 -0.6412
 6110WAT    EPW25162   5.969   1.833   6.323 -0.3802 -0.3593 -0.3130
 6111WAT      O25163   3.263   7.325   6.804  0.3002  0.2919 -0.2992
 6111WAT     H125164   3.292   7.302   6.882  0.3341 -0.5798 -0.5608
 6111WAT     H225165   3.186   7.364   6.821 -0.3201 -1.0320  0.0818
 6111WAT    EPW25166   3.256   7.327   6.818  0.2136 -0.0324 -0.2815
 6112WAT      O25167   4.662   1.159   3.591 -0.0948  0.2553 -0.2289
 6112WAT     H125168   4.664   1.163   3.504  0.8694 -2.7734 -0.4440
 6112WAT     H225169   4.600   1.100   3.608 -0.4389  0.9648  1.1942
 6112WAT    EPW25170   4.653   1.151   3.581 -0.0032 -0.0873 -0.0505
 6113WAT      O25171   5.687   0.131   5.490 -0.2788 -0.5137  0.1577
 6113WAT     H125172   5.674   0.061   5.540 -0.7015 -0.9947 -0.6145
 6113WAT     H225173   5.747   0.105   5.432  0.5154  0.1679  0.6340
 6113WAT    EPW25174   5.694   0.117   5.489 -0.2239 -0.4841  0.1140
 6114WAT      O25175   4.228   0.011   4.051  0.1471 -0.2699  0.5436
 6114WAT     H125176   4.218   0.000   4.137 -1.5940  2.4615  0.8211
 6114WAT     H225177   4.226   0.098   4.041  1.5139 -0.4378 -2.1680
 6114WAT    EPW25178   4.226   0.023   4.062  0.0918  0.1088  0.1840
 6115WAT      O25179   5.798   1.632   6.040  0.2956  0.4173  0.5527
 6115WAT     H125180   5.782   1.707   5.998 -0.7065 -0.8657 -1.5618
 6115WAT     H225181   5.795   1.573   5.976  1.6034 -1.3771  2.0621
 6115WAT    EPW25182   5.795   1.634   6.024  0.3408 -0.0373  0.4633
 6116WAT      O25183   4.101   7.557   3.465 -0.2049  0.1425  0.1537
 6116WAT     H125184   4.141   7.493   3.422 -2.0408  1.3074 -3.8201
 6116WAT     H225185   4.036   7.516   3.507 -1.6940 -0.7804 -2.7482
 6116WAT    EPW25186   4.097   7.542   3.465 -0.6961  0.1782 -0.8620
 6117WAT      O25187   3.314   0.819   5.305  0.2869  0.1967  0.3208
 6117WAT     H125188   3.295   0.765   5.239 -1.3462  0.2627  0.6984
 6117WAT     H225189   3.321   0.766   5.374 -1.1710  0.3958  0.6634
 6117WAT    EPW25190   3.312   0.803   5.305 -0.1697  0.2359  0.4272
 6118WAT      O25191   4.746   1.221   5.018 -0.1470 -0.3811 -0.0353
 6118WAT     H125192   4.791   1.289   4.986 -1.7865  0.9644  0.3868
 6118WAT     H225193   4.757   1.160   4.957  1.3968  0.2119 -0.4216
 6118WAT    EPW25194   4.754   1.222   5.004 -0.1611 -0.0947 -0.0300
 6119WAT      O25195   3.680   0.061   4.489 -0.3377 -0.0609 -1.0465
 6119WAT     H125196   3.752   0.054   4.538 -1.2556  0.1334  0.3866
 6119WAT     H225197   3.700   0.015   4.417  0.0472 -2.9241  0.7065
 6119WAT    EPW25198   3.694   0.053   4.486 -0.4164 -0.4551 -0.5758
 6120WAT      O25199   4.565   0.287   5.723  0.0785  0.2080 -0.1017
 6120WAT     H125200   4.612   0.358   5.708  0.3194 -0.0355 -0.5111
 6120WAT     H225201   4.596   0.229   5.667  0.6402 -0.5747  0.9854
 6120WAT    EPW25202   4.576   0.289   5.713  0.1971  0.0564 -0.0016
 6121WAT      O25203   3.755   1.554   5.017 -0.3453 -0.1739 -0.3655
 6121WAT     H125204   3.818   1.537   4.959 -0.3636  1.3620 -0.8969
 6121WAT     H225205   3.690   1.502   4.993  0.3978 -1.1269 -0.3663
 6121WAT    EPW25206   3.755   1.544   5.005 -0.2382 -0.0878 -0.4441
 6122WAT      O25207   4.166   7.299   5.452  0.3742  0.0449  0.5933
 6122WAT     H125208   4.079   7.296   5.444  0.5573  0.8672 -3.8719
 6122WAT     H225209   4.193   7.231   5.405  2.1689  1.1120 -0.0119
 6122WAT    EPW25210   4.157   7.288   5.444  0.6664  0.3240 -0.1557
 6123WAT      O25211   6.680   0.163   5.958 -0.2316  0.5288 -0.5094
 6123WAT     H125212   6.610   0.149   5.907 -0.0285  0.7272 -0.8503
 6123WAT     H225213   6.745   0.172   5.900  0.6101 -2.4029 -0.1888
 6123WAT    EPW25214   6.679   0.162   5.942 -0.0772  0.1251 -0.5124
 6124WAT      O25215   5.254   7.564   3.825  0.5186  0.0200 -0.0307
 6124WAT     H125216   5.190   7.609   3.864  1.6805  2.2879 -0.5633
 6124WAT     H225217   5.327   7.600   3.856  1.5480 -1.7826 -0.2440
 6124WAT    EPW25218   5.255   7.576   3.835  0.8423  0.0887 -0.1409
 6125WAT      O25219   5.440   1.567   4.034 -0.5272  0.3563  0.6589
 6125WAT     H125220   5.398   1.510   3.983 -0.6981  1.2291 -0.1897
 6125WAT     H225221   5.524   1.543   4.027 -0.7128 -0.5096  1.2419
 6125WAT    EPW25222   5.446   1.555   4.026 -0.5799  0.3573  0.6197
 6126WAT      O25223   5.632   0.944   5.278  0.2729  0.2226  0.1467
 6126WAT     H125224   5.562   0.904   5.246 -0.2360  2.0780 -1.2553
 6126WAT     H225225   5.699   0.893   5.254 -0.4616 -0.7529  0.1216
 6126WAT    EPW25226   5.632   0.931   5.270  0.0893  0.3526 -0.0641
 6127WAT      O25227   3.835   7.554   5.521  0.2934 -0.3590  0.0702
 6127WAT     H125228   3.880   7.572   5.448  0.6005 -0.6625  0.1800
 6127WAT     H225229   3.863   7.614   5.577  2.2269 -1.8160  0.8098
 6127WAT    EPW25230   3.846   7.565   5.518  0.6244 -0.6191  0.1957
 6128WAT      O25231   4.302   7.356   3.405  0.4102 -0.0927  0.3500
 6128WAT     H125232   4.301   7.281   3.359 -1.1450  0.2985 -0.3286
 6128WAT     H225233   4.375   7.395   3.378 -0.9147  0.6129 -2.7573
 6128WAT    EPW25234   4.312   7.351   3.394 -0.0152  0.0693 -0.2093
 6129WAT      O25235   5.247   0.197   5.233 -0.3732  0.2903 -0.5455
 6129WAT     H125236   5.211   0.119   5.246  0.7134 -0.1512 -0.1230
 6129WAT     H225237   5.308   0.203   5.296 -0.6181  1.5915 -0.3919
 6129WAT    EPW25238   5.251   0.186   5.244 -0.2489  0.4173 -0.4604
 6130WAT      O25239   4.460   7.601   5.561 -0.1855 -0.2498  0.5334
 6130WAT     H125240   4.420   7.597   5.483  0.0975 -0.7584  0.4085
 6130WAT     H225241   4.512   7.671   5.554 -1.2326  0.5781  0.7920
 6130WAT    EPW25242   4.462   7.611   5.548 -0.2983 -0.2026  0.5531
 6131WAT      O25243   2.824   0.662   4.981  0.2203 -0.1033 -0.2878
 6131WAT     H125244   2.871   0.735   4.989  0.8996 -0.6676  1.4461
 6131WAT     H225245   2.853   0.626   4.908  0.2294  1.1091 -0.8994
 6131WAT    EPW25246   2.835   0.668   4.972  0.3220 -0.0076 -0.1220
 6132WAT      O25247   5.405   7.363   4.972 -0.4334 -0.5027  0.4664
 6132WAT     H125248   5.486   7.348   4.946 -1.1085 -1.1741 -1.4263
 6132WAT     H225249   5.362   7.290   4.950 -1.8199  0.3640  0.1174
 6132WAT    EPW25250   5.411   7.350   4.965 -0.7379 -0.4738  0.1353
 6133WAT      O25251   6.091   6.960   5.376  0.1482 -0.1681 -0.1381
 6133WAT     H125252   6.073   7.018   5.439 -0.9291 -1.6257  0.9535
 6133WAT     H225253   6.172   6.933   5.396 -0.7485 -1.8000  1.6986
 6133WAT    EPW25254   6.101   6.964   5.388 -0.1434 -0.6245  0.2944
 6134WAT      O25255   5.027   0.661   5.388 -0.0020 -0.1198  0.3554
 6134WAT     H125256   5.099   0.639   5.432 -0.5284 -0.5071  1.0579
 6134WAT     H225257   4.989   0.584   5.371 -0.6647  0.1084  0.7406
 6134WAT    EPW25258   5.032   0.646   5.392 -0.1777 -0.1433  0.5161
 6135WAT      O25259   4.958   7.283   5.886 -0.2268  0.1487  0.2569
 6135WAT     H125260   4.920   7.353   5.850 -0.2504  0.3028  0.5753
 6135WAT     H225261   4.909   7.268   5.957 -1.1901 -1.1542 -0.6457
 6135WAT    EPW25262   4.945   7.291   5.892 -0.3726 -0.0210  0.1706
 6136WAT      O25263   6.287   7.134   5.081 -0.2469  0.3317 -0.3198
 6136WAT     H125264   6.206   7.127   5.113 -0.7081  1.4678 -1.1742
 6136WAT     H225265   6.312   7.051   5.069 -1.2259 -0.0323  0.0814
 6136WAT    EPW25266   6.279   7.121   5.084 -0.4596  0.4457 -0.3867
 6137WAT      O25267   5.073   7.419   4.317  0.9552 -0.2305 -0.1239
 6137WAT     H125268   5.003   7.459   4.350  1.2337 -0.1595  0.3844
 6137WAT     H225269   5.138   7.444   4.369  1.3805 -0.2240 -0.6482
 6137WAT    EPW25270   5.072   7.429   4.330  1.0592 -0.2190 -0.1263
 6138WAT      O25271   5.686   1.166   3.148 -0.1323  0.1640  0.1261
 6138WAT     H125272   5.743   1.232   3.151  0.2224 -0.1622  2.3217
 6138WAT     H225273   5.609   1.205   3.134  0.3709  0.7540 -1.1989
 6138WAT    EPW25274   5.683   1.181   3.146 -0.0056  0.2030  0.2547
 6139WAT      O25275   4.390   1.702   5.167 -0.7649  0.9343  0.5798
 6139WAT     H125276   4.417   1.755   5.230 -1.8889  0.6101  1.3589
 6139WAT     H225277   4.307   1.727   5.152 -0.8815  0.2730  0.0349
 6139WAT    EPW25278   4.381   1.713   5.174 -0.9482  0.7888  0.6144
 6140WAT      O25279   5.001   0.760   5.127 -0.7199  0.3813  1.1684
 6140WAT     H125280   5.037   0.739   5.204 -1.2254  0.2199  1.3664
 6140WAT     H225281   5.024   0.844   5.116  2.3934 -0.5161 -0.2306
 6140WAT    EPW25282   5.010   0.769   5.137 -0.3347  0.2249  0.9910
 6141WAT      O25283   3.584   0.361   6.331 -0.4893 -0.7303 -0.2918
 6141WAT     H125284   3.502   0.381   6.355 -0.6911 -2.2908  0.4340
 6141WAT     H225285   3.614   0.315   6.398  1.4431  0.8275 -0.0093
 6141WAT    EPW25286   3.576   0.357   6.344 -0.2337 -0.7307 -0.1428
 6142WAT      O25287   6.049   7.378   5.456  0.6357 -0.1367 -0.6450
 6142WAT     H125288   6.030   7.443   5.401 -0.0718  0.6265  0.4708
 6142WAT     H225289   6.136   7.380   5.460  0.6050  2.4828  1.3176
 6142WAT    EPW25290   6.059   7.388   5.448  0.5266  0.3630 -0.1903
 6143WAT      O25291   4.465   1.436   5.397  0.1783  0.0643  0.3629
 6143WAT     H125292   4.482   1.418   5.314  1.3129 -1.5269  0.8932
 6143WAT     H225293   4.378   1.427   5.403 -0.1508  1.7830 -0.9503
 6143WAT    EPW25294   4.455   1.432   5.386  0.2973  0.0831  0.2473
 6144WAT      O25295   5.257   0.478   2.656  0.2474  0.2275 -0.2141
 6144WAT     H125296   5.203   0.525   2.706  0.2336  0.7618 -0.7213
 6144WAT     H225297   5.202   0.436   2.602  0.2432 -0.5862  0.4088
 6144WAT    EPW25298   5.241   0.479   2.656  0.2447  0.1862 -0.1970
 6145WAT      O25299   5.195   7.631   5.666  0.3682  0.1392  1.0110
 6145WAT     H125300   5.201   7.568   5.726 -2.2105 -1.1986  0.0241
 6145WAT     H225301   5.116   7.665   5.680  0.0631  0.3946 -1.0203
 6145WAT    EPW25302   5.184   7.627   5.677 -0.0578 -0.0207  0.5651
 6146WAT      O25303   6.009   1.764   3.151  0.3222 -0.6172  0.2605
 6146WAT     H125304   5.943   1.820   3.151 -0.2034 -1.2205  0.0491
 6146WAT     H225305   5.977   1.694   3.193  1.4404 -0.2401  1.8300
 6146WAT    EPW25306   5.995   1.762   3.157  0.4097 -0.6506  0.4612
 6147WAT      O25307   3.044   0.563   4.641  0.1170 -0.2733 -0.6359
 6147WAT     H125308   3.049   0.638   4.684 -0.2578  0.7526 -2.2892
 6147WAT     H225309   2.978   0.521   4.679  0.9390 -0.2361  0.9350
 6147WAT    EPW25310   3.035   0.568   4.653  0.1831 -0.1162 -0.6481
 6148WAT      O25311   3.382   0.809   6.409 -0.2622 -0.3964 -0.6397
 6148WAT     H125312   3.449   0.752   6.416 -0.8179 -0.8777  1.4301
 6148WAT     H225313   3.327   0.768   6.355  0.6397 -0.4484 -1.5647
 6148WAT    EPW25314   3.384   0.794   6.402 -0.2111 -0.4751 -0.4706
 6149WAT      O25315   3.659   0.807   5.881  0.7952  0.0398  0.4533
 6149WAT     H125316   3.734   0.837   5.849 -0.0232  0.1232 -1.4887
 6149WAT     H225317   3.614   0.783   5.811 -0.0503 -2.3673  1.7039
 6149WAT    EPW25318   3.663   0.808   5.866  0.5494 -0.3034  0.3512
 6150WAT      O25319   5.315   0.074   4.655  0.4103 -0.2805  0.3121
 6150WAT     H125320   5.328   0.130   4.720 -1.4831  0.7640 -0.1040
 6150WAT     H225321   5.390   0.032   4.647  1.7221  1.7839  1.0729
 6150WAT    EPW25322   5.328   0.076   4.663  0.3244  0.1787  0.3630
 6151WAT      O25323   5.714   7.556   5.653 -0.0466  0.0223  0.4563
 6151WAT     H125324   5.661   7.503   5.698 -0.0504 -1.5920 -1.3483
 6151WAT     H225325   5.794   7.530   5.677 -0.0522 -0.4367 -0.0149
 6151WAT    EPW25326   5.718   7.544   5.663 -0.0480 -0.2839  0.1201
 6152WAT      O25327   4.572   7.304   6.437  0.4509  0.4970  0.1696
 6152WAT     H125328   4.651   7.282   6.466  0.7430 -0.4814 -1.2431
 6152WAT     H225329   4.523   7.234   6.457 -0.3815  1.5601  2.0880
 6152WAT    EPW25330   4.576   7.290   6.444  0.3711  0.5096  0.2443
 6153WAT      O25331   4.431   0.829   5.176 -0.4032  0.5165  0.0932
 6153WAT     H125332   4.431   0.787   5.100  2.1704 -0.4788  0.5413
 6153WAT     H225333   4.514   0.828   5.200 -0.5990  3.6498  1.4225
 6153WAT    EPW25334   4.443   0.823   5.168 -0.0519  0.8323  0.3558
 6154WAT      O25335   5.035   7.045   4.830  0.1337  1.0498 -0.0932
 6154WAT     H125336   4.961   7.055   4.785  0.0389  1.0494  0.0610
 6154WAT     H225337   5.008   7.027   4.911  0.2527  3.1437  0.4842
 6154WAT    EPW25338   5.021   7.044   4.835  0.1372  1.3591  0.0149
 6155WAT      O25339   3.285   1.500   7.301 -0.4792  0.3574 -0.8695
 6155WAT     H125340   3.363   1.531   7.327 -0.8901  0.4717  0.2885
 6155WAT     H225341   3.234   1.511   7.371 -1.5422  0.2633 -1.6063
 6155WAT    EPW25342   3.289   1.506   7.315 -0.6969  0.3604 -0.8073
 6156WAT      O25343   4.669   1.145   4.042 -0.3833 -0.5061  0.2686
 6156WAT     H125344   4.700   1.224   4.061  0.1454 -0.4143 -0.8865
 6156WAT     H225345   4.740   1.098   4.024 -0.8062 -0.5136 -1.6226
 6156WAT    EPW25346   4.684   1.150   4.042 -0.3677 -0.4936 -0.1814
 6157WAT      O25347   3.865   0.497   5.452  0.1948 -0.5171  0.2762
 6157WAT     H125348   3.786   0.492   5.415 -0.6943  1.5490  1.7007
 6157WAT     H225349   3.913   0.540   5.393 -0.3910  0.1973  0.3064
 6157WAT    EPW25350   3.861   0.502   5.438 -0.0231 -0.1063  0.4911
 6158WAT      O25351   4.822   1.600   5.572 -0.2670 -0.4777  0.5750
 6158WAT     H125352   4.842   1.585   5.655 -0.6863  1.3881  1.0388
 6158WAT     H225353   4.736   1.607   5.572 -0.4934 -2.4498 -0.4066
 6158WAT    EPW25354   4.813   1.599   5.584 -0.3624 -0.4934  0.4985
 6159WAT      O25355   5.068   0.726   4.712  0.0586  0.7750 -0.0451
 6159WAT     H125356   5.056   0.807   4.680 -2.1170 -0.1487 -1.8258
 6159WAT     H225357   5.101   0.682   4.644 -3.2500 -0.8787 -0.7854
 6159WAT    EPW25358   5.071   0.732   4.697 -0.7516  0.3943 -0.4175
 6160WAT      O25359   4.579   1.555   3.534  0.0801 -0.0067  0.0903
 6160WAT     H125360   4.660   1.552   3.566 -0.1999  0.9686  0.9672
 6160WAT     H225361   4.531   1.581   3.602 -1.1295 -1.4066 -0.1455
 6160WAT    EPW25362   4.584   1.558   3.549 -0.1400 -0.0694  0.1850
 6161WAT      O25363   4.845   0.661   4.895 -0.3541  0.1845 -0.2625
 6161WAT     H125364   4.896   0.673   4.825 -1.2759  1.8719 -0.7283
 6161WAT     H225365   4.890   0.697   4.960  0.3449 -1.0597 -0.0344
 6161WAT    EPW25366   4.859   0.668   4.894 -0.3870  0.2500 -0.2976
 6162WAT      O25367   4.094   1.366   6.774 -0.1430  0.6957 -0.5851
 6162WAT     H125368   4.079   1.379   6.689  1.5668  0.0212 -1.0445
 6162WAT     H225369   4.094   1.280   6.782 -0.0420  0.7490  0.0410
 6162WAT    EPW25370   4.092   1.355   6.763  0.1245  0.6040 -0.5605
 6163WAT      O25371   5.480   1.242   2.273  0.5593 -0.6627 -0.1042
 6163WAT     H125372   5.432   1.169   2.267 -0.9712  0.2366  0.4858
 6163WAT     H225373   5.435   1.299   2.225  0.7833  0.3353  0.8393
 6163WAT    EPW25374   5.466   1.239   2.265  0.3663 -0.3824  0.1224
 6164WAT      O25375   5.362   0.181   4.904  0.1798 -0.1288  0.0805
 6164WAT     H125376   5.335   0.242   4.960  0.6609 -1.1865  1.5608
 6164WAT     H225377   5.364   0.108   4.953  0.9601 -1.0487 -1.2372
 6164WAT    EPW25378   5.359   0.179   4.920  0.3662 -0.4209  0.1045
 6165WAT      O25379   5.060   0.305   6.156 -0.0790  0.0165  0.0779
 6165WAT     H125380   5.049   0.390   6.172 -0.8271 -0.1667  0.6071
 6165WAT     H225381   5.131   0.302   6.106  0.8755  0.8470  1.3059
 6165WAT    EPW25382   5.068   0.317   6.151 -0.0485  0.1121  0.3374
 6166WAT      O25383   3.923   5.718   3.538 -0.5798  0.6516 -0.5389
 6166WAT     H125384   3.871   5.772   3.581 -0.0322  2.2396 -1.7447
 6166WAT     H225385   3.870   5.653   3.512 -1.2685  0.6227  0.8831
 6166WAT    EPW25386   3.908   5.716   3.540 -0.6006  0.8819 -0.5070
 6167WAT      O25387   4.707   1.853   4.121 -0.4266 -0.1408 -0.7019
 6167WAT     H125388   4.723   1.936   4.145 -0.5165 -0.0465 -0.9618
 6167WAT     H225389   4.628   1.837   4.152 -0.0725 -0.4112  0.0780
 6167WAT    EPW25390   4.698   1.863   4.129 -0.3876 -0.1668 -0.6250
 6168WAT      O25391   4.544   7.627   3.998 -0.2501 -0.1273 -0.3026
 6168WAT     H125392   4.595   7.587   3.939  1.7847  0.2448  1.1020
 6168WAT     H225393   4.500   7.685   3.950  1.7984  0.6094 -1.4176
 6168WAT    EPW25394   4.545   7.630   3.982  0.3531  0.0365 -0.2598
 6169WAT      O25395   3.876   0.859   4.137 -0.3782 -0.2276 -0.3664
 6169WAT     H125396   3.937   0.803   4.107 -0.9782 -1.1762  0.1207
 6169WAT     H225397   3.886   0.856   4.223  0.7613  1.8346 -0.3539
 6169WAT    EPW25398   3.887   0.850   4.145 -0.2985 -0.0631 -0.2926
 6170WAT      O25399   4.760   0.722   3.909 -0.5988  0.0185  0.6006
 6170WAT     H125400   4.795   0.728   3.989  0.2058  0.3394  0.2260
 6170WAT     H225401   4.789   0.645   3.880 -0.8820 -0.0928  0.6055
 6170WAT    EPW25402   4.769   0.711   3.917 -0.5218  0.0495  0.5460
 6171WAT      O25403   4.320   0.617   5.357 -0.1492  0.1010 -0.1317
 6171WAT     H125404   4.252   0.608   5.304 -0.4790  0.1040  0.2889
 6171WAT     H225405   4.362   0.687   5.325  0.6984 -0.9711 -1.5093
 6171WAT    EPW25406   4.316   0.626   5.345 -0.0727 -0.0569 -0.2730
 6172WAT      O25407   4.490   2.039   6.599 -0.5153  0.4218 -0.0492
 6172WAT     H125408   4.443   1.966   6.599 -0.7132  0.5274 -1.3191
 6172WAT     H225409   4.539   2.032   6.671 -0.0122 -1.3000 -0.5054
 6172WAT    EPW25410   4.491   2.027   6.610 -0.4702  0.1830 -0.3042
 6173WAT      O25411   6.529   7.640   6.967 -0.0224 -0.2826 -0.4175
 6173WAT     H125412   6.518   7.709   6.913 -0.2389 -0.2840 -0.3763
 6173WAT     H225413   6.523   7.572   6.913 -1.8361 -0.3566 -0.1728
 6173WAT    EPW25414   6.526   7.640   6.951 -0.3223 -0.2937 -0.3753
 6174WAT      O25415   5.000   1.771   4.225 -0.1198  0.2645  0.4241
 6174WAT     H125416   4.918   1.747   4.245  0.1280 -0.7458  0.2832
 6174WAT     H225417   5.011   1.740   4.144  0.5524 -0.0214  0.6174
 6174WAT    EPW25418   4.989   1.763   4.216  0.0161  0.0730  0.4318
 6175WAT      O25419   5.883   7.586   6.099 -0.1355  0.0728 -0.6432
 6175WAT     H125420   5.823   7.562   6.158  1.4862 -2.8683  0.0366
 6175WAT     H225421   5.836   7.621   6.035 -2.2385  0.7600  1.1492
 6175WAT    EPW25422   5.868   7.587   6.098 -0.2066 -0.2602 -0.2780
 6176WAT      O25423   3.598   6.806   5.347  0.8867  0.0899  0.1956
 6176WAT     H125424   3.679   6.825   5.320  1.1195 -1.6679 -0.5094
 6176WAT     H225425   3.572   6.745   5.289 -0.3287 -0.5114  1.3347
 6176WAT    EPW25426   3.606   6.800   5.334  0.7415 -0.2586  0.2597
 6177WAT      O25427   3.398   1.330   6.166 -0.2083  0.4208  0.9982
 6177WAT     H125428   3.402   1.248   6.195 -0.3899 -0.3299 -0.9856
 6177WAT     H225429   3.430   1.377   6.233  0.5043 -1.2984  1.9245
 6177WAT    EPW25430   3.403   1.325   6.180 -0.1299  0.0559  0.8420
 6178WAT      O25431   3.311   2.029   3.995 -0.2065  0.0030 -0.0859
 6178WAT     H125432   3.384   2.051   4.037 -1.3702  0.9824  1.5178
 6178WAT     H225433   3.298   2.095   3.940 -0.7200  0.6527  0.7866
 6178WAT    EPW25434   3.320   2.042   3.993 -0.4542  0.2437  0.2799
 6179WAT      O25435   3.964   0.246   4.254  0.2445  0.0097 -0.0073
 6179WAT     H125436   3.939   0.329   4.250 -1.0929 -0.2279  1.9394
 6179WAT     H225437   4.050   0.251   4.266  0.4176  1.0411 -1.4649
 6179WAT    EPW25438   3.973   0.259   4.255  0.0725  0.1270  0.0649
 6180WAT      O25439   4.098   2.122   3.987  0.0768 -0.1473 -0.3135
 6180WAT     H125440   4.128   2.194   3.946 -0.1754 -0.0173 -0.2687
 6180WAT     H225441   4.014   2.139   3.999  0.3246  0.2132  1.0700
 6180WAT    EPW25442   4.090   2.135   3.983  0.0762 -0.0749 -0.1025
 6181WAT      O25443   6.477   6.395   5.788 -0.4868 -0.0540 -0.2740
 6181WAT     H125444   6.401   6.433   5.812 -0.3631  2.0534 -2.7741
 6181WAT     H225445   6.489   6.423   5.706  2.2792 -1.5275 -0.4874
 6181WAT    EPW25446   6.467   6.405   5.780 -0.0599  0.0397 -0.6748
 6182WAT      O25447   5.707   0.419   2.411 -0.2197 -1.0920 -0.4578
 6182WAT     H125448   5.756   0.453   2.347 -0.9530  2.6650  0.7213
 6182WAT     H225449   5.638   0.385   2.369 -0.3304  0.6318 -1.7644
 6182WAT    EPW25450   5.704   0.419   2.395 -0.3443 -0.2824 -0.4766
 6183WAT      O25451   5.297   0.926   5.385 -0.3097 -0.3881 -0.0587
 6183WAT     H125452   5.241   0.955   5.325 -0.6220 -1.4875 -0.3212
 6183WAT     H225453   5.337   0.859   5.345 -0.9523 -1.5323  1.1485
 6183WAT    EPW25454   5.295   0.921   5.370 -0.4507 -0.7196  0.0808
 6184WAT      O25455   4.137   1.006   4.806  0.2352 -0.0615  0.4564
 6184WAT     H125456   4.209   1.037   4.844  1.4881  0.8626 -2.3638
 6184WAT     H225457   4.168   0.957   4.740 -1.6293  1.2302 -1.5335
 6184WAT    EPW25458   4.152   1.003   4.802  0.1448  0.2658 -0.2542
 6185WAT      O25459   5.758   0.728   1.681  0.5000 -0.5140  0.0792
 6185WAT     H125460   5.727   0.735   1.600  1.4197  1.5385 -0.1565
 6185WAT     H225461   5.817   0.664   1.675  0.0406 -0.8802 -0.6777
 6185WAT    EPW25462   5.762   0.720   1.668  0.5680 -0.2649 -0.0674
 6186WAT      O25463   5.091   1.808   5.089  0.3421 -0.0888 -0.5717
 6186WAT     H125464   5.150   1.759   5.131 -0.1388 -1.1620 -1.1010
 6186WAT     H225465   5.016   1.764   5.099 -0.4096  1.2737  0.1234
 6186WAT    EPW25466   5.089   1.794   5.097  0.1600 -0.0460 -0.5472
 6187WAT      O25467   4.606   7.299   1.567  0.1134 -0.2030 -0.5158
 6187WAT     H125468   4.571   7.320   1.644  0.5118  1.4635 -0.7455
 6187WAT     H225469   4.674   7.354   1.560 -0.8191  0.7996 -2.7018
 6187WAT    EPW25470   4.610   7.310   1.577  0.0345  0.1913 -0.8727
 6188WAT      O25471   5.167   7.317   3.135 -0.7686  0.2288 -0.1573
 6188WAT     H125472   5.197   7.250   3.181  0.2355  1.3247  0.8421
 6188WAT     H225473   5.212   7.385   3.166 -0.8633  1.1836 -2.0032
 6188WAT    EPW25474   5.178   7.317   3.147 -0.6343  0.5317 -0.2823
 6189WAT      O25475   4.933   7.601   0.787 -0.2475 -0.0999 -0.8435
 6189WAT     H125476   4.868   7.608   0.729 -0.8278  0.0313 -0.1989
 6189WAT     H225477   4.892   7.610   0.864  0.6696  0.9615 -0.4520
 6189WAT    EPW25478   4.917   7.603   0.790 -0.1977  0.0762 -0.6905
 6190WAT      O25479   4.892   1.372   3.431  0.1109 -0.2872 -0.1475
 6190WAT     H125480   4.832   1.320   3.395 -0.9624  0.6683  0.2015
 6190WAT     H225481   4.960   1.365   3.377 -0.2105 -1.5881 -0.4175
 6190WAT    EPW25482   4.893   1.364   3.418 -0.0951 -0.3382 -0.1358
 6191WAT      O25483   6.491   0.974   1.405 -0.4746 -1.0655 -0.0909
 6191WAT     H125484   6.470   1.054   1.435  1.7120 -0.6370  0.5056
 6191WAT     H225485   6.415   0.940   1.381 -1.6623  0.6394  1.0492
 6191WAT    EPW25486   6.477   0.981   1.406 -0.3270 -0.7503  0.1657
 6192WAT      O25487   4.243   1.268   1.997 -0.0870  0.0789  1.2208
 6192WAT     H125488   4.210   1.329   1.945  1.8031 -0.8816 -1.3703
 6192WAT     H225489   4.309   1.308   2.037  1.9319 -0.3660 -1.3873
 6192WAT    EPW25490   4.248   1.283   1.995  0.4905 -0.1287  0.4528
 6193WAT      O25491   3.213   0.124   4.606  0.2942  0.0176  0.2654
 6193WAT     H125492   3.218   0.210   4.593 -0.0799 -0.0354 -0.2548
 6193WAT     H225493   3.127   0.109   4.614  0.0760 -0.6862 -2.4970
 6193WAT    EPW25494   3.201   0.135   4.605  0.2067 -0.0942 -0.2195
 6194WAT      O25495   5.203   0.646   4.472 -0.1361  0.1548  0.2058
 6194WAT     H125496   5.258   0.580   4.459  1.3036  1.2519  0.4504
 6194WAT     H225497   5.210   0.693   4.398 -0.1711  0.6999  0.5468
 6194WAT    EPW25498   5.212   0.643   4.459  0.0714  0.3974  0.2923
 6195WAT      O25499   3.969   0.225   1.695 -0.1706  0.2809  0.2685
 6195WAT     H125500   4.028   0.288   1.684 -0.8940  0.9261 -0.0090
 6195WAT     H225501   3.932   0.245   1.772  2.1122 -1.9394  2.1522
 6195WAT    EPW25502   3.972   0.237   1.705  0.0598  0.0482  0.5058
 6196WAT      O25503   4.763   7.657   1.507 -0.3734 -0.3195 -0.5931
 6196WAT     H125504   4.703   7.641   1.446 -0.6151  0.5962 -0.6228
 6196WAT     H225505   4.836   7.623   1.474 -0.4985  0.1767 -1.4112
 6196WAT    EPW25506   4.765   7.650   1.493 -0.4276 -0.1109 -0.7183
 6197WAT      O25507   3.964   1.106   3.369  0.2126 -0.1451  0.4878
 6197WAT     H125508   3.985   1.178   3.413  0.3790  0.0920  0.0185
 6197WAT     H225509   3.902   1.070   3.419 -0.7069  0.9127  0.1387
 6197WAT    EPW25510   3.958   1.111   3.383  0.1013  0.0462  0.3669
 6198WAT      O25511   5.356   0.045   1.484  0.0374 -0.8546 -0.2634
 6198WAT     H125512   5.394  -0.002   1.421  0.5945  0.1608 -0.6964
 6198WAT     H225513   5.424   0.078   1.528 -0.3530 -0.2116 -0.1416
 6198WAT    EPW25514   5.372   0.043   1.482  0.0620 -0.6096 -0.3094
 6199WAT      O25515   3.941   7.070   0.738  0.3872  0.2823 -0.1257
 6199WAT     H125516   3.980   7.090   0.663  0.3247 -0.6032 -0.4102
 6199WAT     H225517   3.863   7.038   0.712  0.6813 -0.7832  0.2550
 6199WAT    EPW25518   3.935   7.068   0.723  0.4214 -0.0059 -0.1115
 6200WAT      O25519   5.585   1.164   3.679 -0.5698  0.0912  0.4012
 6200WAT     H125520   5.498   1.163   3.685 -0.6298  1.5533  0.1490
 6200WAT     H225521   5.611   1.191   3.758 -0.1240 -3.2356  1.5573
 6200WAT    EPW25522   5.576   1.168   3.691 -0.5128 -0.1843  0.5347
 6201WAT      O25523   2.950   6.343   1.439  0.1879 -0.4972  0.4133
 6201WAT     H125524   2.982   6.422   1.458 -0.6796 -0.0013 -0.1144
 6201WAT     H225525   2.904   6.357   1.367  0.8868 -1.7100 -0.3064
 6201WAT    EPW25526   2.948   6.357   1.431  0.1630 -0.6031  0.2290
 6202WAT      O25527   5.565   0.809   2.037 -0.0814 -0.3735 -0.0524
 6202WAT     H125528   5.591   0.892   2.028 -2.2666  0.2469 -1.5587
 6202WAT     H225529   5.541   0.803   2.120  1.5241  0.0004  0.4735
 6202WAT    EPW25530   5.565   0.820   2.048 -0.1670 -0.2266 -0.1972
 6203WAT      O25531   4.001   0.550   3.602  0.4462  0.6155  0.1317
 6203WAT     H125532   3.952   0.543   3.674  1.9103  1.1275  1.2313
 6203WAT     H225533   3.963   0.615   3.558  0.6861  1.6936  1.4396
 6203WAT    EPW25534   3.988   0.559   3.606  0.6980  0.8504  0.4874
 6204WAT      O25535   4.894   0.867   1.291  0.5912  0.0728 -0.0638
 6204WAT     H125536   4.843   0.896   1.356  0.8703 -1.6855  1.0016
 6204WAT     H225537   4.844   0.809   1.250  2.0166 -2.7325  1.8378
 6204WAT    EPW25538   4.879   0.863   1.294  0.8430 -0.6013  0.3745
 6205WAT      O25539   3.773   1.635   2.123 -0.3109 -0.0827  0.6063
 6205WAT     H125540   3.817   1.609   2.194 -0.2372 -2.6742 -0.2679
 6205WAT     H225541   3.744   1.714   2.145  0.2576 -0.4944  3.2618
 6205WAT    EPW25542   3.775   1.643   2.137 -0.2161 -0.5263  0.8694
 6206WAT      O25543   5.445   0.810   3.070 -0.1222  0.3988 -0.5776
 6206WAT     H125544   5.529   0.834   3.068  0.3663 -1.2480 -1.4401
 6206WAT     H225545   5.438   0.762   3.142 -0.7710  1.9379  0.4232
 6206WAT    EPW25546   5.456   0.807   3.080 -0.1459  0.3829 -0.5572
 6207WAT      O25547   4.707   0.688   1.242 -0.1960 -0.3126 -0.2315
 6207WAT     H125548   4.650   0.686   1.175 -2.8374 -0.8771  1.8687
 6207WAT     H225549   4.731   0.605   1.251 -0.4682 -0.3646  0.0162
 6207WAT    EPW25550   4.702   0.676   1.233 -0.6264 -0.4037  0.1153
 6208WAT      O25551   4.096   1.499   2.619  0.0307 -0.1147 -0.2206
 6208WAT     H125552   4.110   1.464   2.697 -0.6683 -2.4734 -1.0730
 6208WAT     H225553   4.161   1.468   2.570  0.5036  1.3942 -0.6189
 6208WAT    EPW25554   4.107   1.489   2.623 -0.0027 -0.2402 -0.4054
 6209WAT      O25555   5.300   1.052   4.537 -0.0518  0.2204  0.4501
 6209WAT     H125556   5.347   0.986   4.568 -0.8674  0.2117  1.7395
 6209WAT     H225557   5.336   1.068   4.459 -0.2755 -2.1761 -0.2196
 6209WAT    EPW25558   5.312   1.045   4.530 -0.2053 -0.1349  0.5417
 6210WAT      O25559   6.048   2.452   2.858 -0.1106 -0.1502  0.5368
 6210WAT     H125560   5.971   2.466   2.897  0.6665  0.1065  2.0503
 6210WAT     H225561   6.083   2.387   2.905 -0.1502 -1.5473 -1.2652
 6210WAT    EPW25562   6.042   2.444   2.871 -0.0017 -0.3187  0.4942
 6211WAT      O25563   6.434   1.829   2.586 -0.1809 -0.1007 -0.5725
 6211WAT     H125564   6.347   1.821   2.583 -0.0999 -1.5651 -0.1459
 6211WAT     H225565   6.457   1.837   2.503 -0.6111 -1.6668 -0.8859
 6211WAT    EPW25566   6.425   1.829   2.574 -0.2325 -0.5484 -0.5558
 6212WAT      O25567   4.711   1.161   2.353 -0.5298 -0.3812 -0.4112
 6212WAT     H125568   4.762   1.094   2.378  1.7867  2.0971  2.2231
 6212WAT     H225569   4.768   1.227   2.343 -2.9276  1.9028 -0.0175
 6212WAT    EPW25570   4.727   1.161   2.355 -0.5418  0.3223  0.0361
 6213WAT      O25571   4.387   0.661   4.167 -0.2714 -0.3206  0.3607
 6213WAT     H125572   4.433   0.608   4.219  0.6378  1.0692  1.0549
 6213WAT     H225573   4.418   0.644   4.087  0.8187 -0.0635  0.7144
 6213WAT    EPW25574   4.399   0.651   4.163  0.0239 -0.0773  0.5155
 6214WAT      O25575   3.473   0.530   2.650 -0.4039  0.3776 -0.2325
 6214WAT     H125576   3.550   0.530   2.692  0.4887 -1.8027 -1.6915
 6214WAT     H225577   3.416   0.551   2.713  1.2147  0.6272  1.2447
 6214WAT    EPW25578   3.476   0.534   2.666 -0.0330  0.0924 -0.2298
 6215WAT      O25579   3.325   7.599   3.354 -0.1428  0.1580 -1.0917
 6215WAT     H125580   3.276   7.575   3.422 -0.1832 -0.1836 -1.2394
 6215WAT     H225581   3.386   7.538   3.350  0.5210  0.7799 -0.6906
 6215WAT    EPW25582   3.327   7.587   3.363 -0.0507  0.1994 -1.0543
 6216WAT      O25583   4.171   0.778   2.849  0.5779 -0.2630 -0.3929
 6216WAT     H125584   4.134   0.852   2.821 -0.5602 -0.8374 -0.4972
 6216WAT     H225585   4.119   0.716   2.816  1.2473 -1.0873  0.0651
 6216WAT    EPW25586   4.158   0.780   2.840  0.5086 -0.4696 -0.3406
 6217WAT      O25587   2.197   1.705   4.166 -0.3157 -0.2921  0.1708
 6217WAT     H125588   2.117   1.739   4.154 -0.2056  0.3293  1.1254
 6217WAT     H225589   2.250   1.768   4.138 -0.1476 -0.7718 -0.6196
 6217WAT    EPW25590   2.193   1.719   4.160 -0.2746 -0.2712  0.1951
 6218WAT      O25591   3.611   0.288   2.794 -0.0044 -0.5683  0.0948
 6218WAT     H125592   3.683   0.296   2.746  0.0367  2.0129  0.4435
 6218WAT     H225593   3.631   0.330   2.868 -2.2871  1.6119 -0.3705
 6218WAT    EPW25594   3.625   0.295   2.798 -0.3355  0.1351  0.0776
 6219WAT      O25595   4.041   7.534   2.715  0.0319  0.1726 -0.1658
 6219WAT     H125596   4.105   7.587   2.739  0.5312  0.3205 -1.7199
 6219WAT     H225597   4.063   7.457   2.750  0.9688  0.2719 -0.5190
 6219WAT    EPW25598   4.054   7.530   2.724  0.2440  0.2091 -0.4476
 6220WAT      O25599   4.715   0.375   2.590  0.3604  0.2184 -0.5847
 6220WAT     H125600   4.731   0.429   2.523 -1.5331  1.7314  0.0863
 6220WAT     H225601   4.793   0.368   2.629  0.5033  3.7561  0.1398
 6220WAT    EPW25602   4.729   0.382   2.586  0.1018  0.9645 -0.3785
 6221WAT      O25603   6.714   2.360   2.836  0.0692  0.0647  0.6296
 6221WAT     H125604   6.734   2.314   2.906  1.5726  2.2235  1.7481
 6221WAT     H225605   6.666   2.426   2.867 -0.2762  0.4043 -0.5512
 6221WAT    EPW25606   6.710   2.363   2.851  0.2403  0.4337  0.6204
 6222WAT      O25607   4.055   0.637   2.478 -0.2240 -0.2924 -0.1435
 6222WAT     H125608   4.062   0.649   2.392 -0.3226 -1.1296 -0.2803
 6222WAT     H225609   4.137   0.649   2.506 -0.3875  1.0476 -0.1948
 6222WAT    EPW25610   4.068   0.641   2.469 -0.2627 -0.2181 -0.1713
 6223WAT      O25611   4.088   0.365   2.577 -0.5149  0.1526  0.2384
 6223WAT     H125612   4.158   0.358   2.629 -0.5542 -2.3339  0.0748
 6223WAT     H225613   4.113   0.422   2.516 -0.3759  2.9912  2.6904
 6223WAT    EPW25614   4.102   0.373   2.576 -0.5002  0.2046  0.5765
 6224WAT      O25615   5.577   0.750   2.317 -0.0842  0.2279  0.1373
 6224WAT     H125616   5.655   0.722   2.345  0.0214  1.0373  0.6702
 6224WAT     H225617   5.521   0.696   2.356  0.2469 -1.3982 -1.4965
 6224WAT    EPW25618   5.580   0.738   2.327 -0.0197  0.1072 -0.0254
 6225WAT      O25619   4.220   2.032   2.713  0.0742  0.0827  0.0734
 6225WAT     H125620   4.181   2.020   2.790  0.2583 -1.3463 -0.0231
 6225WAT     H225621   4.164   1.998   2.656  0.6427 -0.3191 -0.2534
 6225WAT    EPW25622   4.206   2.025   2.716  0.1854 -0.1878  0.0108
 6226WAT      O25623   3.213   6.703   1.377 -0.1560 -0.1483  0.6192
 6226WAT     H125624   3.284   6.712   1.427  1.3553 -1.1582 -1.2016
 6226WAT     H225625   3.182   6.784   1.372  2.1839  0.8057 -0.2820
 6226WAT    EPW25626   3.219   6.717   1.384  0.4129 -0.1565  0.2171
 6227WAT      O25627   5.136   7.177   1.780 -0.2428  0.1021  0.0373
 6227WAT     H125628   5.089   7.237   1.738 -0.3788 -0.3581 -0.4796
 6227WAT     H225629   5.218   7.204   1.768 -0.3812  1.3406  1.6095
 6227WAT    EPW25630   5.141   7.190   1.772 -0.2833  0.2171  0.1932
 6228WAT      O25631   3.336   1.427   2.577  0.0749 -0.1506 -0.4701
 6228WAT     H125632   3.410   1.381   2.580  0.2157  0.1300  0.7532
 6228WAT     H225633   3.307   1.414   2.496  1.1725 -0.7205 -0.7867
 6228WAT    EPW25634   3.342   1.418   2.565  0.2578 -0.1933 -0.3361
 6229WAT      O25635   5.776   0.486   2.691  0.4525  0.1237  0.2780
 6229WAT     H125636   5.763   0.476   2.605  1.3469 -0.9346  0.2421
 6229WAT     H225637   5.862   0.475   2.700  0.0821 -2.2411  1.5867
 6229WAT    EPW25638   5.787   0.483   2.679  0.5299 -0.3820  0.4660
 6230WAT      O25639   4.332   1.028   3.544  0.0243  0.2739  0.0062
 6230WAT     H125640   4.281   1.093   3.574 -1.0583 -0.6117  0.1775
 6230WAT     H225641   4.336   1.043   3.458 -0.4905  0.3986  0.0008
 6230WAT    EPW25642   4.325   1.040   3.536 -0.2116  0.1615  0.0307
 6231WAT      O25643   4.663   6.958   3.347  0.0858 -0.2626 -1.0834
 6231WAT     H125644   4.593   6.915   3.376  0.6796  0.9119  2.6264
 6231WAT     H225645   4.715   6.895   3.317 -0.1737 -1.9260  1.6696
 6231WAT    EPW25646   4.660   6.942   3.347  0.1352 -0.3348 -0.1287
 6232WAT      O25647   5.283   1.353   3.901  0.3351 -0.3267 -0.6085
 6232WAT     H125648   5.290   1.282   3.851 -0.2069 -1.8839  1.3700
 6232WAT     H225649   5.201   1.380   3.886  0.5636 -0.0640 -1.4230
 6232WAT    EPW25650   5.272   1.346   3.892  0.2888 -0.5179 -0.4366
 6233WAT      O25651   4.076   0.729   3.979  0.3827  0.0498 -0.7406
 6233WAT     H125652   4.051   0.779   3.912  1.4625  0.0729 -1.1431
 6233WAT     H225653   4.160   0.751   3.991 -0.0584  0.9163  1.3890
 6233WAT    EPW25654   4.084   0.740   3.971  0.4770  0.1812 -0.4855
 6234WAT      O25655   6.140   0.505   1.083  0.2633 -0.4494 -0.1847
 6234WAT     H125656   6.200   0.444   1.063 -0.5664 -1.6156  0.6913
 6234WAT     H225657   6.084   0.501   1.017 -0.0783 -1.0654  0.1253
 6234WAT    EPW25658   6.141   0.495   1.070  0.0903 -0.7127 -0.0095
 6235WAT      O25659   5.592   0.095   2.169  0.2732 -0.3471  0.0835
 6235WAT     H125660   5.513   0.070   2.142 -0.6771  1.6416  0.8159
 6235WAT     H225661   5.630   0.020   2.191 -1.5348 -1.3541  0.0055
 6235WAT    EPW25662   5.586   0.080   2.169 -0.1343 -0.2021  0.1802
 6236WAT      O25663   5.719   7.032   3.276 -0.3669 -0.2853 -0.4498
 6236WAT     H125664   5.766   7.101   3.252 -0.4177  0.2863  0.9991
 6236WAT     H225665   5.665   7.019   3.208 -0.6904  1.4049 -0.5431
 6236WAT    EPW25666   5.718   7.040   3.262 -0.4222  0.0488 -0.2495
 6237WAT      O25667   4.876   0.158   2.877  0.5397 -0.1703 -0.0716
 6237WAT     H125668   4.823   0.114   2.823  0.2972 -0.8048  0.6621
 6237WAT     H225669   4.821   0.190   2.937  0.6231  1.6900 -0.9024
 6237WAT    EPW25670   4.860   0.156   2.878  0.5162  0.0108 -0.0860
 6238WAT      O25671   5.330   0.834   3.371 -0.3766 -0.1318  0.0492
 6238WAT     H125672   5.381   0.813   3.438  0.9140  1.1251 -0.4900
 6238WAT     H225673   5.292   0.758   3.350  2.2016 -1.4565 -0.2655
 6238WAT    EPW25674   5.332   0.820   3.378  0.1949 -0.1418 -0.0770
 6239WAT      O25675   4.318   0.773   3.339  0.2420 -0.0174 -0.6269
 6239WAT     H125676   4.308   0.832   3.403  0.7668 -0.4397 -0.1440
 6239WAT     H225677   4.279   0.810   3.271  1.6156  1.4556 -0.6738
 6239WAT    EPW25678   4.311   0.788   3.338  0.5224  0.1378 -0.5625
 6240WAT      O25679   4.655   2.386   4.355 -0.2891 -0.4363 -0.2206
 6240WAT     H125680   4.603   2.324   4.388 -0.8653  0.2020  0.0883
 6240WAT     H225681   4.608   2.419   4.289  0.5680 -1.2326 -1.2599
 6240WAT    EPW25682   4.640   2.382   4.350 -0.2476 -0.4597 -0.3285
 6241WAT      O25683   5.463   0.736   3.605 -0.0700  0.1861 -0.2237
 6241WAT     H125684   5.496   0.658   3.584  1.0130  0.6258 -0.2368
 6241WAT     H225685   5.414   0.719   3.674 -1.3489 -0.8041 -1.3192
 6241WAT    EPW25686   5.461   0.722   3.612 -0.0989  0.1048 -0.3875
 6242WAT      O25687   6.171   0.573   3.771  0.3605  0.2322 -0.1368
 6242WAT     H125688   6.229   0.509   3.756 -0.9261 -1.0208  0.0474
 6242WAT     H225689   6.163   0.573   3.858 -0.9739 -0.6131 -0.2378
 6242WAT    EPW25690   6.179   0.563   3.782 -0.0267 -0.0778 -0.1245
 6243WAT      O25691   4.498   0.044   4.260  0.1599 -0.2819 -0.9257
 6243WAT     H125692   4.519   0.000   4.187 -0.3018 -1.1575 -0.5496
 6243WAT     H225693   4.421   0.009   4.283  1.3836 -1.7160  1.2709
 6243WAT    EPW25694   4.490   0.032   4.252  0.2724 -0.6231 -0.5457
 6244WAT      O25695   4.519   0.223   2.445 -0.5794  0.4723  0.3745
 6244WAT     H125696   4.566   0.261   2.507  0.8281 -0.6658  0.0448
 6244WAT     H225697   4.465   0.170   2.489 -1.2312  1.4041  0.7231
 6244WAT    EPW25698   4.518   0.221   2.461 -0.4678  0.4418  0.3773
 6245WAT      O25699   3.095   0.145   2.238 -0.5993 -0.3518  0.1827
 6245WAT     H125700   3.054   0.219   2.259 -2.3097 -1.6502  1.7765
 6245WAT     H225701   3.178   0.160   2.262 -0.9090  1.0053  0.4930
 6245WAT    EPW25702   3.101   0.158   2.244 -0.8977 -0.3432  0.4640
 6246WAT      O25703   6.958   0.442   1.549 -0.4024 -0.2326  0.2444
 6246WAT     H125704   7.014   0.462   1.613  0.7622 -0.4011 -0.6991
 6246WAT     H225705   6.888   0.413   1.593 -0.0859  0.7441  1.4682
 6246WAT    EPW25706   6.956   0.440   1.565 -0.1836 -0.1132  0.2858
 6247WAT      O25707   4.211   0.259   3.725 -0.3244 -0.3536  0.4293
 6247WAT     H125708   4.199   0.281   3.808 -1.7283  1.1623 -0.1443
 6247WAT     H225709   4.271   0.316   3.697 -1.6174  0.7308 -0.2093
 6247WAT    EPW25710   4.218   0.270   3.733 -0.7228  0.0305  0.2503
 6248WAT      O25711   5.619   2.288   2.460  0.5937  0.1214  0.0244
 6248WAT     H125712   5.559   2.242   2.417  0.4344  0.2608  0.0974
 6248WAT     H225713   5.573   2.329   2.522  0.8555 -0.2821  0.4911
 6248WAT    EPW25714   5.603   2.287   2.463  0.6088  0.0824  0.1042
 6249WAT      O25715   5.404   6.742   2.103 -0.0585  0.1215  0.7183
 6249WAT     H125716   5.331   6.696   2.111 -0.5446  0.5374 -0.9741
 6249WAT     H225717   5.383   6.803   2.045  1.0307  1.5411  1.7488
 6249WAT    EPW25718   5.390   6.744   2.096  0.0306  0.3927  0.6205
 6250WAT      O25719   6.290   0.106   2.161  0.0636 -0.2577 -0.1295
 6250WAT     H125720   6.326   0.121   2.239 -0.9146 -1.0191  0.5033
 6250WAT     H225721   6.341   0.150   2.105  2.6192 -2.1318  0.5535
 6250WAT    EPW25722   6.303   0.115   2.164  0.2966 -0.6470  0.0649
 6251WAT      O25723   4.149   0.183   4.630  0.2119 -0.5157  0.3775
 6251WAT     H125724   4.077   0.134   4.638 -0.5826  0.5979  0.2699
 6251WAT     H225725   4.132   0.252   4.681 -0.9488  2.1573 -3.2516
 6251WAT    EPW25726   4.135   0.186   4.639 -0.0769  0.0437 -0.1745
 6252WAT      O25727   5.259   0.216   0.423 -0.5348  0.2987  0.3359
 6252WAT     H125728   5.187   0.263   0.434 -0.4325  0.3700  0.6951
 6252WAT     H225729   5.252   0.188   0.340 -0.7972  0.5960  0.2557
 6252WAT    EPW25730   5.247   0.219   0.412 -0.5584  0.3531  0.3771
 6253WAT      O25731   5.674   7.627   3.181 -0.1758  0.6089  0.2438
 6253WAT     H125732   5.641   7.546   3.185  1.1398  0.0861  1.9388
 6253WAT     H225733   5.643   7.665   3.253 -1.6299  2.0286 -1.0561
 6253WAT    EPW25734   5.665   7.621   3.192 -0.1962  0.7414  0.3021
 6254WAT      O25735   3.718   0.598   2.790 -0.2500  0.5549  0.1974
 6254WAT     H125736   3.800   0.574   2.809 -0.1474  0.4676 -0.3540
 6254WAT     H225737   3.693   0.641   2.862 -0.2404 -0.6978  0.9944
 6254WAT    EPW25738   3.727   0.601   2.804 -0.2334  0.3570  0.2337
 6255WAT      O25739   4.652   0.097   3.683  0.3164 -0.3138 -0.6009
 6255WAT     H125740   4.576   0.085   3.722  0.9060 -1.2037  0.3315
 6255WAT     H225741   4.709   0.103   3.749  0.9590  1.2036 -1.2403
 6255WAT    EPW25742   4.649   0.096   3.698  0.4984 -0.2211 -0.5576
 6256WAT      O25743   3.332   0.562   2.185  0.2540 -0.5176  0.4086
 6256WAT     H125744   3.382   0.622   2.224  0.0158  0.1042 -0.2293
 6256WAT     H225745   3.252   0.597   2.189  0.4266  0.3184 -2.0337
 6256WAT    EPW25746   3.327   0.576   2.192  0.2443 -0.3023 -0.0464
 6257WAT      O25747   3.658   0.462   0.633  0.4551  0.2596 -0.4293
 6257WAT     H125748   3.671   0.499   0.555  2.2229 -0.5192 -0.5475
 6257WAT     H225749   3.624   0.527   0.681  1.3188  1.3784 -1.2677
 6257WAT    EPW25750   3.655   0.477   0.628  0.8438  0.3098 -0.5706
 6258WAT      O25751   3.855   0.741   3.466  0.4000  0.3632 -0.5188
 6258WAT     H125752   3.898   0.758   3.392 -0.0832  0.0186 -0.8860
 6258WAT     H225753   3.849   0.818   3.506  1.8479  0.3296 -0.1917
 6258WAT    EPW25754   3.860   0.755   3.461  0.5425  0.3074 -0.5247
 6259WAT      O25755   5.550   6.973   2.706  0.5258 -0.0845 -0.6584
 6259WAT     H125756   5.588   6.953   2.630  0.9858 -0.4908 -0.3300
 6259WAT     H225757   5.465   6.960   2.691  0.7516 -1.8275 -0.6249
 6259WAT    EPW25758   5.543   6.968   2.692  0.6271 -0.4020 -0.6049
 6260WAT      O25759   6.510   0.847   0.404 -0.1849  0.4446  0.0473
 6260WAT     H125760   6.594   0.867   0.416 -0.0055  0.6305 -1.3040
 6260WAT     H225761   6.505   0.830   0.318 -1.6614  1.1018 -0.0307
 6260WAT    EPW25762   6.521   0.847   0.393 -0.3765  0.5692 -0.1638
 6261WAT      O25763   3.693   0.700   3.782 -0.3492 -0.1367 -0.1537
 6261WAT     H125764   3.663   0.749   3.847  0.8311  0.9196 -0.3656
 6261WAT     H225765   3.758   0.747   3.748 -0.8316 -0.7044 -2.0194
 6261WAT    EPW25766   3.698   0.714   3.786 -0.2461 -0.0645 -0.4606
 6262WAT      O25767   5.383   1.057   1.835 -0.4663 -0.0806 -0.7392
 6262WAT     H125768   5.444   1.024   1.783 -0.4941  1.3542 -1.7263
 6262WAT     H225769   5.430   1.095   1.899 -0.2358  1.6734 -1.8874
 6262WAT    EPW25770   5.399   1.058   1.837 -0.4364  0.3904 -1.0547
 6263WAT      O25771   4.533   1.123   3.019  0.1154  1.0045 -0.5909
 6263WAT     H125772   4.497   1.084   3.089  0.2826  0.4760 -0.7923
 6263WAT     H225773   4.479   1.104   2.954 -0.0941  1.5849 -0.5949
 6263WAT    EPW25774   4.520   1.114   3.020  0.1092  1.0122 -0.6212
 6264WAT      O25775   4.726   1.391   2.799 -0.5547  0.0850  0.4435
 6264WAT     H125776   4.662   1.367   2.744  0.4069  1.7337 -1.5478
 6264WAT     H225777   4.771   1.317   2.810 -1.0521 -0.4192 -0.6386
 6264WAT    EPW25778   4.723   1.376   2.792 -0.4861  0.2541 -0.0105
 6265WAT      O25779   5.431   7.570   1.899 -0.0861  0.1473  0.4502
 6265WAT     H125780   5.356   7.549   1.937 -0.6545 -2.7867 -1.9239
 6265WAT     H225781   5.485   7.505   1.924  0.4205 -0.0481 -1.0530
 6265WAT    EPW25782   5.428   7.557   1.909 -0.0952 -0.3149 -0.1225
 6266WAT      O25783   3.829   0.264   2.612  0.5446 -0.8501  0.2390
 6266WAT     H125784   3.790   0.302   2.545 -0.9620  1.0929  2.0842
 6266WAT     H225785   3.914   0.276   2.597  0.1870  0.8292 -0.6296
 6266WAT    EPW25786   3.836   0.271   2.600  0.2692 -0.3150  0.3833
 6267WAT      O25787   3.527   0.423   3.829 -0.1848  0.6253 -0.3535
 6267WAT     H125788   3.517   0.499   3.870  0.0799  1.6557 -2.1006
 6267WAT     H225789   3.486   0.435   3.753  1.9424 -0.0943 -1.6925
 6267WAT    EPW25790   3.519   0.436   3.824  0.1686  0.6712 -0.8094
 6268WAT      O25791   5.244   1.151   2.808 -0.5217  0.8764 -0.7581
 6268WAT     H125792   5.266   1.235   2.798  0.5176  0.7611  0.4184
 6268WAT     H225793   5.261   1.135   2.892  0.5903 -0.8653 -1.2677
 6268WAT    EPW25794   5.250   1.161   2.819 -0.2039  0.6021 -0.6596
 6269WAT      O25795   5.395   1.845   1.473  0.5624 -0.0206  0.4538
 6269WAT     H125796   5.416   1.774   1.427  1.0065 -0.3599  1.1594
 6269WAT     H225797   5.394   1.816   1.556  0.5256  0.7469  0.7262
 6269WAT    EPW25798   5.398   1.830   1.478  0.6226  0.0426  0.5983
 6270WAT      O25799   6.128   1.779   1.908 -0.9577  0.4063  0.4387
 6270WAT     H125800   6.056   1.822   1.886  0.8722  2.3940 -2.3694
 6270WAT     H225801   6.133   1.714   1.850 -0.3090  0.5309  0.3401
 6270WAT    EPW25802   6.118   1.775   1.896 -0.5916  0.7183  0.0093
 6271WAT      O25803   5.144   0.334   3.348  0.4288  0.3875 -0.4405
 6271WAT     H125804   5.162   0.327   3.433  1.1568 -1.6062 -0.7108
 6271WAT     H225805   5.138   0.252   3.322 -0.2519  0.9710 -2.2494
 6271WAT    EPW25806   5.146   0.321   3.357  0.4358  0.1792 -0.7476
 6272WAT      O25807   5.424   2.547   3.135 -0.0731 -0.2201 -0.5569
 6272WAT     H125808   5.347   2.568   3.171 -0.0434 -0.9116 -0.0689
 6272WAT     H225809   5.480   2.555   3.201  0.1845 -0.3052 -0.7640
 6272WAT    EPW25810   5.421   2.552   3.150 -0.0307 -0.3349 -0.5154
 6273WAT      O25811   4.384   7.665   1.146  0.2469 -0.1969  0.7881
 6273WAT     H125812   4.309   7.709   1.146  0.5914  0.4250  1.3719
 6273WAT     H225813   4.388   7.630   1.066 -0.6183 -0.1706  0.7290
 6273WAT    EPW25814   4.374   7.667   1.134  0.1699 -0.1011  0.8656
 6274WAT      O25815   5.120   0.751   2.392  0.0266  0.3131  0.6013
 6274WAT     H125816   5.067   0.698   2.436 -1.0288  1.2443  0.4869
 6274WAT     H225817   5.197   0.710   2.396 -0.1351  0.1003  2.8553
 6274WAT    EPW25818   5.124   0.737   2.399 -0.1532  0.4192  0.9174
 6275WAT      O25819   4.312   0.687   2.599  0.4599 -0.0036 -0.4078
 6275WAT     H125820   4.285   0.744   2.659 -1.3576 -0.3073 -0.8919
 6275WAT     H225821   4.365   0.634   2.644 -0.9007 -0.2570  0.9835
 6275WAT    EPW25822   4.316   0.688   2.615 -0.0096 -0.0859 -0.2738
 6276WAT      O25823   3.433   6.500   0.758  0.1627  0.1006  0.0750
 6276WAT     H125824   3.451   6.466   0.836 -0.0003  0.7850  0.4127
 6276WAT     H225825   3.473   6.445   0.703 -1.6558 -1.7377  0.4846
 6276WAT    EPW25826   3.442   6.487   0.761 -0.1300 -0.0698  0.1854
 6277WAT      O25827   4.300   0.563   2.992 -0.0671  0.1452  0.3773
 6277WAT     H125828   4.243   0.496   2.992  0.4160 -0.2788 -0.1346
 6277WAT     H225829   4.259   0.624   2.946 -0.3099  0.0153  0.4179
 6277WAT    EPW25830   4.285   0.562   2.985 -0.0316  0.0633  0.3077
 6278WAT      O25831   4.483   1.023   3.853 -0.6025 -0.1721 -0.0274
 6278WAT     H125832   4.431   0.979   3.907 -0.7832 -0.3657 -0.3549
 6278WAT     H225833   4.539   1.064   3.906  0.5288 -1.9769  0.2579
 6278WAT    EPW25834   4.484   1.023   3.869 -0.4621 -0.4673 -0.0337
 6279WAT      O25835   4.741   0.420   1.723  0.0748 -0.1175 -0.0506
 6279WAT     H125836   4.660   0.452   1.717 -0.3300 -1.0831  0.2209
 6279WAT     H225837   4.739   0.347   1.675  0.2244 -1.2162  1.5550
 6279WAT    EPW25838   4.729   0.414   1.715  0.0371 -0.4225  0.2267
 6280WAT      O25839   3.303   0.675   5.064  0.8501 -0.6073 -0.3976
 6280WAT     H125840   3.255   0.604   5.083  1.8423 -0.8112  1.6168
 6280WAT     H225841   3.377   0.641   5.031  1.0545 -0.4858 -0.0670
 6280WAT    EPW25842   3.307   0.659   5.062  1.0268 -0.6194 -0.0512
 6281WAT      O25843   4.517   1.989   2.896  0.2600 -0.7673 -0.5181
 6281WAT     H125844   4.476   1.921   2.861  1.0191 -1.6452  0.2316
 6281WAT     H225845   4.588   1.954   2.933  1.7652  0.6841 -1.8527
 6281WAT    EPW25846   4.522   1.974   2.896  0.5945 -0.6826 -0.6045
 6282WAT      O25847   5.526   2.446   4.451 -0.5940  0.3673  0.2437
 6282WAT     H125848   5.574   2.455   4.523 -2.6035  0.6106  1.6580
 6282WAT     H225849   5.502   2.363   4.452  1.3572 -0.3043 -1.5837
 6282WAT    EPW25850   5.529   2.435   4.462 -0.6026  0.3040  0.1827
 6283WAT      O25851   4.731   6.576   2.393  0.2668 -0.3239 -0.2727
 6283WAT     H125852   4.711   6.595   2.310  2.4303 -1.0115 -1.0227
 6283WAT     H225853   4.716   6.490   2.398  0.4004 -0.3324 -0.0348
 6283WAT    EPW25854   4.726   6.566   2.381  0.6061 -0.4268 -0.3484
 6284WAT      O25855   3.755   7.403   1.691 -0.0804  0.3293 -0.2133
 6284WAT     H125856   3.695   7.438   1.638 -0.2965 -1.4459 -1.2105
 6284WAT     H225857   3.818   7.463   1.694 -1.2667  1.6362 -0.2674
 6284WAT    EPW25858   3.755   7.417   1.684 -0.2876  0.2601 -0.3686
 6285WAT      O25859   5.082   1.048   2.136 -0.0697 -0.1159 -0.6038
 6285WAT     H125860   5.050   1.123   2.104  0.7939  0.8800  0.7350
 6285WAT     H225861   5.087   0.996   2.067 -0.1538  1.2708 -1.6942
 6285WAT    EPW25862   5.078   1.051   2.121  0.0455  0.2360 -0.5671
 6286WAT      O25863   5.377   1.353   0.353  0.1620  0.1806  0.4020
 6286WAT     H125864   5.453   1.369   0.313 -0.3280 -0.8198 -1.0204
 6286WAT     H225865   5.359   1.429   0.392 -0.1462  1.9126 -2.7426
 6286WAT    EPW25866   5.386   1.366   0.353  0.0441  0.2887 -0.2726
 6287WAT      O25867   5.476   0.284   2.322 -0.3687  0.2962  0.2052
 6287WAT     H125868   5.471   0.246   2.401  0.2498  0.1726  0.1832
 6287WAT     H225869   5.502   0.219   2.270 -0.4545  0.4634 -0.0477
 6287WAT    EPW25870   5.479   0.269   2.326 -0.2900  0.3027  0.1646
 6288WAT      O25871   5.999   0.596   1.718 -0.5173  0.2694  0.0286
 6288WAT     H125872   5.965   0.517   1.702  0.4478 -0.3198  0.7633
 6288WAT     H225873   6.065   0.601   1.662  1.1397 -0.6387  1.7840
 6288WAT    EPW25874   6.003   0.585   1.707 -0.1299  0.0482  0.3964
 6289WAT      O25875   5.355   7.262   1.465  0.0245 -0.5672 -0.5144
 6289WAT     H125876   5.346   7.335   1.513 -1.2597  0.1357 -1.7537
 6289WAT     H225877   5.435   7.271   1.430  1.6455 -1.7835  2.4625
 6289WAT    EPW25878   5.366   7.274   1.467  0.0743 -0.6430 -0.2577
 6290WAT      O25879   6.615   1.728   2.175 -0.1484  0.4970  0.7020
 6290WAT     H125880   6.661   1.776   2.119  0.0105  1.3129  1.5144
 6290WAT     H225881   6.671   1.666   2.200  0.3753  1.2087  1.3292
 6290WAT    EPW25882   6.630   1.726   2.170 -0.0476  0.7227  0.9147
 6291WAT      O25883   5.858   0.895   2.748  0.7261  0.0830 -0.3411
 6291WAT     H125884   5.790   0.842   2.735  0.6553 -0.0732  0.6491
 6291WAT     H225885   5.927   0.843   2.737  0.6874  0.1020 -0.7104
 6291WAT    EPW25886   5.858   0.880   2.744  0.7099  0.0628 -0.2494
 6292WAT      O25887   2.973   1.155   5.489  0.5934  0.4715 -0.0408
 6292WAT     H125888   2.986   1.087   5.436  0.3249 -0.0347  0.5324
 6292WAT     H225889   2.969   1.223   5.435  0.4635 -0.0175 -0.6525
 6292WAT    EPW25890   2.975   1.155   5.473  0.5346  0.3245 -0.0465
 6293WAT      O25891   3.709   1.002   1.508 -0.4442  0.0501  0.2011
 6293WAT     H125892   3.765   0.959   1.559 -0.5354 -0.4530 -0.1118
 6293WAT     H225893   3.760   1.059   1.465 -0.0638 -0.7856 -0.4947
 6293WAT    EPW25894   3.725   1.004   1.509 -0.4014 -0.1477  0.0521
 6294WAT      O25895   5.877   0.330   1.366  0.3771 -0.5841  0.6912
 6294WAT     H125896   5.911   0.408   1.351  0.2461 -0.1320  2.5101
 6294WAT     H225897   5.921   0.277   1.312  0.5580  0.7012 -0.4547
 6294WAT    EPW25898   5.888   0.333   1.356  0.3845 -0.3274  0.7906
 6295WAT      O25899   4.585   6.123   0.153  0.4255  0.4611  0.6251
 6295WAT     H125900   4.625   6.104   0.077  0.5618  0.6142  0.6604
 6295WAT     H225901   4.647   6.161   0.201  1.0205 -1.6922  1.6855
 6295WAT    EPW25902   4.600   6.126   0.149  0.5335  0.1657  0.7870
 6296WAT      O25903   4.375   2.353   7.151  0.2195  0.5216  0.1546
 6296WAT     H125904   4.325   2.349   7.080 -1.1204  2.5334  0.8946
 6296WAT     H225905   4.322   2.328   7.216  0.7335  0.8552  0.7193
 6296WAT    EPW25906   4.360   2.349   7.150  0.0975  0.8681  0.3473
 6297WAT      O25907   2.605   0.626   0.730 -0.4631 -0.0871 -0.1523
 6297WAT     H125908   2.596   0.674   0.803 -0.6239  0.9357 -0.8321
 6297WAT     H225909   2.531   0.580   0.727 -1.0534  0.8539 -0.3679
 6297WAT    EPW25910   2.593   0.626   0.741 -0.5741  0.2030 -0.2846
 6298WAT      O25911   3.318   0.838   1.306  0.0036 -0.1638 -0.0705
 6298WAT     H125912   3.360   0.904   1.344 -1.0242 -0.2741  1.3457
 6298WAT     H225913   3.379   0.798   1.259  0.9534  0.9603  0.1700
 6298WAT    EPW25914   3.333   0.842   1.304 -0.0079 -0.0141  0.1742
 6299WAT      O25915   5.787   1.269   0.447  0.0870  0.5407  0.4704
 6299WAT     H125916   5.749   1.348   0.447  0.3825  0.7641 -1.7837
 6299WAT     H225917   5.734   1.222   0.396  1.3445  0.0979 -0.4779
 6299WAT    EPW25918   5.773   1.274   0.439  0.3164  0.5083 -0.0027
 6300WAT      O25919   5.129   0.525   1.166 -0.4012 -0.1895  0.8218
 6300WAT     H125920   5.170   0.459   1.127  0.5686  0.5683  0.5393
 6300WAT     H225921   5.085   0.486   1.230  2.1723 -0.8536  2.3031
 6300WAT    EPW25922   5.128   0.510   1.169  0.1222 -0.1757  0.9989
 6301WAT      O25923   5.804   7.186   0.965  0.0167  0.2889  0.5745
 6301WAT     H125924   5.858   7.203   1.032  0.7016 -1.8588  0.6347
 6301WAT     H225925   5.730   7.160   1.005 -0.1685  0.6633  0.4817
 6301WAT    EPW25926   5.801   7.185   0.981  0.0905  0.0269  0.5697
 6302WAT      O25927   5.759   1.545   0.534 -0.4958 -0.2443 -0.7029
 6302WAT     H125928   5.736   1.575   0.455  0.7241  0.9847 -0.6300
 6302WAT     H225929   5.841   1.574   0.543 -1.0086  0.6997  1.4962
 6302WAT    EPW25930   5.768   1.554   0.523 -0.3914  0.0767 -0.3673
 6303WAT      O25931   5.771   1.071   0.030 -0.1126  0.1834 -0.0856
 6303WAT     H125932   5.794   0.989   0.011 -2.0211 -0.5732  0.6460
 6303WAT     H225933   5.817   1.119  -0.027  0.0318 -1.4859 -1.4547
 6303WAT    EPW25934   5.781   1.066   0.019 -0.3732 -0.1749 -0.1798
 6304WAT      O25935   5.515   0.762   6.736 -0.1388  0.0023  0.0974
 6304WAT     H125936   5.523   0.683   6.773 -0.5415 -0.2142 -0.2575
 6304WAT     H225937   5.596   0.781   6.709 -0.3367 -1.1323 -1.4599
 6304WAT    EPW25938   5.528   0.753   6.737 -0.2275 -0.1973 -0.1851
 6305WAT      O25939   4.482   1.524   0.057 -0.0214 -0.4515 -0.0838
 6305WAT     H125940   4.460   1.572   0.126  0.4333 -0.9110  0.3904
 6305WAT     H225941   4.564   1.547   0.041 -0.5240  0.6358 -1.3216
 6305WAT    EPW25942   4.491   1.534   0.065 -0.0285 -0.3588 -0.1966
 6306WAT      O25943   5.292   0.516   0.772  0.5481  0.3445 -0.2948
 6306WAT     H125944   5.293   0.532   0.686 -0.2366  1.8054 -0.0715
 6306WAT     H225945   5.334   0.585   0.806 -0.2689  0.4444  0.5487
 6306WAT    EPW25946   5.298   0.529   0.764  0.3115  0.5751 -0.1372
 6307WAT      O25947   4.021   0.568   0.717 -0.4577 -0.2400  0.2752
 6307WAT     H125948   3.971   0.615   0.770  1.4471 -0.4748  2.4539
 6307WAT     H225949   4.018   0.488   0.751  2.9336  0.1292  1.8733
 6307WAT    EPW25950   4.013   0.563   0.730  0.3246 -0.2201  0.8331
 6308WAT      O25951   3.997   1.487   0.199 -0.0074  0.3388  0.3933
 6308WAT     H125952   4.066   1.531   0.230  0.5269 -0.6902  0.7132
 6308WAT     H225953   3.953   1.547   0.154  0.3744  1.3477  1.3159
 6308WAT    EPW25954   4.000   1.502   0.197  0.1279  0.3358  0.5768
 6309WAT      O25955   3.491   1.751   1.223 -0.2670 -0.4018  0.3536
 6309WAT     H125956   3.574   1.731   1.240  0.1023 -0.5336 -1.4157
 6309WAT     H225957   3.448   1.678   1.240  0.3660 -1.1659 -1.1160
 6309WAT    EPW25958   3.497   1.737   1.228 -0.1189 -0.5342 -0.1249
 6310WAT      O25959   4.876   1.855   7.780  1.2183  0.1983 -0.2433
 6310WAT     H125960   4.924   1.801   7.732 -0.0388 -0.4415 -0.8303
 6310WAT     H225961   4.820   1.889   7.723 -1.3040 -1.6795  0.8915
 6310WAT    EPW25962   4.874   1.852   7.765  0.6600 -0.1736 -0.1624
 6311WAT      O25963   5.853   1.833   0.369 -0.4967 -0.8039  0.1571
 6311WAT     H125964   5.859   1.804   0.287 -0.4714 -0.3922  0.0106
 6311WAT     H225965   5.929   1.810   0.405  0.3300  0.7826 -0.5154
 6311WAT    EPW25966   5.865   1.825   0.362 -0.3709 -0.5087  0.0361
 6312WAT      O25967   3.882   0.859   1.660  0.3299 -0.1260  0.4635
 6312WAT     H125968   3.913   0.890   1.735  1.0928 -0.9069  0.4928
 6312WAT     H225969   3.866   0.775   1.678  0.2345 -0.2491 -0.1694
 6312WAT    EPW25970   3.884   0.851   1.674  0.4285 -0.2596  0.3743
 6313WAT      O25971   4.983   0.266   0.474  0.0357 -0.2510  0.0113
 6313WAT     H125972   4.924   0.213   0.438 -1.6158  1.0751  0.6445
 6313WAT     H225973   4.954   0.346   0.453  0.6190  0.4878  1.8405
 6313WAT    EPW25974   4.970   0.270   0.465 -0.1221  0.0541  0.3750
 6314WAT      O25975   4.287   2.248   7.413 -0.2847 -0.1184  0.1276
 6314WAT     H125976   4.334   2.181   7.442 -0.1577 -0.9975 -1.9356
 6314WAT     H225977   4.209   2.237   7.452  0.6611  0.4668  2.3512
 6314WAT    EPW25978   4.282   2.236   7.423 -0.1262 -0.1618  0.1513
 6315WAT      O25979   4.232   1.058   0.663  0.1875 -0.2477 -0.0901
 6315WAT     H125980   4.207   0.977   0.682 -0.8540  0.2004  0.5637
 6315WAT     H225981   4.170   1.107   0.699 -0.0079  0.7897 -1.7471
 6315WAT    EPW25982   4.219   1.053   0.671  0.0048 -0.0283 -0.2383
 6316WAT      O25983   4.173   1.182   1.222 -0.4908  0.2476 -0.1918
 6316WAT     H125984   4.168   1.213   1.140  0.5292  0.3907 -0.2027
 6316WAT     H225985   4.191   1.253   1.270  0.8408 -0.1480 -0.0896
 6316WAT    EPW25986   4.175   1.197   1.217 -0.1434  0.2103 -0.1783
 6317WAT      O25987   5.704   0.519   7.421  0.0140 -0.2339  0.5695
 6317WAT     H125988   5.692   0.488   7.502 -1.5449  0.1548  0.5200
 6317WAT     H225989   5.631   0.497   7.379  0.6793 -0.1899 -0.6779
 6317WAT    EPW25990   5.691   0.512   7.427 -0.1180 -0.1700  0.3779
 6318WAT      O25991   4.212   7.339   0.776  0.2568 -0.0744 -0.4829
 6318WAT     H125992   4.143   7.379   0.738 -1.1901 -1.8044  0.1745
 6318WAT     H225993   4.248   7.294   0.710  1.3004  1.4398 -1.0052
 6318WAT    EPW25994   4.207   7.338   0.760  0.1972 -0.1062 -0.4630
 6319WAT      O25995   3.521   7.031   0.123 -0.1842  0.2251  0.4416
 6319WAT     H125996   3.436   7.026   0.104 -0.5990 -2.4435  2.3535
 6319WAT     H225997   3.522   7.069   0.201  0.7899  3.4378 -0.9769
 6319WAT    EPW25998   3.509   7.036   0.132 -0.1016  0.3054  0.5145
 6320WAT      O25999   5.084   0.079   1.493 -0.1287 -0.1135  0.0485
 6320WAT     H126000   5.171   0.078   1.492 -0.0774 -2.4988  0.0266
 6320WAT     H226001   5.064   0.036   1.567 -1.1998 -2.1224 -1.3229
 6320WAT    EPW26002   5.094   0.072   1.504 -0.2793 -0.7627 -0.1573
 6321WAT      O26003   4.175   0.890   2.228  0.1728 -0.4558  0.4873
 6321WAT     H126004   4.158   0.975   2.226 -0.4305 -0.5685  0.8189
 6321WAT     H226005   4.174   0.867   2.144  0.6103 -0.0866  0.3777
 6321WAT    EPW26006   4.172   0.899   2.215  0.1483 -0.4179  0.5201
 6322WAT      O26007   4.938   7.401   1.388 -0.4492  0.4299  1.1054
 6322WAT     H126008   4.925   7.386   1.473 -0.2545  2.6583  1.6017
 6322WAT     H226009   5.023   7.385   1.377 -0.7101 -1.0227  1.0173
 6322WAT    EPW26010   4.949   7.397   1.399 -0.4590  0.5445  1.1657
 6323WAT      O26011   5.709   7.446   2.781 -0.0093  0.5534  0.0529
 6323WAT     H126012   5.793   7.466   2.769  0.0022  0.6598  0.3062
 6323WAT     H226013   5.673   7.522   2.805 -0.5894  1.0373 -2.0479
 6323WAT    EPW26014   5.716   7.460   2.783 -0.0933  0.6406 -0.2200
 6324WAT      O26015   4.875   7.497   6.727  0.0492 -0.8639 -0.1330
 6324WAT     H126016   4.954   7.472   6.699  0.5492  1.0347 -0.5981
 6324WAT     H226017   4.884   7.503   6.813  1.0264  1.0710 -0.3124
 6324WAT    EPW26018   4.888   7.494   6.735  0.2674 -0.2976 -0.2282
 6325WAT      O26019   3.865   0.704   0.346  0.0824 -0.0634  0.0175
 6325WAT     H126020   3.804   0.646   0.373  3.7861 -3.3592  2.4549
 6325WAT     H226021   3.867   0.762   0.411  1.0798 -1.3733  1.2190
 6325WAT    EPW26022   3.856   0.704   0.360  0.7769 -0.7437  0.5551
 6326WAT      O26023   5.930   1.297   7.813  0.3847 -0.4028 -0.5626
 6326WAT     H126024   5.965   1.361   7.765 -1.6660 -0.3143 -2.0437
 6326WAT     H226025   5.910   1.337   7.888 -0.8233  0.7263 -1.4527
 6326WAT    EPW26026   5.933   1.312   7.817 -0.0967 -0.2229 -0.9129
 6327WAT      O26027   4.488   1.223   0.641  0.1009  0.2840 -0.0676
 6327WAT     H126028   4.560   1.179   0.619 -0.0050 -0.5158  1.0957
 6327WAT     H226029   4.426   1.162   0.640 -0.7532  1.1169 -1.8489
 6327WAT    EPW26030   4.489   1.208   0.637 -0.0409  0.2889 -0.1589
 6328WAT      O26031   4.325   7.178   7.172 -0.2027 -0.3424 -0.2802
 6328WAT     H126032   4.373   7.126   7.222 -0.5228 -0.4138 -0.0447
 6328WAT     H226033   4.244   7.170   7.205  0.0127  1.6613  0.9466
 6328WAT    EPW26034   4.320   7.169   7.184 -0.2182 -0.0570 -0.0642
 6329WAT      O26035   5.400   0.006   0.548 -0.0010 -0.0516  0.3632
 6329WAT     H126036   5.366   0.080   0.519 -1.5866 -0.6328  0.6446
 6329WAT     H226037   5.369  -0.000   0.629  0.5645 -0.7562  0.5377
 6329WAT    EPW26038   5.391   0.016   0.556 -0.1517 -0.2415  0.4305
 6330WAT      O26039   3.628   1.502   0.824  0.3786 -0.0530  0.1637
 6330WAT     H126040   3.649   1.461   0.899  0.7251 -1.0025 -0.4401
 6330WAT     H226041   3.598   1.438   0.774  1.6355  0.2831 -1.0750
 6330WAT    EPW26042   3.627   1.486   0.828  0.6155 -0.1436 -0.1084
 6331WAT      O26043   3.423   1.224   6.909  0.2839  0.1045  0.3711
 6331WAT     H126044   3.504   1.196   6.891 -0.2468 -1.1497 -0.1449
 6331WAT     H226045   3.437   1.292   6.962  1.7241  0.6938 -0.6854
 6331WAT    EPW26046   3.437   1.230   6.914  0.4182  0.0063  0.1388
 6332WAT      O26047   3.613   0.863   3.995 -0.1818 -0.0710 -0.0322
 6332WAT     H126048   3.567   0.936   3.992  1.7304  1.1983 -0.5847
 6332WAT     H226049   3.683   0.884   4.043  0.9479 -1.1759 -1.0877
 6332WAT    EPW26050   3.617   0.877   4.002  0.2676 -0.0467 -0.2697
 6333WAT      O26051   3.026   1.420   0.661  0.0365 -0.4249 -0.7642
 6333WAT     H126052   3.073   1.356   0.698  1.4557  0.1689 -1.4569
 6333WAT     H226053   2.953   1.380   0.637  1.1459 -1.9846 -1.7839
 6333WAT    EPW26054   3.022   1.405   0.663  0.4100 -0.5676 -1.0171
 6334WAT      O26055   6.093   7.654   6.444  0.1647  0.3117  0.1031
 6334WAT     H126056   6.103   7.679   6.361  0.1924  0.1336  0.0527
 6334WAT     H226057   6.079   7.568   6.438  2.1866 -0.0777  0.4053
 6334WAT    EPW26058   6.092   7.645   6.431  0.4675  0.2279  0.1403
 6335WAT      O26059   4.712   0.224   2.038 -0.4182 -0.2659 -0.1366
 6335WAT     H126060   4.678   0.173   2.100 -1.1725 -3.8607 -3.0936
 6335WAT     H226061   4.653   0.221   1.974  1.6520  0.4495 -2.2405
 6335WAT    EPW26062   4.699   0.216   2.038 -0.2238 -0.6913 -0.8842
 6336WAT      O26063   5.298   0.744   1.232 -0.2794 -0.0658  0.5666
 6336WAT     H126064   5.241   0.743   1.298  0.4410  0.7768  1.2226
 6336WAT     H226065   5.286   0.667   1.193 -0.9339 -0.4497  1.5037
 6336WAT    EPW26066   5.288   0.732   1.236 -0.2696  0.0020  0.8019
 6337WAT      O26067   3.793   1.420   1.428  0.1204  0.0720 -0.2141
 6337WAT     H126068   3.754   1.397   1.503 -0.0779  3.0306  0.7111
 6337WAT     H226069   3.843   1.351   1.409 -1.0231 -1.4158  1.7775
 6337WAT    EPW26070   3.795   1.406   1.436 -0.0778  0.2893  0.2168
 6338WAT      O26071   4.977   1.332   0.742 -0.0405 -0.4169  0.0899
 6338WAT     H126072   5.015   1.283   0.681 -1.9570 -1.5556 -0.2970
 6338WAT     H226073   4.992   1.288   0.816  1.0433  0.1985  0.2565
 6338WAT    EPW26074   4.985   1.318   0.744 -0.1635 -0.4942  0.0574
 6339WAT      O26075   3.983   7.052   1.312  0.2659  0.2155  0.2037
 6339WAT     H126076   4.060   7.091   1.301  0.1189  0.6775  0.7604
 6339WAT     H226077   3.951   7.088   1.385  0.0688 -0.8623  0.6816
 6339WAT    EPW26078   3.989   7.063   1.321  0.2151  0.1245  0.3566
 6340WAT      O26079   4.655   6.439   0.279  0.1745  0.3479 -0.3057
 6340WAT     H126080   4.578   6.452   0.319 -0.0246  0.6441 -0.7767
 6340WAT     H226081   4.706   6.406   0.342 -0.0730  1.0062  0.2448
 6340WAT    EPW26082   4.651   6.436   0.294  0.1085  0.4889 -0.2940
 6341WAT      O26083   5.327   0.646   0.508  0.4817  0.3557  0.5091
 6341WAT     H126084   5.312   0.723   0.548 -0.0995 -0.0806  1.1736
 6341WAT     H226085   5.401   0.659   0.465 -0.3998  1.7797 -0.6655
 6341WAT    EPW26086   5.335   0.659   0.508  0.2656  0.5016  0.4338
 6342WAT      O26087   5.301   0.900   0.660 -0.5841 -0.5588  0.0900
 6342WAT     H126088   5.323   0.979   0.632 -0.1399 -1.1953 -1.4524
 6342WAT     H226089   5.284   0.912   0.745 -0.3701  1.1405 -0.0811
 6342WAT    EPW26090   5.302   0.913   0.668 -0.4869 -0.4018 -0.1631
 6343WAT      O26091   4.590   7.070   0.685  0.2063  0.0673  0.3757
 6343WAT     H126092   4.597   7.085   0.771 -1.9174  1.5143  0.3518
 6343WAT     H226093   4.505   7.079   0.669  0.3764 -1.3031 -1.7218
 6343WAT    EPW26094   4.579   7.073   0.695 -0.0823  0.0786  0.0623
 6344WAT      O26095   5.371   0.416   0.097  0.3556  0.3238  0.1564
 6344WAT     H126096   5.330   0.445   0.026  0.2095 -0.2634 -0.0096
 6344WAT     H226097   5.432   0.361   0.065  0.8443  0.6933  0.4378
 6344WAT    EPW26098   5.374   0.412   0.082  0.4062  0.2916  0.1734
 6345WAT      O26099   6.045   0.824   7.347 -0.0720  0.6502 -0.2874
 6345WAT     H126100   6.070   0.837   7.430 -0.4911  0.8333 -0.1913
 6345WAT     H226101   5.959   0.814   7.353 -0.1534  1.0772 -0.7515
 6345WAT    EPW26102   6.036   0.824   7.360 -0.1459  0.7403 -0.3418
 6346WAT      O26103   5.320   2.278   2.271 -0.3904  0.3203  0.8785
 6346WAT     H126104   5.350   2.204   2.235  0.5752  0.9775  0.2699
 6346WAT     H226105   5.254   2.252   2.321  0.3345 -1.0323  1.1743
 6346WAT    EPW26106   5.315   2.263   2.273 -0.1407  0.2176  0.8323
 6347WAT      O26107   4.238   7.585   1.880 -0.4120 -0.1771 -0.1984
 6347WAT     H126108   4.260   7.561   1.961 -0.6200 -0.8761 -0.3432
 6347WAT     H226109   4.260   7.669   1.877  0.3299 -0.3389  0.3315
 6347WAT    EPW26110   4.245   7.594   1.891 -0.3331 -0.3042 -0.1415
 6348WAT      O26111   5.417   1.329   0.730  0.4423  0.2385 -0.4627
 6348WAT     H126112   5.347   1.366   0.767 -0.8492 -1.9580 -0.5651
 6348WAT     H226113   5.465   1.398   0.705 -1.0186  1.8132  0.8017
 6348WAT    EPW26114   5.414   1.345   0.732  0.0357  0.1466 -0.2910
 6349WAT      O26115   5.102   1.066   1.234  0.2945  0.3599  0.2517
 6349WAT     H126116   5.048   0.998   1.231  0.8439 -0.0511 -0.7407
 6349WAT     H226117   5.049   1.133   1.254 -0.0334 -0.5300  2.5939
 6349WAT    EPW26118   5.086   1.066   1.237  0.3272  0.1677  0.4511
 6350WAT      O26119   4.527   0.892   0.321  0.1661 -0.2228 -0.3131
 6350WAT     H126120   4.497   0.974   0.316  0.0631 -0.1431  1.0350
 6350WAT     H226121   4.603   0.895   0.279 -0.5143  0.1896 -1.5705
 6350WAT    EPW26122   4.534   0.905   0.314  0.0504 -0.1501 -0.2997
 6351WAT      O26123   5.730   0.129   6.886  0.1884  0.0642  0.1199
 6351WAT     H126124   5.657   0.114   6.841  0.8480 -2.1458 -0.3936
 6351WAT     H226125   5.704   0.133   6.969 -0.7029  1.2309 -0.1974
 6351WAT    EPW26126   5.715   0.127   6.891  0.1542 -0.0899 -0.0028
 6352WAT      O26127   4.960   7.311   7.792  0.1518 -0.0054  0.0962
 6352WAT     H126128   4.914   7.248   7.753  0.0915 -0.4734  0.8855
 6352WAT     H226129   5.031   7.270   7.822  0.7191  0.5588 -0.4459
 6352WAT    EPW26130   4.964   7.296   7.791  0.2267  0.0088  0.1328
 6353WAT      O26131   5.444   0.342   1.181 -0.0822 -0.4881 -0.6821
 6353WAT     H126132   5.444   0.270   1.132 -2.0114 -0.2986 -1.0219
 6353WAT     H226133   5.495   0.397   1.136  0.6989 -1.3296 -0.8540
 6353WAT    EPW26134   5.452   0.340   1.167 -0.2518 -0.5844 -0.7577
 6354WAT      O26135   6.110   1.547   1.761 -0.1521 -0.1358 -0.2015
 6354WAT     H126136   6.088   1.500   1.830  0.0396  1.5526  1.0711
 6354WAT     H226137   6.177   1.504   1.726  0.3749 -0.5140  1.2414
 6354WAT    EPW26138   6.117   1.534   1.766 -0.0460  0.0577  0.1997
 6355WAT      O26139   5.123   1.019   6.968  0.0962  0.4898  0.1621
 6355WAT     H126140   5.084   1.031   7.045 -0.9817 -0.3810 -0.2375
 6355WAT     H226141   5.057   1.006   6.913  0.8672  0.8397 -0.8743
 6355WAT    EPW26142   5.108   1.019   6.972  0.0509  0.4128 -0.0500
 6356WAT      O26143   5.687   0.176   7.175 -0.4639  0.0397  0.5648
 6356WAT     H126144   5.689   0.179   7.262  2.1077 -0.1680  0.6057
 6356WAT     H226145   5.755   0.225   7.152 -0.3173 -0.9598 -1.2753
 6356WAT    EPW26146   5.697   0.184   7.185 -0.0623 -0.1387  0.2990
 6357WAT      O26147   5.167   7.337   7.425  0.3302 -0.0618 -0.0039
 6357WAT     H126148   5.184   7.389   7.357 -0.0414 -0.6033 -0.5247
 6357WAT     H226149   5.095   7.294   7.401  1.0908 -1.4287  0.0413
 6357WAT    EPW26150   5.159   7.339   7.412  0.3877 -0.3437 -0.0742
 6358WAT      O26151   3.358   0.289   2.201  0.0693 -0.2783 -0.0006
 6358WAT     H126152   3.319   0.367   2.200 -1.5517 -1.0664 -0.3424
 6358WAT     H226153   3.409   0.293   2.271 -0.6770  0.7647  0.5108
 6358WAT    EPW26154   3.360   0.301   2.211 -0.2804 -0.2407  0.0244
 6359WAT      O26155   4.547   0.170   1.065 -0.5267  0.6382 -0.0025
 6359WAT     H126156   4.488   0.209   1.013 -1.1130  0.5921  0.6115
 6359WAT     H226157   4.502   0.103   1.099  0.1098  0.1536 -0.1016
 6359WAT    EPW26158   4.532   0.166   1.062 -0.5193  0.5598  0.0736
 6360WAT      O26159   4.783   1.507   0.358  0.2954 -0.3211  0.1275
 6360WAT     H126160   4.765   1.425   0.331 -2.7798  0.5535 -0.9848
 6360WAT     H226161   4.705   1.545   0.357  1.6098  2.6172  0.7751
 6360WAT    EPW26162   4.769   1.500   0.354  0.0353  0.2421  0.0588
 6361WAT      O26163   5.721   0.370   7.666 -0.1105  0.0699 -0.4426
 6361WAT     H126164   5.750   0.441   7.707  0.6207  0.2485 -1.2472
 6361WAT     H226165   5.656   0.342   7.717  1.1532 -0.0780  1.1610
 6361WAT    EPW26166   5.715   0.376   7.679  0.1842  0.0744 -0.3246
 6362WAT      O26167   3.550   7.432   1.238  0.2922 -0.0010 -0.4369
 6362WAT     H126168   3.589   7.494   1.190  0.1749  1.0027  0.7256
 6362WAT     H226169   3.588   7.358   1.210  1.5091  0.7321 -0.8176
 6362WAT    EPW26170   3.561   7.430   1.227  0.4547  0.2556 -0.3214
 6363WAT      O26171   5.093   0.359   1.526  0.0721 -0.1252  0.0846
 6363WAT     H126172   5.096   0.273   1.511  0.1508 -0.3653  1.3866
 6363WAT     H226173   5.167   0.389   1.491  0.3282 -0.6714  0.1473
 6363WAT    EPW26174   5.104   0.351   1.519  0.1216 -0.2414  0.2862
 6364WAT      O26175   4.958   1.281   1.312 -0.1437  0.5003  0.3363
 6364WAT     H126176   4.939   1.354   1.269 -0.0878  0.8637  0.9091
 6364WAT     H226177   4.915   1.291   1.388 -0.6755 -0.3635  0.1540
 6364WAT    EPW26178   4.949   1.293   1.317 -0.2140  0.4264  0.3940
 6365WAT      O26179   3.772   7.692   1.012  0.3533  0.3596 -0.5942
 6365WAT     H126180   3.820   7.693   1.085  0.5432  1.8729 -0.7001
 6365WAT     H226181   3.692   7.712   1.039 -0.5932 -3.2827 -0.2598
 6365WAT    EPW26182   3.768   7.695   1.027  0.2416  0.0451 -0.5604
 6366WAT      O26183   4.486   0.844   6.467  0.3701  0.1105 -0.1464
 6366WAT     H126184   4.473   0.841   6.381  0.9513 -0.3242 -0.2312
 6366WAT     H226185   4.548   0.905   6.476  1.1500 -0.6584 -0.1633
 6366WAT    EPW26186   4.493   0.852   6.455  0.5712 -0.0673 -0.1614
 6367WAT      O26187   4.501   1.150   1.657  0.2108  0.1118 -0.2820
 6367WAT     H126188   4.493   1.141   1.744  0.7836  0.2560 -0.2108
 6367WAT     H226189   4.494   1.236   1.644  3.6736  0.5990  0.0480
 6367WAT    EPW26190   4.499   1.162   1.668  0.8070  0.2051 -0.2227
 6368WAT      O26191   4.226   2.102   1.583 -0.0543 -0.2583 -0.7122
 6368WAT     H126192   4.139   2.100   1.573 -0.1409 -1.4988  0.1163
 6368WAT     H226193   4.240   2.177   1.626 -0.5428  0.6925 -2.1419
 6368WAT    EPW26194   4.215   2.113   1.588 -0.1393 -0.3011 -0.8010
 6369WAT      O26195   4.249   7.476   0.121  0.5743 -0.8344  0.0439
 6369WAT     H126196   4.309   7.477   0.184  0.8102  1.1809 -0.1421
 6369WAT     H226197   4.277   7.536   0.064 -0.8892 -0.8563 -0.7662
 6369WAT    EPW26198   4.262   7.485   0.122  0.3929 -0.5399 -0.1033
 6370WAT      O26199   4.308   0.222   1.453  0.1831 -0.2784  0.7871
 6370WAT     H126200   4.257   0.201   1.385  1.7880  0.9038 -0.8748
 6370WAT     H226201   4.382   0.248   1.416  1.2422  0.1708  3.0326
 6370WAT    EPW26202   4.311   0.222   1.438  0.5766 -0.0374  0.8733
 6371WAT      O26203   4.610   0.844   2.177  0.4466 -0.0896 -0.1900
 6371WAT     H126204   4.547   0.837   2.237  0.0009  0.2223 -0.6195
 6371WAT     H226205   4.569   0.876   2.107  0.8510 -0.9212 -0.8356
 6371WAT    EPW26206   4.594   0.848   2.175  0.4405 -0.1664 -0.3488
 6372WAT      O26207   3.815   0.734   0.845 -0.0877 -0.1805 -0.0125
 6372WAT     H126208   3.744   0.695   0.813 -0.8548  1.3185 -0.2438
 6372WAT     H226209   3.791   0.761   0.924  0.6665 -0.8180  0.4456
 6372WAT    EPW26210   3.801   0.732   0.852 -0.0896 -0.0533  0.0210
 6373WAT      O26211   4.742   7.653   1.078 -0.0449 -0.0478  0.5266
 6373WAT     H126212   4.709   7.733   1.066  1.7167  0.4998 -1.5458
 6373WAT     H226213   4.799   7.664   1.143 -0.7987  0.0349  1.1815
 6373WAT    EPW26214   4.746   7.666   1.086  0.1040  0.0453  0.3172
 6374WAT      O26215   4.268   0.971   7.046 -0.3695 -0.4197 -0.3814
 6374WAT     H126216   4.317   0.922   6.994 -1.2418 -2.1824  0.3603
 6374WAT     H226217   4.283   1.052   7.019  0.1121 -1.1782 -2.5613
 6374WAT    EPW26218   4.278   0.976   7.034 -0.4272 -0.7921 -0.5938
 6375WAT      O26219   6.228   0.852   2.734 -0.2119 -0.6374  0.4232
 6375WAT     H126220   6.214   0.914   2.793 -1.4090 -1.4051  0.9809
 6375WAT     H226221   6.298   0.809   2.765  1.3587  1.0488 -0.5443
 6375WAT    EPW26222   6.236   0.855   2.747 -0.1567 -0.5017  0.3627
 6376WAT      O26223   4.593   7.128   0.949 -0.2703 -0.3441 -0.3311
 6376WAT     H126224   4.608   7.213   0.958 -0.7348 -0.4491  1.9753
 6376WAT     H226225   4.516   7.116   0.986 -0.4513 -1.7168 -1.0603
 6376WAT    EPW26226   4.584   7.139   0.956 -0.3656 -0.5624 -0.0981
 6377WAT      O26227   5.576   0.038   0.143 -0.0362  0.3014  0.3601
 6377WAT     H126228   5.575  -0.045   0.114  0.4374  0.0396  1.0885
 6377WAT     H226229   5.628   0.035   0.212 -0.3963  1.1221  0.6729
 6377WAT    EPW26230   5.583   0.025   0.149 -0.0194  0.3840  0.5139
 6378WAT      O26231   6.541   7.494   7.709  0.1849 -0.8521  0.0509
 6378WAT     H126232   6.623   7.491   7.678  1.0603  0.1951  2.0797
 6378WAT     H226233   6.544   7.445   7.781 -0.4513  0.6188  1.1381
 6378WAT    EPW26234   6.554   7.486   7.715  0.2202 -0.4801  0.5112
 6379WAT      O26235   2.645   0.129   0.991  0.2574 -0.5051  0.2008
 6379WAT     H126236   2.701   0.120   0.924 -2.2559 -0.1235 -2.1750
 6379WAT     H226237   2.646   0.215   1.007  0.7786 -0.5807  0.5865
 6379WAT    EPW26238   2.653   0.141   0.983 -0.0369 -0.4599 -0.0931
 6380WAT      O26239   5.456   0.118   7.034  0.5064 -0.4083  0.1777
 6380WAT     H126240   5.497   0.043   7.016  0.5997 -0.1923 -0.5249
 6380WAT     H226241   5.503   0.152   7.099  0.0013 -1.3337  1.0594
 6380WAT    EPW26242   5.469   0.112   7.041  0.4456 -0.5131  0.2042
 6381WAT      O26243   4.568   7.364   2.059 -0.4026  0.0442 -0.1330
 6381WAT     H126244   4.518   7.413   2.111 -0.0801  0.6398 -0.3723
 6381WAT     H226245   4.521   7.357   1.986 -0.2213  0.4415 -0.2884
 6381WAT    EPW26246   4.554   7.370   2.056 -0.3282  0.1909 -0.1913
 6382WAT      O26247   3.648   2.667   0.479 -0.0399 -0.8716 -0.0827
 6382WAT     H126248   3.718   2.700   0.520 -0.5021 -0.6657  0.5471
 6382WAT     H226249   3.666   2.582   0.473 -0.1826 -0.9845  0.9973
 6382WAT    EPW26250   3.661   2.659   0.484 -0.1293 -0.8579  0.1699
 6383WAT      O26251   6.023   0.895   1.630  0.3002 -0.2463 -0.0024
 6383WAT     H126252   5.958   0.842   1.606 -0.0573  0.3825 -0.4451
 6383WAT     H226253   6.091   0.866   1.583  0.2921 -0.7613  0.2935
 6383WAT    EPW26254   6.023   0.883   1.620  0.2462 -0.2295 -0.0241
 6384WAT      O26255   5.286   1.067   1.453 -0.5232  0.4635 -1.0101
 6384WAT     H126256   5.222   1.070   1.394  1.7633 -0.7115 -3.7908
 6384WAT     H226257   5.336   1.001   1.425  2.0247  1.4576  0.8306
 6384WAT    EPW26258   5.284   1.058   1.440  0.1909  0.4368 -1.1489
 6385WAT      O26259   5.412   0.945   7.090 -0.2910 -0.7276  0.1297
 6385WAT     H126260   5.384   0.953   7.008  2.6624 -0.0093 -0.9307
 6385WAT     H226261   5.408   1.027   7.120  0.7845 -0.5748 -0.1141
 6385WAT    EPW26262   5.407   0.958   7.082  0.3041 -0.5989 -0.0629
 6386WAT      O26263   4.549   0.530   1.010  0.0993 -0.2326 -0.5534
 6386WAT     H126264   4.545   0.610   0.975 -1.8257 -0.6278 -1.3940
 6386WAT     H226265   4.631   0.505   0.995  1.1287  2.0194  0.8483
 6386WAT    EPW26266   4.560   0.538   1.002 -0.0330  0.0417 -0.4705
 6387WAT      O26267   4.907   0.488   1.324  0.2525  0.0385 -1.1070
 6387WAT     H126268   4.944   0.477   1.403  0.2598 -0.7517 -1.2137
 6387WAT     H226269   4.915   0.409   1.287 -3.1106 -0.7376 -0.4797
 6387WAT    EPW26270   4.914   0.474   1.331 -0.2432 -0.1928 -1.0301
 6388WAT      O26271   2.642   0.406   7.738  0.4857  0.5307  0.3463
 6388WAT     H126272   2.633   0.485   7.774 -1.9128 -0.1053  1.3350
 6388WAT     H226273   2.569   0.397   7.690  0.8524 -0.9789  0.0120
 6388WAT    EPW26274   2.630   0.417   7.736  0.1856  0.2137  0.4429
 6389WAT      O26275   4.625   0.539   0.514 -0.4083 -0.2129  0.4419
 6389WAT     H126276   4.703   0.574   0.501 -0.2983 -0.4887  0.3383
 6389WAT     H226277   4.643   0.462   0.551 -0.4645 -1.4631 -1.9339
 6389WAT    EPW26278   4.639   0.532   0.518 -0.4004 -0.4383  0.0756
 6390WAT      O26279   4.857   2.135   7.490 -0.4014  0.1988 -0.4436
 6390WAT     H126280   4.874   2.113   7.407 -1.9824  1.4332 -1.1585
 6390WAT     H226281   4.928   2.179   7.515  0.4622 -0.9396 -0.8298
 6390WAT    EPW26282   4.870   2.138   7.481 -0.5074  0.2130 -0.6063
 6391WAT      O26283   5.813   0.855   7.721  0.1776  0.3540 -0.0397
 6391WAT     H126284   5.884   0.867   7.673 -0.4195  1.2774 -0.7276
 6391WAT     H226285   5.749   0.887   7.672 -0.7640 -0.7302  0.4367
 6391WAT    EPW26286   5.814   0.862   7.707 -0.0497  0.3303 -0.0709
 6392WAT      O26287   6.335   7.184   6.876 -0.2389 -0.1243 -0.6351
 6392WAT     H126288   6.382   7.117   6.846  1.4527  0.4759  0.5513
 6392WAT     H226289   6.383   7.254   6.856 -1.2350  0.6191 -0.4928
 6392WAT    EPW26290   6.349   7.184   6.869 -0.1362  0.0742 -0.4388
 6393WAT      O26291   5.887   1.949   2.995 -0.0951  0.3915  0.8475
 6393WAT     H126292   5.843   2.023   2.983 -1.4444 -0.4048  0.6943
 6393WAT     H226293   5.898   1.918   2.914 -0.5597 -0.1301  0.9762
 6393WAT    EPW26294   5.882   1.956   2.981 -0.3630  0.1968  0.8439
 6394WAT      O26295   3.458   0.714   1.104  0.0669  0.3166 -0.5748
 6394WAT     H126296   3.499   0.641   1.128 -0.4249  0.0806 -0.4171
 6394WAT     H226297   3.522   0.768   1.080  0.3409 -0.9199 -2.8610
 6394WAT    EPW26298   3.473   0.711   1.104  0.0347  0.0991 -0.8892
 6395WAT      O26299   4.174   1.042   0.243  0.2408 -0.3289  0.6800
 6395WAT     H126300   4.240   1.098   0.257  0.3579 -0.7217  1.7792
 6395WAT     H226301   4.215   0.970   0.215  0.2265 -0.3605  0.7400
 6395WAT    EPW26302   4.190   1.039   0.241  0.2559 -0.3916  0.8512
 6396WAT      O26303   3.465   1.082   1.365 -0.0389 -0.3701 -0.3619
 6396WAT     H126304   3.434   1.150   1.409  0.5387  0.7407 -1.5852
 6396WAT     H226305   3.544   1.069   1.399  1.3199  1.8782 -2.3610
 6396WAT    EPW26306   3.472   1.090   1.376  0.2471  0.1261 -0.8379
 6397WAT      O26307   4.739   4.999   6.530  0.0438 -0.7455  0.1464
 6397WAT     H126308   4.751   4.943   6.464  0.3815  0.1318 -0.5594
 6397WAT     H226309   4.653   5.005   6.537 -0.0135 -2.0743  0.8704
 6397WAT    EPW26310   4.728   4.991   6.522  0.0852 -0.8122  0.1491
 6398WAT      O26311   2.394   7.254   6.152 -0.2906  0.6569  0.2084
 6398WAT     H126312   2.448   7.229   6.216 -0.5787  0.5023  0.3919
 6398WAT     H226313   2.442   7.245   6.079  0.1448  1.1376  0.4287
 6398WAT    EPW26314   2.409   7.249   6.150 -0.2688  0.7050  0.2680
 6399WAT      O26315   1.555   7.339   5.959  0.2292 -0.1115  0.7649
 6399WAT     H126316   1.546   7.259   5.925 -1.4544 -0.2774  1.5382
 6399WAT     H226317   1.623   7.331   6.013  2.7382  0.0527 -2.0905
 6399WAT    EPW26318   1.564   7.326   5.962  0.3511 -0.1118  0.4573
 6400WAT      O26319   3.459   6.138   7.248  0.4828 -0.1455  0.1824
 6400WAT     H126320   3.538   6.167   7.273  0.7455 -0.9374  0.2946
 6400WAT     H226321   3.404   6.187   7.295  0.8927  0.5278 -0.0162
 6400WAT    EPW26322   3.462   6.150   7.259  0.5822 -0.1630  0.1696
 6401WAT      O26323   2.566   0.470   5.671  0.4063 -0.1850 -0.0758
 6401WAT     H126324   2.568   0.543   5.718  2.9250  1.0029 -1.7830
 6401WAT     H226325   2.533   0.495   5.594  0.2249 -1.1096 -0.3206
 6401WAT    EPW26326   2.561   0.484   5.666  0.7516 -0.1461 -0.3642
 6402WAT      O26327   3.352   6.747   5.778 -0.1130  0.3690  0.4555
 6402WAT     H126328   3.292   6.810   5.785  1.1783  1.5096  2.0984
 6402WAT     H226329   3.404   6.776   5.714 -2.2482 -1.5758 -2.4107
 6402WAT    EPW26330   3.351   6.761   5.769 -0.2377  0.2502  0.2748
 6403WAT      O26331   2.328   5.187   6.893  0.0431  0.5463  0.1435
 6403WAT     H126332   2.373   5.192   6.968 -1.0578  0.8854  0.8127
 6403WAT     H226333   2.274   5.256   6.898 -1.0799 -0.2764 -0.2575
 6403WAT    EPW26334   2.327   5.198   6.905 -0.2854  0.4749  0.1831
 6404WAT      O26335   2.102   6.300   0.640  0.4559  0.8296 -0.2607
 6404WAT     H126336   2.065   6.249   0.700 -0.2990 -2.3138 -3.1093
 6404WAT     H226337   2.181   6.317   0.675  1.2289 -3.2858  0.5659
 6404WAT    EPW26338   2.108   6.295   0.654  0.4586 -0.2427 -0.5594
 6405WAT      O26339   2.306   6.411   0.042  0.4994 -0.1083 -0.3559
 6405WAT     H126340   2.364   6.468   0.074  0.8086 -0.9470  0.6576
 6405WAT     H226341   2.318   6.416  -0.044  1.8557 -0.0084 -0.1954
 6405WAT    EPW26342   2.317   6.420   0.034  0.7455 -0.2174 -0.1825
 6406WAT      O26343   3.981   7.456   6.359 -0.0029  0.2243  0.2710
 6406WAT     H126344   4.059   7.492   6.374 -0.2760  1.4169 -0.9625
 6406WAT     H226345   3.928   7.525   6.349 -0.9384 -0.5431 -0.2526
 6406WAT    EPW26346   3.985   7.471   6.360 -0.1815  0.2871  0.0114
 6407WAT      O26347   3.143   6.151   0.140 -0.4112 -0.2849 -0.0281
 6407WAT     H126348   3.212   6.191   0.108  0.0632 -0.5227  0.6663
 6407WAT     H226349   3.113   6.206   0.201 -0.0148 -0.7692  0.6237
 6407WAT    EPW26350   3.148   6.165   0.145 -0.2825 -0.3915  0.1708
 6408WAT      O26351   4.131   7.668   6.025  0.3519  0.0885  0.2917
 6408WAT     H126352   4.125   7.581   6.018  0.6895  0.1897 -1.6417
 6408WAT     H226353   4.125   7.696   5.943 -0.3097  1.9581  0.9209
 6408WAT    EPW26354   4.129   7.659   6.012  0.3040  0.3796  0.0990
 6409WAT      O26355   2.219   0.088   5.899  0.0200  0.5187  0.2425
 6409WAT     H126356   2.195   0.102   5.817  2.3994 -0.1497 -0.6437
 6409WAT     H226357   2.187   0.157   5.942 -2.8019 -0.0103 -0.8353
 6409WAT    EPW26358   2.211   0.100   5.893 -0.0454  0.3418 -0.0476
 6410WAT      O26359   2.151   7.213   0.246  0.1306 -0.8509 -0.0488
 6410WAT     H126360   2.076   7.168   0.241  0.2312 -1.5174  2.6907
 6410WAT     H226361   2.205   7.168   0.195 -1.4483  0.1127 -2.7518
 6410WAT    EPW26362   2.148   7.200   0.238 -0.0877 -0.8070 -0.0434
 6411WAT      O26363   2.528   7.149   6.403  0.0656 -0.3291 -0.0684
 6411WAT     H126364   2.465   7.104   6.443  1.2382  0.3026  2.7293
 6411WAT     H226365   2.568   7.089   6.353 -0.0725 -1.7912  1.4895
 6411WAT    EPW26366   2.525   7.133   6.402  0.2184 -0.4518  0.5750
 6412WAT      O26367   1.783   6.411   7.192  0.3136  0.1748  0.4350
 6412WAT     H126368   1.698   6.408   7.208  0.2694 -1.4972  0.1350
 6412WAT     H226369   1.814   6.466   7.252 -0.8562  0.0780  1.1552
 6412WAT    EPW26370   1.775   6.419   7.203  0.1342 -0.0865  0.4971
 6413WAT      O26371   2.577   5.905   0.471  0.4866  0.4776 -0.1491
 6413WAT     H126372   2.638   5.906   0.408  1.6449  0.5907  0.9358
 6413WAT     H226373   2.565   5.820   0.487  0.8205  0.4707  0.0674
 6413WAT    EPW26374   2.584   5.893   0.464  0.7070  0.4933  0.0432
 6414WAT      O26375   3.418   6.107   7.622  0.1495  0.0850 -0.6792
 6414WAT     H126376   3.401   6.028   7.656  0.5386  0.2953  0.0007
 6414WAT     H226377   3.359   6.114   7.558 -0.7628 -0.2066  0.1044
 6414WAT    EPW26378   3.406   6.096   7.617  0.0722  0.0730 -0.4630
 6415WAT      O26379   3.753   0.763   6.619 -0.1367 -0.2358 -0.5836
 6415WAT     H126380   3.815   0.819   6.594 -0.1435 -0.0137 -0.1309
 6415WAT     H226381   3.707   0.748   6.547 -0.0951  0.3006 -0.7282
 6415WAT    EPW26382   3.755   0.769   6.605 -0.1316 -0.1237 -0.5381
 6416WAT      O26383   3.535   0.036   5.961  0.2309  0.1179 -0.1901
 6416WAT     H126384   3.536  -0.040   6.004  0.4201  0.7758  1.0180
 6416WAT     H226385   3.507   0.014   5.881 -0.6203 -1.0817  0.4052
 6416WAT    EPW26386   3.531   0.022   5.956  0.1331  0.0379  0.0763
 6417WAT      O26387   3.311   6.250   6.686  0.2516 -0.3949  0.1561
 6417WAT     H126388   3.386   6.223   6.721 -0.0404 -1.8148 -0.2491
 6417WAT     H226389   3.300   6.330   6.719  1.2083 -0.7325  1.3456
 6417WAT    EPW26390   3.321   6.258   6.696  0.3498 -0.6545  0.2720
 6418WAT      O26391   3.250   6.808   6.486 -0.1512  0.3299  0.3563
 6418WAT     H126392   3.292   6.793   6.411  0.6728 -1.0108  1.0473
 6418WAT     H226393   3.309   6.788   6.547 -0.7578  1.5120  1.3919
 6418WAT    EPW26394   3.265   6.803   6.484 -0.1191  0.3064  0.6113
 6419WAT      O26395   3.897   0.873   6.208 -0.0559 -0.4381 -0.2090
 6419WAT     H126396   3.957   0.907   6.153  2.4445 -2.2520  1.1966
 6419WAT     H226397   3.881   0.794   6.174 -0.7340 -0.4389  0.1049
 6419WAT    EPW26398   3.903   0.866   6.195  0.2133 -0.7062  0.0450
 6420WAT      O26399   0.692   6.443   6.279  0.0185 -0.3941 -0.1843
 6420WAT     H126400   0.741   6.371   6.282 -1.1678 -1.2502 -0.4879
 6420WAT     H226401   0.613   6.414   6.256 -0.7411  0.8756  0.6207
 6420WAT    EPW26402   0.687   6.428   6.276 -0.2689 -0.3330 -0.1102
 6421WAT      O26403   4.109   0.587   6.134  0.3066 -0.0772  0.8420
 6421WAT     H126404   4.108   0.650   6.073  0.3903  0.7889  1.7068
 6421WAT     H226405   4.040   0.606   6.184  0.6050 -0.3903  1.3811
 6421WAT    EPW26406   4.099   0.599   6.132  0.3631  0.0045  1.0494
 6422WAT      O26407   1.772   6.348   6.930 -0.0195  0.3434  0.1891
 6422WAT     H126408   1.712   6.399   6.892 -1.3868 -1.2483  0.1430
 6422WAT     H226409   1.764   6.368   7.014 -0.6792  0.0835  0.1942
 6422WAT    EPW26410   1.762   6.359   6.936 -0.3189  0.0699  0.1830
 6423WAT      O26411   2.084   5.636   6.349 -0.5338  0.1770 -0.4081
 6423WAT     H126412   2.170   5.628   6.361 -0.3809 -0.0189 -1.5672
 6423WAT     H226413   2.064   5.707   6.396  0.1006 -0.2504  0.5491
 6423WAT    EPW26414   2.094   5.645   6.358 -0.4175  0.0849 -0.4379
 6424WAT      O26415   2.540   6.708   7.659  0.4469 -0.2238  0.0503
 6424WAT     H126416   2.499   6.780   7.686  0.5476 -0.5129  1.0063
 6424WAT     H226417   2.475   6.650   7.647  0.5578 -0.8796  2.1749
 6424WAT    EPW26418   2.524   6.710   7.661  0.4782 -0.3634  0.5053
 6425WAT      O26419   5.115   7.158   6.890 -0.5389 -0.4610  0.4183
 6425WAT     H126420   5.163   7.093   6.857 -1.0944  0.9578 -3.6667
 6425WAT     H226421   5.033   7.129   6.883 -0.6592 -0.6536  2.0792
 6425WAT    EPW26422   5.110   7.144   6.884 -0.6387 -0.2798  0.0602
 6426WAT      O26423   3.865   7.015   6.014  0.0622  0.2359  0.3499
 6426WAT     H126424   3.821   6.981   6.082 -2.7271  0.5449 -1.1539
 6426WAT     H226425   3.939   6.969   6.013 -0.3234 -0.6165  2.8373
 6426WAT    EPW26426   3.869   7.003   6.024 -0.4068  0.1556  0.4952
 6427WAT      O26427   3.560   6.441   5.995 -0.0861  0.1537  0.1725
 6427WAT     H126428   3.575   6.360   5.966  0.0787  0.2822 -0.1054
 6427WAT     H226429   3.632   6.484   5.974  1.0479 -0.2632  2.7980
 6427WAT    EPW26430   3.573   6.435   5.988  0.1058  0.1111  0.5193
 6428WAT      O26431   1.978   6.123   6.380 -0.2605 -0.2645  0.1536
 6428WAT     H126432   1.902   6.149   6.345  0.1548 -0.3634 -0.8747
 6428WAT     H226433   1.959   6.048   6.419 -0.1163 -2.1109 -2.9241
 6428WAT    EPW26434   1.964   6.116   6.380 -0.1779 -0.5519 -0.4530
 6429WAT      O26435   1.559   7.143   7.554  0.2162 -0.3111  0.0932
 6429WAT     H126436   1.571   7.201   7.618 -1.6816 -1.2363  1.4099
 6429WAT     H226437   1.495   7.178   7.506  1.0360 -0.0211 -0.8095
 6429WAT    EPW26438   1.551   7.157   7.556  0.0570 -0.4049  0.1543
 6430WAT      O26439   3.146   0.447   6.106 -0.0094 -0.2506  0.5763
 6430WAT     H126440   3.195   0.382   6.076  0.2423  0.7528 -1.3150
 6430WAT     H226441   3.079   0.450   6.050  0.2372  1.3905  0.3163
 6430WAT    EPW26442   3.143   0.438   6.093  0.0642  0.1401  0.2585
 6431WAT      O26443   3.626   5.948   6.064 -0.0447  0.1538  0.1908
 6431WAT     H126444   3.592   5.983   6.136 -0.0550  1.1216 -0.2676
 6431WAT     H226445   3.618   6.011   6.005 -1.5974 -1.1903 -1.1518
 6431WAT    EPW26446   3.620   5.962   6.066 -0.2756  0.0982 -0.0752
 6432WAT      O26447   3.570   7.472   7.803  0.3139 -0.1732 -0.1293
 6432WAT     H126448   3.509   7.532   7.819 -1.4992 -1.7699 -0.7072
 6432WAT     H226449   3.614   7.466   7.879 -1.6249 -0.4604  1.0246
 6432WAT    EPW26450   3.568   7.480   7.817 -0.2403 -0.4515 -0.0442
 6433WAT      O26451   4.492   7.635   4.520 -0.6297 -0.2038  0.4488
 6433WAT     H126452   4.510   7.675   4.445  1.7754  1.8785  1.9646
 6433WAT     H226453   4.493   7.550   4.500 -1.8494  0.3076 -2.1423
 6433WAT    EPW26454   4.495   7.629   4.506 -0.4546  0.1794  0.2899
 6434WAT      O26455   3.566   7.062   6.061  0.3417 -0.0865 -0.4758
 6434WAT     H126456   3.629   7.110   6.024  0.9001 -0.0984  0.4309
 6434WAT     H226457   3.499   7.117   6.067  1.3343  1.0041  1.6253
 6434WAT    EPW26458   3.565   7.077   6.057  0.5708  0.0729 -0.0315
 6435WAT      O26459   1.118   6.619   5.811  0.0071  0.2359  0.0776
 6435WAT     H126460   1.038   6.625   5.777 -0.1854  1.0888  0.6662
 6435WAT     H226461   1.115   6.670   5.881  1.1485  0.5103 -0.0484
 6435WAT    EPW26462   1.106   6.628   5.816  0.1473  0.4024  0.1459
 6436WAT      O26463   2.305   6.422   0.760 -0.3025 -0.2110 -0.0627
 6436WAT     H126464   2.293   6.508   0.769 -1.2604 -0.1493 -1.5399
 6436WAT     H226465   2.391   6.412   0.765 -0.2619  0.6259  1.5935
 6436WAT    EPW26466   2.316   6.434   0.762 -0.4380 -0.0783 -0.0363
 6437WAT      O26467   3.132   7.427   6.382 -0.3533 -0.0200  0.0612
 6437WAT     H126468   3.144   7.342   6.398  0.8829  0.0315 -0.4349
 6437WAT     H226469   3.059   7.430   6.335 -0.6274 -0.7655  0.4334
 6437WAT    EPW26470   3.123   7.415   6.378 -0.2112 -0.1225  0.0429
 6438WAT      O26471   2.053   0.420   7.371  0.4553 -0.2008  0.6362
 6438WAT     H126472   2.033   0.354   7.424  0.5847 -0.0683  0.8524
 6438WAT     H226473   1.975   0.448   7.343  0.4353 -1.8093 -1.1840
 6438WAT    EPW26474   2.038   0.415   7.374  0.4714 -0.4188  0.3993
 6439WAT      O26475   3.939   6.821   6.948  0.0625 -0.3004  0.6188
 6439WAT     H126476   3.991   6.768   6.902 -0.0043 -1.2211  1.5572
 6439WAT     H226477   3.986   6.894   6.955  0.7775 -0.7367  0.5321
 6439WAT    EPW26478   3.954   6.824   6.942  0.1583 -0.5009  0.7446
 6440WAT      O26479   3.429   0.092   6.466  0.6043 -0.0877  0.4969
 6440WAT     H126480   3.425   0.012   6.433 -0.2134 -0.4893  1.5311
 6440WAT     H226481   3.514   0.108   6.471  0.7666 -0.7143 -0.1212
 6440WAT    EPW26482   3.441   0.083   6.462  0.5075 -0.2396  0.5583
 6441WAT      O26483   2.161   5.489   7.547  0.2111 -0.1527 -0.1711
 6441WAT     H126484   2.172   5.528   7.624 -1.1569  0.3079 -0.1831
 6441WAT     H226485   2.240   5.457   7.529  0.4752 -0.5543  1.5585
 6441WAT    EPW26486   2.174   5.490   7.555  0.0480 -0.1440  0.0826
 6442WAT      O26487   3.111   6.906   6.128 -0.4667  0.6755 -0.6065
 6442WAT     H126488   3.129   6.922   6.045 -0.6053 -0.7097 -0.9276
 6442WAT     H226489   3.053   6.841   6.124  0.6886 -0.4867  0.5859
 6442WAT    EPW26490   3.105   6.899   6.115 -0.3165  0.2992 -0.4778
 6443WAT      O26491   2.145   5.626   6.688 -0.4048  0.5081  0.9908
 6443WAT     H126492   2.096   5.650   6.756 -0.0534  1.5848  0.8712
 6443WAT     H226493   2.116   5.677   6.623 -1.4099 -1.1628  0.0435
 6443WAT    EPW26494   2.133   5.637   6.689 -0.5014  0.4203  0.8332
 6444WAT      O26495   2.598   0.202   7.316 -0.3657  0.5185 -0.7029
 6444WAT     H126496   2.563   0.206   7.237 -0.1451 -1.8805 -1.0062
 6444WAT     H226497   2.542   0.153   7.361  0.2326  0.6362  0.2036
 6444WAT    EPW26498   2.585   0.195   7.311 -0.2447  0.1815 -0.6138
 6445WAT      O26499   1.013   4.886   6.687 -0.1946 -0.1943 -0.1740
 6445WAT     H126500   1.061   4.917   6.753 -0.9281  1.9515 -0.5450
 6445WAT     H226501   1.054   4.917   6.616 -1.3152  0.4942 -0.5518
 6445WAT    EPW26502   1.026   4.895   6.686 -0.4685  0.2244 -0.2846
 6446WAT      O26503   3.477   7.233   7.611 -0.2657 -0.2171 -0.0067
 6446WAT     H126504   3.514   7.249   7.533 -0.7738 -0.7403 -0.3650
 6446WAT     H226505   3.527   7.277   7.667  0.7982 -0.7577 -0.4917
 6446WAT    EPW26506   3.490   7.242   7.608 -0.1836 -0.3742 -0.1313
 6447WAT      O26507   2.761   5.867   6.123 -0.1817 -0.3404 -0.5577
 6447WAT     H126508   2.779   5.916   6.053  0.2791 -0.4890 -0.5443
 6447WAT     H226509   2.759   5.786   6.091  0.6020 -0.4673 -0.2961
 6447WAT    EPW26510   2.763   5.862   6.108  0.0021 -0.3811 -0.5171
 6448WAT      O26511   2.169   7.276   5.503  0.0888  0.4069  0.5257
 6448WAT     H126512   2.191   7.334   5.441  1.3196  1.1488  1.6097
 6448WAT     H226513   2.173   7.322   5.577 -1.0296 -0.5444  1.2187
 6448WAT    EPW26514   2.173   7.291   5.505  0.1054  0.3759  0.7882
 6449WAT      O26515   3.391   6.635   7.420  0.5845 -0.1001 -0.0561
 6449WAT     H126516   3.413   6.640   7.504 -1.1419  0.6371  0.3971
 6449WAT     H226517   3.367   6.717   7.400 -0.7030 -0.6168 -0.7554
 6449WAT    EPW26518   3.390   6.648   7.430  0.1393 -0.0675 -0.0925
 6450WAT      O26519   3.695   6.413   7.723 -0.0430 -0.7011  0.3813
 6450WAT     H126520   3.633   6.471   7.704 -0.9496 -1.2739  1.4451
 6450WAT     H226521   3.684   6.350   7.663  0.5466 -0.0712 -0.3990
 6450WAT    EPW26522   3.684   6.412   7.712 -0.0898 -0.6927  0.4232
 6451WAT      O26523   3.396   7.177   6.408 -0.2721  0.2144 -0.1685
 6451WAT     H126524   3.340   7.147   6.468  1.1786  0.0600  1.1616
 6451WAT     H226525   3.428   7.104   6.372  1.7235  0.1296  1.6270
 6451WAT    EPW26526   3.392   7.162   6.412  0.2370  0.1791  0.2932
 6452WAT      O26527   3.204   7.499   5.867  0.2337  0.4376 -0.0206
 6452WAT     H126528   3.277   7.527   5.828 -0.3250 -1.2744 -2.5381
 6452WAT     H226529   3.201   7.545   5.940  2.1448  2.8865 -1.3367
 6452WAT    EPW26530   3.214   7.510   5.872  0.4335  0.5465 -0.5869
 6453WAT      O26531   2.389   0.276   5.761 -0.2626 -0.0202  0.3010
 6453WAT     H126532   2.380   0.281   5.847  0.1621 -0.1382  0.3567
 6453WAT     H226533   2.450   0.335   5.743  0.0727 -0.3993  0.1598
 6453WAT    EPW26534   2.397   0.285   5.771 -0.1503 -0.0937  0.2884
 6454WAT      O26535   1.941   6.969   7.697  0.2457  0.5808 -0.1475
 6454WAT     H126536   1.970   6.918   7.762  0.5375  1.0789  0.1190
 6454WAT     H226537   1.880   7.018   7.735  1.4461  1.9108  0.1304
 6454WAT    EPW26538   1.937   6.969   7.712  0.4661  0.8508 -0.0671
 6455WAT      O26539   2.493   5.927   7.139 -0.2963  0.1818 -0.9061
 6455WAT     H126540   2.493   6.013   7.151  0.4052  0.0817 -0.0894
 6455WAT     H226541   2.510   5.895   7.218 -0.5683 -0.7088 -1.1957
 6455WAT    EPW26542   2.496   5.935   7.152 -0.2329  0.0355 -0.8282
 6456WAT      O26543   2.163   6.701   0.425 -0.2590 -1.0227  0.3941
 6456WAT     H126544   2.106   6.761   0.395  0.5032 -0.6572 -0.3712
 6456WAT     H226545   2.111   6.640   0.460 -1.1483 -0.7944 -0.4539
 6456WAT    EPW26546   2.147   6.701   0.426 -0.2778 -0.9350  0.1558
 6457WAT      O26547   2.644   6.097   7.492 -0.3404  0.3542  0.1219
 6457WAT     H126548   2.650   6.099   7.579 -1.1375  1.1996  0.1795
 6457WAT     H226549   2.612   6.176   7.472 -0.2414  0.1472 -0.9323
 6457WAT    EPW26550   2.640   6.109   7.502 -0.4435  0.4485 -0.0253
 6458WAT      O26551   4.513   0.194   6.374  0.1810  0.3068  0.0536
 6458WAT     H126552   4.475   0.196   6.453 -0.5341 -0.1751 -0.2715
 6458WAT     H226553   4.555   0.271   6.370  0.1144  0.3965  0.8435
 6458WAT    EPW26554   4.514   0.206   6.385  0.0655  0.2488  0.1222
 6459WAT      O26555   3.682   0.201   6.534 -0.0341 -0.2367 -0.3326
 6459WAT     H126556   3.741   0.139   6.554 -1.2014 -2.2139 -2.4505
 6459WAT     H226557   3.653   0.228   6.612  0.6922 -2.2491  0.7057
 6459WAT    EPW26558   3.687   0.196   6.549 -0.0993 -0.8261 -0.4921
 6460WAT      O26559   3.122   6.862   7.462 -0.7214  0.5068 -0.0735
 6460WAT     H126560   3.044   6.900   7.465  0.4346  3.1826 -1.0103
 6460WAT     H226561   3.111   6.798   7.403 -2.3157  0.4558  0.2388
 6460WAT    EPW26562   3.109   6.858   7.454 -0.7862  0.8946 -0.1657
 6461WAT      O26563   2.324   6.837   0.016 -0.6329 -0.0041  0.3944
 6461WAT     H126564   2.356   6.876   0.087 -1.9007  0.1195  0.9248
 6461WAT     H226565   2.347   6.891  -0.049 -0.9126  0.7731  0.9231
 6461WAT    EPW26566   2.332   6.851   0.017 -0.8615  0.1290  0.5509
 6462WAT      O26567   4.225   7.458   5.678 -0.2050 -0.2511  0.0486
 6462WAT     H126568   4.190   7.403   5.621 -0.5717  1.2777 -1.2902
 6462WAT     H226569   4.307   7.468   5.650  0.0580 -0.5986  0.6695
 6462WAT    EPW26570   4.232   7.452   5.666 -0.2203 -0.0766 -0.0574
 6463WAT      O26571   3.122   1.031   6.227 -0.3869 -0.7816 -0.1120
 6463WAT     H126572   3.154   1.082   6.164  0.4214  0.5633  1.3159
 6463WAT     H226573   3.145   1.072   6.300 -0.7563 -2.5994  1.0903
 6463WAT    EPW26574   3.130   1.044   6.228 -0.3220 -0.8515  0.2765
 6464WAT      O26575   2.662   0.322   0.335  0.2547 -1.0033 -0.1505
 6464WAT     H126576   2.643   0.319   0.250 -0.4010  0.7008 -0.1102
 6464WAT     H226577   2.733   0.372   0.339 -0.0892 -0.5400  0.3339
 6464WAT    EPW26578   2.669   0.329   0.323  0.1070 -0.6831 -0.0730
 6465WAT      O26579   2.959   6.781   6.538  0.7632 -0.2151  0.3954
 6465WAT     H126580   3.040   6.796   6.509  1.3633  0.2853  2.1733
 6465WAT     H226581   2.972   6.731   6.609 -0.4640 -0.0008  0.7881
 6465WAT    EPW26582   2.973   6.776   6.544  0.6705 -0.1095  0.7161
 6466WAT      O26583   2.421   7.593   7.268  0.4815 -0.0262  0.5008
 6466WAT     H126584   2.450   7.556   7.195  0.6273  0.4651  0.3100
 6466WAT     H226585   2.386   7.526   7.312  0.6102 -0.3646  0.0929
 6466WAT    EPW26586   2.420   7.577   7.264  0.5221 -0.0036  0.4124
 6467WAT      O26587   3.544   6.676   5.594 -0.2416  0.3136  0.2747
 6467WAT     H126588   3.472   6.642   5.559  0.2416  0.3217 -0.7567
 6467WAT     H226589   3.572   6.733   5.533  0.5508  0.4175  0.7193
 6467WAT    EPW26590   3.538   6.680   5.580 -0.0532  0.3302  0.1880
 6468WAT      O26591   4.423   5.650   5.970  0.6723  0.1220  0.6805
 6468WAT     H126592   4.342   5.681   5.973  0.5220 -0.2879  0.9346
 6468WAT     H226593   4.432   5.609   6.046  1.2755  0.5483  0.8437
 6468WAT    EPW26594   4.413   5.649   5.982  0.7392  0.1244  0.7422
 6469WAT      O26595   3.119   6.394   6.080  0.1389  0.0942  0.0418
 6469WAT     H126596   3.134   6.423   6.161  1.0223  0.7059 -0.3287
 6469WAT     H226597   3.183   6.429   6.033 -0.2038 -0.4747 -0.8838
 6469WAT    EPW26598   3.131   6.403   6.085  0.2188  0.1005 -0.1496
 6470WAT      O26599   0.558   7.205   6.546  0.0468  0.1531 -0.6964
 6470WAT     H126600   0.643   7.210   6.527  0.6498 -3.6789  0.0373
 6470WAT     H226601   0.553   7.237   6.626  0.5004  1.6169 -1.2243
 6470WAT    EPW26602   0.569   7.210   6.555  0.2029 -0.1968 -0.6660
 6471WAT      O26603   2.797   6.560   7.684  0.2065 -0.2686 -0.4153
 6471WAT     H126604   2.715   6.589   7.673  0.2117  0.1759  0.5845
 6471WAT     H226605   2.840   6.631   7.710  1.1836 -0.2387 -1.9971
 6471WAT    EPW26606   2.791   6.575   7.687  0.3516 -0.1985 -0.5013
 6472WAT      O26607   3.104   7.120   0.262 -0.0348  0.0716 -0.9213
 6472WAT     H126608   3.149   7.098   0.334 -0.7705  0.8097 -0.2021
 6472WAT     H226609   3.144   7.077   0.198  0.6935 -0.5429 -0.0738
 6472WAT    EPW26610   3.116   7.111   0.264 -0.0359  0.0898 -0.6899
 6473WAT      O26611   4.413   7.073   6.520 -0.1682  0.3955 -0.5915
 6473WAT     H126612   4.342   7.094   6.473 -0.7601 -2.1506 -0.9932
 6473WAT     H226613   4.459   7.022   6.466  0.5844 -0.2436  0.6178
 6473WAT    EPW26614   4.409   7.069   6.505 -0.1445 -0.0750 -0.4722
 6474WAT      O26615   4.125   7.546   7.246  0.0505 -0.4365  0.9922
 6474WAT     H126616   4.063   7.527   7.305  1.4751  1.2577  3.2005
 6474WAT     H226617   4.192   7.572   7.295  2.9233 -2.9712 -1.1769
 6474WAT    EPW26618   4.126   7.547   7.262  0.6853 -0.5607  0.9980
 6475WAT      O26619   0.902   6.845   0.147  0.8669  0.0666  0.2377
 6475WAT     H126620   0.894   6.781   0.206  0.0521 -0.7543 -0.7129
 6475WAT     H226621   0.932   6.804   0.077  0.0287  0.6602 -0.4941
 6475WAT    EPW26622   0.905   6.830   0.146  0.6227  0.0330 -0.0108
 6476WAT      O26623   4.786   7.546   5.141 -0.0528  0.4428  0.2042
 6476WAT     H126624   4.858   7.498   5.150  0.3712  0.8841 -0.6961
 6476WAT     H226625   4.740   7.528   5.212  0.2373 -1.0696  0.0375
 6476WAT    EPW26626   4.790   7.536   5.153  0.0527  0.2846  0.0466
 6477WAT      O26627   2.703   6.750   7.413  0.0970  0.0577  0.0728
 6477WAT     H126628   2.664   6.730   7.488  0.0886  3.2782  1.0952
 6477WAT     H226629   2.637   6.779   7.363  0.5416  1.3328  0.1931
 6477WAT    EPW26630   2.687   6.752   7.417  0.1615  0.7218  0.2416
 6478WAT      O26631   3.409   7.400   0.585  0.4949  0.0654 -0.2048
 6478WAT     H126632   3.483   7.432   0.617  0.4243 -1.8342  2.1531
 6478WAT     H226633   3.347   7.452   0.618  0.6295  0.1791 -0.1325
 6478WAT    EPW26634   3.410   7.412   0.595  0.5044 -0.1984  0.1542
 6479WAT      O26635   2.093   6.944   6.674 -0.1822  0.4072  0.5641
 6479WAT     H126636   2.138   6.903   6.737  1.8400  2.4157  0.5478
 6479WAT     H226637   2.082   7.024   6.706 -1.1649  0.8137 -0.7229
 6479WAT    EPW26638   2.098   6.949   6.688 -0.0287  0.7639  0.3716
 6480WAT      O26639   2.540   5.262   1.026 -0.0919 -0.1021  0.4442
 6480WAT     H126640   2.522   5.228   1.104 -1.6337  0.0824  0.2032
 6480WAT     H226641   2.519   5.199   0.970  1.2883 -0.3419  0.1738
 6480WAT    EPW26642   2.534   5.248   1.029 -0.1158 -0.1102  0.3686
 6481WAT      O26643   2.609   5.354   6.683  0.2681  0.0346  0.5500
 6481WAT     H126644   2.527   5.348   6.653  0.2439 -0.7560  0.7778
 6481WAT     H226645   2.638   5.272   6.682  1.0244  0.2923  0.5862
 6481WAT    EPW26646   2.601   5.341   6.678  0.3762 -0.0441  0.5890
 6482WAT      O26647   1.754   7.178   6.823 -0.5512  0.0851 -0.4280
 6482WAT     H126648   1.713   7.119   6.773 -0.6753  0.5670 -0.8951
 6482WAT     H226649   1.694   7.198   6.883 -0.4798 -0.3279 -0.2161
 6482WAT    EPW26650   1.739   7.172   6.824 -0.5590  0.0953 -0.4657
 6483WAT      O26651   4.130   6.945   7.742  0.2719  0.3061  0.0858
 6483WAT     H126652   4.212   6.971   7.729  0.2078 -0.0634 -1.2059
 6483WAT     H226653   4.115   6.965   7.825  1.6529  0.4174  0.3288
 6483WAT    EPW26654   4.140   6.952   7.752  0.4664  0.2679 -0.0691
 6484WAT      O26655   2.048   6.029   5.667  0.1455  0.5023 -0.0188
 6484WAT     H126656   2.043   6.090   5.605  1.3196  0.4973 -0.1309
 6484WAT     H226657   2.040   6.074   5.741  0.0745  0.6659 -0.1260
 6484WAT    EPW26658   2.046   6.044   5.669  0.3085  0.5257 -0.0512
 6485WAT      O26659   3.863   7.676   6.574  0.3795  0.0759 -0.6497
 6485WAT     H126660   3.877   7.715   6.651 -1.0194  1.0992 -0.8703
 6485WAT     H226661   3.837   7.596   6.596  2.6884 -0.5877 -0.1623
 6485WAT    EPW26662   3.861   7.670   6.589  0.5139  0.1290 -0.6103
 6486WAT      O26663   2.250   6.299   6.864 -0.0167  0.7189 -0.1149
 6486WAT     H126664   2.252   6.228   6.914 -0.1984  0.6927 -0.1464
 6486WAT     H226665   2.292   6.274   6.791  0.7167  0.9158  0.2281
 6486WAT    EPW26666   2.257   6.285   6.860  0.0648  0.7441 -0.0689
 6487WAT      O26667   1.774   6.974   7.437  0.1319  0.3203 -0.3780
 6487WAT     H126668   1.701   7.020   7.451  0.6909  0.8862  0.8570
 6487WAT     H226669   1.801   6.954   7.518  1.5062  0.3988 -0.7914
 6487WAT    EPW26670   1.767   6.978   7.451  0.4175  0.4154 -0.2566
 6488WAT      O26671   2.716   7.091   5.355 -0.2284 -0.4126  0.4493
 6488WAT     H126672   2.661   7.033   5.321  1.3998 -1.7804  0.0050
 6488WAT     H226673   2.732   7.146   5.290  2.0377 -2.3950 -0.8057
 6488WAT    EPW26674   2.710   7.091   5.341  0.3468 -0.9075  0.1983
 6489WAT      O26675   2.678   7.498   1.132 -0.0344  0.3538  0.4160
 6489WAT     H126676   2.711   7.475   1.209  0.3006 -0.2965  0.0851
 6489WAT     H226677   2.608   7.546   1.153  0.3391  0.6088  1.1177
 6489WAT    EPW26678   2.673   7.502   1.146  0.0703  0.2954  0.4708
 6490WAT      O26679   3.124   5.275   0.569  0.0191  0.1365  0.0333
 6490WAT     H126680   3.202   5.238   0.555 -0.3525  0.3390 -3.3412
 6490WAT     H226681   3.073   5.208   0.590  0.6346 -0.3554 -0.0097
 6490WAT    EPW26682   3.128   5.259   0.570  0.0552  0.0937 -0.4716
 6491WAT      O26683   2.942   7.655   6.183  0.2645 -0.4169  0.5981
 6491WAT     H126684   2.935   7.712   6.117  0.9521 -0.1724  0.7319
 6491WAT     H226685   2.887   7.591   6.160  3.0466 -2.1348 -2.1039
 6491WAT    EPW26686   2.933   7.654   6.170  0.7770 -0.6346  0.2187
 6492WAT      O26687   1.364   7.053   6.923  0.3816 -0.0437 -0.4709
 6492WAT     H126688   1.375   6.971   6.949 -1.6361  0.0078  0.7628
 6492WAT     H226689   1.292   7.050   6.873 -0.8701  1.1595  1.1015
 6492WAT    EPW26690   1.355   7.041   6.920 -0.1014  0.1416 -0.0564
 6493WAT      O26691   4.355   0.500   6.209  0.4052 -0.3633  0.2506
 6493WAT     H126692   4.333   0.496   6.293  0.7478 -2.3605  0.3058
 6493WAT     H226693   4.284   0.532   6.170  0.2736  0.6620  1.2844
 6493WAT    EPW26694   4.341   0.504   6.216  0.4363 -0.5068  0.4115
 6494WAT      O26695   2.072   6.212   7.760  0.0019  0.3486  0.5959
 6494WAT     H126696   2.023   6.230   7.691  0.3615 -1.9712 -0.3685
 6494WAT     H226697   2.014   6.189   7.821 -0.2845  1.8750  0.9363
 6494WAT    EPW26698   2.057   6.211   7.759  0.0127  0.2314  0.5037
 6495WAT      O26699   2.935   6.965   6.831 -0.1001  0.1351  0.7713
 6495WAT     H126700   2.977   6.958   6.908  1.7555 -0.3781 -0.2262
 6495WAT     H226701   2.979   6.911   6.779 -1.7880 -0.0870 -0.4908
 6495WAT    EPW26702   2.948   6.956   6.835 -0.0753  0.0265  0.4375
 6496WAT      O26703   4.051   6.056   1.026  0.4878 -0.0803 -0.6316
 6496WAT     H126704   3.974   6.017   1.036 -0.2033  1.7150  2.8813
 6496WAT     H226705   4.106   6.003   1.067  0.6434 -0.1601 -0.9457
 6496WAT    EPW26706   4.047   6.043   1.034  0.4087  0.1731 -0.1591
 6497WAT      O26707   2.848   7.179   4.210 -0.5629  0.0014  0.6578
 6497WAT     H126708   2.830   7.148   4.290  1.2986 -0.1056  1.0903
 6497WAT     H226709   2.928   7.214   4.219 -0.0007 -0.6394 -1.3071
 6497WAT    EPW26710   2.857   7.179   4.223 -0.2049 -0.1090  0.4314
 6498WAT      O26711   3.477   6.183   5.136  0.1956 -0.3500 -0.4130
 6498WAT     H126712   3.493   6.113   5.186 -0.0308 -0.1417 -0.0401
 6498WAT     H226713   3.554   6.199   5.098  0.6901  0.1796  0.7677
 6498WAT    EPW26714   3.491   6.175   5.138  0.2352 -0.2410 -0.1835
 6499WAT      O26715   0.764   6.901   4.924 -0.8837 -0.0161  0.1502
 6499WAT     H126716   0.707   6.953   4.964 -1.1993 -0.1643 -0.1086
 6499WAT     H226717   0.808   6.864   4.990 -1.3729 -0.2278  0.3603
 6499WAT    EPW26718   0.762   6.903   4.940 -1.0026 -0.0692  0.1430
 6500WAT      O26719   3.136   6.057   6.788 -0.3201  0.8034 -0.1092
 6500WAT     H126720   3.093   6.022   6.721 -2.7007  1.4675  0.9602
 6500WAT     H226721   3.185   6.119   6.752 -1.9701  1.5211 -1.2038
 6500WAT    EPW26722   3.137   6.061   6.773 -0.9155  1.0075 -0.1129
 6501WAT      O26723   3.745   6.833   4.623  0.6346 -0.4117 -0.5343
 6501WAT     H126724   3.719   6.916   4.628  0.6560 -0.2738 -2.2358
 6501WAT     H226725   3.831   6.837   4.633  0.5436 -0.3351  0.2590
 6501WAT    EPW26726   3.754   6.846   4.625  0.6244 -0.3800 -0.6684
 6502WAT      O26727   2.379   1.102   3.406  0.6449  0.0502  0.3594
 6502WAT     H126728   2.311   1.151   3.383  0.3678 -1.3296 -2.1945
 6502WAT     H226729   2.366   1.088   3.491 -1.3433  1.2060  0.3225
 6502WAT    EPW26730   2.367   1.107   3.415  0.3103  0.0171 -0.0233
 6503WAT      O26731   3.164   6.398   3.146  0.0882 -0.5984 -0.5198
 6503WAT     H126732   3.188   6.320   3.178  3.1192  0.3201 -0.2848
 6503WAT     H226733   3.219   6.411   3.080 -1.6525  0.5490 -1.8121
 6503WAT    EPW26734   3.175   6.388   3.141  0.2788 -0.2932 -0.6760
 6504WAT      O26735   1.503   7.060   5.568  0.3047 -0.2082 -0.0226
 6504WAT     H126736   1.582   7.093   5.551 -0.2285  0.7951 -0.5994
 6504WAT     H226737   1.518   6.974   5.569  1.1267 -0.1357 -1.7606
 6504WAT    EPW26738   1.517   7.052   5.565  0.3473 -0.0493 -0.3645
 6505WAT      O26739   2.768   7.049   5.989 -0.3566 -0.6067  0.6491
 6505WAT     H126740   2.717   7.011   6.048 -2.5317  0.9158 -0.1333
 6505WAT     H226741   2.809   7.112   6.034 -2.8920  1.3363  0.4642
 6505WAT    EPW26742   2.767   7.053   6.004 -1.0524 -0.0948  0.5062
 6506WAT      O26743   4.172   7.258   4.537 -0.2340 -0.5692  0.5774
 6506WAT     H126744   4.218   7.307   4.593 -0.7087 -1.0966  1.4448
 6506WAT     H226745   4.099   7.240   4.581 -0.6330 -0.9625 -0.2340
 6506WAT    EPW26746   4.168   7.263   4.552 -0.3631 -0.7052  0.5857
 6507WAT      O26747   4.864   6.873   4.578  0.2323  0.3949  0.2016
 6507WAT     H126748   4.800   6.813   4.584 -0.3446  0.9352 -0.4470
 6507WAT     H226749   4.891   6.866   4.496  0.5303  0.6569  0.2762
 6507WAT    EPW26750   4.858   6.863   4.567  0.1911  0.5134  0.1168
 6508WAT      O26751   2.662   5.942   6.632  0.2936 -0.6819 -0.0219
 6508WAT     H126752   2.672   6.018   6.592 -1.5791 -0.4777 -0.2106
 6508WAT     H226753   2.655   5.964   6.716 -1.3226 -0.4911 -0.1793
 6508WAT    EPW26754   2.662   5.956   6.638 -0.2218 -0.6235 -0.0730
 6509WAT      O26755   2.810   7.114   3.148 -0.0481  0.4254  0.4525
 6509WAT     H126756   2.820   7.042   3.100 -0.3648  0.0208  0.9884
 6509WAT     H226757   2.735   7.101   3.191 -0.7434  1.5981 -0.3359
 6509WAT    EPW26758   2.801   7.101   3.147 -0.1976  0.5388  0.4152
 6510WAT      O26759   1.936   7.143   5.576  0.2424  0.0128 -0.2059
 6510WAT     H126760   2.003   7.188   5.543 -0.1079  1.2629  0.6719
 6510WAT     H226761   1.973   7.082   5.625  0.7488 -1.1848 -1.9986
 6510WAT    EPW26762   1.951   7.141   5.579  0.2655  0.0206 -0.3410
 6511WAT      O26763   2.082   6.673   5.191  0.3615  0.2358 -0.3310
 6511WAT     H126764   2.005   6.674   5.149 -0.5539  0.7880  1.2782
 6511WAT     H226765   2.120   6.600   5.163 -1.5490 -1.0193  0.1624
 6511WAT    EPW26766   2.076   6.663   5.181 -0.0559  0.1320 -0.0204
 6512WAT      O26767   2.712   6.878   6.693 -0.5996  0.0151  0.3652
 6512WAT     H126768   2.772   6.906   6.750 -0.7977  0.1655  0.4980
 6512WAT     H226769   2.760   6.839   6.631 -0.4023 -0.4366  0.7955
 6512WAT    EPW26770   2.728   6.876   6.692 -0.5997 -0.0294  0.4484
 6513WAT      O26771   3.253   7.602   3.037  0.7205 -0.1719  0.3019
 6513WAT     H126772   3.272   7.608   2.952 -0.0737  1.0029  0.1873
 6513WAT     H226773   3.332   7.591   3.074  1.2275  0.7030 -0.4722
 6513WAT    EPW26774   3.268   7.601   3.030  0.6781  0.1309  0.1706
 6514WAT      O26775   2.121   6.648   5.842 -0.3331 -0.3597  0.3519
 6514WAT     H126776   2.168   6.662   5.914 -0.8419  1.0783  0.4510
 6514WAT     H226777   2.181   6.649   5.778 -0.0024 -0.5770  0.6569
 6514WAT    EPW26778   2.137   6.650   5.843 -0.3594 -0.1794  0.4116
 6515WAT      O26779   3.573   6.476   4.928 -0.1272  0.4357 -0.4961
 6515WAT     H126780   3.491   6.494   4.904 -0.1201  2.4915  0.7715
 6515WAT     H226781   3.572   6.390   4.941 -1.6921  0.2010 -1.8415
 6515WAT    EPW26782   3.560   6.466   4.926 -0.3573  0.7047 -0.5076
 6516WAT      O26783   3.207   0.235   5.009 -0.1573 -0.6598  0.8912
 6516WAT     H126784   3.202   0.308   4.961 -0.4974 -0.9467  0.4878
 6516WAT     H226785   3.230   0.174   4.951  1.2627 -0.6772  1.4249
 6516WAT    EPW26786   3.210   0.237   4.993  0.0022 -0.7047  0.9104
 6517WAT      O26787   3.039   0.930   4.409 -0.3246 -0.2535  0.0754
 6517WAT     H126788   3.030   0.843   4.407 -1.2776 -0.1617 -0.0320
 6517WAT     H226789   3.094   0.946   4.344 -0.1156 -0.7736  0.1149
 6517WAT    EPW26790   3.046   0.920   4.399 -0.4345 -0.3168  0.0654
 6518WAT      O26791   2.925   0.180   5.962  0.9725 -0.2020  0.0554
 6518WAT     H126792   2.974   0.169   5.891  2.4552 -0.8506  1.1251
 6518WAT     H226793   2.917   0.266   5.969 -0.2966 -0.1357 -1.5781
 6518WAT    EPW26794   2.931   0.191   5.953  1.0041 -0.2880 -0.0279
 6519WAT      O26795   2.429   0.561   5.440  0.1159 -0.2245 -0.0273
 6519WAT     H126796   2.443   0.568   5.354 -0.1413 -2.1424 -0.2590
 6519WAT     H226797   2.367   0.501   5.446  0.1301 -0.1237  1.5162
 6519WAT    EPW26798   2.422   0.553   5.428  0.0800 -0.4929  0.1665
 6520WAT      O26799   3.256   6.519   5.214  0.1187  0.7109  0.3818
 6520WAT     H126800   3.275   6.515   5.299  1.9591  3.2011  0.2286
 6520WAT     H226801   3.318   6.573   5.182  0.1558 -0.9428 -2.7518
 6520WAT    EPW26802   3.268   6.527   5.222  0.3960  0.8344 -0.1037
 6521WAT      O26803   3.431   6.827   2.835  0.3965 -0.1220  0.9996
 6521WAT     H126804   3.503   6.788   2.863  1.3075  0.8335  0.1090
 6521WAT     H226805   3.370   6.765   2.839  1.5472 -1.3244  0.6019
 6521WAT    EPW26806   3.432   6.812   2.840  0.7011 -0.1584  0.8093
 6522WAT      O26807   2.191   7.418   4.551 -1.1265 -0.3400 -0.7372
 6522WAT     H126808   2.169   7.335   4.564 -2.1297  0.0945  0.5525
 6522WAT     H226809   2.165   7.458   4.624  3.1305  0.4488  0.6329
 6522WAT    EPW26810   2.184   7.412   4.564 -0.6458 -0.1593 -0.3443
 6523WAT      O26811   3.223   7.487   4.733  0.0856 -0.6067 -0.1585
 6523WAT     H126812   3.247   7.565   4.765 -0.1553 -0.3476 -0.5911
 6523WAT     H226813   3.141   7.479   4.759  0.5268 -1.3651  1.0793
 6523WAT    EPW26814   3.215   7.498   4.741  0.1152 -0.6805 -0.0396
 6524WAT      O26815   2.892   7.471   4.346  0.4248 -0.3219 -0.2363
 6524WAT     H126816   2.833   7.530   4.370  0.2389 -0.4005 -0.5020
 6524WAT     H226817   2.877   7.460   4.261  0.8803 -0.2759 -0.3236
 6524WAT    EPW26818   2.881   7.478   4.337  0.4646 -0.3267 -0.2884
 6525WAT      O26819   3.113   5.841   6.031 -0.0612  0.3823  0.0563
 6525WAT     H126820   3.050   5.895   6.008 -1.1474  0.7177  3.3008
 6525WAT     H226821   3.077   5.762   6.024  0.1237  0.3561 -0.6913
 6525WAT    EPW26822   3.099   5.837   6.027 -0.1943  0.4280  0.4251
 6526WAT      O26823   2.402   5.949   5.851  0.8386  0.0662  0.6563
 6526WAT     H126824   2.457   6.013   5.825 -0.4214  1.3985  1.1600
 6526WAT     H226825   2.342   5.947   5.788  0.6310 -0.3262  0.8645
 6526WAT    EPW26826   2.402   5.959   5.838  0.6218  0.2050  0.7615
 6527WAT      O26827   4.317   6.976   3.978 -0.0485 -0.4489 -0.4870
 6527WAT     H126828   4.324   7.063   3.976  0.2809 -0.4847 -1.5973
 6527WAT     H226829   4.301   6.955   3.895 -0.7560 -1.4051 -0.1218
 6527WAT    EPW26830   4.316   6.986   3.965 -0.1043 -0.5954 -0.5970
 6528WAT      O26831   3.108   7.262   5.918 -0.0388 -0.0477  0.3467
 6528WAT     H126832   3.039   7.275   5.969 -0.6048  1.1590 -0.6668
 6528WAT     H226833   3.132   7.342   5.894  1.2757 -0.4798  0.0901
 6528WAT    EPW26834   3.102   7.276   5.922  0.0718  0.0667  0.1591
 6529WAT      O26835   2.135   0.094   5.359  0.1507  0.1504 -0.1266
 6529WAT     H126836   2.049   0.098   5.371  0.3962 -0.7843  3.0980
 6529WAT     H226837   2.149   0.011   5.336  0.0874  0.9306 -3.4402
 6529WAT    EPW26838   2.125   0.082   5.358  0.1776  0.1276 -0.1398
 6530WAT      O26839   3.679   7.209   6.324  0.1475  0.2119 -0.1091
 6530WAT     H126840   3.685   7.192   6.239  0.4572 -0.4791  0.0469
 6530WAT     H226841   3.613   7.159   6.351  0.9874 -0.6845  0.3329
 6530WAT    EPW26842   3.670   7.199   6.316  0.3173 -0.0226 -0.0208
 6531WAT      O26843   5.152   0.078   3.224  0.1930 -0.9213 -0.1527
 6531WAT     H126844   5.129   0.116   3.148  1.1900 -0.4240 -0.2172
 6531WAT     H226845   5.077   0.045   3.253 -0.1936 -1.1915 -1.4007
 6531WAT    EPW26846   5.137   0.079   3.217  0.2832 -0.8877 -0.3466
 6532WAT      O26847   3.964   1.579   4.184  0.6719  0.3179  0.4752
 6532WAT     H126848   3.932   1.624   4.115  0.1332  0.7391  0.9930
 6532WAT     H226849   3.897   1.576   4.239  1.2646  0.4507  1.2117
 6532WAT    EPW26850   3.949   1.585   4.182  0.6799  0.3998  0.6604
 6533WAT      O26851   3.050   7.619   5.293 -0.0147 -0.6397 -0.1771
 6533WAT     H126852   2.963   7.616   5.296 -0.1389  0.1832 -1.8247
 6533WAT     H226853   3.068   7.704   5.303  0.4494 -0.5240 -1.7115
 6533WAT    EPW26854   3.040   7.631   5.295  0.0355 -0.5011 -0.6471
 6534WAT      O26855   4.073   0.312   5.469  0.2617  0.0589  0.0469
 6534WAT     H126856   4.073   0.333   5.554 -1.6713 -1.3318  0.4657
 6534WAT     H226857   3.996   0.342   5.440 -0.0624 -1.3781 -0.6700
 6534WAT    EPW26858   4.062   0.320   5.477 -0.0717 -0.3588  0.0029
 6535WAT      O26859   4.021   7.044   4.445 -0.0812 -0.1996  0.1703
 6535WAT     H126860   4.080   7.104   4.424 -0.4902  0.0695 -0.2452
 6535WAT     H226861   4.035   7.029   4.529  0.9611 -0.5815 -0.0643
 6535WAT    EPW26862   4.032   7.051   4.454  0.0124 -0.2162  0.0743
 6536WAT      O26863   3.388   6.497   2.981  0.1827 -0.1713 -0.2072
 6536WAT     H126864   3.438   6.556   3.021  0.0236  0.1061 -0.4153
 6536WAT     H226865   3.446   6.448   2.936  0.4175 -0.8386  0.8004
 6536WAT    EPW26866   3.404   6.499   2.980  0.1939 -0.2289 -0.0891
 6537WAT      O26867   3.378   0.452   4.148 -0.3463  0.4655 -0.1041
 6537WAT     H126868   3.459   0.483   4.144  0.3783 -0.7286  2.8197
 6537WAT     H226869   3.342   0.497   4.214 -0.9182 -1.2394  0.8161
 6537WAT    EPW26870   3.385   0.463   4.157 -0.3237  0.0372  0.4637
 6538WAT      O26871   1.372   7.549   4.840  0.1883  0.5188  0.0262
 6538WAT     H126872   1.432   7.593   4.886 -0.3210  0.3985  0.8250
 6538WAT     H226873   1.374   7.469   4.874 -0.2315  0.4414 -0.1201
 6538WAT    EPW26874   1.381   7.544   4.852  0.0510  0.4896  0.1226
 6539WAT      O26875   2.037   7.181   3.407 -0.0113  0.7618  0.3357
 6539WAT     H126876   2.042   7.255   3.361 -0.3929  1.8863  2.0175
 6539WAT     H226877   2.119   7.164   3.429 -0.0438  1.2815  0.8511
 6539WAT    EPW26878   2.050   7.189   3.403 -0.0724  1.0047  0.6603
 6540WAT      O26879   2.589   1.523   3.870 -0.1778 -0.3460  0.0670
 6540WAT     H126880   2.650   1.464   3.853  0.4909  0.1072  0.8083
 6540WAT     H226881   2.525   1.504   3.814 -0.1243 -1.9763  0.5195
 6540WAT    EPW26882   2.589   1.512   3.859 -0.0711 -0.5199  0.2434
 6541WAT      O26883   1.979   0.674   5.307 -0.2779 -0.3325  0.1351
 6541WAT     H126884   1.969   0.639   5.387  1.8094  0.8482  1.0065
 6541WAT     H226885   1.956   0.757   5.318  0.3927 -0.0703 -0.3771
 6541WAT    EPW26886   1.974   0.681   5.321  0.1295 -0.1194  0.1881
 6542WAT      O26887   4.625   7.457   5.374 -0.2325 -0.1256  0.0405
 6542WAT     H126888   4.600   7.373   5.380 -0.2361 -0.2343 -1.2305
 6542WAT     H226889   4.566   7.499   5.422 -0.8650 -0.7500 -0.1674
 6542WAT    EPW26890   4.612   7.451   5.382 -0.3265 -0.2339 -0.1780
 6543WAT      O26891   3.792   6.910   6.268  0.2198 -0.9402  0.5486
 6543WAT     H126892   3.772   6.826   6.277  0.3534 -1.1209 -0.7581
 6543WAT     H226893   3.728   6.951   6.311 -0.0127 -1.6809  0.9302
 6543WAT    EPW26894   3.780   6.904   6.276  0.2052 -1.0763  0.4120
 6544WAT      O26895   2.110   0.192   4.380 -0.6281  0.3068  0.4273
 6544WAT     H126896   2.196   0.204   4.373 -0.4867 -0.7822  0.2423
 6544WAT     H226897   2.081   0.201   4.298 -0.6677  0.4484  0.4559
 6544WAT    EPW26898   2.119   0.195   4.367 -0.6130  0.1668  0.4042
 6545WAT      O26899   2.825   0.132   4.024  0.3403 -0.0429  0.0912
 6545WAT     H126900   2.870   0.115   3.951 -1.9587  0.5422 -1.5598
 6545WAT     H226901   2.872   0.195   4.062  1.2985  0.0478 -1.1739
 6545WAT    EPW26902   2.839   0.139   4.019  0.1422  0.0569 -0.3396
 6546WAT      O26903   3.326   7.018   4.885  0.4103 -0.3480 -0.7164
 6546WAT     H126904   3.290   7.097   4.876  1.5558  0.2409 -0.3054
 6546WAT     H226905   3.342   6.994   4.803  0.8331  0.2355 -0.8143
 6546WAT    EPW26906   3.323   7.026   4.871  0.6419 -0.1748 -0.6702
 6547WAT      O26907   2.455   6.301   3.933 -0.1224 -0.0739  0.1173
 6547WAT     H126908   2.410   6.256   3.873 -0.6894  1.6511 -0.8331
 6547WAT     H226909   2.392   6.335   3.983  0.3178 -0.7782  1.1832
 6547WAT    EPW26910   2.439   6.300   3.931 -0.1411  0.0769  0.1344
 6548WAT      O26911   3.836   7.687   6.297 -0.9337  0.0018 -0.2660
 6548WAT     H126912   3.830   7.702   6.383  0.0355 -2.3404  0.2954
 6548WAT     H226913   3.770   7.633   6.281 -1.5315  0.9744 -1.1806
 6548WAT    EPW26914   3.825   7.681   6.307 -0.8788 -0.2005 -0.3182
 6549WAT      O26915   1.589   7.104   4.371 -0.4085  0.2522 -0.0027
 6549WAT     H126916   1.522   7.056   4.398 -0.7700  0.3914 -0.6372
 6549WAT     H226917   1.553   7.158   4.312  0.3218  0.0890 -0.6055
 6549WAT    EPW26918   1.574   7.105   4.366 -0.3540  0.2487 -0.1855
 6550WAT      O26919   2.024   7.566   3.011  0.1633 -0.1640  0.0714
 6550WAT     H126920   2.084   7.542   2.952  0.3959  0.3401  0.0908
 6550WAT     H226921   2.047   7.648   3.030 -1.0809  0.3648 -0.6058
 6550WAT    EPW26922   2.036   7.575   3.005  0.0139 -0.0114 -0.0258
 6551WAT      O26923   1.751   0.089   3.165 -0.2872 -0.0231 -0.5141
 6551WAT     H126924   1.732   0.065   3.247  1.1827  0.7511  0.0982
 6551WAT     H226925   1.728   0.019   3.118 -0.1994 -0.9125  0.6946
 6551WAT    EPW26926   1.745   0.075   3.170 -0.0571 -0.0401 -0.2451
 6552WAT      O26927   2.011   6.682   5.452 -0.3182  0.1698 -0.1726
 6552WAT     H126928   2.041   6.695   5.371 -0.8472  0.4961 -0.3195
 6552WAT     H226929   2.081   6.698   5.502  0.5319 -1.7750 -0.6262
 6552WAT    EPW26930   2.026   6.686   5.447 -0.2708 -0.0693 -0.2613
 6553WAT      O26931   2.566   7.045   3.291 -0.0176  0.0215  0.0451
 6553WAT     H126932   2.588   6.971   3.330  0.0604 -0.0901 -0.2066
 6553WAT     H226933   2.489   7.065   3.328 -0.0917 -0.2418  0.0374
 6553WAT    EPW26934   2.558   7.037   3.302 -0.0170 -0.0339  0.0068
 6554WAT      O26935   2.468   0.269   3.860  0.4121  0.5911  0.3046
 6554WAT     H126936   2.382   0.254   3.856  0.4472  0.7014 -1.2168
 6554WAT     H226937   2.503   0.192   3.838  0.6952  0.6869  0.4216
 6554WAT    EPW26938   2.460   0.255   3.856  0.4591  0.6215  0.0971
 6555WAT      O26939   2.770   7.621   3.548 -0.4659  0.7241  0.2428
 6555WAT     H126940   2.763   7.668   3.475  1.2282  0.5986 -0.0310
 6555WAT     H226941   2.822   7.555   3.525 -0.6761  0.1597  1.3216
 6555WAT    EPW26942   2.776   7.618   3.534 -0.2467  0.6222  0.3617
 6556WAT      O26943   3.967   6.396   5.456  0.1336  0.0498  0.1210
 6556WAT     H126944   3.887   6.394   5.421 -0.8752 -0.6665  2.2772
 6556WAT     H226945   3.964   6.334   5.517  1.0523  2.4850  2.8458
 6556WAT    EPW26946   3.955   6.387   5.460  0.1203  0.3037  0.8420
 6557WAT      O26947   0.917   6.158   5.220  0.2779 -0.0612 -0.5796
 6557WAT     H126948   0.840   6.156   5.177 -0.8334 -1.5049  1.3069
 6557WAT     H226949   0.967   6.105   5.173 -0.3936 -0.3589 -0.9799
 6557WAT    EPW26950   0.913   6.150   5.206  0.0146 -0.3184 -0.3600
 6558WAT      O26951   4.138   0.018   5.756 -0.2976  0.5171  0.5032
 6558WAT     H126952   4.205   0.063   5.790 -1.5878  0.8669  2.7709
 6558WAT     H226953   4.177  -0.045   5.710  1.6111  0.6297  1.8452
 6558WAT    EPW26954   4.154   0.016   5.754 -0.2062  0.5854  1.0364
 6559WAT      O26955   3.366   7.250   6.105 -0.4757  0.1275 -0.4161
 6559WAT     H126956   3.351   7.260   6.190 -1.2253  1.4250 -0.6745
 6559WAT     H226957   3.289   7.222   6.073 -1.0912  2.3640 -1.0546
 6559WAT    EPW26958   3.352   7.247   6.113 -0.6773  0.6495 -0.5486
 6560WAT      O26959   3.503   7.274   5.407  0.0267 -0.3389 -0.2413
 6560WAT     H126960   3.484   7.311   5.330 -1.9429  0.2870  0.4878
 6560WAT     H226961   3.454   7.203   5.409  0.6378 -0.7596  0.1399
 6560WAT    EPW26962   3.493   7.269   5.396 -0.1740 -0.3086 -0.0773
 6561WAT      O26963   2.389   0.588   6.778  0.3042  0.7122  0.0907
 6561WAT     H126964   2.454   0.635   6.813  1.3539 -1.0385  0.5955
 6561WAT     H226965   2.325   0.647   6.767  1.4124  2.1676  1.0530
 6561WAT    EPW26966   2.389   0.604   6.782  0.6229  0.6686  0.3074
 6562WAT      O26967   3.901   0.594   6.319  0.3039 -0.4365 -0.1136
 6562WAT     H126968   3.815   0.608   6.324  0.2776 -0.7699  0.4201
 6562WAT     H226969   3.933   0.636   6.388  0.4669 -1.0392  0.1880
 6562WAT    EPW26970   3.893   0.602   6.330  0.3241 -0.5748  0.0098
 6563WAT      O26971   1.732   0.597   5.238  0.0302  0.1576 -0.0503
 6563WAT     H126972   1.812   0.611   5.268 -0.3499  0.6085  0.7963
 6563WAT     H226973   1.685   0.585   5.310 -0.3761 -1.7914 -0.5765
 6563WAT    EPW26974   1.737   0.597   5.253 -0.0860 -0.0637 -0.0030
 6564WAT      O26975   3.650   7.502   5.148  0.0993  0.1996  0.3576
 6564WAT     H126976   3.718   7.549   5.177  1.3824  0.0575 -2.1852
 6564WAT     H226977   3.685   7.425   5.126 -0.8538  0.1254 -1.0377
 6564WAT    EPW26978   3.665   7.498   5.149  0.1481  0.1676 -0.2241
 6565WAT      O26979   2.426   6.965   5.946  0.3880  0.4281  0.0738
 6565WAT     H126980   2.474   6.942   6.015  1.2146 -1.5346 -1.0506
 6565WAT     H226981   2.346   6.977   5.978  0.7693 -0.3763  1.3738
 6565WAT    EPW26982   2.421   6.963   5.961  0.5664  0.0193  0.0998
 6566WAT      O26983   2.871   0.176   4.406 -0.1357 -0.4255 -0.0440
 6566WAT     H126984   2.941   0.209   4.367 -1.1644  1.8748 -0.1680
 6566WAT     H226985   2.824   0.142   4.341 -0.7819  1.3562 -0.5840
 6566WAT    EPW26986   2.874   0.176   4.391 -0.3831  0.1775 -0.1421
 6567WAT      O26987   1.752   7.150   5.352 -0.2144 -0.4708  0.5221
 6567WAT     H126988   1.808   7.136   5.418 -0.5942 -2.2561  0.5248
 6567WAT     H226989   1.800   7.190   5.292  0.9364 -1.4563  0.7520
 6567WAT    EPW26990   1.767   7.154   5.353 -0.1005 -0.8801  0.5564
 6568WAT      O26991   2.769   0.435   4.492 -0.6435 -0.1569 -0.0674
 6568WAT     H126992   2.763   0.351   4.469 -0.9495 -0.6627  1.7134
 6568WAT     H226993   2.759   0.433   4.579 -1.7733  1.8428 -0.1110
 6568WAT    EPW26994   2.767   0.422   4.502 -0.8556  0.0638  0.1892
 6569WAT      O26995   3.871   0.109   5.717 -0.2676 -0.4439 -0.7308
 6569WAT     H126996   3.870   0.039   5.768 -1.0091 -0.2311 -0.4405
 6569WAT     H226997   3.956   0.123   5.703 -0.1208 -1.9375 -1.5538
 6569WAT    EPW26998   3.883   0.101   5.722 -0.3555 -0.6331 -0.8095
 6570WAT      O26999   3.472   6.824   3.580 -0.3374  0.2401  0.2184
 6570WAT     H127000   3.412   6.791   3.634 -1.6967  0.7846 -0.8846
 6570WAT     H227001   3.531   6.761   3.574 -1.0068 -0.4886  1.0302
 6570WAT    EPW27002   3.472   6.810   3.587 -0.6371  0.2129  0.1754
 6571WAT      O27003   3.570   0.476   5.820  0.4548 -0.0390  0.0365
 6571WAT     H127004   3.583   0.431   5.894 -0.3588 -0.6289 -0.1618
 6571WAT     H227005   3.650   0.501   5.797  0.5823  1.6532  2.0231
 6571WAT    EPW27006   3.584   0.473   5.828  0.3534  0.1239  0.3006
 6572WAT      O27007   3.305   6.909   4.626 -0.8794  0.2802  0.0495
 6572WAT     H127008   3.377   6.868   4.598 -0.2126  0.0658  1.9639
 6572WAT     H227009   3.320   6.992   4.606  0.0547  0.2817  0.7186
 6572WAT    EPW27010   3.318   6.915   4.619 -0.6429  0.2487  0.4311
 6573WAT      O27011   1.426   6.279   5.749 -0.1966  1.1467  0.0102
 6573WAT     H127012   1.365   6.320   5.702 -2.8407  0.0478  2.2223
 6573WAT     H227013   1.482   6.343   5.769 -0.3123  2.1276 -2.4443
 6573WAT    EPW27014   1.425   6.294   5.745 -0.6043  1.1292 -0.0256
 6574WAT      O27015   2.506   5.759   4.629 -0.8526 -0.5238  0.3937
 6574WAT     H127016   2.483   5.772   4.713  0.1925  1.4286  0.4244
 6574WAT     H227017   2.578   5.711   4.636 -0.6734 -0.2261  0.6266
 6574WAT    EPW27018   2.513   5.754   4.643 -0.6717 -0.1914  0.4326
 6575WAT      O27019   4.524   1.284   5.170 -0.3362 -0.1978  0.6128
 6575WAT     H127020   4.584   1.264   5.111 -1.1169  0.7422 -0.5466
 6575WAT     H227021   4.511   1.208   5.212 -0.2139 -1.0645 -0.8421
 6575WAT    EPW27022   4.531   1.270   5.167 -0.4335 -0.1870  0.2266
 6576WAT      O27023   3.748   6.629   5.787 -0.0200 -0.2432  0.0820
 6576WAT     H127024   3.675   6.623   5.739 -0.2297 -1.0039  0.4683
 6576WAT     H227025   3.808   6.591   5.736 -0.4149 -1.8183  0.7121
 6576WAT    EPW27026   3.746   6.622   5.772 -0.1094 -0.5882  0.2321
 6577WAT      O27027   2.613   0.308   4.987  0.1074 -0.5244 -0.4777
 6577WAT     H127028   2.562   0.247   5.023 -1.0010 -0.1769 -1.3998
 6577WAT     H227029   2.691   0.293   5.022  0.1466 -3.2265 -1.5037
 6577WAT    EPW27030   2.617   0.297   4.997 -0.0506 -0.8722 -0.7655
 6578WAT      O27031   2.777   7.579   5.357 -0.0692  0.1848 -0.6965
 6578WAT     H127032   2.704   7.625   5.348 -0.0775  0.2986 -0.1066
 6578WAT     H227033   2.780   7.563   5.442  0.9279  0.7432 -0.6066
 6578WAT    EPW27034   2.767   7.584   5.368  0.0769  0.2841 -0.5961
 6579WAT      O27035   3.762   1.629   5.585  0.1388 -0.4805 -0.6750
 6579WAT     H127036   3.682   1.663   5.594 -0.9855 -3.0280  0.0639
 6579WAT     H227037   3.801   1.681   5.527 -1.6910  1.4058 -0.3286
 6579WAT    EPW27038   3.756   1.642   5.578 -0.2975 -0.5782 -0.5146
 6580WAT      O27039   1.851   6.613   5.812  0.4622 -0.5936 -0.1043
 6580WAT     H127040   1.823   6.671   5.753  0.9607 -0.8034 -0.5569
 6580WAT     H227041   1.935   6.634   5.823  0.0334  0.4584  1.7303
 6580WAT    EPW27042   1.860   6.625   5.805  0.4725 -0.4692  0.0998
 6581WAT      O27043   3.909   5.803   5.788 -0.3557 -0.6318 -0.4735
 6581WAT     H127044   3.881   5.879   5.755  0.9118 -0.0472 -0.2651
 6581WAT     H227045   3.889   5.745   5.726 -2.0936 -0.2921 -0.2860
 6581WAT    EPW27046   3.902   5.806   5.774 -0.4252 -0.4953 -0.4150
 6582WAT      O27047   2.415   6.507   4.237 -0.1137 -0.3173 -0.0754
 6582WAT     H127048   2.377   6.582   4.259 -0.6158 -0.5488 -0.1313
 6582WAT     H227049   2.349   6.458   4.208  0.2404 -0.7037 -0.2499
 6582WAT    EPW27050   2.400   6.511   4.236 -0.1356 -0.4086 -0.1095
 6583WAT      O27051   2.579   6.944   6.206  0.4663  0.2279  0.2444
 6583WAT     H127052   2.627   6.899   6.263  0.9997  1.2815  0.6541
 6583WAT     H227053   2.498   6.914   6.219  0.5197  0.6776  1.7855
 6583WAT    EPW27054   2.574   6.933   6.216  0.5530  0.4499  0.5325
 6584WAT      O27055   1.715   7.301   6.195  0.7180  0.1800 -0.3528
 6584WAT     H127056   1.770   7.368   6.201  0.8255 -0.0209  1.4408
 6584WAT     H227057   1.645   7.327   6.240  1.7200 -1.7470  2.5800
 6584WAT    EPW27058   1.713   7.315   6.202  0.8819 -0.1343  0.3454
 6585WAT      O27059   4.073   0.548   5.241  0.3318  0.0050 -0.0628
 6585WAT     H127060   4.071   0.616   5.186  1.2049  0.2089  0.1489
 6585WAT     H227061   4.098   0.482   5.190  2.7628  0.5165  0.3843
 6585WAT    EPW27062   4.076   0.548   5.225  0.8199  0.1107  0.0345
 6586WAT      O27063   3.615   7.451   5.629  0.0034  0.2962 -0.2422
 6586WAT     H127064   3.667   7.501   5.580 -0.4287 -0.6047 -1.6773
 6586WAT     H227065   3.565   7.410   5.571  1.6275 -3.3746  0.6303
 6586WAT    EPW27066   3.615   7.452   5.614  0.1795 -0.3791 -0.3253
 6587WAT      O27067   2.130   4.643   5.113  0.4158 -0.0110 -0.0676
 6587WAT     H127068   2.177   4.570   5.126 -1.3042 -1.1205  0.2710
 6587WAT     H227069   2.073   4.643   5.179  0.1314  1.4419 -0.2885
 6587WAT    EPW27070   2.128   4.632   5.124  0.1197  0.0397 -0.0502
 6588WAT      O27071   3.341   0.919   5.737  0.0906  0.1902  0.4564
 6588WAT     H127072   3.291   0.885   5.800  0.5823  0.4289  0.9823
 6588WAT     H227073   3.410   0.951   5.780  0.1924  0.8133 -0.1434
 6588WAT    EPW27074   3.343   0.919   5.752  0.1783  0.3175  0.4455
 6589WAT      O27075   3.097   6.047   4.816 -0.3272 -0.4536  0.4288
 6589WAT     H127076   3.053   6.115   4.849 -0.1652  0.0641 -0.3979
 6589WAT     H227077   3.035   5.986   4.803 -0.8207  0.2441 -0.6627
 6589WAT    EPW27078   3.081   6.048   4.819 -0.3762 -0.2741  0.1454
 6590WAT      O27079   2.229   0.100   6.334 -0.2856 -0.4778  0.1092
 6590WAT     H127080   2.231   0.177   6.374 -0.7244  0.5541 -1.7600
 6590WAT     H227081   2.314   0.079   6.325 -0.1707 -0.3187  0.7537
 6590WAT    EPW27082   2.242   0.108   6.339 -0.3334 -0.3019 -0.0717
 6591WAT      O27083   2.846   7.527   4.078 -1.0528 -0.2276 -0.1604
 6591WAT     H127084   2.859   7.614   4.076 -0.6952 -0.2782 -0.1774
 6591WAT     H227085   2.918   7.495   4.041 -0.6552 -0.5796  0.8577
 6591WAT    EPW27086   2.859   7.535   4.072 -0.9413 -0.2871 -0.0125
 6592WAT      O27087   1.943   6.974   4.937 -0.6294 -0.0829  0.5327
 6592WAT     H127088   1.873   7.023   4.920 -0.5721 -0.2158 -0.1177
 6592WAT     H227089   1.991   6.982   4.864 -0.0777 -0.1705  0.8868
 6592WAT    EPW27090   1.940   6.983   4.923 -0.5394 -0.1155  0.4889
 6593WAT      O27091   2.106   7.572   4.771 -0.2583  0.4662  0.3915
 6593WAT     H127092   2.118   7.536   4.849  1.3650 -0.0358 -0.0474
 6593WAT     H227093   2.181   7.612   4.755 -0.0650 -0.5253 -1.4474
 6593WAT    EPW27094   2.118   7.573   4.780  0.0101  0.2456  0.0550
 6594WAT      O27095   3.070   0.529   5.392  0.0541  0.0284  0.4529
 6594WAT     H127096   3.092   0.445   5.377  0.2250  0.2126 -0.3960
 6594WAT     H227097   2.993   0.537   5.352  0.4172  0.4846 -0.1746
 6594WAT    EPW27098   3.062   0.518   5.383  0.1330  0.1230  0.2348
 6595WAT      O27099   2.702   7.179   3.989  0.5254  0.1961 -0.4953
 6595WAT     H127100   2.642   7.116   3.980 -1.1295  1.4231  1.1059
 6595WAT     H227101   2.747   7.154   4.060  0.7251  0.1911 -0.6217
 6595WAT    EPW27102   2.700   7.166   3.998  0.3104  0.3766 -0.2774
 6596WAT      O27103   2.115   7.474   5.034 -0.0528  0.1331  0.3033
 6596WAT     H127104   2.030   7.482   5.052 -0.4113 -2.7246  0.3533
 6596WAT     H227105   2.123   7.390   5.011  2.7039  0.4107 -0.0447
 6596WAT    EPW27106   2.104   7.463   5.033  0.3014 -0.2481  0.2593
 6597WAT      O27107   2.370   7.137   6.824 -0.3282  0.0625 -0.2854
 6597WAT     H127108   2.420   7.205   6.847 -0.5479 -0.1518  0.8876
 6597WAT     H227109   2.305   7.173   6.779 -0.2933  0.6044  0.0882
 6597WAT    EPW27110   2.368   7.152   6.821 -0.3555  0.1109 -0.0570
 6598WAT      O27111   3.225   7.444   4.460 -0.5151  0.4346  0.1086
 6598WAT     H127112   3.251   7.481   4.534 -1.2374  0.1917  0.4987
 6598WAT     H227113   3.152   7.487   4.440 -0.6528  0.0968 -0.1314
 6598WAT    EPW27114   3.218   7.456   4.468 -0.6422  0.3489  0.1308
 6599WAT      O27115   2.952   6.435   7.059 -0.4063 -0.3108 -0.0452
 6599WAT     H127116   2.953   6.461   6.976  0.6547  0.8245  0.2971
 6599WAT     H227117   2.889   6.483   7.095  0.3456  0.5407  0.1829
 6599WAT    EPW27118   2.943   6.446   7.052 -0.1385 -0.0173  0.0391
 6600WAT      O27119   3.502   5.860   4.367  0.1446 -0.6137  0.1961
 6600WAT     H127120   3.442   5.801   4.388 -1.4146  0.2717 -1.4571
 6600WAT     H227121   3.539   5.825   4.296  0.6598 -0.5335  0.4246
 6600WAT    EPW27122   3.499   5.846   4.359 -0.0096 -0.4711 -0.0144
 6601WAT      O27123   3.960   0.962   2.440 -0.6142  0.0485 -0.3655
 6601WAT     H127124   3.997   1.010   2.503  0.2964 -2.3243  1.0376
 6601WAT     H227125   4.028   0.928   2.397 -1.2341  0.9427 -2.1693
 6601WAT    EPW27126   3.975   0.964   2.443 -0.5713 -0.1699 -0.4247
 6602WAT      O27127   1.854   5.602   0.840  0.1393 -0.1203  0.0322
 6602WAT     H127128   1.818   5.608   0.761 -1.6651 -3.5653  0.4108
 6602WAT     H227129   1.936   5.577   0.823 -0.0442 -0.2020 -0.7816
 6602WAT    EPW27130   1.861   5.599   0.826 -0.1543 -0.6413 -0.0321
 6603WAT      O27131   3.294   7.351   2.148 -0.5063  0.3958  0.4704
 6603WAT     H127132   3.376   7.322   2.141 -0.6707  0.1372 -0.5309
 6603WAT     H227133   3.271   7.329   2.229  0.0450 -0.5098  0.3933
 6603WAT    EPW27134   3.303   7.343   2.159 -0.4492  0.2238  0.3111
 6604WAT      O27135   2.618   7.453   2.358 -0.0645  0.1509  0.1855
 6604WAT     H127136   2.588   7.505   2.295  0.2655 -0.3758 -0.4201
 6604WAT     H227137   2.610   7.501   2.430 -2.5163 -0.0058  0.0974
 6604WAT    EPW27138   2.613   7.468   2.359 -0.3780  0.0500  0.0830
 6605WAT      O27139   3.280   0.525   2.857  1.0088 -0.3266  0.0178
 6605WAT     H127140   3.209   0.543   2.810  0.7669 -0.1725  0.4318
 6605WAT     H227141   3.264   0.444   2.887  2.1503 -1.3444 -1.9424
 6605WAT    EPW27142   3.267   0.516   2.855  1.1417 -0.4542 -0.2106
 6606WAT      O27143   3.727   0.703   2.287  0.1437 -0.0344 -0.3011
 6606WAT     H127144   3.653   0.745   2.267 -0.3973 -0.3619  0.9321
 6606WAT     H227145   3.777   0.717   2.217 -0.8992  0.6055 -0.9596
 6606WAT    EPW27146   3.723   0.711   2.274 -0.0903  0.0117 -0.2162
 6607WAT      O27147   2.432   5.960   3.230  0.3274  0.7073  0.0791
 6607WAT     H127148   2.364   5.968   3.283 -0.9408  2.2080 -1.6241
 6607WAT     H227149   2.477   5.893   3.263 -1.5438  0.1774  1.7162
 6607WAT    EPW27150   2.428   5.951   3.243 -0.1364  0.8507  0.0693
 6608WAT      O27151   3.195   0.735   3.410  0.2827 -0.8345  0.6399
 6608WAT     H127152   3.143   0.665   3.408 -2.2197  0.8645  2.0946
 6608WAT     H227153   3.235   0.729   3.488  0.9470 -1.1695  0.2902
 6608WAT    EPW27154   3.193   0.724   3.421  0.0112 -0.6330  0.8031
 6609WAT      O27155   3.650   6.687   2.884  0.0234 -0.1566 -0.3423
 6609WAT     H127156   3.701   6.727   2.943 -1.4918 -0.6039  1.3551
 6609WAT     H227157   3.705   6.670   2.818  2.4173 -1.7085  1.8393
 6609WAT    EPW27158   3.666   6.690   2.883  0.1532 -0.4519  0.2307
 6610WAT      O27159   2.921   6.795   3.770 -0.1306 -0.0641  0.3579
 6610WAT     H127160   2.918   6.713   3.800 -0.1019 -0.2359 -0.0997
 6610WAT     H227161   2.984   6.831   3.819 -0.5997 -0.1207  1.0184
 6610WAT    EPW27162   2.930   6.788   3.782 -0.1957 -0.0979  0.3879
 6611WAT      O27163   2.932   1.212   2.548 -0.2099  0.0520 -0.4142
 6611WAT     H127164   3.006   1.255   2.530  0.5219 -2.1430 -3.5148
 6611WAT     H227165   2.881   1.229   2.480  0.3892 -4.1831 -2.2486
 6611WAT    EPW27166   2.936   1.221   2.536 -0.0133 -0.8979 -1.1432
 6612WAT      O27167   3.543   0.662   0.809  0.1969 -0.6936  0.1091
 6612WAT     H127168   3.523   0.711   0.879  1.8203 -0.3771  0.3804
 6612WAT     H227169   3.465   0.637   0.779 -0.5645 -0.2470  1.6154
 6612WAT    EPW27170   3.528   0.666   0.815  0.3242 -0.5809  0.3717
 6613WAT      O27171   1.789   7.025   2.883  0.1392 -0.0420  0.2185
 6613WAT     H127172   1.726   7.027   2.944  0.6103  0.5314  0.7054
 6613WAT     H227173   1.805   6.940   2.872 -0.7231 -0.1902  0.0856
 6613WAT    EPW27174   1.782   7.013   2.891  0.0814  0.0208  0.2708
 6614WAT      O27175   3.557   0.996   2.890  0.7838  0.6231  0.1596
 6614WAT     H127176   3.507   0.927   2.908 -0.5440  1.1894 -1.0582
 6614WAT     H227177   3.501   1.063   2.898  1.9191  1.5133  0.8789
 6614WAT    EPW27178   3.541   0.996   2.894  0.7554  0.8383  0.0859
 6615WAT      O27179   3.260   7.078   3.762 -0.3498  0.4440 -0.2146
 6615WAT     H127180   3.251   7.146   3.707 -0.5658  1.0475  0.5408
 6615WAT     H227181   3.294   7.015   3.712 -0.4733  0.9997 -1.0194
 6615WAT    EPW27182   3.264   7.079   3.746 -0.3999  0.6152 -0.2219
 6616WAT      O27183   3.826   6.857   4.350  0.2893 -0.0967 -0.0251
 6616WAT     H127184   3.812   6.845   4.435  0.8171 -0.2865  0.0405
 6616WAT     H227185   3.838   6.943   4.343  1.3256 -0.2107  0.2656
 6616WAT    EPW27186   3.826   6.868   4.362  0.5203 -0.1416  0.0275
 6617WAT      O27187   2.620   0.587   3.736 -0.2049 -0.3650 -0.2761
 6617WAT     H127188   2.607   0.666   3.770  1.3415  0.2068 -0.9135
 6617WAT     H227189   2.640   0.538   3.805  1.1601  0.3775 -0.1083
 6617WAT    EPW27190   2.621   0.591   3.751  0.2252 -0.1709 -0.3455
 6618WAT      O27191   2.580   6.080   4.081  0.3487  0.1146  0.2861
 6618WAT     H127192   2.586   6.088   4.168 -2.1426 -0.6241  0.6101
 6618WAT     H227193   2.529   6.147   4.058  1.2607  0.4970 -0.6789
 6618WAT    EPW27194   2.573   6.091   4.090  0.1154  0.0620  0.1914
 6619WAT      O27195   3.943   0.790   3.193 -0.6098  0.2483  0.4707
 6619WAT     H127196   3.880   0.844   3.165 -1.7285 -1.8706 -1.5160
 6619WAT     H227197   4.017   0.833   3.174 -1.4402  1.2004 -0.8354
 6619WAT    EPW27198   3.944   0.804   3.186 -0.8977  0.0759 -0.0157
 6620WAT      O27199   2.766   0.324   2.338 -0.0560 -0.0303  0.3703
 6620WAT     H127200   2.755   0.270   2.270 -0.1475 -0.1749  0.4968
 6620WAT     H227201   2.741   0.275   2.406  0.4600 -0.0401  0.5595
 6620WAT    EPW27202   2.761   0.309   2.338  0.0067 -0.0531  0.4169
 6621WAT      O27203   3.548   6.263   3.683  0.0882 -0.0029 -0.0961
 6621WAT     H127204   3.560   6.296   3.603 -0.8169 -0.2808 -0.3543
 6621WAT     H227205   3.579   6.182   3.676  1.0584  0.3269  0.1648
 6621WAT    EPW27206   3.554   6.256   3.670  0.0978  0.0048 -0.0957
 6622WAT      O27207   3.168   1.083   3.816  0.2354 -0.3404 -0.3142
 6622WAT     H127208   3.169   1.131   3.743  1.1588 -1.3164 -0.9765
 6622WAT     H227209   3.083   1.080   3.837 -0.4866 -2.1734 -2.8637
 6622WAT    EPW27210   3.155   1.089   3.808  0.2652 -0.7553 -0.7886
 6623WAT      O27211   3.454   0.156   3.334  0.9334  0.4935 -0.3132
 6623WAT     H127212   3.531   0.150   3.374  0.9611 -0.4196 -0.4853
 6623WAT     H227213   3.428   0.073   3.328 -1.4716  0.8690  2.4787
 6623WAT    EPW27214   3.461   0.143   3.339  0.5822  0.4141  0.0738
 6624WAT      O27215   3.521   7.382   3.326 -0.2914 -0.0861 -0.2957
 6624WAT     H127216   3.525   7.386   3.239  1.2960 -0.8375 -0.2923
 6624WAT     H227217   3.504   7.298   3.342  0.2722 -0.1316  0.1125
 6624WAT    EPW27218   3.519   7.370   3.315  0.0263 -0.2038 -0.2349
 6625WAT      O27219   2.038   7.024   0.639 -0.1170 -0.5215 -0.2290
 6625WAT     H127220   2.051   7.025   0.725 -0.6982  2.1128 -0.0856
 6625WAT     H227221   2.118   7.038   0.606  0.0981 -1.4866 -0.1389
 6625WAT    EPW27222   2.052   7.026   0.647 -0.1711 -0.2749 -0.1945
 6626WAT      O27223   3.847   7.620   3.031 -0.3907  0.2196 -0.2899
 6626WAT     H127224   3.851   7.640   3.116 -1.1649 -2.3003  0.4148
 6626WAT     H227225   3.762   7.605   3.017 -0.2097  0.1325 -1.3917
 6626WAT    EPW27226   3.835   7.621   3.041 -0.4783 -0.1655 -0.3486
 6627WAT      O27227   5.010   0.768   3.449  0.5223  0.1857  0.8215
 6627WAT     H127228   4.925   0.769   3.430  0.6725  0.0241  0.1440
 6627WAT     H227229   5.041   0.839   3.409  0.6724  0.3624  1.2422
 6627WAT    EPW27230   5.002   0.779   3.440  0.5667  0.1879  0.7836
 6628WAT      O27231   3.905   7.531   0.841 -0.0351  0.5916  0.0593
 6628WAT     H127232   3.927   7.449   0.863 -1.4649  0.2204  0.2429
 6628WAT     H227233   3.877   7.565   0.916 -1.4273  0.5422 -0.4079
 6628WAT    EPW27234   3.904   7.524   0.855 -0.4520  0.5294  0.0174
 6629WAT      O27235   2.675   6.797   3.407 -0.0161 -0.1358 -0.3329
 6629WAT     H127236   2.630   6.744   3.460 -0.0847 -0.9465 -1.1731
 6629WAT     H227237   2.733   6.834   3.460 -0.7122 -0.2003  0.4881
 6629WAT    EPW27238   2.677   6.794   3.422 -0.1291 -0.2651 -0.3358
 6630WAT      O27239   2.587   7.585   2.604 -0.0142  0.4218 -0.2577
 6630WAT     H127240   2.638   7.538   2.657 -0.1833 -0.0132 -0.4754
 6630WAT     H227241   2.523   7.613   2.656 -0.9315 -1.1464 -0.4969
 6630WAT    EPW27242   2.585   7.583   2.620 -0.1747  0.1259 -0.3252
 6631WAT      O27243   4.252   0.105   3.104 -0.4332  0.0356  0.0224
 6631WAT     H127244   4.291   0.100   3.181  0.7322 -0.1092 -0.5503
 6631WAT     H227245   4.206   0.179   3.108  0.4707  0.5890  0.4863
 6631WAT    EPW27246   4.251   0.115   3.116 -0.1275  0.0960  0.0063
 6632WAT      O27247   2.721   7.353   3.037  0.2728  0.2173 -0.2507
 6632WAT     H127248   2.642   7.315   3.028  1.0405 -1.0965 -2.3665
 6632WAT     H227249   2.774   7.285   3.052  1.3234  0.7630 -1.3860
 6632WAT    EPW27250   2.717   7.337   3.038  0.5414  0.1038 -0.7310
 6633WAT      O27251   0.675   7.626   2.959 -0.4656  0.1027  0.1575
 6633WAT     H127252   0.625   7.654   3.025 -1.8903 -0.1565 -0.7584
 6633WAT     H227253   0.747   7.674   2.966 -1.6566  1.9460  0.3671
 6633WAT    EPW27254   0.678   7.637   2.969 -0.8520  0.3367  0.0532
 6634WAT      O27255   4.782   7.225   1.942 -0.1224 -0.1014  0.0668
 6634WAT     H127256   4.715   7.237   1.996  0.6934  0.3588  0.9934
 6634WAT     H227257   4.849   7.208   1.995  0.5535 -0.2918 -0.8279
 6634WAT    EPW27258   4.782   7.225   1.958  0.0979 -0.0615  0.0715
 6635WAT      O27259   3.948   7.641   1.238  0.1486  0.9187  0.3986
 6635WAT     H127260   3.898   7.678   1.298  0.2717  1.6625  0.0523
 6635WAT     H227261   3.976   7.568   1.277  0.3719  1.4779  1.3088
 6635WAT    EPW27262   3.945   7.636   1.252  0.1998  1.1112  0.4819
 6636WAT      O27263   3.323   0.196   4.007 -0.3859  0.0903 -0.2460
 6636WAT     H127264   3.402   0.171   4.036 -1.1004 -3.8795 -1.1556
 6636WAT     H227265   3.312   0.274   4.045  2.5537 -0.6496  2.6778
 6636WAT    EPW27266   3.333   0.204   4.017 -0.0572 -0.6054  0.0515
 6637WAT      O27267   3.581   6.995   1.625  0.3213  0.2014 -0.4240
 6637WAT     H127268   3.549   7.028   1.551  0.3003  0.0115 -0.5001
 6637WAT     H227269   3.553   7.051   1.686  1.4592  1.0894 -0.7008
 6637WAT    EPW27270   3.572   7.008   1.623  0.4863  0.3045 -0.4761
 6638WAT      O27271   5.416   0.188   3.235  0.3549  1.0596  0.2238
 6638WAT     H127272   5.427   0.253   3.178 -0.7815  0.6178 -0.5434
 6638WAT     H227273   5.330   0.184   3.245  0.4587  0.2213  0.9141
 6638WAT    EPW27274   5.405   0.197   3.228  0.2024  0.8705  0.2124
 6639WAT      O27275   5.415   7.210   1.873 -0.2886 -0.5375 -0.5414
 6639WAT     H127276   5.498   7.225   1.853 -0.2309 -0.1855 -0.0456
 6639WAT     H227277   5.404   7.251   1.949 -1.2797  0.5577 -1.2471
 6639WAT    EPW27278   5.425   7.218   1.881 -0.4265 -0.3237 -0.5724
 6640WAT      O27279   3.792   6.020   1.359  0.3249 -0.3215 -0.0500
 6640WAT     H127280   3.753   6.041   1.434  0.3753  0.5543 -0.2602
 6640WAT     H227281   3.731   6.035   1.299  0.2345 -1.1616 -0.1788
 6640WAT    EPW27282   3.777   6.025   1.361  0.3189 -0.3162 -0.1001
 6641WAT      O27283   1.835   0.116   3.445  0.1749  0.1507 -0.4925
 6641WAT     H127284   1.888   0.163   3.394  1.1278  1.1405  1.3140
 6641WAT     H227285   1.769   0.170   3.461  0.7903  0.5656  0.7824
 6641WAT    EPW27286   1.833   0.131   3.440  0.4066  0.3582 -0.0373
 6642WAT      O27287   3.401   0.190   1.721 -0.6762  0.2783 -0.2890
 6642WAT     H127288   3.467   0.203   1.777 -0.4494 -1.3325 -0.1555
 6642WAT     H227289   3.372   0.271   1.705  1.2714  1.0344 -0.2811
 6642WAT    EPW27290   3.407   0.204   1.727 -0.3550  0.1520 -0.2681
 6643WAT      O27291   1.495   7.134   2.762 -0.2553  0.4348 -0.0232
 6643WAT     H127292   1.464   7.073   2.816 -0.2770  1.1121  0.7489
 6643WAT     H227293   1.428   7.152   2.710 -0.3957  0.1384  0.0534
 6643WAT    EPW27294   1.481   7.128   2.762 -0.2792  0.4910  0.1022
 6644WAT      O27295   2.766   7.411   2.750  0.0703 -0.1428  0.4401
 6644WAT     H127296   2.718   7.347   2.713 -1.5320  1.5567 -0.6014
 6644WAT     H227297   2.760   7.394   2.836  0.3617 -1.8014  0.1748
 6644WAT    EPW27298   2.758   7.399   2.757 -0.1233 -0.1367  0.2470
 6645WAT      O27299   3.948   1.085   1.848 -0.6625  0.2786 -0.5908
 6645WAT     H127300   3.865   1.110   1.835  0.0222  3.3421  0.1554
 6645WAT     H227301   3.992   1.130   1.788  0.4363 -2.6004 -2.1669
 6645WAT    EPW27302   3.942   1.095   1.837 -0.3990  0.3059 -0.7134
 6646WAT      O27303   4.524   6.151   2.458  0.4383  0.5287  0.1551
 6646WAT     H127304   4.469   6.218   2.455  1.3464  1.2848  0.1083
 6646WAT     H227305   4.538   6.132   2.373 -0.8869 -0.6465  0.1576
 6646WAT    EPW27306   4.518   6.158   2.445  0.3767  0.4668  0.1486
 6647WAT      O27307   3.205   7.498   1.908  0.2195  0.1655 -0.2695
 6647WAT     H127308   3.206   7.580   1.937  1.8862  0.3188 -0.6963
 6647WAT     H227309   3.244   7.453   1.972 -1.4230 -0.4659  0.3402
 6647WAT    EPW27310   3.211   7.503   1.922  0.2231  0.0949 -0.2425
 6648WAT      O27311   4.204   0.038   2.830  0.5695  0.6119  0.1555
 6648WAT     H127312   4.256   0.061   2.764 -0.4760  0.5760 -0.7142
 6648WAT     H227313   4.248   0.065   2.901  0.9904  2.1400 -0.6315
 6648WAT    EPW27314   4.218   0.046   2.831  0.4772  0.8323 -0.0892
 6649WAT      O27315   1.756   0.414   2.819 -0.2564  0.2517 -0.4043
 6649WAT     H127316   1.839   0.423   2.792 -0.5838  1.4487 -1.0742
 6649WAT     H227317   1.718   0.489   2.795 -1.2965  0.1515  0.8250
 6649WAT    EPW27318   1.763   0.426   2.811 -0.4584  0.4137 -0.3217
 6650WAT      O27319   3.938   5.913   0.754  0.4124  0.1760  0.1139
 6650WAT     H127320   3.931   5.849   0.813 -0.8294 -0.2200 -0.4238
 6650WAT     H227321   3.934   5.870   0.678  1.4537  0.7263 -0.2575
 6650WAT    EPW27322   3.936   5.897   0.751  0.3828  0.1988 -0.0204
 6651WAT      O27323   4.146   5.516   3.952 -0.1478 -0.0856  0.3702
 6651WAT     H127324   4.111   5.503   3.874 -1.3221  0.9271  0.7013
 6651WAT     H227325   4.230   5.495   3.941 -0.2491  0.2704 -1.2013
 6651WAT    EPW27326   4.153   5.511   3.939 -0.3362  0.1166  0.1869
 6652WAT      O27327   2.279   6.015   2.295 -0.0878 -0.8611  0.1377
 6652WAT     H127328   2.198   5.984   2.300  0.1664 -1.5565  0.0501
 6652WAT     H227329   2.276   6.072   2.229 -0.3135 -1.4907 -0.4037
 6652WAT    EPW27330   2.267   6.019   2.286 -0.0836 -1.0568  0.0448
 6653WAT      O27331   3.130   1.057   2.410 -0.3211  0.5360 -0.4714
 6653WAT     H127332   3.063   1.109   2.391 -0.2866  0.8743  0.3040
 6653WAT     H227333   3.182   1.065   2.340 -1.6760 -0.7819 -1.7204
 6653WAT    EPW27334   3.128   1.066   2.397 -0.5162  0.3913 -0.5414
 6654WAT      O27335   3.458   0.798   2.278 -0.1585  0.2891 -0.3812
 6654WAT     H127336   3.466   0.817   2.363  1.9199  0.6625 -0.6057
 6654WAT     H227337   3.409   0.863   2.247 -0.7829  0.2463  0.4748
 6654WAT    EPW27338   3.452   0.810   2.286  0.0563  0.3379 -0.2879
 6655WAT      O27339   3.403   0.860   3.277 -0.2824  0.9194  0.6582
 6655WAT     H127340   3.329   0.818   3.296 -0.1574  0.9480  1.2351
 6655WAT     H227341   3.449   0.856   3.351 -0.0108  1.5313  0.5316
 6655WAT    EPW27342   3.399   0.853   3.291 -0.2238  1.0140  0.7247
 6656WAT      O27343   3.139   7.226   2.372 -0.2092  0.1210  0.3027
 6656WAT     H127344   3.083   7.286   2.343  1.7568  0.9461 -2.1678
 6656WAT     H227345   3.181   7.265   2.437  0.1058  0.9500 -0.3844
 6656WAT    EPW27346   3.137   7.240   2.377  0.1278  0.3654 -0.1637
 6657WAT      O27347   1.315   7.069   2.536  0.3534 -0.1327 -0.4048
 6657WAT     H127348   1.287   7.004   2.486  0.9957 -0.4889 -0.3151
 6657WAT     H227349   1.263   7.136   2.515  0.7161 -0.2335 -1.6509
 6657WAT    EPW27350   1.303   7.069   2.526  0.5019 -0.2002 -0.5756
 6658WAT      O27351   3.746   6.042   1.009 -0.0166 -0.1481  0.1474
 6658WAT     H127352   3.778   6.105   0.958  0.7431 -1.0470 -0.5276
 6658WAT     H227353   3.677   6.012   0.964 -0.5361  0.3635  0.5907
 6658WAT    EPW27354   3.740   6.047   0.995  0.0189 -0.2053  0.1132
 6659WAT      O27355   2.199   6.227   4.497 -0.2774  0.5538  0.8390
 6659WAT     H127356   2.179   6.303   4.534  0.5922  1.0296  0.3575
 6659WAT     H227357   2.175   6.168   4.557 -2.3134  1.1070  0.6410
 6659WAT    EPW27358   2.193   6.230   4.511 -0.4497  0.7058  0.7386
 6660WAT      O27359   2.578   6.898   4.883 -0.6406  0.1289  0.0113
 6660WAT     H127360   2.624   6.832   4.851 -1.3579 -0.2409 -0.2677
 6660WAT     H227361   2.622   6.921   4.955  1.5412  1.5906 -1.6812
 6660WAT    EPW27362   2.591   6.892   4.889 -0.4243  0.2902 -0.2799
 6661WAT      O27363   3.585   0.015   2.824  0.0960 -0.2625 -0.2003
 6661WAT     H127364   3.641  -0.022   2.768  2.6139 -1.3236  2.7561
 6661WAT     H227365   3.605   0.100   2.819 -0.6283 -0.1453 -1.7495
 6661WAT    EPW27366   3.597   0.022   2.815  0.3610 -0.4019  0.0076
 6662WAT      O27367   1.730   7.636   4.529  0.1294  0.1762 -0.3472
 6662WAT     H127368   1.737   7.567   4.582 -0.2906  0.4231  0.0313
 6662WAT     H227369   1.649   7.629   4.497  0.9716 -1.0019 -2.4059
 6662WAT    EPW27370   1.719   7.625   4.532  0.1918  0.0386 -0.5954
 6663WAT      O27371   3.295   7.551   1.205 -0.7400  0.2115  0.2423
 6663WAT     H127372   3.368   7.519   1.241 -1.2852 -1.1340  0.2095
 6663WAT     H227373   3.300   7.524   1.122 -0.5518  1.4480 -0.1806
 6663WAT    EPW27374   3.307   7.542   1.198 -0.7927  0.1954  0.1750
 6664WAT      O27375   3.834   0.103   4.043 -0.3783  0.3230  0.1072
 6664WAT     H127376   3.881   0.105   3.969 -0.8814 -1.6142 -0.3229
 6664WAT     H227377   3.894   0.117   4.105  0.1803  1.2604 -0.6109
 6664WAT    EPW27378   3.850   0.105   4.041 -0.3701  0.1753 -0.0624
 6665WAT      O27379   2.959   5.985   2.519  0.5220  0.3672 -0.4097
 6665WAT     H127380   2.873   6.000   2.513  0.5217  0.2291 -0.7824
 6665WAT     H227381   2.992   6.030   2.452  0.7504  0.4766 -0.2259
 6665WAT    EPW27382   2.951   5.994   2.508  0.5557  0.3630 -0.4376
 6666WAT      O27383   2.344   0.175   3.174 -0.5238 -0.0434 -1.7202
 6666WAT     H127384   2.322   0.243   3.124  0.4473  0.5907 -1.3141
 6666WAT     H227385   2.427   0.191   3.195 -0.2486 -1.4037 -1.6751
 6666WAT    EPW27386   2.353   0.188   3.170 -0.3397 -0.1507 -1.6536
 6667WAT      O27387   3.240   7.056   2.762 -0.0041 -0.2063 -0.2205
 6667WAT     H127388   3.311   7.005   2.760  1.0327  1.2098 -0.8757
 6667WAT     H227389   3.212   7.048   2.845  1.7547  0.2898  0.4775
 6667WAT    EPW27390   3.246   7.047   2.774  0.4089  0.0762 -0.2141
 6668WAT      O27391   2.671   6.876   2.382  0.6332 -0.4530  0.2440
 6668WAT     H127392   2.679   6.963   2.376 -1.8744 -0.1281  0.4479
 6668WAT     H227393   2.662   6.862   2.468 -0.3877 -0.7097  0.1105
 6668WAT    EPW27394   2.671   6.887   2.394  0.1120 -0.4429  0.2544
 6669WAT      O27395   3.826   6.356   0.332  0.1080 -0.2161 -0.0351
 6669WAT     H127396   3.741   6.371   0.348  0.2774 -0.2989  1.0242
 6669WAT     H227397   3.825   6.313   0.256 -0.7668  0.1397 -0.2394
 6669WAT    EPW27398   3.813   6.352   0.323  0.0038 -0.1757  0.0912
 6670WAT      O27399   3.351   1.349   3.974 -0.4871 -0.3512  0.1426
 6670WAT     H127400   3.286   1.320   4.024  0.0769 -2.7369 -0.3874
 6670WAT     H227401   3.404   1.389   4.030 -1.1663 -0.6149  0.9893
 6670WAT    EPW27402   3.349   1.350   3.989 -0.5041 -0.7426  0.1894
 6671WAT      O27403   2.917   6.345   4.307  0.3742 -0.1609 -0.0256
 6671WAT     H127404   2.933   6.286   4.245 -1.4063 -0.3175 -0.4101
 6671WAT     H227405   2.914   6.297   4.380 -2.6140 -0.9411 -0.5182
 6671WAT    EPW27406   2.919   6.329   4.309 -0.3302 -0.2993 -0.1552
 6672WAT      O27407   2.969   0.365   4.086  0.0276  0.4423  0.2454
 6672WAT     H127408   3.032   0.330   4.135  0.7013 -0.7990 -1.3983
 6672WAT     H227409   3.002   0.364   4.006 -0.6423  3.3152 -0.1842
 6672WAT    EPW27410   2.983   0.360   4.082  0.0282  0.6833 -0.0609
 6673WAT      O27411   4.835   7.195   3.147 -0.2770  0.3570 -0.0418
 6673WAT     H127412   4.853   7.237   3.072  2.1178 -0.6369 -0.1242
 6673WAT     H227413   4.751   7.175   3.139 -0.6704  2.2144 -1.4488
 6673WAT    EPW27414   4.825   7.198   3.135  0.0186  0.4846 -0.2618
 6674WAT      O27415   4.268   0.962   1.593  0.2241 -0.0401 -0.4303
 6674WAT     H127416   4.337   1.014   1.603 -0.0917  0.2237  0.4687
 6674WAT     H227417   4.294   0.905   1.532  0.8365  0.7147 -0.8925
 6674WAT    EPW27418   4.282   0.961   1.585  0.2679  0.1103 -0.3657
 6675WAT      O27419   2.566   7.106   1.048  0.1688 -0.5244 -0.0247
 6675WAT     H127420   2.636   7.115   1.099 -0.9720  0.9384  1.3876
 6675WAT     H227421   2.568   7.178   0.998 -1.0762  0.3067  1.0551
 6675WAT    EPW27422   2.577   7.118   1.048 -0.1836 -0.1855  0.3434
 6676WAT      O27423   2.411   6.903   3.657  0.1766 -0.0957  0.5694
 6676WAT     H127424   2.475   6.856   3.692  0.0621 -0.0462  0.8476
 6676WAT     H227425   2.448   6.980   3.639  0.7684 -0.7590 -1.2804
 6676WAT    EPW27426   2.426   6.908   3.659  0.2471 -0.1864  0.3372
 6677WAT      O27427   3.125   0.325   2.573  0.3066  0.2530 -0.3610
 6677WAT     H127428   3.106   0.391   2.627 -2.0958 -1.0163  0.4806
 6677WAT     H227429   3.198   0.291   2.608  0.1368  0.9004  0.6817
 6677WAT    EPW27430   3.133   0.330   2.586 -0.0733  0.1612 -0.0827
 6678WAT      O27431   4.496   7.327   2.412  0.0893 -0.2206  0.0780
 6678WAT     H127432   4.420   7.307   2.451  0.4477 -1.0207  0.3979
 6678WAT     H227433   4.513   7.256   2.363 -0.4306  0.8148 -1.7043
 6678WAT    EPW27434   4.487   7.313   2.411  0.0654 -0.1858 -0.1381
 6679WAT      O27435   4.096   0.154   3.476  0.4530  0.4171 -0.1147
 6679WAT     H127436   4.130   0.179   3.553 -1.3202 -0.6589  1.0831
 6679WAT     H227437   4.080   0.069   3.487  2.1841 -0.3052 -2.4979
 6679WAT    EPW27438   4.099   0.145   3.489  0.4468  0.1515 -0.2898
 6680WAT      O27439   2.359   7.372   3.197 -0.3333  0.0304  0.5119
 6680WAT     H127440   2.429   7.401   3.242 -0.3715  0.8613  0.0486
 6680WAT     H227441   2.393   7.315   3.141 -0.1732 -0.3585  0.9872
 6680WAT    EPW27442   2.375   7.368   3.196 -0.3153  0.0957  0.5137
 6681WAT      O27443   1.093   7.372   4.143 -0.1127  0.2629  0.1932
 6681WAT     H127444   1.141   7.444   4.129  1.1453 -0.5685  0.0345
 6681WAT     H227445   1.013   7.395   4.117  0.2608  1.6013  0.1593
 6681WAT    EPW27446   1.089   7.386   4.137  0.1283  0.3378  0.1648
 6682WAT      O27447   4.682   0.207   1.559  0.1201  0.0002 -1.2118
 6682WAT     H127448   4.651   0.230   1.481 -0.5433  0.3178 -0.8586
 6682WAT     H227449   4.709   0.125   1.547 -1.0672 -0.3662 -1.4785
 6682WAT    EPW27450   4.681   0.198   1.546 -0.1533 -0.0070 -1.1990
 6683WAT      O27451   0.851   7.073   3.957 -0.2443  0.1310  0.2549
 6683WAT     H127452   0.868   6.997   3.917 -1.3834  0.5855 -1.1934
 6683WAT     H227453   0.828   7.049   4.038  1.4181 -0.8824  0.4766
 6683WAT    EPW27454   0.850   7.058   3.963 -0.1670  0.0484  0.0737
 6684WAT      O27455   3.610   6.860   2.523  0.2744  0.1831  0.2205
 6684WAT     H127456   3.673   6.820   2.568  1.3984  1.9902  0.3294
 6684WAT     H227457   3.632   6.846   2.439  0.0380 -0.3225  0.2344
 6684WAT    EPW27458   3.622   6.852   2.517  0.4055  0.3753  0.2386
 6685WAT      O27459   2.448   6.181   1.134 -0.7110 -0.1111  0.9046
 6685WAT     H127460   2.421   6.251   1.088  0.3887 -0.9802 -1.2129
 6685WAT     H227461   2.496   6.216   1.198  0.2457  1.0911 -0.3999
 6685WAT    EPW27462   2.451   6.197   1.137 -0.4072 -0.0619  0.3991
 6686WAT      O27463   3.654   7.464   3.732 -0.1450 -0.0154 -0.1589
 6686WAT     H127464   3.629   7.543   3.704  0.2542 -0.1436 -0.9156
 6686WAT     H227465   3.582   7.431   3.769 -1.6836 -1.0255 -3.6638
 6686WAT    EPW27466   3.640   7.471   3.733 -0.3133 -0.1835 -0.7884
 6687WAT      O27467   5.245   6.354   3.388  0.3434  0.1414  0.2735
 6687WAT     H127468   5.317   6.361   3.338 -1.1611  2.0382 -1.8349
 6687WAT     H227469   5.261   6.409   3.454  0.5533  1.1671 -0.5996
 6687WAT    EPW27470   5.258   6.364   3.390  0.1521  0.5731 -0.1669
 6688WAT      O27471   4.793   0.712   2.924 -0.3595  0.8480 -0.1824
 6688WAT     H127472   4.862   0.685   2.877 -0.7762 -0.4791 -0.0719
 6688WAT     H227473   4.820   0.702   3.007 -2.1712 -4.3675  0.0947
 6688WAT    EPW27474   4.807   0.707   2.930 -0.6887 -0.1185 -0.1251
 6689WAT      O27475   3.000   6.798   0.926 -0.1837 -0.4067  0.7882
 6689WAT     H127476   3.059   6.838   0.876 -0.7921  1.7730  1.6810
 6689WAT     H227477   2.937   6.775   0.870  0.1090  0.0638  0.2658
 6689WAT    EPW27478   2.999   6.800   0.911 -0.2304 -0.0152  0.8429
 6690WAT      O27479   1.024   7.627   3.609  0.2833 -0.2534  0.2065
 6690WAT     H127480   0.994   7.554   3.571  0.6012  0.0874 -0.7385
 6690WAT     H227481   1.077   7.661   3.548 -1.5813  1.9532 -0.3285
 6690WAT    EPW27482   1.027   7.621   3.594  0.0548  0.1229 -0.0121
 6691WAT      O27483   3.529   7.150   2.366  0.2062  0.2364  0.2086
 6691WAT     H127484   3.615   7.158   2.376 -0.0665  2.8667  1.2778
 6691WAT     H227485   3.499   7.230   2.385 -2.4050 -0.3671 -0.9606
 6691WAT    EPW27486   3.537   7.163   2.370 -0.2198  0.5358  0.1938
 6692WAT      O27487   2.990   6.300   3.982  0.2291 -0.2558  0.3799
 6692WAT     H127488   2.948   6.228   3.956 -0.9438  0.0106  1.4320
 6692WAT     H227489   3.050   6.269   4.039 -0.1565 -0.4211  0.6991
 6692WAT    EPW27490   2.993   6.285   3.987 -0.0011 -0.2409  0.5825
 6693WAT      O27491   4.100   0.354   2.993 -0.1057 -0.0169 -0.4032
 6693WAT     H127492   4.058   0.289   2.952 -0.6163  1.0106 -1.6055
 6693WAT     H227493   4.042   0.382   3.052  0.0639 -0.5546  0.0232
 6693WAT    EPW27494   4.085   0.349   2.995 -0.1561  0.0555 -0.5178
 6694WAT      O27495   3.677   7.485   2.389 -0.0535 -0.2814  0.6536
 6694WAT     H127496   3.718   7.511   2.316 -2.1822  0.8002 -0.2224
 6694WAT     H227497   3.710   7.538   2.451  1.9328 -1.3526  0.6236
 6694WAT    EPW27498   3.688   7.497   2.388 -0.0746 -0.2799  0.5198
 6695WAT      O27499   2.895   0.065   3.738 -0.0905 -0.4157 -0.1976
 6695WAT     H127500   2.856   0.031   3.668 -0.2321  1.0147 -0.8399
 6695WAT     H227501   2.965   0.105   3.705  0.2423 -0.3381  0.5793
 6695WAT    EPW27502   2.899   0.066   3.723 -0.0622 -0.1929 -0.1777
 6696WAT      O27503   3.686   6.997   3.309 -0.2719 -0.1612  0.0973
 6696WAT     H127504   3.724   6.943   3.253 -1.8274 -1.8785  0.6061
 6696WAT     H227505   3.714   6.968   3.387 -0.0736  0.6413  0.3351
 6696WAT    EPW27506   3.696   6.985   3.312 -0.4724 -0.2963  0.2076
 6697WAT      O27507   3.665   1.147   3.285  0.0064  0.3244  0.0323
 6697WAT     H127508   3.695   1.217   3.241  0.1178 -0.5020 -1.2675
 6697WAT     H227509   3.690   1.080   3.235 -0.9041 -0.5951  0.7792
 6697WAT    EPW27510   3.673   1.147   3.271 -0.1116  0.0665 -0.0494
 6698WAT      O27511   2.228   7.695   1.965 -0.5087 -0.2860  0.0160
 6698WAT     H127512   2.176   7.675   2.032 -2.6095 -0.2133 -1.5053
 6698WAT     H227513   2.286   7.630   1.963  0.2931  0.2228  2.4602
 6698WAT    EPW27514   2.229   7.683   1.975 -0.7006 -0.2001  0.1523
 6699WAT      O27515   3.302   6.398   2.264 -0.5158 -0.5682 -0.0935
 6699WAT     H127516   3.359   6.459   2.287 -0.5968 -1.2645  2.1999
 6699WAT     H227517   3.225   6.430   2.290 -0.7982 -0.8632 -0.5429
 6699WAT    EPW27518   3.299   6.411   2.271 -0.5695 -0.7147  0.1789
 6700WAT      O27519   5.117   1.518   4.705  0.3767 -0.4780 -0.2661
 6700WAT     H127520   5.172   1.458   4.736  0.5023  0.0527  0.5703
 6700WAT     H227521   5.044   1.506   4.751  0.5975  0.3876  0.3247
 6700WAT    EPW27522   5.114   1.507   4.716  0.4279 -0.2718 -0.0552
 6701WAT      O27523   3.720   7.093   2.933 -0.1486 -0.0273  0.5196
 6701WAT     H127524   3.662   7.089   2.867 -0.8332 -0.0784  1.1117
 6701WAT     H227525   3.773   7.158   2.909 -2.1547  2.0370  1.2544
 6701WAT    EPW27526   3.719   7.102   2.920 -0.5460  0.2701  0.7156
 6702WAT      O27527   3.421   0.477   3.565 -0.1170  0.0870  0.1732
 6702WAT     H127528   3.362   0.450   3.507 -1.2415  1.5444  0.5842
 6702WAT     H227529   3.491   0.495   3.516 -1.1494  1.6217 -0.8267
 6702WAT    EPW27530   3.423   0.476   3.549 -0.4356  0.5290  0.0862
 6703WAT      O27531   3.905   5.795   0.511  0.3938  0.5999 -0.3005
 6703WAT     H127532   3.833   5.750   0.493  0.4738 -0.2220  1.2768
 6703WAT     H227533   3.908   5.855   0.448 -0.9418 -0.1810 -1.1540
 6703WAT    EPW27534   3.895   5.797   0.499  0.2083  0.3631 -0.1935
 6704WAT      O27535   3.060   0.913   1.156  0.2222  0.3842  0.4913
 6704WAT     H127536   3.140   0.882   1.169  0.0540 -0.0947  0.4093
 6704WAT     H227537   3.021   0.851   1.108 -0.7336 -0.1974  1.9547
 6704WAT    EPW27538   3.066   0.899   1.151  0.0562  0.2276  0.6953
 6705WAT      O27539   1.765   5.682   1.569 -0.0792 -0.1250  0.2297
 6705WAT     H127540   1.817   5.614   1.583  0.7743  0.5810  0.5906
 6705WAT     H227541   1.685   5.647   1.569  0.2958 -1.0177  1.0862
 6705WAT    EPW27542   1.761   5.667   1.571  0.1023 -0.1526  0.4095
 6706WAT      O27543   3.739   7.434   7.600  0.3446  0.2687  0.0355
 6706WAT     H127544   3.675   7.443   7.658 -0.5678  0.4529 -0.9667
 6706WAT     H227545   3.774   7.514   7.596  2.0078 -0.2844  2.0643
 6706WAT    EPW27546   3.735   7.447   7.608  0.4555  0.2142  0.1872
 6707WAT      O27547   1.513   7.084   0.781  0.2822 -0.1130  0.4660
 6707WAT     H127548   1.521   7.166   0.754 -1.0670 -0.5616 -1.5706
 6707WAT     H227549   1.594   7.062   0.804  0.6244  1.8235  1.3358
 6707WAT    EPW27550   1.526   7.093   0.780  0.1334  0.1067  0.2937
 6708WAT      O27551   2.216   7.317   7.624  0.4369  0.8758  0.1855
 6708WAT     H127552   2.176   7.385   7.662  0.5485 -0.4275  2.8789
 6708WAT     H227553   2.292   7.312   7.667  1.0283 -0.1337 -0.9279
 6708WAT    EPW27554   2.221   7.327   7.636  0.5407  0.5342  0.4189
 6709WAT      O27555   2.440   5.937   1.807 -0.7996 -0.5981 -0.0179
 6709WAT     H127556   2.443   6.013   1.765  0.1919 -1.2942 -1.2592
 6709WAT     H227557   2.436   5.878   1.743  0.6004 -1.6847  0.8381
 6709WAT    EPW27558   2.440   5.939   1.791 -0.4463 -0.8614 -0.0748
 6710WAT      O27559   2.110   6.743   0.910 -0.0533  0.0544 -0.0025
 6710WAT     H127560   2.193   6.736   0.882 -1.0972 -2.1289 -3.2528
 6710WAT     H227561   2.106   6.685   0.975  0.9070  0.0458  0.0756
 6710WAT    EPW27562   2.122   6.733   0.915 -0.0656 -0.2694 -0.4711
 6711WAT      O27563   2.646   6.681   0.914 -0.0253  0.8753  0.6222
 6711WAT     H127564   2.666   6.755   0.871 -1.1255 -0.0311 -1.6196
 6711WAT     H227565   2.686   6.619   0.868 -2.1795 -0.2547  0.1252
 6711WAT    EPW27566   2.655   6.683   0.901 -0.5060  0.5745  0.2176
 6712WAT      O27567   4.131   6.316   7.350 -0.6931 -0.5468  0.2085
 6712WAT     H127568   4.174   6.249   7.385 -0.4478 -1.4500 -1.7000
 6712WAT     H227569   4.194   6.372   7.328 -0.8156 -0.1549  0.8348
 6712WAT    EPW27570   4.147   6.315   7.351 -0.6750 -0.6223  0.0191
 6713WAT      O27571   3.506   5.594   2.721  0.2197  0.0836  0.1251
 6713WAT     H127572   3.436   5.572   2.769 -0.2684 -0.7488 -0.9476
 6713WAT     H227573   3.546   5.518   2.707  1.2339  0.5232  0.5146
 6713WAT    EPW27574   3.502   5.580   2.726  0.2974  0.0256  0.0242
 6714WAT      O27575   2.297   5.296   0.457  0.0204 -0.3684  0.1040
 6714WAT     H127576   2.284   5.378   0.433  0.9801 -0.2154  0.0577
 6714WAT     H227577   2.359   5.302   0.518  1.0161 -1.1510 -0.7981
 6714WAT    EPW27578   2.304   5.309   0.463  0.3092 -0.4614 -0.0361
 6715WAT      O27579   1.219   1.023   0.948  0.2771 -0.3322 -0.9273
 6715WAT     H127580   1.269   0.962   0.985  0.5140  0.8109  0.7805
 6715WAT     H227581   1.139   0.988   0.951  0.5650 -1.0261 -1.0817
 6715WAT    EPW27582   1.214   1.009   0.954  0.3546 -0.2659 -0.6978
 6716WAT      O27583   2.921   0.247   1.931 -0.4761  0.1486 -0.0458
 6716WAT     H127584   2.950   0.313   1.881  0.0125  0.4156  0.5807
 6716WAT     H227585   2.993   0.204   1.952 -0.6542  0.1486  0.5860
 6716WAT    EPW27586   2.936   0.251   1.926 -0.4302  0.1881  0.1401
 6717WAT      O27587   3.017   6.332   2.088  0.3721 -0.6569 -0.0725
 6717WAT     H127588   2.956   6.364   2.035 -0.8756 -0.0832  1.6137
 6717WAT     H227589   3.038   6.400   2.139  2.5306 -0.8157 -0.6617
 6717WAT    EPW27590   3.011   6.347   2.088  0.5067 -0.5956  0.0896
 6718WAT      O27591   3.313   7.511   0.346  0.0743  0.2732  0.2015
 6718WAT     H127592   3.334   7.462   0.415  0.7356  0.6643  0.2921
 6718WAT     H227593   3.318   7.456   0.279 -3.8702 -1.0193  0.7224
 6718WAT    EPW27594   3.317   7.496   0.346 -0.4107  0.1401  0.2918
 6719WAT      O27595   1.338   6.953   2.894  0.0005 -0.4162 -0.3521
 6719WAT     H127596   1.264   6.953   2.848  1.2091  0.2732 -2.4626
 6719WAT     H227597   1.388   6.894   2.852  1.4710  0.8563 -0.4804
 6719WAT    EPW27598   1.335   6.944   2.881  0.3963 -0.1264 -0.6828
 6720WAT      O27599   2.402   6.389   1.934 -0.0391 -0.3509 -0.1617
 6720WAT     H127600   2.409   6.413   1.850  2.1458 -2.3570 -0.6568
 6720WAT     H227601   2.479   6.410   1.968 -0.5073 -0.5764  1.0903
 6720WAT    EPW27602   2.414   6.396   1.926  0.2145 -0.6805 -0.0499
 6721WAT      O27603   1.637   0.632   0.372 -0.0485 -0.0571 -0.0679
 6721WAT     H127604   1.591   0.585   0.315 -1.0059  1.4093 -0.5740
 6721WAT     H227605   1.640   0.582   0.444 -1.6663 -0.5699 -0.3343
 6721WAT    EPW27606   1.631   0.618   0.375 -0.4289  0.0838 -0.1820
 6722WAT      O27607   4.020   6.108   7.792  1.0899 -0.4335  0.0999
 6722WAT     H127608   3.998   6.030   7.825  2.7681 -1.0489 -0.1629
 6722WAT     H227609   4.003   6.163   7.857  0.5874 -1.1058  0.5557
 6722WAT    EPW27610   4.014   6.105   7.806  1.2636 -0.6237  0.1284
 6723WAT      O27611   3.614   0.311   0.858 -0.3482 -0.5048  0.0487
 6723WAT     H127612   3.637   0.350   0.784  2.2145  0.0927  1.0504
 6723WAT     H227613   3.646   0.230   0.850  2.8118  0.4264  1.5841
 6723WAT    EPW27614   3.622   0.305   0.846  0.4971 -0.2789  0.4235
 6724WAT      O27615   2.426   5.699   1.644 -0.1321  0.0195  0.4833
 6724WAT     H127616   2.343   5.691   1.619  0.2869 -0.6513 -0.7277
 6724WAT     H227617   2.465   5.736   1.575 -0.0599  3.8348  2.2798
 6724WAT    EPW27618   2.420   5.704   1.630 -0.0595  0.4840  0.5698
 6725WAT      O27619   1.303   4.922   7.353  0.1895  0.3520  0.3500
 6725WAT     H127620   1.233   4.968   7.376  1.9823  2.6256  1.6643
 6725WAT     H227621   1.317   4.870   7.422  0.9596  1.3906  0.9890
 6725WAT    EPW27622   1.295   4.921   7.366  0.5681  0.8413  0.6386
 6726WAT      O27623   2.697   6.175   0.580  0.1639  0.0204 -0.1937
 6726WAT     H127624   2.638   6.137   0.528 -1.3617  1.6591  0.2224
 6726WAT     H227625   2.737   6.108   0.619 -0.7408 -1.1668 -1.2420
 6726WAT    EPW27626   2.694   6.159   0.578 -0.1951  0.0871 -0.2871
 6727WAT      O27627   2.186   1.217   0.966  0.1572 -0.1667 -0.3578
 6727WAT     H127628   2.183   1.282   1.024  2.1374 -1.0071  0.7841
 6727WAT     H227629   2.269   1.218   0.939  0.1184 -1.9011 -0.6381
 6727WAT    EPW27630   2.198   1.227   0.971  0.4439 -0.5470 -0.2305
 6728WAT      O27631   1.837   6.054   1.195 -0.3792 -0.6640 -0.0509
 6728WAT     H127632   1.844   5.974   1.228  2.4059  0.2430  1.9963
 6728WAT     H227633   1.887   6.051   1.124  1.5060 -0.3276  1.1807
 6728WAT    EPW27634   1.846   6.042   1.189  0.3107 -0.4803  0.4334
 6729WAT      O27635   2.682   5.846   1.065  0.2608 -0.2482 -0.2721
 6729WAT     H127636   2.645   5.912   1.023 -0.5010  0.1649  0.9768
 6729WAT     H227637   2.616   5.809   1.108  0.9258 -0.8665  0.2566
 6729WAT    EPW27638   2.667   5.850   1.065  0.2465 -0.2785 -0.0095
 6730WAT      O27639   3.196   7.139   7.363 -0.2643 -0.2094  0.4809
 6730WAT     H127640   3.222   7.194   7.426 -0.2078 -1.2226  1.3591
 6730WAT     H227641   3.175   7.066   7.406  0.0421 -1.0233 -0.7008
 6730WAT    EPW27642   3.197   7.136   7.378 -0.2107 -0.4793  0.4361
 6731WAT      O27643   3.007   5.448   2.055 -0.4835  0.3844  0.2890
 6731WAT     H127644   3.038   5.521   2.093 -1.8276  0.8927  0.4618
 6731WAT     H227645   2.963   5.409   2.119 -0.1016 -0.3980  0.0854
 6731WAT    EPW27646   3.005   5.453   2.070 -0.6257  0.3439  0.2844
 6732WAT      O27647   1.984   5.240   7.193 -0.0203  0.3418  0.2862
 6732WAT     H127648   1.932   5.172   7.212 -2.5700  2.6314  2.3370
 6732WAT     H227649   2.015   5.265   7.271  0.8327  1.5547 -0.4035
 6732WAT    EPW27650   1.981   5.234   7.207 -0.2709  0.8592  0.4872
 6733WAT      O27651   4.099   0.129   0.310  0.0082 -0.0411 -0.0724
 6733WAT     H127652   4.033   0.164   0.356 -0.8393 -1.2593 -0.3220
 6733WAT     H227653   4.120   0.192   0.253 -0.4651  0.6191  0.4627
 6733WAT    EPW27654   4.093   0.143   0.308 -0.1869 -0.1235 -0.0302
 6734WAT      O27655   1.972   0.405   0.141  0.0529 -0.0438 -0.2418
 6734WAT     H127656   1.942   0.353   0.077  1.6137 -0.7060 -0.4850
 6734WAT     H227657   1.953   0.485   0.113 -0.8138 -0.3934 -0.7083
 6734WAT    EPW27658   1.964   0.409   0.128  0.1554 -0.1932 -0.3466
 6735WAT      O27659   2.490   7.077   2.056 -0.3109  0.0737 -0.5843
 6735WAT     H127660   2.507   6.991   2.046 -0.9738 -0.0858 -0.3752
 6735WAT     H227661   2.461   7.082   2.139  1.2773  0.7526 -0.0214
 6735WAT    EPW27662   2.489   7.065   2.067 -0.1742  0.1504 -0.4703
 6736WAT      O27663   3.216   5.902   6.291 -0.0760 -0.1099  0.1664
 6736WAT     H127664   3.196   5.899   6.207 -1.8253  2.5460  0.3659
 6736WAT     H227665   3.163   5.843   6.327 -1.3702  0.6988 -0.3380
 6736WAT    EPW27666   3.205   5.893   6.284 -0.5256  0.4019  0.1213
 6737WAT      O27667   3.640   6.638   0.452  0.5110 -0.3811 -0.3208
 6737WAT     H127668   3.656   6.649   0.367  1.5893  2.6781  0.1408
 6737WAT     H227669   3.584   6.702   0.471  1.1846 -0.2568  1.4725
 6737WAT    EPW27670   3.634   6.649   0.442  0.7698  0.0891  0.0123
 6738WAT      O27671   2.297   6.495   1.431 -0.1154  0.1194  0.0217
 6738WAT     H127672   2.346   6.503   1.503  1.8819 -1.3123 -1.0978
 6738WAT     H227673   2.341   6.539   1.370 -1.2698  0.4805 -0.5996
 6738WAT    EPW27674   2.311   6.503   1.433  0.0091 -0.0387 -0.2355
 6739WAT      O27675   2.630   0.800   1.315  0.4517 -0.1707 -0.0085
 6739WAT     H127676   2.714   0.810   1.333  0.8121  0.9173 -1.9571
 6739WAT     H227677   2.605   0.732   1.364  2.2841 -0.1152  1.0654
 6739WAT    EPW27678   2.639   0.792   1.325  0.7756 -0.0018 -0.1377
 6740WAT      O27679   2.586   0.962   0.540  0.6376  0.3417  0.6866
 6740WAT     H127680   2.502   0.958   0.518  0.6505 -0.9775  0.7829
 6740WAT     H227681   2.622   1.010   0.476  0.6644 -3.2065 -2.2842
 6740WAT    EPW27682   2.579   0.969   0.527  0.6434 -0.3773  0.2620
 6741WAT      O27683   2.753   0.001   0.139  0.3877  0.1392 -0.2608
 6741WAT     H127684   2.691   0.061   0.152  1.1504  1.0327 -0.6413
 6741WAT     H227685   2.827   0.046   0.145  1.0482 -0.9999  0.7666
 6741WAT    EPW27686   2.755   0.016   0.142  0.5979  0.1029 -0.1652
 6742WAT      O27687   2.388   6.817   0.593  0.1763  0.2757 -0.4403
 6742WAT     H127688   2.405   6.901   0.577  0.3057  0.2007 -0.6987
 6742WAT     H227689   2.309   6.805   0.557  0.5276  0.0715 -1.1502
 6742WAT    EPW27690   2.379   6.828   0.585  0.2473  0.2345 -0.5834
 6743WAT      O27691   2.955   0.826   2.728  0.0926  0.7155 -0.1833
 6743WAT     H127692   2.914   0.800   2.801  2.8089 -3.7268  0.1219
 6743WAT     H227693   3.027   0.866   2.758  0.5945  0.0021 -0.4114
 6743WAT    EPW27694   2.960   0.828   2.743  0.5680 -0.0461 -0.1719
 6744WAT      O27695   1.981   7.042   1.722  0.0875 -0.0988  0.2016
 6744WAT     H127696   1.958   6.982   1.781 -0.5253  1.1066  1.2343
 6744WAT     H227697   2.065   7.058   1.742  0.8304 -1.8134 -1.2052
 6744WAT    EPW27698   1.990   7.035   1.734  0.1067 -0.1740  0.1463
 6745WAT      O27699   1.718   0.724   1.302  0.7849 -0.3337 -0.0177
 6745WAT     H127700   1.687   0.644   1.291  1.9516 -1.0172  1.2408
 6745WAT     H227701   1.800   0.711   1.330  0.9787  1.2850  0.3176
 6745WAT    EPW27702   1.726   0.711   1.305  0.9859 -0.1955  0.2177
 6746WAT      O27703   2.343   0.271   1.985 -0.0515 -0.3235 -0.0619
 6746WAT     H127704   2.430   0.272   1.997 -0.1290 -1.6399  0.7347
 6746WAT     H227705   2.324   0.186   1.978 -1.5222 -0.1952  1.6273
 6746WAT    EPW27706   2.353   0.258   1.986 -0.2802 -0.4990  0.3053
 6747WAT      O27707   3.469   0.161   7.421  0.0066 -0.1416  0.0653
 6747WAT     H127708   3.418   0.099   7.456  0.4794  0.2482  1.5397
 6747WAT     H227709   3.418   0.197   7.359 -0.7599 -1.0925  0.1230
 6747WAT    EPW27710   3.454   0.157   7.417 -0.0368 -0.2245  0.2916
 6748WAT      O27711   1.540   6.855   2.506  0.0460 -0.0929 -0.4530
 6748WAT     H127712   1.523   6.794   2.446  2.6670  1.0039 -2.4963
 6748WAT     H227713   1.507   6.928   2.472  0.3284  0.3126  0.1208
 6748WAT    EPW27714   1.533   6.857   2.492  0.4749  0.1290 -0.6701
 6749WAT      O27715   3.939   7.149   7.569 -0.2464  0.0068  0.3082
 6749WAT     H127716   3.885   7.150   7.638  0.5411  0.6216  0.9399
 6749WAT     H227717   3.884   7.146   7.501 -1.1593  1.6288  0.8915
 6749WAT    EPW27718   3.923   7.149   7.569 -0.2649  0.3372  0.4877
 6750WAT      O27719   3.320   6.141   0.873  0.3292 -0.1260  0.8918
 6750WAT     H127720   3.388   6.087   0.865  2.8014  2.8444 -0.2766
 6750WAT     H227721   3.307   6.144   0.960  1.4840 -1.0233  1.1249
 6750WAT    EPW27722   3.328   6.134   0.885  0.8650  0.1802  0.7536
 6751WAT      O27723   3.737   0.070   0.467  0.4740  0.1379  0.0838
 6751WAT     H127724   3.789   0.140   0.459  0.9692 -0.3233 -0.9002
 6751WAT     H227725   3.671   0.087   0.412  1.0273 -0.5345 -0.8093
 6751WAT    EPW27726   3.735   0.083   0.457  0.6289 -0.0296 -0.1935
 6752WAT      O27727   0.872   7.245   0.713  0.3862 -0.1331 -0.6325
 6752WAT     H127728   0.830   7.233   0.788  1.0822 -1.7235 -0.4565
 6752WAT     H227729   0.809   7.237   0.652  0.0998 -0.4938 -0.2914
 6752WAT    EPW27730   0.857   7.242   0.715  0.4467 -0.4213 -0.5561
 6753WAT      O27731   2.784   7.118   1.216  0.0740 -0.3678 -0.0233
 6753WAT     H127732   2.859   7.163   1.222 -1.0370  1.4009  1.9432
 6753WAT     H227733   2.763   7.102   1.299 -1.6496 -0.9601 -0.5448
 6753WAT    EPW27734   2.792   7.122   1.229 -0.3447 -0.1940  0.1901
 6754WAT      O27735   1.623   6.020   0.796  0.3139  0.1629  0.2361
 6754WAT     H127736   1.590   5.943   0.818 -1.5853  0.7424 -0.3912
 6754WAT     H227737   1.566   6.077   0.829 -0.2414  1.1788 -2.2510
 6754WAT    EPW27738   1.610   6.017   0.804 -0.0487  0.3985 -0.2240
 6755WAT      O27739   3.059   6.808   1.750  0.1411  0.0571  0.0726
 6755WAT     H127740   3.143   6.793   1.729 -0.2255 -2.0716 -0.0683
 6755WAT     H227741   3.038   6.877   1.700  1.6868  0.3994 -0.1680
 6755WAT    EPW27742   3.068   6.816   1.740  0.3153 -0.2068  0.0162
 6756WAT      O27743   1.250   7.324   0.363 -0.5494 -0.0141  0.1238
 6756WAT     H127744   1.247   7.246   0.324 -2.6934 -0.8455  1.7445
 6756WAT     H227745   1.224   7.308   0.445  1.0696  2.0811  1.1743
 6756WAT    EPW27746   1.246   7.310   0.369 -0.6269  0.1726  0.5184
 6757WAT      O27747   2.998   0.394   6.577  0.0773 -0.3461  0.0759
 6757WAT     H127748   2.927   0.345   6.587  0.2959 -0.6077  0.3751
 6757WAT     H227749   3.039   0.357   6.509 -0.3958  0.2066 -0.5292
 6757WAT    EPW27750   2.994   0.381   6.568  0.0397 -0.3031  0.0307
 6758WAT      O27751   2.976   0.555   1.258 -0.8195  0.0415 -0.0541
 6758WAT     H127752   2.968   0.484   1.207 -3.3608  0.9292 -1.0528
 6758WAT     H227753   2.946   0.620   1.208  0.4990  1.6944  1.1865
 6758WAT    EPW27754   2.970   0.554   1.243 -1.0001  0.4168 -0.0184
 6759WAT      O27755   2.405   6.970   7.643 -0.6263 -0.3902 -0.4332
 6759WAT     H127756   2.328   6.948   7.608 -0.8192  1.9926 -1.7640
 6759WAT     H227757   2.450   7.002   7.575  0.0832  1.7610  0.9324
 6759WAT    EPW27758   2.400   6.972   7.628 -0.5500  0.2795 -0.4281
 6760WAT      O27759   3.892   7.651   3.307 -0.0715  0.1868  0.2802
 6760WAT     H127760   3.977   7.653   3.327  0.5121 -1.8152 -1.5790
 6760WAT     H227761   3.859   7.594   3.365 -0.8731  2.9931  2.8697
 6760WAT    EPW27762   3.899   7.643   3.318 -0.1037  0.3056  0.3881
 6761WAT      O27763   2.030   6.913   0.303  0.7106 -0.2320  0.3324
 6761WAT     H127764   2.004   6.914   0.220 -1.0939  0.0048  0.8616
 6761WAT     H227765   1.986   6.979   0.339  1.1680 -0.5798  1.5702
 6761WAT    EPW27766   2.020   6.923   0.296  0.5116 -0.2484  0.5934
 6762WAT      O27767   2.266   6.877   1.139  0.0017 -0.5418 -0.0455
 6762WAT     H127768   2.207   6.842   1.194  2.9193 -2.9312  1.9106
 6762WAT     H227769   2.272   6.960   1.166  0.6688 -1.3998  2.8372
 6762WAT    EPW27770   2.258   6.884   1.151  0.5312 -1.0215  0.6693
 6763WAT      O27771   3.797   7.243   1.427 -0.7122 -0.1706 -0.0057
 6763WAT     H127772   3.754   7.255   1.502 -2.1297  0.1053 -0.8251
 6763WAT     H227773   3.741   7.197   1.378  2.2491 -5.7022  0.9535
 6763WAT    EPW27774   3.783   7.238   1.431 -0.4841 -0.9470  0.0149
 6764WAT      O27775   1.924   6.751   0.660  0.4040 -0.6033  0.2665
 6764WAT     H127776   1.976   6.818   0.637  2.7727 -2.4471 -0.0954
 6764WAT     H227777   1.913   6.762   0.746 -0.4237  0.9522  0.0112
 6764WAT    EPW27778   1.930   6.763   0.669  0.6317 -0.6459  0.1753
 6765WAT      O27779   4.720   0.315   0.676 -0.1322 -0.1830  0.0529
 6765WAT     H127780   4.749   0.354   0.749 -0.3672 -0.9998  0.5994
 6765WAT     H227781   4.789   0.319   0.622 -0.4652  1.9028 -0.3103
 6765WAT    EPW27782   4.735   0.322   0.679 -0.2161  0.0045  0.0800
 6766WAT      O27783   2.868   6.708   0.664  0.1074  0.1411 -0.5062
 6766WAT     H127784   2.917   6.635   0.657  0.9588  0.3917  1.8648
 6766WAT     H227785   2.791   6.684   0.633  0.6181 -1.5329 -0.5897
 6766WAT    EPW27786   2.864   6.693   0.658  0.3086 -0.0691 -0.1683
 6767WAT      O27787   4.735   6.027   1.704  0.2898 -0.2241  0.3518
 6767WAT     H127788   4.696   6.102   1.726  0.1790 -0.9598  2.9748
 6767WAT     H227789   4.689   6.000   1.635 -0.5361  1.4250  0.2005
 6767WAT    EPW27790   4.722   6.034   1.697  0.1514 -0.0892  0.7169
 6768WAT      O27791   3.119   0.034   0.095 -0.5004  0.0573  0.0202
 6768WAT     H127792   3.172   0.098   0.122 -0.0557 -0.4367  0.3464
 6768WAT     H227793   3.063   0.074   0.041  0.0607  0.6300 -0.1433
 6768WAT    EPW27794   3.119   0.049   0.091 -0.3518  0.0689  0.0442
 6769WAT      O27795   1.706   5.289   0.384 -0.4866 -0.6106 -0.0128
 6769WAT     H127796   1.778   5.262   0.424 -0.3522  1.5271  1.3078
 6769WAT     H227797   1.642   5.249   0.428 -0.1997 -1.2072 -0.1214
 6769WAT    EPW27798   1.707   5.279   0.396 -0.4244 -0.3830  0.1663
 6770WAT      O27799   2.861   7.162   7.685  0.4161  0.3407  0.1315
 6770WAT     H127800   2.774   7.170   7.682  0.3611 -0.2877 -0.1241
 6770WAT     H227801   2.881   7.123   7.609  1.2826  3.3679 -1.3464
 6770WAT    EPW27802   2.851   7.157   7.673  0.5360  0.6951 -0.1246
 6771WAT      O27803   2.456   0.385   1.150 -0.3588 -0.0020  0.1127
 6771WAT     H127804   2.393   0.367   1.092  0.5416  1.8118 -1.5293
 6771WAT     H227805   2.415   0.433   1.210 -0.9969 -0.6664  0.2155
 6771WAT    EPW27806   2.441   0.390   1.150 -0.3200  0.1678 -0.1147
 6772WAT      O27807   3.444   7.103   0.635  0.2155  0.3596  0.0253
 6772WAT     H127808   3.363   7.087   0.607 -0.3857  1.2310  1.2154
 6772WAT     H227809   3.442   7.186   0.660  1.5970  0.5192 -0.2713
 6772WAT    EPW27810   3.432   7.113   0.635  0.3308  0.5119  0.1573
 6773WAT      O27811   2.082   6.172   1.093 -0.6610  0.4816 -0.2066
 6773WAT     H127812   2.121   6.111   1.143  0.0109  0.5221 -0.6607
 6773WAT     H227813   2.148   6.225   1.072 -1.4013  1.9158  0.9483
 6773WAT    EPW27814   2.098   6.171   1.097 -0.6711  0.6994 -0.1031
 6774WAT      O27815   2.056   6.834   0.036  0.1114  0.4619 -0.0199
 6774WAT     H127816   2.143   6.838   0.025  0.4087 -0.7255  1.4954
 6774WAT     H227817   2.041   6.749   0.047 -1.0639  0.7737  0.9360
 6774WAT    EPW27818   2.067   6.822   0.036 -0.0183  0.3326  0.3451
 6775WAT      O27819   1.797   6.775   0.237  0.0200  0.6142 -0.1496
 6775WAT     H127820   1.760   6.727   0.299  3.9033 -1.6007  0.7949
 6775WAT     H227821   1.857   6.822   0.281  1.8346  0.1474 -1.9707
 6775WAT    EPW27822   1.800   6.775   0.252  0.8617  0.2180 -0.2791
 6776WAT      O27823   2.692   6.233   1.562  0.7855 -0.4721 -0.3168
 6776WAT     H127824   2.672   6.246   1.478 -0.0990  1.8171  0.1773
 6776WAT     H227825   2.774   6.261   1.568  1.4121 -2.0893 -0.6633
 6776WAT    EPW27826   2.701   6.239   1.550  0.7474 -0.3729 -0.2950
 6777WAT      O27827   3.013   6.283   1.738  0.2922 -0.3076 -0.1052
 6777WAT     H127828   2.960   6.305   1.803 -0.7746 -3.2784  0.2073
 6777WAT     H227829   2.975   6.317   1.668 -0.4603  0.0160  0.4429
 6777WAT    EPW27830   3.000   6.291   1.737  0.0234 -0.6987  0.0219
 6778WAT      O27831   1.183   5.562   7.599  0.4846 -0.8459 -0.0405
 6778WAT     H127832   1.267   5.551   7.616  0.9726  1.9106 -0.2006
 6778WAT     H227833   1.182   5.588   7.516 -0.8022 -2.9075 -0.7772
 6778WAT    EPW27834   1.195   5.564   7.589  0.3666 -0.7433 -0.1730
 6779WAT      O27835   4.965   0.593   2.585 -0.3164 -0.0279  0.1808
 6779WAT     H127836   4.886   0.617   2.558 -1.3614 -1.3964  1.8064
 6779WAT     H227837   4.951   0.564   2.666  1.8222 -0.5474  0.4306
 6779WAT    EPW27838   4.951   0.593   2.593 -0.1549 -0.3068  0.4578
 6780WAT      O27839   2.839   0.938   1.802 -0.2608  0.2931 -0.3825
 6780WAT     H127840   2.770   0.886   1.791  0.3136 -0.6198  0.2186
 6780WAT     H227841   2.804   1.018   1.805 -1.1364 -0.0160 -1.5284
 6780WAT    EPW27842   2.824   0.942   1.801 -0.3053  0.1126 -0.4630
 6781WAT      O27843   0.599   6.379   1.276 -0.1678 -0.1742 -0.2464
 6781WAT     H127844   0.668   6.335   1.247 -0.2073 -0.0344 -0.5588
 6781WAT     H227845   0.544   6.317   1.303  0.3828 -0.2624  0.7237
 6781WAT    EPW27846   0.601   6.364   1.276 -0.0923 -0.1665 -0.1492
 6782WAT      O27847   3.065   0.262   0.409  0.5245  0.0648 -0.0830
 6782WAT     H127848   2.991   0.218   0.393 -0.5345  1.2476  1.2921
 6782WAT     H227849   3.050   0.298   0.486  1.9496  1.6019 -0.4875
 6782WAT    EPW27850   3.052   0.260   0.418  0.5786  0.4666  0.0604
 6783WAT      O27851   4.419   0.356   7.775  0.3285 -0.0123  0.1650
 6783WAT     H127852   4.492   0.399   7.797  0.0934 -0.0038  0.9747
 6783WAT     H227853   4.361   0.420   7.761  0.5654 -0.0069 -0.8445
 6783WAT    EPW27854   4.421   0.372   7.776  0.3288 -0.0102  0.1355
 6784WAT      O27855   3.056   5.331   1.129  0.6200  0.4375 -0.3678
 6784WAT     H127856   3.091   5.410   1.129  0.1914  0.6361 -1.1095
 6784WAT     H227857   2.990   5.338   1.186 -1.0929  1.4085 -2.3528
 6784WAT    EPW27858   3.051   5.344   1.138  0.3036  0.6103 -0.7706
 6785WAT      O27859   2.003   6.981   0.933  0.3346 -0.3289  0.2586
 6785WAT     H127860   2.040   6.904   0.916  0.7039 -0.6873  2.3901
 6785WAT     H227861   2.011   6.989   1.019  0.2463  2.0842  0.1153
 6785WAT    EPW27862   2.010   6.971   0.943  0.3761 -0.0253  0.5523
 6786WAT      O27863   2.045   7.620   1.025  0.2630  0.0623  0.3453
 6786WAT     H127864   2.085   7.680   1.073  0.1434 -0.0432  0.5785
 6786WAT     H227865   2.105   7.597   0.966  0.7531 -0.5386  1.0673
 6786WAT    EPW27866   2.060   7.625   1.023  0.3178 -0.0420  0.4864
 6787WAT      O27867   2.329   7.578   0.925 -0.4904 -0.3317 -0.1990
 6787WAT     H127868   2.327   7.511   0.871  3.7100  0.5423 -1.8442
 6787WAT     H227869   2.343   7.647   0.873  1.0501  0.9508  1.7306
 6787WAT    EPW27870   2.331   7.578   0.909  0.3576 -0.0131 -0.1570
 6788WAT      O27871   3.666   0.076   0.735 -0.3715  0.1033  0.4086
 6788WAT     H127872   3.707   0.005   0.762 -0.1568 -0.2566 -0.8299
 6788WAT     H227873   3.657   0.064   0.649 -1.9147  0.7512  0.4401
 6788WAT    EPW27874   3.670   0.064   0.726 -0.5678  0.1459  0.2303
 6789WAT      O27875   3.671   7.424   0.704  0.0366  0.4567  0.0717
 6789WAT     H127876   3.748   7.458   0.727  0.4762 -0.3475 -0.1652
 6789WAT     H227877   3.650   7.373   0.772  0.5007 -0.5739 -0.5354
 6789WAT    EPW27878   3.679   7.421   0.718  0.1701  0.1857 -0.0530
 6790WAT      O27879   2.408   6.517   0.398 -0.3793  0.2279  0.3565
 6790WAT     H127880   2.446   6.542   0.324  0.4162 -1.3450  0.1947
 6790WAT     H227881   2.340   6.572   0.406 -1.0750 -0.1830 -2.0470
 6790WAT    EPW27882   2.403   6.529   0.389 -0.3646 -0.0652 -0.0224
 6791WAT      O27883   2.578   6.055   0.920  0.2361  0.0056 -0.6202
 6791WAT     H127884   2.554   6.114   0.980  1.3330  0.4025 -0.5512
 6791WAT     H227885   2.502   6.028   0.886 -0.6128 -1.5722  2.1607
 6791WAT    EPW27886   2.563   6.060   0.924  0.2727 -0.1689 -0.1992
 6792WAT      O27887   2.539   7.136   0.723 -0.0370 -0.1648  1.0148
 6792WAT     H127888   2.577   7.065   0.757  1.6556  0.3659  0.2946
 6792WAT     H227889   2.543   7.194   0.789 -1.4076 -0.6777  1.5986
 6792WAT    EPW27890   2.545   7.134   0.738  0.0105 -0.1622  0.9947
 6793WAT      O27891   2.229   5.712   2.953 -0.8124  0.1803  0.2570
 6793WAT     H127892   2.223   5.718   2.866  2.5590 -1.0538 -0.2345
 6793WAT     H227893   2.181   5.778   2.982 -0.2241  2.0723 -2.6710
 6793WAT    EPW27894   2.221   5.723   2.944 -0.2275  0.2775 -0.2481
 6794WAT      O27895   1.672   6.036   2.054  0.4069 -0.0297 -0.3453
 6794WAT     H127896   1.642   6.063   2.131  0.3028  0.8018 -0.6712
 6794WAT     H227897   1.600   6.021   2.007  0.4561 -1.1010 -0.1059
 6794WAT    EPW27898   1.657   6.038   2.058  0.3988 -0.0651 -0.3581
 6795WAT      O27899   2.973   5.639   0.858  0.5235 -0.1082  0.3040
 6795WAT     H127900   2.988   5.613   0.940  1.8281  1.7949  0.7444
 6795WAT     H227901   3.033   5.597   0.812  0.3318 -0.5511  0.4568
 6795WAT    EPW27902   2.984   5.629   0.864  0.6879  0.1075  0.3916
 6796WAT      O27903   3.278   0.111   0.498 -0.1555 -0.4487 -0.1621
 6796WAT     H127904   3.298   0.159   0.568 -0.1357  1.0769 -1.1698
 6796WAT     H227905   3.207   0.149   0.466 -0.2219 -1.1859 -0.9369
 6796WAT    EPW27906   3.271   0.124   0.504 -0.1624 -0.3323 -0.4254
 6797WAT      O27907   2.595   0.601   2.181  0.6061 -0.4157  0.1265
 6797WAT     H127908   2.610   0.525   2.142  0.9149 -0.0215 -0.5251
 6797WAT     H227909   2.641   0.659   2.134 -1.3070  0.5152 -0.7077
 6797WAT    EPW27910   2.604   0.598   2.168  0.3691 -0.2200 -0.0930
 6798WAT      O27911   1.542   1.229   7.445  1.1672 -0.4841  0.0268
 6798WAT     H127912   1.534   1.143   7.440 -1.0715 -0.2819 -1.3361
 6798WAT     H227913   1.506   1.249   7.522  0.9692 -0.6981 -0.0122
 6798WAT    EPW27914   1.535   1.219   7.456  0.8073 -0.4859 -0.1803
 6799WAT      O27915   6.179   7.576   2.877 -0.3707  1.1783  0.1871
 6799WAT     H127916   6.239   7.517   2.853 -0.6703  1.2497 -0.8163
 6799WAT     H227917   6.188   7.639   2.817 -2.4070  0.5328 -0.9179
 6799WAT    EPW27918   6.189   7.577   2.864 -0.7158  1.0935 -0.1243
 6800WAT      O27919   3.492   0.383   1.088  0.0091  0.0824  0.1487
 6800WAT     H127920   3.407   0.395   1.070  0.2920  2.1648 -0.0624
 6800WAT     H227921   3.528   0.372   1.010 -0.1076 -1.4749  0.2785
 6800WAT    EPW27922   3.485   0.383   1.074  0.0337  0.1600  0.1367
 6801WAT      O27923   1.737   6.718   2.832  0.1176  0.5145 -0.1265
 6801WAT     H127924   1.777   6.717   2.755  1.3101 -0.5432  0.4721
 6801WAT     H227925   1.794   6.680   2.885 -0.9969  0.5323  1.1315
 6801WAT    EPW27926   1.752   6.712   2.829  0.1291  0.3609  0.1478
 6802WAT      O27927   3.201   5.114   5.701  0.0437  0.3996  0.5394
 6802WAT     H127928   3.201   5.094   5.616  1.1742 -1.9053  1.0181
 6802WAT     H227929   3.117   5.134   5.717 -0.1248  1.3124 -1.1531
 6802WAT    EPW27930   3.189   5.114   5.691  0.1858  0.1939  0.3601
 6803WAT      O27931   4.322   5.259   6.941  0.2199  0.1655 -0.2945
 6803WAT     H127932   4.278   5.290   6.872  0.3900  0.8739 -0.0993
 6803WAT     H227933   4.261   5.254   7.003  0.4234  1.3502  0.0375
 6803WAT    EPW27934   4.306   5.263   6.940  0.2751  0.4451 -0.2166
 6804WAT      O27935   0.623   0.495   6.204 -0.1031 -0.0521  0.2429
 6804WAT     H127936   0.642   0.507   6.288  1.9175  0.9181 -0.2892
 6804WAT     H227937   0.689   0.534   6.162 -0.5849 -1.2686 -1.7990
 6804WAT    EPW27938   0.635   0.503   6.210  0.1242 -0.0885 -0.1374
 6805WAT      O27939   4.693   5.808   5.745 -0.2256 -0.3514  0.7414
 6805WAT     H127940   4.740   5.734   5.748 -0.5140 -0.5840 -0.0221
 6805WAT     H227941   4.627   5.787   5.691  1.5237  1.4751 -2.3687
 6805WAT    EPW27942   4.690   5.794   5.737 -0.0098 -0.1159  0.1692
 6806WAT      O27943   2.258   4.967   4.145 -0.4890  0.5383 -0.7937
 6806WAT     H127944   2.343   4.955   4.159 -0.7312 -0.4281 -0.0709
 6806WAT     H227945   2.232   4.893   4.107 -1.3403  0.0515  0.6285
 6806WAT    EPW27946   2.267   4.955   4.141 -0.6506  0.3237 -0.4768
 6807WAT      O27947   3.140   4.186   5.783 -0.1042 -0.4648  0.7020
 6807WAT     H127948   3.165   4.108   5.753  0.1456 -0.1716  0.1390
 6807WAT     H227949   3.206   4.238   5.762 -0.8027  0.1491 -0.0603
 6807WAT    EPW27950   3.153   4.182   5.775 -0.1705 -0.3308  0.5062
 6808WAT      O27951   3.092   5.308   5.973  0.4529  0.1624  0.3373
 6808WAT     H127952   3.104   5.312   5.887 -0.9253 -1.9953 -0.0089
 6808WAT     H227953   3.034   5.372   5.988  0.3102  0.2201 -0.4070
 6808WAT    EPW27954   3.085   5.318   5.962  0.2283 -0.1478  0.1762
 6809WAT      O27955   2.985   5.421   7.775 -0.3171  0.4845  0.1630
 6809WAT     H127956   2.992   5.427   7.688 -0.5791  1.1622  0.1805
 6809WAT     H227957   2.942   5.494   7.797 -1.1325 -0.1633  0.7647
 6809WAT    EPW27958   2.980   5.433   7.766 -0.4762  0.4889  0.2545
 6810WAT      O27959   3.829   4.238   5.767 -0.6955 -0.5105  0.3410
 6810WAT     H127960   3.744   4.248   5.751 -0.4534 -0.2420 -0.8432
 6810WAT     H227961   3.866   4.305   5.725  0.2230 -1.5093 -0.4955
 6810WAT    EPW27962   3.822   4.249   5.758 -0.5240 -0.6184  0.0425
 6811WAT      O27963   3.850   0.508   6.699 -0.0814  0.0015  0.4315
 6811WAT     H127964   3.828   0.592   6.712  0.4731  0.1171  0.6283
 6811WAT     H227965   3.772   0.468   6.692 -0.3528  0.4916  0.5828
 6811WAT    EPW27966   3.835   0.515   6.700 -0.0396  0.0910  0.4829
 6812WAT      O27967   1.306   5.138   6.982  0.0659 -0.0452 -0.4894
 6812WAT     H127968   1.364   5.091   7.026  0.7646  0.0972 -1.2325
 6812WAT     H227969   1.336   5.220   6.988  0.3241 -0.0511 -1.4182
 6812WAT    EPW27970   1.319   5.143   6.989  0.2072 -0.0250 -0.7364
 6813WAT      O27971   3.063   5.699   6.433 -0.2650 -0.0707 -0.3311
 6813WAT     H127972   3.091   5.617   6.425  0.1758 -0.2161  2.0393
 6813WAT     H227973   2.977   5.692   6.423 -0.3264 -0.9879  0.6592
 6813WAT    EPW27974   3.055   5.686   6.430 -0.2090 -0.2277  0.1653
 6814WAT      O27975   1.586   6.521   6.776 -0.1901  0.0935 -0.5226
 6814WAT     H127976   1.628   6.584   6.820 -1.3727  0.3639  0.2525
 6814WAT     H227977   1.572   6.556   6.698  0.5134  0.2135 -0.6005
 6814WAT    EPW27978   1.590   6.535   6.771 -0.2609  0.1512 -0.4196
 6815WAT      O27979   1.559   5.303   7.162  0.0861 -0.1004  0.1048
 6815WAT     H127980   1.588   5.348   7.093 -2.6072 -0.8849 -1.6760
 6815WAT     H227981   1.591   5.223   7.150  1.0863  0.1722  0.7973
 6815WAT    EPW27982   1.568   5.298   7.150 -0.1640 -0.1760 -0.0560
 6816WAT      O27983   3.636   4.654   6.538  0.0713  0.3847 -0.0464
 6816WAT     H127984   3.716   4.636   6.508  1.1161  2.4856  1.2216
 6816WAT     H227985   3.617   4.730   6.500 -1.1209  0.1519  0.0624
 6816WAT    EPW27986   3.645   4.663   6.528  0.0495  0.6607  0.1570
 6817WAT      O27987   2.976   5.739   7.435  0.5891  0.1076  0.4817
 6817WAT     H127988   2.963   5.795   7.501 -0.0164 -0.6808  1.0474
 6817WAT     H227989   3.048   5.770   7.397  0.1121  1.4386  0.5944
 6817WAT    EPW27990   2.985   5.752   7.439  0.4292  0.1878  0.5819
 6818WAT      O27991   2.864   5.968   5.890  0.3837  0.0206  0.1573
 6818WAT     H127992   2.843   5.956   5.806 -0.1602  0.2795  0.2541
 6818WAT     H227993   2.876   6.055   5.896 -0.7339  0.1516  0.6082
 6818WAT    EPW27994   2.863   5.979   5.878  0.1383  0.0782  0.2382
 6819WAT      O27995   1.276   7.366   5.782 -0.0888  0.1104 -0.5203
 6819WAT     H127996   1.307   7.352   5.702 -0.5815 -0.3027 -0.6423
 6819WAT     H227997   1.190   7.367   5.772 -0.1287  1.8141 -0.2610
 6819WAT    EPW27998   1.268   7.364   5.769 -0.1675  0.3010 -0.5000
 6820WAT      O27999   2.731   4.869   7.698  0.4759 -0.6613 -0.2108
 6820WAT     H128000   2.736   4.807   7.760  1.7985 -0.3842  0.0013
 6820WAT     H228001   2.709   4.824   7.626 -0.5844 -1.0632  0.3476
 6820WAT    EPW28002   2.729   4.853   7.696  0.5146 -0.6797 -0.0970
 6821WAT      O28003   2.485   4.885   6.570 -0.3525  0.2788  0.1841
 6821WAT     H128004   2.459   4.824   6.514  0.8973 -0.7239  0.6562
 6821WAT     H228005   2.568   4.865   6.586 -0.5317  0.7813  2.0398
 6821WAT    EPW28006   2.493   4.873   6.564 -0.1944  0.2049  0.5280
 6822WAT      O28007   2.921   4.739   1.041  0.6247 -0.0130 -0.2289
 6822WAT     H128008   2.986   4.794   1.022  0.2182  0.3822 -0.5107
 6822WAT     H228009   2.888   4.772   1.115  1.7642 -1.1471  0.8124
 6822WAT    EPW28010   2.925   4.752   1.049  0.7330 -0.1221 -0.1167
 6823WAT      O28011   2.954   5.608   5.995 -0.1034 -0.5947  0.1009
 6823WAT     H128012   2.946   5.551   6.060  0.2174  1.4022  1.9862
 6823WAT     H228013   2.872   5.622   5.969 -0.4324  0.0066  1.3970
 6823WAT    EPW28014   2.941   5.602   6.000 -0.1046 -0.2109  0.5709
 6824WAT      O28015   2.275   5.324   6.132  0.2399 -0.5757  0.0570
 6824WAT     H128016   2.280   5.358   6.212  1.7527 -1.5207  0.4166
 6824WAT     H228017   2.191   5.302   6.124 -0.6468  2.4086  0.0905
 6824WAT    EPW28018   2.264   5.326   6.142  0.3324 -0.2744  0.1151
 6825WAT      O28019   1.419   4.640   5.472  0.4375 -0.1852  0.1885
 6825WAT     H128020   1.362   4.684   5.423  3.0880  1.7533 -1.4632
 6825WAT     H228021   1.430   4.691   5.542  1.3669  0.3721 -0.3397
 6825WAT    EPW28022   1.412   4.654   5.475  0.9663  0.1835 -0.1335
 6826WAT      O28023   1.713   5.954   6.494  0.2742 -0.2776 -0.0682
 6826WAT     H128024   1.653   5.969   6.556  1.1510  0.5496  0.6035
 6826WAT     H228025   1.685   5.880   6.457 -0.0833 -1.0102  1.5628
 6826WAT    EPW28026   1.700   5.945   6.498  0.3509 -0.2636  0.2720
 6827WAT      O28027   2.661   6.247   6.938 -0.0402 -0.2965 -0.1899
 6827WAT     H128028   2.723   6.304   6.915  1.6885 -0.8838  2.5298
 6827WAT     H228029   2.611   6.293   6.994  0.2544 -0.8978  0.5797
 6827WAT    EPW28030   2.662   6.262   6.943  0.2587 -0.4721  0.3255
 6828WAT      O28031   3.404   6.437   7.019  0.1823  0.3602 -0.4026
 6828WAT     H128032   3.380   6.355   7.039 -0.2174  0.0900 -1.8583
 6828WAT     H228033   3.489   6.430   7.001 -0.1895 -0.1251 -2.2072
 6828WAT    EPW28034   3.413   6.424   7.019  0.0683  0.2486 -0.8842
 6829WAT      O28035   3.023   7.468   6.829 -0.2387  0.3347 -0.2866
 6829WAT     H128036   3.007   7.449   6.745 -0.6554  0.7984 -0.3204
 6829WAT     H228037   3.024   7.555   6.830 -2.2273  0.3927  0.5392
 6829WAT    EPW28038   3.021   7.478   6.817 -0.5940  0.4117 -0.1696
 6830WAT      O28039   2.801   5.709   6.816 -0.0894 -0.0795 -0.6747
 6830WAT     H128040   2.880   5.739   6.837  0.2440 -1.6164  0.4222
 6830WAT     H228041   2.747   5.771   6.844  0.6495  0.2769 -0.0236
 6830WAT    EPW28042   2.805   5.722   6.823  0.0690 -0.2539 -0.4165
 6831WAT      O28043   1.675   5.121   6.424  0.1931  0.5527 -0.0904
 6831WAT     H128044   1.734   5.058   6.430 -0.6321 -0.2530 -0.1639
 6831WAT     H228045   1.605   5.088   6.465 -0.3883  1.2419 -0.4911
 6831WAT    EPW28046   1.673   5.107   6.431 -0.0147  0.5355 -0.1605
 6832WAT      O28047   4.142   5.499   7.778 -0.1317  0.0933 -0.7035
 6832WAT     H128048   4.084   5.441   7.808  0.1430  0.2211  0.1158
 6832WAT     H228049   4.180   5.528   7.851  0.0869  0.9289 -1.1434
 6832WAT    EPW28050   4.139   5.495   7.793 -0.0588  0.2356 -0.6475
 6833WAT      O28051   2.255   6.659   6.083 -0.4271  0.1544  0.3140
 6833WAT     H128052   2.204   6.637   6.150  0.3280 -0.8061  0.5977
 6833WAT     H228053   2.336   6.641   6.111  0.1636  2.1998  0.0988
 6833WAT    EPW28054   2.260   6.653   6.097 -0.2283  0.3147  0.3241
 6834WAT      O28055   2.368   5.902   0.800 -0.3703 -0.1647 -0.3314
 6834WAT     H128056   2.348   5.964   0.742  0.1699  0.8908  0.5931
 6834WAT     H228057   2.411   5.843   0.753 -0.9107  0.1400 -1.2274
 6834WAT    EPW28058   2.371   5.902   0.785 -0.3703  0.0362 -0.3272
 6835WAT      O28059   2.579   6.866   0.242 -0.0224 -0.3298 -0.2617
 6835WAT     H128060   2.514   6.897   0.290  0.3234 -1.1325  0.7725
 6835WAT     H228061   2.613   6.802   0.292  1.2668 -0.2266 -0.9488
 6835WAT    EPW28062   2.575   6.861   0.257  0.2192 -0.4331 -0.2104
 6836WAT      O28063   2.428   6.180   7.183  0.2999 -0.0547  0.0524
 6836WAT     H128064   2.394   6.163   7.262 -0.8006 -0.6808 -0.5340
 6836WAT     H228065   2.450   6.264   7.188  0.0276 -0.0269  0.9563
 6836WAT    EPW28066   2.426   6.190   7.195  0.0971 -0.1430  0.0993
 6837WAT      O28067   4.337   6.146   7.136  0.0360 -0.0691  0.2466
 6837WAT     H128068   4.264   6.106   7.162  0.2289 -0.9768 -0.5664
 6837WAT     H228069   4.319   6.231   7.146 -0.4258 -0.3247  1.8716
 6837WAT    EPW28070   4.324   6.153   7.142 -0.0037 -0.2409  0.3666
 6838WAT      O28071   2.251   6.054   7.013  0.0970  0.1645  0.0094
 6838WAT     H128072   2.286   6.003   6.951 -1.8284 -1.1634 -0.0738
 6838WAT     H228073   2.310   6.050   7.078  0.6446 -1.0786 -0.5221
 6838WAT    EPW28074   2.265   6.046   7.014 -0.1065 -0.2153 -0.0814
 6839WAT      O28075   2.735   4.081   6.077 -0.2212  0.3631 -0.7046
 6839WAT     H128076   2.730   4.020   6.015 -0.0048  1.2424 -1.6292
 6839WAT     H228077   2.654   4.113   6.080 -0.6330 -0.7448  0.6248
 6839WAT    EPW28078   2.722   4.077   6.068 -0.2500  0.3294 -0.6448
 6840WAT      O28079   1.590   7.100   0.270  0.1182  0.0335  0.3075
 6840WAT     H128080   1.506   7.113   0.252 -0.3181 -1.1843  1.3205
 6840WAT     H228081   1.589   7.043   0.336  1.7386 -1.3395 -0.7447
 6840WAT    EPW28082   1.578   7.093   0.277  0.2931 -0.3492  0.3017
 6841WAT      O28083   3.682   5.846   4.917  0.1097 -0.1674 -0.4786
 6841WAT     H128084   3.726   5.827   4.990  0.4044  0.7391 -0.4034
 6841WAT     H228085   3.745   5.876   4.863 -0.1910 -0.2982 -0.9081
 6841WAT    EPW28086   3.698   5.848   4.920  0.1088 -0.0528 -0.5309
 6842WAT      O28087   2.080   6.057   6.140 -0.3045 -0.5103 -0.0633
 6842WAT     H128088   2.028   6.065   6.210 -1.5150 -0.0492 -0.9775
 6842WAT     H228089   2.092   5.971   6.133 -1.7185 -0.7042 -0.3663
 6842WAT    EPW28090   2.074   6.046   6.149 -0.6922 -0.4709 -0.2431
 6843WAT      O28091   3.911   5.983   0.302  0.0751 -0.0580  1.0789
 6843WAT     H128092   3.842   6.034   0.290  0.4108 -0.1752 -2.0396
 6843WAT     H228093   3.974   6.038   0.328 -0.5460  0.4140  1.6129
 6843WAT    EPW28094   3.910   5.998   0.304  0.0329 -0.0056  0.6971
 6844WAT      O28095   2.934   0.166   4.990  0.3312 -0.4218  0.2506
 6844WAT     H128096   2.904   0.186   5.069  0.6866 -1.0447  0.5586
 6844WAT     H228097   3.020   0.182   4.997  0.2558  0.2021 -0.2352
 6844WAT    EPW28098   2.942   0.171   5.003  0.3725 -0.4217  0.2244
 6845WAT      O28099   4.353   6.153   6.261  0.6630  0.1613 -0.3794
 6845WAT     H128100   4.338   6.157   6.175  0.6461 -0.4682 -0.4098
 6845WAT     H228101   4.425   6.103   6.267  1.0285  0.7196 -0.0655
 6845WAT    EPW28102   4.362   6.146   6.249  0.7145  0.1508 -0.3375
 6846WAT      O28103   2.767   4.675   6.242 -0.5523  0.3588  0.2356
 6846WAT     H128104   2.850   4.675   6.217 -0.6701 -0.4074 -0.1850
 6846WAT     H228105   2.747   4.590   6.246 -1.4588  0.5404 -0.1736
 6846WAT    EPW28106   2.776   4.663   6.239 -0.7036  0.2724  0.1131
 6847WAT      O28107   2.105   7.402   6.957 -0.1911  0.0286 -0.2342
 6847WAT     H128108   2.143   7.351   7.017 -0.8145 -0.3944 -0.1835
 6847WAT     H228109   2.032   7.429   6.997 -0.0230  0.7259 -0.3719
 6847WAT    EPW28110   2.100   7.399   6.972 -0.2584  0.0691 -0.2471
 6848WAT      O28111   3.691   5.454   5.509  0.1814 -0.4445  0.0161
 6848WAT     H128112   3.620   5.472   5.462 -0.1739 -1.1836  0.2523
 6848WAT     H228113   3.753   5.443   5.450 -0.3866 -1.9442 -0.3520
 6848WAT    EPW28114   3.689   5.455   5.494  0.0450 -0.7752 -0.0034
 6849WAT      O28115   3.666   6.479   7.054  0.1271 -0.0529 -0.0091
 6849WAT     H128116   3.743   6.439   7.055 -0.2608 -0.8328 -0.3665
 6849WAT     H228117   3.657   6.508   7.136  1.0307  0.5236 -0.0987
 6849WAT    EPW28118   3.676   6.477   7.066  0.2033 -0.0829 -0.0752
 6850WAT      O28119   3.790   4.364   6.557 -0.5159 -0.3498 -0.1254
 6850WAT     H128120   3.788   4.415   6.487  0.1080  1.3537  1.0318
 6850WAT     H228121   3.868   4.325   6.552 -0.4210 -0.1379 -0.3031
 6850WAT    EPW28122   3.801   4.366   6.546 -0.4097 -0.0668  0.0193
 6851WAT      O28123   4.034   6.035   5.991  0.7745  0.2278 -0.1207
 6851WAT     H128124   4.022   6.039   5.904  0.2732  0.4977 -0.0422
 6851WAT     H228125   3.990   6.104   6.021  0.8231  0.0499  0.3646
 6851WAT    EPW28126   4.026   6.046   5.982  0.7076  0.2414 -0.0374
 6852WAT      O28127   3.203   5.249   7.239 -0.3980  0.0532 -0.1977
 6852WAT     H128128   3.202   5.205   7.314 -1.5419  1.4057  0.6347
 6852WAT     H228129   3.266   5.309   7.250 -1.7733  1.4500  0.4770
 6852WAT    EPW28130   3.212   5.252   7.252 -0.7702  0.4593  0.0249
 6853WAT      O28131   2.017   5.643   7.152 -0.3255 -0.2735 -0.4055
 6853WAT     H128132   2.104   5.637   7.156 -0.3370  0.2451  1.0805
 6853WAT     H228133   1.992   5.641   7.235 -1.9200 -2.4690 -0.8395
 6853WAT    EPW28134   2.026   5.642   7.165 -0.5627 -0.5212 -0.2501
 6854WAT      O28135   1.568   6.892   7.666 -0.1130 -0.2865  0.3739
 6854WAT     H128136   1.487   6.860   7.653  0.0871 -0.8846  0.5780
 6854WAT     H228137   1.572   6.959   7.610  0.0221 -1.6012 -1.2695
 6854WAT    EPW28138   1.556   6.897   7.656 -0.0635 -0.5690  0.1613
 6855WAT      O28139   2.905   4.156   5.625  0.3388  0.3909  0.4613
 6855WAT     H128140   2.922   4.150   5.539 -1.6444  0.2405  0.0129
 6855WAT     H228141   2.983   4.171   5.661  1.6377 -2.1143 -1.0830
 6855WAT    EPW28142   2.919   4.158   5.617  0.2377 -0.0014  0.1669
 6856WAT      O28143   3.955   6.371   7.025 -0.4627  0.0493  0.2457
 6856WAT     H128144   3.986   6.379   6.944  1.2545 -0.3800  0.8279
 6856WAT     H228145   3.962   6.286   7.041 -4.9595 -0.7580 -0.6743
 6856WAT    EPW28146   3.960   6.360   7.015 -0.8733 -0.1334  0.1958
 6857WAT      O28147   4.890   4.527   6.596  0.7240 -0.3295 -0.0087
 6857WAT     H128148   4.840   4.462   6.626  0.9463 -1.3716 -1.7666
 6857WAT     H228149   4.939   4.489   6.535  1.3031  1.3707 -0.6554
 6857WAT    EPW28150   4.890   4.512   6.591  0.8424 -0.2323 -0.3639
 6858WAT      O28151   2.293   4.589   6.536 -0.5745  0.6118  0.1333
 6858WAT     H128152   2.372   4.596   6.573 -1.4533  2.2931  1.8524
 6858WAT     H228153   2.294   4.510   6.501  1.0060 -0.4322  2.2916
 6858WAT    EPW28154   2.305   4.578   6.536 -0.4708  0.7059  0.7061
 6859WAT      O28155   3.799   6.276   0.079 -0.1715  0.1017 -0.2579
 6859WAT     H128156   3.768   6.195   0.065 -0.8588  0.5254 -1.2709
 6859WAT     H228157   3.749   6.326   0.028 -0.3106  1.2863  0.9951
 6859WAT    EPW28158   3.787   6.271   0.069 -0.2936  0.3392 -0.2225
 6860WAT      O28159   4.284   4.622   6.710  0.0289  0.1276 -0.2514
 6860WAT     H128160   4.357   4.599   6.752  0.3219  0.6323 -0.4720
 6860WAT     H228161   4.221   4.607   6.768  0.2599 -0.6848 -0.1921
 6860WAT    EPW28162   4.285   4.616   6.725  0.1063  0.0822 -0.2752
 6861WAT      O28163   4.224   6.073   5.249  0.2118 -0.5304 -0.4393
 6861WAT     H128164   4.154   6.109   5.212  1.5085  2.4215 -0.3357
 6861WAT     H228165   4.279   6.063   5.183  0.5517 -0.5138 -0.1594
 6861WAT    EPW28166   4.222   6.077   5.234  0.4535 -0.0919 -0.3827
 6862WAT      O28167   3.859   4.058   6.385  0.2938  0.2031 -0.0548
 6862WAT     H128168   3.834   3.999   6.326 -0.9918  0.5932  0.0777
 6862WAT     H228169   3.862   4.133   6.340 -1.4180  0.6396  0.5066
 6862WAT    EPW28170   3.856   4.061   6.370 -0.1490  0.3252  0.0477
 6863WAT      O28171   3.030   7.125   4.790 -0.1981  0.3928 -0.2009
 6863WAT     H128172   3.058   7.187   4.843 -0.9370  1.0274 -0.5362
 6863WAT     H228173   2.943   7.136   4.788 -0.1032  1.9980 -3.3595
 6863WAT    EPW28174   3.021   7.135   4.797 -0.2932  0.7237 -0.7171
 6864WAT      O28175   2.326   6.526   7.652 -0.3703 -0.4754 -0.1718
 6864WAT     H128176   2.272   6.593   7.638  0.2635 -0.3307 -2.3282
 6864WAT     H228177   2.312   6.474   7.583  1.8447 -0.6709 -0.5435
 6864WAT    EPW28178   2.316   6.528   7.640  0.0505 -0.4829 -0.5452
 6865WAT      O28179   1.449   5.823   0.175 -0.5267  0.4845  0.3642
 6865WAT     H128180   1.374   5.783   0.158 -0.4711 -0.0580  1.3415
 6865WAT     H228181   1.428   5.884   0.233 -0.3567  0.9315 -0.0316
 6865WAT    EPW28182   1.435   5.826   0.181 -0.4934  0.4704  0.4501
 6866WAT      O28183   2.438   5.895   7.437 -0.1238 -0.1250 -0.6683
 6866WAT     H128184   2.439   5.819   7.479  1.0893  0.0126 -0.4043
 6866WAT     H228185   2.514   5.932   7.460 -0.8505  1.3382 -0.4858
 6866WAT    EPW28186   2.449   5.889   7.447 -0.0520  0.1115 -0.6023
 6867WAT      O28187   2.769   5.367   7.185 -0.0113  0.4338  0.3526
 6867WAT     H128188   2.705   5.373   7.126  0.3395 -1.2432 -0.2619
 6867WAT     H228189   2.744   5.300   7.236  0.9830  0.1150  0.4426
 6867WAT    EPW28190   2.756   5.358   7.184  0.1874  0.1390  0.2751
 6868WAT      O28191   3.913   5.951   4.742 -1.1645 -0.0199 -0.1372
 6868WAT     H128192   3.947   5.914   4.671  0.9498 -1.0143  1.2973
 6868WAT     H228193   3.892   6.031   4.715 -2.4088 -1.0062 -2.3781
 6868WAT    EPW28194   3.915   5.957   4.727 -1.0360 -0.3125 -0.2564
 6869WAT      O28195   1.893   6.155   6.773  0.3358 -0.2271  0.5822
 6869WAT     H128196   1.928   6.212   6.717  0.3878  0.0961  0.9380
 6869WAT     H228197   1.848   6.206   6.828  1.9357 -0.3221  2.0652
 6869WAT    EPW28198   1.892   6.171   6.773  0.5798 -0.1934  0.8538
 6870WAT      O28199   3.062   4.824   0.561 -0.3675 -0.3069  0.1371
 6870WAT     H128200   3.063   4.737   0.572  1.0661 -0.2269  0.9443
 6870WAT     H228201   3.113   4.837   0.492 -1.6496 -0.1605 -0.8230
 6870WAT    EPW28202   3.069   4.813   0.553 -0.3451 -0.2735  0.1145
 6871WAT      O28203   3.612   6.227   6.792 -0.2608 -0.5795  0.9754
 6871WAT     H128204   3.638   6.297   6.746  1.8641  0.1556  3.0648
 6871WAT     H228205   3.624   6.161   6.737  4.5231 -0.0542  0.9337
 6871WAT    EPW28206   3.618   6.228   6.777  0.7598 -0.3933  1.2779
 6872WAT      O28207   0.853   5.704   6.049  0.2584 -0.3530  0.0059
 6872WAT     H128208   0.841   5.766   5.989  0.0977 -0.3489  0.0425
 6872WAT     H228209   0.938   5.710   6.068  0.2150 -0.0505  0.1104
 6872WAT    EPW28210   0.864   5.714   6.043  0.2282 -0.3077  0.0268
 6873WAT      O28211   2.692   5.096   6.733 -0.0293 -0.4559 -0.3804
 6873WAT     H128212   2.699   5.046   6.803  1.0743  0.0972 -0.0642
 6873WAT     H228213   2.754   5.065   6.679  1.9479  1.5996  0.5298
 6873WAT    EPW28214   2.702   5.084   6.735  0.4258 -0.0706 -0.1992
 6874WAT      O28215   0.765   5.561   6.728  0.3294 -0.1952 -0.3097
 6874WAT     H128216   0.720   5.567   6.654 -1.7129  0.0383  0.8930
 6874WAT     H228217   0.733   5.625   6.778  2.5136  0.4423  0.3943
 6874WAT    EPW28218   0.754   5.571   6.725  0.3504 -0.0666 -0.0280
 6875WAT      O28219   3.474   6.309   0.253 -0.0044 -0.7646  0.6976
 6875WAT     H128220   3.451   6.316   0.169  0.5372  2.4477  0.6866
 6875WAT     H228221   3.414   6.358   0.294  1.3713  0.0957  1.7746
 6875WAT    EPW28222   3.462   6.317   0.246  0.2788 -0.1630  0.8551
 6876WAT      O28223   2.355   4.521   7.197  0.4495 -0.2144  0.5617
 6876WAT     H128224   2.368   4.437   7.218 -2.2369 -1.2937 -1.5177
 6876WAT     H228225   2.401   4.531   7.124  0.1597 -0.1182  0.3916
 6876WAT    EPW28226   2.363   4.510   7.190  0.0098 -0.3596  0.2294
 6877WAT      O28227   2.120   4.957   5.517 -0.4334  0.1731  0.7114
 6877WAT     H128228   2.071   4.907   5.568 -0.2178 -1.0619 -0.2512
 6877WAT     H228229   2.082   4.950   5.439  1.1915 -0.7526 -0.0458
 6877WAT    EPW28230   2.107   4.949   5.513 -0.1615 -0.1461  0.4574
 6878WAT      O28231   1.264   4.685   6.489  0.3543  0.3710 -0.3188
 6878WAT     H128232   1.286   4.665   6.571  0.4812  0.9769 -0.2007
 6878WAT     H228233   1.222   4.761   6.497 -0.3197  0.0471 -0.7341
 6878WAT    EPW28234   1.261   4.693   6.502  0.2735  0.4126 -0.3627
 6879WAT      O28235   3.309   4.409   5.804 -0.6712 -0.1274  0.1656
 6879WAT     H128236   3.260   4.442   5.869 -1.7589  0.4132 -0.8976
 6879WAT     H228237   3.357   4.477   5.778 -1.5716  0.1831 -0.7850
 6879WAT    EPW28238   3.309   4.424   5.810 -0.9649 -0.0017 -0.1319
 6880WAT      O28239   2.954   7.350   0.222 -0.0560 -0.2744  0.0229
 6880WAT     H128240   3.004   7.408   0.264  0.4819 -1.9427  1.8151
 6880WAT     H228241   2.996   7.275   0.232 -1.4013 -1.2400 -1.0762
 6880WAT    EPW28242   2.967   7.348   0.229 -0.1752 -0.6635  0.1253
 6881WAT      O28243   2.395   5.534   6.876 -0.1987  0.7775 -0.4918
 6881WAT     H128244   2.410   5.588   6.810  1.0392 -0.8038 -1.5811
 6881WAT     H228245   2.315   5.504   6.861 -0.4382  1.4350 -0.5201
 6881WAT    EPW28246   2.386   5.537   6.864 -0.0512  0.6410 -0.6569
 6882WAT      O28247   1.587   6.945   0.534  0.6976 -0.5669 -0.2503
 6882WAT     H128248   1.565   6.954   0.618  1.0894  1.1043 -0.2937
 6882WAT     H228249   1.623   6.866   0.531 -0.2028 -1.0595  0.9411
 6882WAT    EPW28250   1.589   6.935   0.546  0.6224 -0.3928 -0.0807
 6883WAT      O28251   3.476   5.062   5.778  0.0126  0.1333 -0.3649
 6883WAT     H128252   3.389   5.070   5.775  0.1076  1.0399 -1.4744
 6883WAT     H228253   3.502   5.102   5.705  1.3095 -0.8783 -0.4839
 6883WAT    EPW28254   3.467   5.069   5.767  0.2182  0.1178 -0.5464
 6884WAT      O28255   3.739   6.674   6.867 -0.0786  0.0973  0.4330
 6884WAT     H128256   3.786   6.734   6.909  1.3344  0.3532 -1.4011
 6884WAT     H228257   3.709   6.623   6.931  2.2990  0.2111  1.7461
 6884WAT    EPW28258   3.741   6.676   6.883  0.4813  0.1519  0.3560
 6885WAT      O28259   1.795   4.438   7.419  0.4710 -0.3755  0.1155
 6885WAT     H128260   1.872   4.477   7.430 -0.2634  1.6543 -1.4603
 6885WAT     H228261   1.740   4.486   7.466 -0.1435 -0.6086 -0.3457
 6885WAT    EPW28262   1.798   4.451   7.427  0.2717 -0.1101 -0.1854
 6886WAT      O28263   3.951   6.707   0.020 -0.0909  0.2154 -0.6865
 6886WAT     H128264   3.993   6.638  -0.015 -0.0063  0.2073 -0.5706
 6886WAT     H228265   3.975   6.773  -0.031  0.7681  0.3729 -0.1090
 6886WAT    EPW28266   3.961   6.706   0.007  0.0485  0.2375 -0.5841
 6887WAT      O28267   4.342   6.723   0.567 -0.3437 -0.1580 -0.3309
 6887WAT     H128268   4.427   6.744   0.577 -0.2822  0.6104 -2.0576
 6887WAT     H228269   4.345   6.657   0.510 -0.8724 -0.5987  0.1567
 6887WAT    EPW28270   4.355   6.717   0.560 -0.4127 -0.1096 -0.5139
 6888WAT      O28271   3.332   4.448   7.058 -0.2790 -0.0698 -0.6439
 6888WAT     H128272   3.404   4.460   7.010 -0.5692 -0.8580 -1.2963
 6888WAT     H228273   3.270   4.435   6.999 -1.0918  1.1704 -0.1080
 6888WAT    EPW28274   3.334   4.448   7.042 -0.4419 -0.0030 -0.6611
 6889WAT      O28275   2.926   5.429   6.197  0.3635 -0.2163 -0.1518
 6889WAT     H128276   2.986   5.429   6.260 -0.5623 -0.8092  0.7518
 6889WAT     H228277   2.850   5.440   6.239 -0.3780 -1.5331 -1.0308
 6889WAT    EPW28278   2.923   5.430   6.212  0.1172 -0.4984 -0.1482
 6890WAT      O28279   3.850   5.870   6.617 -0.1361  0.2832  0.5231
 6890WAT     H128280   3.850   5.877   6.530 -1.3726 -0.5151  0.4237
 6890WAT     H228281   3.807   5.796   6.631 -1.3112  1.1504  1.8386
 6890WAT    EPW28282   3.843   5.860   6.606 -0.4924  0.2933  0.7027
 6891WAT      O28283   3.793   5.515   7.509 -0.2970 -0.6572  0.0635
 6891WAT     H128284   3.876   5.533   7.492 -0.7353 -0.1517 -1.7503
 6891WAT     H228285   3.755   5.594   7.512 -1.0631 -0.9362 -1.3053
 6891WAT    EPW28286   3.800   5.530   7.507 -0.4749 -0.6237 -0.4066
 6892WAT      O28287   1.285   0.271   7.456  0.2800 -0.1500  0.0196
 6892WAT     H128288   1.331   0.341   7.434 -1.8775  1.2276 -0.3824
 6892WAT     H228289   1.214   0.304   7.495  0.1867 -2.2136  1.8007
 6892WAT    EPW28290   1.281   0.286   7.459 -0.0525 -0.2513  0.2233
 6893WAT      O28291   4.246   5.954   6.613 -0.5024  0.0735 -0.0095
 6893WAT     H128292   4.212   5.874   6.600  0.7680 -0.4065 -0.5546
 6893WAT     H228293   4.328   5.946   6.584 -0.4960  1.7198 -0.5433
 6893WAT    EPW28294   4.253   5.941   6.607 -0.3138  0.2458 -0.1689
 6894WAT      O28295   3.031   4.219   6.576  0.2070  0.5463 -0.5664
 6894WAT     H128296   3.111   4.210   6.611  0.6652 -1.1099 -1.8552
 6894WAT     H228297   2.978   4.212   6.645  1.1436  1.9974  0.3676
 6894WAT    EPW28298   3.035   4.216   6.592  0.4130  0.5160 -0.6188
 6895WAT      O28299   1.785   5.859   6.174 -0.3038  0.3591  0.1083
 6895WAT     H128300   1.767   5.818   6.249 -0.2868  2.2547  1.1890
 6895WAT     H228301   1.856   5.816   6.144 -0.8242 -0.9675  0.6900
 6895WAT    EPW28302   1.793   5.846   6.180 -0.3782  0.4432  0.3539
 6896WAT      O28303   4.637   6.174   6.305  0.0980 -0.2151 -0.4984
 6896WAT     H128304   4.645   6.231   6.239 -1.7785  1.1551  0.3469
 6896WAT     H228305   4.698   6.114   6.289 -0.1301  0.1977 -3.3255
 6896WAT    EPW28306   4.648   6.174   6.293 -0.2129  0.0483 -0.7912
 6897WAT      O28307   2.705   6.777   5.527 -0.1059  0.1092 -0.1646
 6897WAT     H128308   2.651   6.759   5.461 -1.2913  0.3584  0.7027
 6897WAT     H228309   2.778   6.733   5.506 -0.8648 -0.7792 -1.0461
 6897WAT    EPW28310   2.708   6.768   5.514 -0.3931  0.0148 -0.1667
 6898WAT      O28311   2.295   0.575   4.632  0.2508  0.0630 -0.1068
 6898WAT     H128312   2.281   0.512   4.692  0.2957  0.3085  0.1642
 6898WAT     H228313   2.378   0.597   4.645  0.0519  0.6213  0.2249
 6898WAT    EPW28314   2.306   0.569   4.643  0.2281  0.1817 -0.0178
 6899WAT      O28315   3.237   6.440   7.252 -0.5399 -0.2172 -0.2959
 6899WAT     H128316   3.274   6.448   7.174  0.4582 -0.8907  0.0782
 6899WAT     H228317   3.289   6.487   7.304 -0.8520 -0.2640  0.0601
 6899WAT    EPW28318   3.250   6.448   7.248 -0.4386 -0.3236 -0.1880
 6900WAT      O28319   2.507   7.025   7.043 -0.2159 -0.5037  0.3556
 6900WAT     H128320   2.537   7.105   7.063 -0.0889 -0.4131 -0.1728
 6900WAT     H228321   2.456   7.040   6.974 -1.1640 -0.7155  0.9944
 6900WAT    EPW28322   2.504   7.039   7.035 -0.3372 -0.5216  0.3719
 6901WAT      O28323   3.051   6.191   7.662 -0.1363 -0.0925  0.2859
 6901WAT     H128324   2.988   6.135   7.683 -0.9049 -0.5927 -2.9617
 6901WAT     H228325   3.038   6.258   7.717 -1.7186 -1.3228  1.5218
 6901WAT    EPW28326   3.040   6.192   7.673 -0.4835 -0.3481 -0.0112
 6902WAT      O28327   4.437   4.831   0.785 -0.0764  0.1090 -0.3916
 6902WAT     H128328   4.520   4.808   0.797  0.0649  1.8343  2.8507
 6902WAT     H228329   4.442   4.914   0.758 -0.7081  0.5851  0.8714
 6902WAT    EPW28330   4.450   4.840   0.782 -0.1489  0.4342  0.2740
 6903WAT      O28331   2.575   5.090   5.721  0.1619  0.3445 -0.2271
 6903WAT     H128332   2.505   5.141   5.709  0.2957 -0.0244 -3.5995
 6903WAT     H228333   2.640   5.148   5.733 -0.2709  0.7819  0.0874
 6903WAT    EPW28334   2.574   5.106   5.721  0.1178  0.3546 -0.6788
 6904WAT      O28335   3.046   6.126   6.391  0.0588  0.0261 -0.3788
 6904WAT     H128336   3.100   6.070   6.351  0.5793  0.4032 -0.2239
 6904WAT     H228337   3.012   6.079   6.456  0.3591 -0.1584 -0.3540
 6904WAT    EPW28338   3.049   6.111   6.394  0.1800  0.0546 -0.3522
 6905WAT      O28339   3.098   3.774   5.877 -0.2621  0.0670  0.3010
 6905WAT     H128340   3.104   3.814   5.800 -1.7163 -0.5062 -0.1415
 6905WAT     H228341   3.111   3.839   5.934 -1.0708  0.9040 -0.4186
 6905WAT    EPW28342   3.101   3.790   5.874 -0.5964  0.1059  0.1293
 6906WAT      O28343   3.519   6.784   6.006  0.2824  0.0629 -0.5367
 6906WAT     H128344   3.482   6.771   5.928  1.3364 -1.2699 -0.8630
 6906WAT     H228345   3.528   6.870   6.011 -0.2738  0.2054 -1.6693
 6906WAT    EPW28346   3.515   6.795   5.995  0.3560 -0.1129 -0.7522
 6907WAT      O28347   1.691   5.690   6.379  0.5073 -0.4333 -0.2801
 6907WAT     H128348   1.649   5.634   6.327  1.4638 -1.3349 -0.1237
 6907WAT     H228349   1.691   5.649   6.456  1.5859 -0.4283 -0.2622
 6907WAT    EPW28350   1.685   5.675   6.383  0.8079 -0.5657 -0.2543
 6908WAT      O28351   2.232   4.017   6.117  0.4374  0.3669  0.0792
 6908WAT     H128352   2.263   4.061   6.186  0.9680 -0.5858  0.4700
 6908WAT     H228353   2.301   3.971   6.089 -0.1793 -0.4984 -0.0705
 6908WAT    EPW28354   2.247   4.016   6.123  0.4247  0.0984  0.1148
 6909WAT      O28355   2.484   5.124   6.404 -0.0470 -0.6282  0.3615
 6909WAT     H128356   2.479   5.187   6.463  1.9473 -0.7635  0.7505
 6909WAT     H228357   2.483   5.051   6.452 -1.2088 -0.8820 -0.0081
 6909WAT    EPW28358   2.483   5.122   6.420  0.0760 -0.6857  0.3643
 6910WAT      O28359   2.983   4.827   7.477  0.0555 -0.3743  0.2263
 6910WAT     H128360   2.997   4.905   7.513  0.1031 -0.4093  0.2839
 6910WAT     H228361   2.918   4.841   7.421 -0.7245 -0.5379  1.0731
 6910WAT    EPW28362   2.976   4.841   7.474 -0.0527 -0.4036  0.3599
 6911WAT      O28363   1.069   3.778   7.847  0.4655  0.1793  0.0637
 6911WAT     H128364   1.035   3.722   7.905 -1.7392  1.5635  0.2484
 6911WAT     H228365   1.111   3.726   7.791 -0.6768 -1.5927  0.7372
 6911WAT    EPW28366   1.070   3.762   7.847 -0.0289  0.1220  0.1905
 6912WAT      O28367   2.367   4.786   6.346 -0.0327 -0.0681 -0.3915
 6912WAT     H128368   2.299   4.735   6.364 -0.7673  1.4395  1.4241
 6912WAT     H228369   2.411   4.741   6.286 -0.1947 -3.1558  1.6136
 6912WAT    EPW28370   2.363   4.772   6.339 -0.1651 -0.3015  0.1729
 6913WAT      O28371   3.119   7.138   5.581  0.6369 -0.1536  0.2386
 6913WAT     H128372   3.187   7.085   5.568  0.2329 -0.5777 -0.1427
 6913WAT     H228373   3.064   7.090   5.630 -1.2019 -1.3550 -2.7456
 6913WAT    EPW28374   3.121   7.123   5.587  0.3056 -0.3937 -0.2586
 6914WAT      O28375   3.401   5.661   6.294  0.1373 -0.3852  0.1822
 6914WAT     H128376   3.356   5.734   6.277 -1.7311 -0.9189  2.3133
 6914WAT     H228377   3.477   5.674   6.254 -1.1897  1.4434 -1.9976
 6914WAT    EPW28378   3.405   5.674   6.286 -0.3347 -0.1939  0.1750
 6915WAT      O28379   2.634   5.452   6.237  0.9666 -0.0527  0.2625
 6915WAT     H128380   2.556   5.480   6.266  1.4516  1.9832 -0.2629
 6915WAT     H228381   2.613   5.397   6.173 -0.0677  1.1666 -0.4959
 6915WAT    EPW28382   2.619   5.448   6.232  0.8855  0.4281  0.0728
 6916WAT      O28383   1.727   6.735   7.832 -0.3464  0.1539  0.1846
 6916WAT     H128384   1.697   6.804   7.789 -0.2231 -0.8471 -1.6380
 6916WAT     H228385   1.768   6.769   7.901  0.5935  1.9572 -1.1926
 6916WAT    EPW28386   1.729   6.750   7.836 -0.1894  0.2724 -0.2880
 6917WAT      O28387   3.345   6.268   7.835 -0.0351 -0.7248  0.0843
 6917WAT     H128388   3.387   6.343   7.820 -2.3861  0.5838 -0.3998
 6917WAT     H228389   3.353   6.224   7.760  0.2674 -0.3990 -0.0760
 6917WAT    EPW28390   3.353   6.273   7.822 -0.3377 -0.4834 -0.0109
 6918WAT      O28391   3.856   7.569   5.847 -0.1524  0.1402  0.3668
 6918WAT     H128392   3.890   7.535   5.920 -1.0561 -0.6440  0.4488
 6918WAT     H228393   3.858   7.502   5.791  1.3124  0.9670 -0.6250
 6918WAT    EPW28394   3.861   7.554   5.850 -0.0695  0.1465  0.2324
 6919WAT      O28395   3.823   4.572   6.365 -0.3490  0.6309  0.2416
 6919WAT     H128396   3.816   4.600   6.283  1.2260  0.0679 -0.1190
 6919WAT     H228397   3.904   4.593   6.388 -0.8551  1.0591  1.7835
 6919WAT    EPW28398   3.834   4.579   6.356 -0.1911  0.6110  0.4161
 6920WAT      O28399   4.509   4.680   7.599 -0.3690 -0.1183  0.1064
 6920WAT     H128400   4.514   4.651   7.516  2.1197  1.9074 -0.6064
 6920WAT     H228401   4.459   4.752   7.592 -1.0035 -0.5143  0.5653
 6920WAT    EPW28402   4.502   4.687   7.585 -0.0951  0.1225  0.0689
 6921WAT      O28403   2.314   4.778   6.976 -0.2187 -0.6233  0.1113
 6921WAT     H128404   2.251   4.814   7.023 -0.1204 -1.4730  0.9217
 6921WAT     H228405   2.324   4.833   6.909 -1.9954 -0.6160 -0.1852
 6921WAT    EPW28406   2.306   4.792   6.973 -0.4666 -0.7477  0.1872
 6922WAT      O28407   3.818   6.229   6.310 -0.2835  0.1652 -0.1126
 6922WAT     H128408   3.802   6.150   6.344 -0.4419  0.3177  0.1698
 6922WAT     H228409   3.739   6.265   6.302 -0.0814  1.6169  2.9749
 6922WAT    EPW28410   3.804   6.223   6.314 -0.2770  0.4022  0.3852
 6923WAT      O28411   4.353   6.722   7.142  0.4443  0.2852 -0.9385
 6923WAT     H128412   4.341   6.739   7.058  0.9837  0.0883 -1.0585
 6923WAT     H228413   4.440   6.715   7.150  0.3704 -0.1683 -0.4604
 6923WAT    EPW28414   4.364   6.724   7.131  0.5131  0.1891 -0.8856
 6924WAT      O28415   4.502   5.204   0.168  0.1107 -0.5408  0.2268
 6924WAT     H128416   4.544   5.152   0.112 -2.0675 -1.7715 -0.3498
 6924WAT     H228417   4.534   5.283   0.150  2.5413 -1.4151  0.2128
 6924WAT    EPW28418   4.513   5.208   0.157  0.1480 -0.8518  0.1396
 6925WAT      O28419   1.885   5.439   5.420 -0.1478  0.0863  0.1457
 6925WAT     H128420   1.939   5.454   5.486 -0.4695  0.5975  0.3006
 6925WAT     H228421   1.822   5.499   5.431 -1.4636 -1.3557  0.7393
 6925WAT    EPW28422   1.884   5.450   5.431 -0.3897 -0.0512  0.2563
 6926WAT      O28423   3.462   5.894   6.664 -0.0444  0.2482 -0.0946
 6926WAT     H128424   3.470   5.902   6.751 -3.9511  0.9026  0.3872
 6926WAT     H228425   3.405   5.829   6.655  0.0213  0.4177 -2.1652
 6926WAT    EPW28426   3.455   5.886   6.675 -0.6118  0.3699 -0.3293
 6927WAT      O28427   3.997   6.396   0.656  0.3824  0.3688  0.2481
 6927WAT     H128428   4.083   6.401   0.644  0.4582  0.2760  0.7317
 6927WAT     H228429   3.969   6.477   0.639  0.1741 -0.2337 -2.7459
 6927WAT    EPW28430   4.006   6.409   0.652  0.3628  0.2661 -0.1227
 6928WAT      O28431   2.863   5.070   5.506  0.4175  0.0593 -0.3593
 6928WAT     H128432   2.890   5.040   5.428  2.0911 -2.2552  0.9710
 6928WAT     H228433   2.801   5.012   5.529  1.5620 -0.6989  0.9615
 6928WAT    EPW28434   2.858   5.057   5.498  0.8338 -0.3946  0.0323
 6929WAT      O28435   1.867   5.096   6.815  0.2654 -0.0852  0.4127
 6929WAT     H128436   1.846   5.177   6.791  0.0080  0.1096  1.2745
 6929WAT     H228437   1.929   5.073   6.758  1.4392  1.2653  1.0910
 6929WAT    EPW28438   1.873   5.104   6.803  0.4008  0.1431  0.6402
 6930WAT      O28439   2.662   5.980   6.910 -0.0739 -0.1002  0.1379
 6930WAT     H128440   2.651   6.066   6.919 -2.3035 -0.2060 -0.9318
 6930WAT     H228441   2.616   5.946   6.977  0.5982 -0.4899  0.4181
 6930WAT    EPW28442   2.654   5.987   6.921 -0.3040 -0.1734  0.0213
 6931WAT      O28443   3.547   5.186   5.531 -0.0001 -0.2840  0.6509
 6931WAT     H128444   3.596   5.257   5.517  1.7585 -1.3239  1.2664
 6931WAT     H228445   3.502   5.178   5.456  3.7841 -1.5401 -1.7938
 6931WAT    EPW28446   3.548   5.196   5.518  0.8187 -0.6232  0.3807
 6932WAT      O28447   0.739   6.041   6.465  0.2909  1.0194 -0.0380
 6932WAT     H128448   0.658   6.036   6.432 -0.3831 -0.1459  1.6252
 6932WAT     H228449   0.789   6.057   6.396 -1.2606  0.7559 -1.2709
 6932WAT    EPW28450   0.734   6.042   6.450 -0.0378  0.8083  0.0256
 6933WAT      O28451   2.446   7.464   5.712  0.3654 -0.4009  0.3104
 6933WAT     H128452   2.387   7.468   5.776 -1.6464 -1.2380 -1.3632
 6933WAT     H228453   2.464   7.378   5.706 -0.7795 -0.5828 -1.2633
 6933WAT    EPW28454   2.440   7.452   5.720 -0.1009 -0.5515 -0.1693
 6934WAT      O28455   3.156   5.436   6.414  0.0220  0.3347 -0.5318
 6934WAT     H128456   3.179   5.367   6.462 -0.6729 -0.7974 -1.7665
 6934WAT     H228457   3.221   5.443   6.356  1.1600  2.0582  0.8274
 6934WAT    EPW28458   3.169   5.427   6.413  0.0875  0.4220 -0.5134
 6935WAT      O28459   1.920   5.695   6.834  0.1498 -0.0744 -0.1654
 6935WAT     H128460   1.962   5.771   6.827  0.8514 -0.3695  0.6491
 6935WAT     H228461   1.879   5.701   6.911 -0.6657 -0.1120 -0.5830
 6935WAT    EPW28462   1.920   5.707   6.844  0.1330 -0.1236 -0.1068
 6936WAT      O28463   4.085   5.581   0.462  0.1382  0.2279  0.5813
 6936WAT     H128464   4.029   5.647   0.468 -0.7968 -0.4595 -0.3410
 6936WAT     H228465   4.035   5.513   0.437  1.2340 -0.5923  0.5320
 6936WAT    EPW28466   4.069   5.581   0.459  0.1620  0.0052  0.4378
 6937WAT      O28467   2.888   6.350   6.526  0.2445  0.1216  0.4035
 6937WAT     H128468   2.877   6.408   6.461 -0.5026 -0.8070 -0.3269
 6937WAT     H228469   2.958   6.304   6.501  1.5099  1.3511  1.5097
 6937WAT    EPW28470   2.897   6.352   6.513  0.3211  0.1661  0.4590
 6938WAT      O28471   2.930   6.405   7.438 -0.5192  0.4932  0.4892
 6938WAT     H128472   2.859   6.443   7.471 -0.4803 -0.0445  1.2268
 6938WAT     H228473   2.958   6.354   7.503  0.2598  0.3191  0.0364
 6938WAT    EPW28474   2.924   6.403   7.453 -0.3983  0.3881  0.5312
 6939WAT      O28475   2.461   5.497   7.300  0.4975 -0.0720  0.6263
 6939WAT     H128476   2.540   5.529   7.317 -0.0734  1.1274  1.1245
 6939WAT     H228477   2.430   5.550   7.239  0.6383 -1.4536 -0.7082
 6939WAT    EPW28478   2.468   5.509   7.294  0.4340 -0.0989  0.5027
 6940WAT      O28479   2.973   4.629   6.534  0.6544 -0.4082  0.0339
 6940WAT     H128480   3.018   4.703   6.550  0.8607 -0.1665 -1.5428
 6940WAT     H228481   2.973   4.588   6.611  1.3998  0.7732  0.6879
 6940WAT    EPW28482   2.980   4.634   6.548  0.7950 -0.1980 -0.1024
 6941WAT      O28483   3.701   5.789   7.500  0.1709 -0.6750 -0.5673
 6941WAT     H128484   3.638   5.809   7.442  0.2696  1.5495  0.0077
 6941WAT     H228485   3.755   5.856   7.496  0.5620 -0.7788  1.5994
 6941WAT    EPW28486   3.699   5.802   7.491  0.2433 -0.3618 -0.1623
 6942WAT      O28487   2.672   4.751   0.550  0.1338 -0.7861 -0.2118
 6942WAT     H128488   2.709   4.762   0.628 -0.3077 -0.6686 -0.0211
 6942WAT     H228489   2.718   4.685   0.515  1.2505  0.0693 -0.4164
 6942WAT    EPW28490   2.685   4.743   0.556  0.2335 -0.6424 -0.2138
 6943WAT      O28491   3.995   7.028   0.116  0.1562 -0.9742 -0.3064
 6943WAT     H128492   4.052   7.077   0.161 -2.4108 -0.4473  2.7968
 6943WAT     H228493   4.003   6.949   0.153 -0.1045 -1.2624 -0.8621
 6943WAT    EPW28494   4.004   7.023   0.128 -0.2615 -0.9389  0.0700
 6944WAT      O28495   2.698   4.789   5.065 -0.0093 -0.0897 -0.1246
 6944WAT     H128496   2.751   4.820   5.003  0.8681  1.1989  1.1892
 6944WAT     H228497   2.721   4.705   5.071  0.4697 -0.0286 -0.9753
 6944WAT    EPW28498   2.709   4.781   5.057  0.1911  0.1097 -0.0562
 6945WAT      O28499   3.636   2.864   6.601 -0.0139  0.1815 -0.1720
 6945WAT     H128500   3.603   2.902   6.672 -1.7510 -1.2056 -0.1445
 6945WAT     H228501   3.566   2.829   6.562  1.3176 -2.5467 -0.3960
 6945WAT    EPW28502   3.621   2.864   6.606 -0.0738 -0.4264 -0.2010
 6946WAT      O28503   2.796   5.986   5.600  1.0643 -0.4235 -0.6189
 6946WAT     H128504   2.876   5.960   5.577  0.6151 -0.7735 -1.8896
 6946WAT     H228505   2.748   5.913   5.593  0.3346  0.1178 -1.4557
 6946WAT    EPW28506   2.801   5.971   5.595  0.8901 -0.3952 -0.9302
 6947WAT      O28507   2.571   0.088   4.147  0.5006 -0.7194  0.4855
 6947WAT     H128508   2.637   0.119   4.100  0.1987 -1.1845 -0.2620
 6947WAT     H228509   2.550   0.013   4.106  0.1921 -1.1043  1.3211
 6947WAT    EPW28510   2.578   0.081   4.134  0.4104 -0.8450  0.4985
 6948WAT      O28511   3.205   5.450   6.724  0.5994 -0.5757  0.3488
 6948WAT     H128512   3.124   5.419   6.709  0.2626 -0.0357  0.9990
 6948WAT     H228513   3.190   5.523   6.770  1.3852  0.3505 -0.8257
 6948WAT    EPW28514   3.191   5.457   6.728  0.6657 -0.3591  0.2714
 6949WAT      O28515   1.731   5.939   6.864 -0.1892 -0.1607  0.1490
 6949WAT     H128516   1.668   5.948   6.805  0.2073  1.5867 -0.0539
 6949WAT     H228517   1.789   6.000   6.843  1.8967 -2.0323  0.0020
 6949WAT    EPW28518   1.730   5.949   6.852  0.1775 -0.1790  0.0973
 6950WAT      O28519   2.280   5.568   7.816  0.1231  0.3165  0.3903
 6950WAT     H128520   2.259   5.649   7.841 -2.0131 -0.0446 -0.0329
 6950WAT     H228521   2.212   5.520   7.843  0.3685 -0.9864 -1.1646
 6950WAT    EPW28522   2.267   5.573   7.824 -0.1562  0.0707  0.0981
 6951WAT      O28523   2.972   3.339   6.893 -0.7495 -0.3292 -0.1069
 6951WAT     H128524   3.026   3.313   6.956 -0.0009  1.1210 -0.1044
 6951WAT     H228525   2.893   3.313   6.921 -0.4054  0.0808  1.3065
 6951WAT    EPW28526   2.968   3.331   6.907 -0.5880 -0.0544  0.1023
 6952WAT      O28527   2.572   5.690   6.534  0.3872 -0.2407 -0.2397
 6952WAT     H128528   2.613   5.755   6.575  0.6973 -0.8404  0.4372
 6952WAT     H228529   2.621   5.620   6.554 -2.2190 -1.4663  2.6498
 6952WAT    EPW28530   2.585   5.689   6.543  0.0480 -0.5104  0.2871
 6953WAT      O28531   2.048   6.173   5.891 -0.2101 -0.3935  0.3275
 6953WAT     H128532   2.070   6.135   5.966  1.7504 -2.2202 -1.0675
 6953WAT     H228533   2.116   6.224   5.873 -0.3829 -0.4452 -0.5055
 6953WAT    EPW28534   2.061   6.175   5.900  0.0540 -0.6710 -0.0016
 6954WAT      O28535   4.358   6.014   0.299 -0.2980  0.0322  0.1847
 6954WAT     H128536   4.297   6.053   0.251 -0.2664  0.7121  0.6787
 6954WAT     H228537   4.433   6.049   0.271 -0.1074 -0.8494 -0.4689
 6954WAT    EPW28538   4.360   6.025   0.288 -0.2651  0.0024  0.1611
 6955WAT      O28539   4.297   5.973   5.881  0.0516  0.1901  0.1074
 6955WAT     H128540   4.241   5.991   5.945  1.5832 -1.0130  1.8967
 6955WAT     H228541   4.355   6.038   5.885 -0.6266  0.8923 -1.0664
 6955WAT    EPW28542   4.297   5.985   5.891  0.1777  0.1161  0.1983
 6956WAT      O28543   2.710   5.724   0.775  0.5012  0.4350  0.0160
 6956WAT     H128544   2.708   5.762   0.854 -0.4111  1.5734 -0.5240
 6956WAT     H228545   2.791   5.691   0.770  0.4874  0.1326  1.5178
 6956WAT    EPW28546   2.722   5.725   0.786  0.3644  0.5585  0.1581
 6957WAT      O28547   1.288   5.981   7.489  0.1015  0.1613  0.2427
 6957WAT     H128548   1.324   6.060   7.481 -2.5831  1.4311 -0.2569
 6957WAT     H228549   1.257   5.980   7.570  1.5315 -1.0703  0.8075
 6957WAT    EPW28550   1.289   5.992   7.499 -0.0838  0.1669  0.2524
 6958WAT      O28551   1.694   4.860   7.801 -0.1119  0.0449  0.8946
 6958WAT     H128552   1.690   4.830   7.883 -2.2447  0.0627  0.8415
 6958WAT     H228553   1.654   4.937   7.805  1.2827  0.8449  0.1302
 6958WAT    EPW28554   1.688   4.867   7.814 -0.2209  0.1657  0.7739
 6959WAT      O28555   2.475   6.624   0.109  0.4905  0.3775 -0.5359
 6959WAT     H128556   2.539   6.667   0.149  0.1031 -0.8596  1.5744
 6959WAT     H228557   2.422   6.688   0.082 -0.0143  1.3669  2.3819
 6959WAT    EPW28558   2.476   6.640   0.111  0.3587  0.3409  0.2069
 6960WAT      O28559   3.985   0.329   6.377  0.0409  0.1410  0.4473
 6960WAT     H128560   3.947   0.294   6.447 -0.0965 -0.7577 -0.0724
 6960WAT     H228561   3.936   0.399   6.360  1.2779  1.6415  2.4961
 6960WAT    EPW28562   3.972   0.334   6.385  0.2033  0.2299  0.6732
 6961WAT      O28563   1.709   5.898   7.340  0.1941 -0.0791  0.3695
 6961WAT     H128564   1.758   5.967   7.361  1.2553 -0.2676 -1.2610
 6961WAT     H228565   1.738   5.836   7.394  0.4860  0.2838  0.6415
 6961WAT    EPW28566   1.720   5.899   7.351  0.3940 -0.0533  0.1688
 6962WAT      O28567   0.857   5.987   6.817 -0.3090 -1.2772  0.5438
 6962WAT     H128568   0.853   6.013   6.900  0.2252 -2.8580  1.0935
 6962WAT     H228569   0.807   5.915   6.815  1.0440 -2.2524 -0.0832
 6962WAT    EPW28570   0.849   5.980   6.829 -0.0303 -1.6548  0.5324
 6963WAT      O28571   1.599   4.519   0.524 -0.5731  0.0837 -0.4737
 6963WAT     H128572   1.546   4.589   0.519  0.6385  1.0013 -0.8747
 6963WAT     H228573   1.626   4.519   0.607 -1.2604 -0.4542 -0.2376
 6963WAT    EPW28574   1.595   4.529   0.535 -0.4957  0.1398 -0.4980
 6964WAT      O28575   2.459   5.865   4.929 -0.0676  0.0136  0.3095
 6964WAT     H128576   2.522   5.815   4.961  1.4556  1.4969 -0.2111
 6964WAT     H228577   2.501   5.938   4.906 -1.6769  0.3978 -1.6707
 6964WAT    EPW28578   2.475   5.869   4.930 -0.0803  0.2895 -0.0599
 6965WAT      O28579   4.196   5.787   6.270 -0.2857  0.0819  0.1311
 6965WAT     H128580   4.152   5.857   6.297 -1.4127  0.0650 -1.5211
 6965WAT     H228581   4.156   5.720   6.310 -0.2470  0.2356  0.4332
 6965WAT    EPW28582   4.184   5.787   6.280 -0.4465  0.1021 -0.0684
 6966WAT      O28583   1.766   5.227   7.586  0.3319  0.6198 -0.6027
 6966WAT     H128584   1.741   5.300   7.628 -0.8699  0.7221 -1.4307
 6966WAT     H228585   1.816   5.185   7.644  0.1745  1.6050  0.2625
 6966WAT    EPW28586   1.770   5.232   7.601  0.1311  0.7805 -0.5972
 6967WAT      O28587   3.474   4.480   6.343  0.0528  0.3292 -0.7102
 6967WAT     H128588   3.407   4.449   6.390  0.5198  0.1436 -0.1482
 6967WAT     H228589   3.525   4.517   6.403 -0.0426  1.3840 -1.2589
 6967WAT    EPW28590   3.471   4.481   6.359  0.1077  0.4576 -0.7083
 6968WAT      O28591   2.504   5.378   7.787  0.2625 -0.0974  0.8402
 6968WAT     H128592   2.486   5.358   7.704  2.2832  2.0194 -0.2270
 6968WAT     H228593   2.444   5.438   7.806 -0.3380 -0.7400  1.0071
 6968WAT    EPW28594   2.493   5.384   7.777  0.4723  0.1204  0.7072
 6969WAT      O28595   3.489   5.958   5.580  0.1568  0.6339 -0.3408
 6969WAT     H128596   3.523   5.909   5.644 -0.7127  1.1676  0.5471
 6969WAT     H228597   3.538   5.937   5.510  1.6470  0.6283  0.6570
 6969WAT    EPW28598   3.501   5.948   5.579  0.2485  0.7119 -0.0622
 6970WAT      O28599   3.312   6.967   7.043  0.0833 -0.4144  0.0402
 6970WAT     H128600   3.354   6.951   7.118  1.2130 -0.3801 -0.5572
 6970WAT     H228601   3.229   6.974   7.067  0.5133  0.4707  1.4304
 6970WAT    EPW28602   3.306   6.966   7.057  0.3137 -0.2786  0.1573
 6971WAT      O28603   2.955   6.084   7.014 -0.1443  0.0268 -0.0042
 6971WAT     H128604   3.017   6.104   6.956 -0.9677  0.7590 -0.6643
 6971WAT     H228605   2.882   6.117   6.978 -0.7934 -0.1525  1.0988
 6971WAT    EPW28606   2.954   6.092   7.000 -0.3618  0.1085  0.0612
 6972WAT      O28607   1.713   5.616   6.638  0.0182 -0.0962 -0.5643
 6972WAT     H128608   1.771   5.631   6.701 -0.2313 -0.6270 -0.2019
 6972WAT     H228609   1.636   5.618   6.680 -0.2401  0.6494 -1.0455
 6972WAT    EPW28610   1.710   5.618   6.654 -0.0568 -0.0645 -0.5819
 6973WAT      O28611   4.485   6.562   7.635 -0.0408  0.2292 -0.4487
 6973WAT     H128612   4.418   6.618   7.642 -0.6144 -0.3948 -0.7610
 6973WAT     H228613   4.481   6.516   7.708 -1.8341 -1.7788 -1.6798
 6973WAT    EPW28614   4.474   6.563   7.647 -0.3905 -0.1596 -0.6767
 6974WAT      O28615   3.836   6.910   5.746  0.2622  0.3893 -0.1842
 6974WAT     H128616   3.811   6.826   5.747  1.7454 -0.0711 -0.2728
 6974WAT     H228617   3.840   6.932   5.830  0.3679  0.2283 -0.1485
 6974WAT    EPW28618   3.833   6.901   5.758  0.4969  0.2975 -0.1920
 6975WAT      O28619   2.183   6.988   6.086  0.5298 -0.5259  0.6558
 6975WAT     H128620   2.173   7.074   6.087  1.0184 -0.4412 -0.3757
 6975WAT     H228621   2.116   6.958   6.133  0.1364  0.3913  0.6825
 6975WAT    EPW28622   2.172   6.996   6.093  0.5439 -0.3779  0.5074
 6976WAT      O28623   3.089   4.469   5.588 -0.4832 -0.2456 -0.7149
 6976WAT     H128624   3.154   4.465   5.645  0.7381  0.5701 -1.9931
 6976WAT     H228625   3.110   4.410   5.528 -0.4907  0.5740 -1.5419
 6976WAT    EPW28626   3.101   4.460   5.588 -0.3039 -0.0040 -1.0259
 6977WAT      O28627   3.026   4.774   5.964 -0.3784 -0.7487 -0.2700
 6977WAT     H128628   2.993   4.854   5.979  0.2476 -0.8356  1.9679
 6977WAT     H228629   3.079   4.786   5.896 -0.0743  0.8233  0.2082
 6977WAT    EPW28630   3.029   4.788   5.956 -0.2410 -0.5293  0.1312
 6978WAT      O28631   4.244   5.824   7.483 -0.0145  0.0817 -0.0277
 6978WAT     H128632   4.272   5.836   7.565 -0.6928 -0.1727  0.2442
 6978WAT     H228633   4.177   5.769   7.492  0.4044 -0.5794 -0.8365
 6978WAT    EPW28634   4.238   5.818   7.497 -0.0528 -0.0535 -0.1070
 6979WAT      O28635   4.046   5.637   7.554  0.1705 -0.0208 -0.3814
 6979WAT     H128636   4.066   5.595   7.628  0.6254  0.4368 -0.2380
 6979WAT     H228637   3.997   5.703   7.582  0.0827 -0.0262 -0.5242
 6979WAT    EPW28638   4.042   5.641   7.569  0.2247  0.0460 -0.3813
 6980WAT      O28639   1.664   5.466   6.960  0.3474  0.2994  0.2074
 6980WAT     H128640   1.750   5.453   6.962  0.5476  1.2975 -0.8249
 6980WAT     H228641   1.654   5.547   6.992 -0.2017  0.2215  0.2529
 6980WAT    EPW28642   1.675   5.476   6.965  0.2959  0.4353  0.0616
 6981WAT      O28643   4.600   5.757   0.024  0.2381 -0.2688  0.7487
 6981WAT     H128644   4.608   5.701  -0.042  0.0182 -0.9985  1.3291
 6981WAT     H228645   4.587   5.706   0.093  3.3343  0.2931  1.8937
 6981WAT    EPW28646   4.599   5.741   0.024  0.6630 -0.2936  1.0036
 6982WAT      O28647   2.044   4.725   6.255 -0.1925  0.0140 -0.6295
 6982WAT     H128648   1.964   4.744   6.284 -0.1719 -0.8728  0.0395
 6982WAT     H228649   2.083   4.803   6.251 -1.2554  0.5246 -1.5204
 6982WAT    EPW28650   2.038   4.740   6.258 -0.3465 -0.0416 -0.6623
 6983WAT      O28651   3.981   6.520   4.069 -0.1032  0.1372  0.9647
 6983WAT     H128652   4.038   6.567   4.116 -1.2208  1.0339  1.4705
 6983WAT     H228653   3.907   6.566   4.075 -0.6874 -0.5797 -0.3451
 6983WAT    EPW28654   3.978   6.534   4.077 -0.3546  0.1637  0.8459
 6984WAT      O28655   2.395   5.517   1.010  0.4670 -0.3208 -0.0796
 6984WAT     H128656   2.431   5.438   1.000  0.4668 -0.5363  1.3784
 6984WAT     H228657   2.309   5.500   1.010  0.4806 -0.4332  0.9502
 6984WAT    EPW28658   2.388   5.503   1.009  0.4690 -0.3693  0.2879
 6985WAT      O28659   2.078   5.928   7.174  0.1241 -0.0146 -0.2818
 6985WAT     H128660   2.025   5.859   7.172 -2.1151  1.5947 -0.5764
 6985WAT     H228661   2.094   5.945   7.090  1.6582 -0.8073 -0.1925
 6985WAT    EPW28662   2.073   5.920   7.161  0.0200  0.1060 -0.3121
 6986WAT      O28663   3.518   5.553   5.096 -0.1433 -0.5278  0.4637
 6986WAT     H128664   3.455   5.606   5.125 -0.6199 -0.0371 -1.3634
 6986WAT     H228665   3.496   5.475   5.131 -0.0356  0.2195  2.2863
 6986WAT    EPW28666   3.505   5.549   5.106 -0.1978 -0.3449  0.4631
 6987WAT      O28667   0.562   4.811   6.457 -0.5931  0.2292 -0.2628
 6987WAT     H128668   0.544   4.833   6.374 -2.2896  0.6115  0.1585
 6987WAT     H228669   0.552   4.886   6.500  0.2867  0.0327  0.2992
 6987WAT    EPW28670   0.558   4.826   6.451 -0.7138  0.2567 -0.1175
 6988WAT      O28671   3.373   5.295   6.021  0.0027  0.1028  0.2263
 6988WAT     H128672   3.291   5.267   6.029 -0.0164  0.2897  0.6780
 6988WAT     H228673   3.377   5.323   5.938 -0.6969  1.0486  0.4920
 6988WAT    EPW28674   3.362   5.295   6.010 -0.1035  0.2701  0.3323
 6989WAT      O28675   2.853   6.503   6.326 -0.2474 -0.0116 -0.1113
 6989WAT     H128676   2.939   6.507   6.313 -0.1684 -0.5562  0.2442
 6989WAT     H228677   2.824   6.457   6.257 -0.3260  0.6243 -0.5147
 6989WAT    EPW28678   2.862   6.497   6.314 -0.2474  0.0019 -0.1184
 6990WAT      O28679   2.404   6.016   5.546 -0.6762 -0.1594  0.0280
 6990WAT     H128680   2.351   6.082   5.525  0.6124  0.8071 -0.3185
 6990WAT     H228681   2.464   6.053   5.599 -0.0294 -1.0780 -0.0316
 6990WAT    EPW28682   2.405   6.031   5.551 -0.3903 -0.1523 -0.0320
 6991WAT      O28683   1.662   6.085   7.079 -0.0887  0.7180 -0.2399
 6991WAT     H128684   1.668   6.038   7.006 -0.5382  0.3789 -0.0671
 6991WAT     H228685   1.741   6.119   7.089 -0.0583  0.8777 -0.9580
 6991WAT    EPW28686   1.674   6.083   7.070 -0.1506  0.6915 -0.3205
 6992WAT      O28687   4.120   5.756   5.319  1.0871 -0.2510 -0.3664
 6992WAT     H128688   4.160   5.812   5.373 -1.0176 -1.0203  2.2063
 6992WAT     H228689   4.103   5.688   5.370 -3.3051 -0.0466 -1.1727
 6992WAT    EPW28690   4.124   5.754   5.334  0.1274 -0.3344 -0.1055
 6993WAT      O28691   3.568   5.127   7.372 -0.1241  0.3708  0.0027
 6993WAT     H128692   3.506   5.115   7.312  0.4382 -0.2194 -0.4678
 6993WAT     H228693   3.533   5.096   7.445 -0.3705  0.0211 -0.2648
 6993WAT    EPW28694   3.554   5.121   7.374 -0.0774  0.2320 -0.1063
 6994WAT      O28695   2.518   5.330   6.005  0.3530  0.0836 -1.2089
 6994WAT     H128696   2.436   5.330   6.035  0.6360 -0.4753 -0.3968
 6994WAT     H228697   2.549   5.252   6.028  0.6681 -0.2914 -2.7943
 6994WAT    EPW28698   2.511   5.319   6.013  0.4414 -0.0544 -1.3231
 6995WAT      O28699   2.586   6.120   5.724  0.1428  0.1028  0.5942
 6995WAT     H128700   2.603   6.198   5.688 -0.9355 -0.4953 -1.3435
 6995WAT     H228701   2.652   6.070   5.695 -1.0401 -0.5292 -1.2269
 6995WAT    EPW28702   2.598   6.124   5.714 -0.1912 -0.0789  0.0390
 6996WAT      O28703   4.905   6.204   7.158 -0.6526  1.0064 -0.4441
 6996WAT     H128704   4.971   6.150   7.176 -0.3673  1.5643  0.2025
 6996WAT     H228705   4.923   6.232   7.077 -0.2554  0.9214 -0.3856
 6996WAT    EPW28706   4.918   6.201   7.148 -0.5518  1.0763 -0.3399
 6997WAT      O28707   4.486   6.895   4.656 -0.0733 -0.1471 -0.3397
 6997WAT     H128708   4.480   6.934   4.734 -1.6674 -0.8108 -0.0947
 6997WAT     H228709   4.404   6.893   4.627  0.4202 -0.3895 -1.8131
 6997WAT    EPW28710   4.473   6.900   4.663 -0.2359 -0.2809 -0.5212
 6998WAT      O28711   3.218   4.662   7.424 -0.2649 -0.1768 -0.2410
 6998WAT     H128712   3.161   4.712   7.467  0.1670  2.3424 -2.3228
 6998WAT     H228713   3.288   4.662   7.477 -1.1228 -0.7432  0.9392
 6998WAT    EPW28714   3.220   4.670   7.438 -0.3278  0.1117 -0.3742
 6999WAT      O28715   4.317   5.693   0.883 -0.4680  0.1139  0.2361
 6999WAT     H128716   4.335   5.742   0.813 -1.8898  1.8192  0.9801
 6999WAT     H228717   4.294   5.616   0.848  2.7470 -0.4706 -0.9243
 6999WAT    EPW28718   4.316   5.689   0.867 -0.2031  0.2795  0.1746
 7000WAT      O28719   3.599   5.348   1.039  0.4091  0.0024  0.2760
 7000WAT     H128720   3.528   5.368   0.994  0.7241 -1.2670 -0.8144
 7000WAT     H228721   3.612   5.419   1.089 -0.6372  0.9338 -0.7331
 7000WAT    EPW28722   3.591   5.362   1.040  0.3011 -0.0476 -0.0341
 7001WAT      O28723   3.385   5.629   7.633 -0.5383 -0.2961 -0.3043
 7001WAT     H128724   3.455   5.669   7.666  0.6898 -0.5153 -2.4680
 7001WAT     H228725   3.418   5.557   7.595 -2.1395 -1.1867 -0.1178
 7001WAT    EPW28726   3.400   5.624   7.632 -0.5934 -0.4601 -0.5964
 7002WAT      O28727   1.527   6.329   7.732  0.0195 -0.8023  0.6470
 7002WAT     H128728   1.532   6.257   7.781  2.4353  0.3832  2.3195
 7002WAT     H228729   1.532   6.394   7.790  1.3255  0.6911 -1.0231
 7002WAT    EPW28730   1.528   6.328   7.748  0.5693 -0.4065  0.6473
 7003WAT      O28731   2.717   6.343   6.087 -0.7609 -0.2531 -0.3174
 7003WAT     H128732   2.754   6.358   6.010  0.8510  2.2603  0.8315
 7003WAT     H228733   2.760   6.273   6.118  1.2723  0.9914 -0.1660
 7003WAT    EPW28734   2.729   6.335   6.080 -0.2224  0.3020 -0.1253
 7004WAT      O28735   2.337   5.686   7.096 -0.2249 -0.2226 -0.5325
 7004WAT     H128736   2.362   5.623   7.042  1.7834 -1.1175  1.2886
 7004WAT     H228737   2.394   5.751   7.081  1.7510 -1.2622  1.7914
 7004WAT    EPW28738   2.349   5.687   7.086  0.3637 -0.5084  0.0798
 7005WAT      O28739   3.859   7.424   4.605 -0.2402  0.6995  0.4006
 7005WAT     H128740   3.773   7.408   4.597  0.2214 -1.1042 -2.1329
 7005WAT     H228741   3.879   7.389   4.682 -1.4277 -0.8153  0.0727
 7005WAT    EPW28742   3.849   7.416   4.615 -0.3474  0.2093 -0.0221
 7006WAT      O28743   2.623   6.799   3.785 -0.2208  0.4312 -0.0566
 7006WAT     H128744   2.710   6.810   3.784 -0.1857  0.1881  0.1673
 7006WAT     H228745   2.599   6.830   3.863 -0.0896 -1.2405  0.6882
 7006WAT    EPW28746   2.632   6.805   3.796 -0.1962  0.1484  0.0865
 7007WAT      O28747   2.346   7.337   2.595 -0.4059  0.1844  0.3438
 7007WAT     H128748   2.305   7.378   2.660 -1.2910 -0.2682  0.0870
 7007WAT     H228749   2.298   7.265   2.583  0.3184 -0.2258 -0.1440
 7007WAT    EPW28750   2.333   7.332   2.603 -0.4297  0.0569  0.2338
 7008WAT      O28751   1.770   5.313   5.092 -0.4187 -0.8715 -0.0096
 7008WAT     H128752   1.683   5.324   5.088 -0.1963  0.9729 -0.9579
 7008WAT     H228753   1.787   5.263   5.022 -0.5395  0.4435 -1.0176
 7008WAT    EPW28754   1.759   5.307   5.081 -0.4037 -0.4048 -0.2986
 7009WAT      O28755   2.335   5.998   5.178 -0.1879  0.2831  0.2573
 7009WAT     H128756   2.377   5.963   5.110  0.0781  0.4870  0.3150
 7009WAT     H228757   2.329   5.932   5.234  0.4125  0.3546  0.4133
 7009WAT    EPW28758   2.340   5.984   5.176 -0.0599  0.3238  0.2888
 7010WAT      O28759   1.627   5.640   5.911 -0.2313 -0.0771 -0.1521
 7010WAT     H128760   1.706   5.613   5.885 -1.5469 -1.8863 -2.6431
 7010WAT     H228761   1.613   5.593   5.984  0.1535 -1.3603 -0.8730
 7010WAT    EPW28762   1.637   5.629   5.918 -0.3688 -0.5339 -0.6266
 7011WAT      O28763   2.192   6.116   4.754 -0.2351  0.7771 -0.0778
 7011WAT     H128764   2.113   6.135   4.786 -1.6387 -1.4661 -1.9629
 7011WAT     H228765   2.223   6.058   4.810 -0.5810  0.5189 -0.1513
 7011WAT    EPW28766   2.185   6.110   4.767 -0.4935  0.4076 -0.3671
 7012WAT      O28767   2.961   6.637   4.314  0.3078  0.4614  0.7271
 7012WAT     H128768   2.907   6.682   4.263 -1.6794 -0.7182  1.6284
 7012WAT     H228769   2.930   6.555   4.309  1.3658 -0.0683  2.1061
 7012WAT    EPW28770   2.948   6.632   4.306  0.1705  0.2089  1.0639
 7013WAT      O28771   2.203   0.343   5.545  0.1801 -0.4474 -0.1374
 7013WAT     H128772   2.241   0.317   5.620  0.4144 -0.6386 -0.3203
 7013WAT     H228773   2.195   0.269   5.499 -0.1997 -0.3704 -0.1992
 7013WAT    EPW28774   2.208   0.328   5.549  0.1586 -0.4643 -0.1736
 7014WAT      O28775   1.700   5.719   7.078 -0.2668  0.3693  0.0781
 7014WAT     H128776   1.721   5.787   7.027 -0.7480 -0.1337 -0.8041
 7014WAT     H228777   1.736   5.740   7.155  0.6213  1.0614 -0.5031
 7014WAT    EPW28778   1.709   5.732   7.082 -0.2067  0.3972 -0.1380
 7015WAT      O28779   3.749   6.665   4.161  0.0586  0.2885 -0.2708
 7015WAT     H128780   3.772   6.732   4.213  0.5382 -0.5827  0.6760
 7015WAT     H228781   3.664   6.654   4.178  0.2201 -0.0115  0.3721
 7015WAT    EPW28782   3.740   6.673   4.171  0.1533  0.1155 -0.0359
 7016WAT      O28783   4.107   5.393   4.463  0.3178 -0.2337  0.8715
 7016WAT     H128784   4.124   5.372   4.380  1.9042  2.3237  0.4453
 7016WAT     H228785   4.022   5.413   4.462  0.7129  1.6185 -0.6397
 7016WAT    EPW28786   4.097   5.393   4.450  0.6105  0.4177  0.5853
 7017WAT      O28787   3.322   5.747   5.489 -0.2351 -0.3955 -0.1183
 7017WAT     H128788   3.386   5.794   5.525 -0.1579 -1.1093  0.6938
 7017WAT     H228789   3.274   5.723   5.558 -0.1781 -1.6616 -0.5115
 7017WAT    EPW28790   3.324   5.751   5.504 -0.2152 -0.6880 -0.0564
 7018WAT      O28791   4.135   0.007   4.993  0.9317  0.2811  0.1697
 7018WAT     H128792   4.136  -0.052   5.057  0.3603  0.4978  0.3798
 7018WAT     H228793   4.211  -0.007   4.952  1.0423 -0.2428  0.5388
 7018WAT    EPW28794   4.146  -0.004   4.996  0.8636  0.2357  0.2552
 7019WAT      O28795   1.763   6.627   3.785  0.4267 -0.0146  0.4162
 7019WAT     H128796   1.832   6.678   3.769  0.2714  0.8294  2.2074
 7019WAT     H228797   1.700   6.684   3.804 -2.0698 -0.4171 -4.7304
 7019WAT    EPW28798   1.764   6.643   3.785  0.0350  0.0506 -0.0795
 7020WAT      O28799   2.816   5.750   6.364  0.0714  0.1141  0.0224
 7020WAT     H128800   2.740   5.722   6.396 -0.5976  0.8434 -0.8760
 7020WAT     H228801   2.793   5.793   6.291  1.2927  0.8169  0.0252
 7020WAT    EPW28802   2.802   5.752   6.358  0.1530  0.3256 -0.1099
 7021WAT      O28803   2.823   6.142   4.522  0.1147 -0.1616 -0.1814
 7021WAT     H128804   2.759   6.124   4.465 -0.1896  0.4987 -0.0610
 7021WAT     H228805   2.879   6.075   4.512 -0.8031 -0.9943  0.0253
 7021WAT    EPW28806   2.822   6.129   4.512 -0.0658 -0.1871 -0.1331
 7022WAT      O28807   2.866   4.828   4.834 -0.0533  0.1031 -0.4575
 7022WAT     H128808   2.843   4.787   4.761 -1.2344  0.3887 -0.2690
 7022WAT     H228809   2.934   4.782   4.863  0.4828  0.0376 -1.7661
 7022WAT    EPW28810   2.873   4.815   4.828 -0.1486  0.1356 -0.6230
 7023WAT      O28811   1.024   5.316   5.200 -0.4487 -0.0290 -0.3287
 7023WAT     H128812   0.998   5.286   5.278 -1.8786  2.3259  0.1878
 7023WAT     H228813   0.951   5.317   5.153  0.0068  0.4892 -1.0456
 7023WAT    EPW28814   1.010   5.312   5.205 -0.5926  0.3954 -0.3583
 7024WAT      O28815   2.276   6.728   4.672 -0.3484  0.1915 -0.1613
 7024WAT     H128816   2.335   6.736   4.735 -1.3916 -0.8593  1.0338
 7024WAT     H228817   2.239   6.650   4.689 -1.5400  0.4656 -1.2978
 7024WAT    EPW28818   2.279   6.717   4.684 -0.6785  0.0767 -0.1526
 7025WAT      O28819   3.264   5.721   4.411 -0.4640  0.4028 -0.0002
 7025WAT     H128820   3.267   5.729   4.498 -0.7518  1.9988 -0.1166
 7025WAT     H228821   3.226   5.794   4.385  0.5136  0.4010 -1.5530
 7025WAT    EPW28822   3.259   5.733   4.420 -0.3621  0.6383 -0.2468
 7026WAT      O28823   4.460   7.317   3.756  0.2210 -0.5253  0.1327
 7026WAT     H128824   4.518   7.327   3.691  0.3774  0.4142  0.3957
 7026WAT     H228825   4.396   7.372   3.734  0.7876  0.6804  1.3202
 7026WAT    EPW28826   4.459   7.327   3.743  0.3278 -0.2084  0.3469
 7027WAT      O28827   4.266   6.794   4.518  0.4935  0.3555 -0.2804
 7027WAT     H128828   4.245   6.711   4.534  1.5801  0.2695  0.8184
 7027WAT     H228829   4.261   6.800   4.431 -0.0317 -0.7313 -0.3410
 7027WAT    EPW28830   4.262   6.783   4.507  0.5765  0.1822 -0.1270
 7028WAT      O28831   1.032   6.165   5.835  0.3472 -0.5140 -0.5909
 7028WAT     H128832   1.060   6.220   5.897 -1.0089 -0.3192 -0.1013
 7028WAT     H228833   1.103   6.121   5.813  1.3763  1.0745 -0.6225
 7028WAT    EPW28834   1.047   6.167   5.841  0.2989 -0.2505 -0.5233
 7029WAT      O28835   2.969   4.246   6.033 -0.3204  0.0872 -0.1863
 7029WAT     H128836   2.909   4.184   6.044  0.5360 -1.0234 -1.3885
 7029WAT     H228837   2.987   4.243   5.948  1.3923  0.3932  0.1158
 7029WAT    EPW28838   2.963   4.236   6.022  0.0591 -0.0317 -0.3192
 7030WAT      O28839   2.394   5.605   6.316  0.1572 -1.0168  0.1483
 7030WAT     H128840   2.402   5.663   6.252 -0.6456 -2.7678 -1.6712
 7030WAT     H228841   2.434   5.642   6.383 -0.6212  1.7432 -0.7942
 7030WAT    EPW28842   2.401   5.619   6.316 -0.0763 -0.8677 -0.2597
 7031WAT      O28843   3.223   6.286   4.552  0.3899 -0.2192  0.4840
 7031WAT     H128844   3.276   6.336   4.504 -0.0656 -0.8901 -0.7459
 7031WAT     H228845   3.264   6.282   4.629  0.8744  1.3078  0.3519
 7031WAT    EPW28846   3.237   6.293   4.556  0.3942 -0.0927  0.2828
 7032WAT      O28847   1.140   5.620   4.082  0.7055 -0.5403  0.0013
 7032WAT     H128848   1.098   5.569   4.025  1.2513  0.7465 -1.6400
 7032WAT     H228849   1.214   5.640   4.041  0.2008  2.1268  0.2101
 7032WAT    EPW28850   1.145   5.616   4.068  0.7116  0.0438 -0.2103
 7033WAT      O28851   2.259   5.597   6.015  0.0856 -0.4155 -0.1805
 7033WAT     H128852   2.272   5.511   6.026  1.0264 -0.2682 -0.0454
 7033WAT     H228853   2.331   5.622   5.972  1.3431  0.8590  2.4537
 7033WAT    EPW28854   2.271   5.588   6.010  0.4103 -0.2055  0.2286
 7034WAT      O28855   2.339   7.335   4.098 -0.1847 -0.0878  0.2922
 7034WAT     H128856   2.351   7.321   4.013 -1.3784 -1.3085  0.3012
 7034WAT     H228857   2.253   7.343   4.106  0.0135  1.7086  1.1707
 7034WAT    EPW28858   2.328   7.334   4.087 -0.3318 -0.0028  0.4233
 7035WAT      O28859   2.908   4.982   4.524 -0.5392 -0.1121  0.5237
 7035WAT     H128860   2.897   4.991   4.438  3.5878  0.0571 -0.1480
 7035WAT     H228861   2.893   4.898   4.539  1.6576 -0.8392 -1.0059
 7035WAT    EPW28862   2.904   4.971   4.514  0.3950 -0.1945  0.1985
 7036WAT      O28863   2.935   5.881   5.313  0.3182 -0.2272 -0.5636
 7036WAT     H128864   2.952   5.804   5.277 -3.6571 -1.6278  0.0544
 7036WAT     H228865   2.851   5.895   5.293 -0.0395  2.4078  2.0487
 7036WAT    EPW28866   2.925   5.872   5.304 -0.3219 -0.0448 -0.0864
 7037WAT      O28867   3.421   5.920   4.801 -0.3239  0.0177  0.6393
 7037WAT     H128868   3.498   5.931   4.841 -0.2205 -0.0735  0.4706
 7037WAT     H228869   3.435   5.955   4.722 -0.3016 -0.4386  0.4374
 7037WAT    EPW28870   3.435   5.927   4.795 -0.3053 -0.0632  0.5846
 7038WAT      O28871   1.295   0.127   5.169 -0.5297 -0.7402  0.1912
 7038WAT     H128872   1.246   0.149   5.100 -1.2903 -1.3945  0.5066
 7038WAT     H228873   1.254   0.058   5.202  1.3128 -2.1679 -0.2979
 7038WAT    EPW28874   1.282   0.120   5.163 -0.3699 -1.0477  0.1655
 7039WAT      O28875   1.664   3.779   5.183 -0.3138 -0.4947  0.0844
 7039WAT     H128876   1.647   3.734   5.110  0.7528 -1.3129  0.3047
 7039WAT     H228877   1.690   3.856   5.153 -0.3027 -0.6799 -0.3960
 7039WAT    EPW28878   1.666   3.783   5.168 -0.1546 -0.6429  0.0460
 7040WAT      O28879   2.453   6.308   4.452 -0.2307  0.4283 -0.5156
 7040WAT     H128880   2.369   6.286   4.460  0.1797 -2.5723 -2.6407
 7040WAT     H228881   2.452   6.372   4.394 -1.0415 -0.0202 -1.0152
 7040WAT    EPW28882   2.441   6.314   4.445 -0.2898 -0.0812 -0.9033
 7041WAT      O28883   2.580   7.287   4.898 -0.2916  0.2088 -0.2824
 7041WAT     H128884   2.510   7.246   4.865  0.2674  0.2433 -1.5775
 7041WAT     H228885   2.568   7.283   4.984 -1.5968 -0.2934 -0.4692
 7041WAT    EPW28886   2.568   7.281   4.906 -0.4019  0.1397 -0.5013
 7042WAT      O28887   3.240   6.341   4.992 -0.2978  0.0315 -0.1631
 7042WAT     H128888   3.158   6.317   4.974  0.3168 -2.8705  0.3451
 7042WAT     H228889   3.231   6.393   5.062 -1.6824 -1.1535  0.6144
 7042WAT    EPW28890   3.226   6.345   5.000 -0.4115 -0.5722  0.0268
 7043WAT      O28891   2.090   5.912   6.788 -0.3312  0.0737  0.5515
 7043WAT     H128892   2.175   5.912   6.768  0.2891  0.4432  2.9485
 7043WAT     H228893   2.070   5.996   6.795 -0.5601 -0.0357  1.2589
 7043WAT    EPW28894   2.099   5.924   6.786 -0.2734  0.1122  1.0101
 7044WAT      O28895   3.726   7.094   4.261  0.1080 -0.7058 -0.0961
 7044WAT     H128896   3.676   7.073   4.192 -0.0393  0.7478 -0.4783
 7044WAT     H228897   3.754   7.175   4.241 -0.5592  0.0678  1.9024
 7044WAT    EPW28898   3.723   7.103   4.248 -0.0123 -0.3768  0.1427
 7045WAT      O28899   4.247   0.209   4.366  0.5915 -0.4796  0.0601
 7045WAT     H128900   4.229   0.219   4.451 -3.1791  1.5083 -0.7500
 7045WAT     H228901   4.280   0.286   4.343  0.9070 -0.7558 -0.4137
 7045WAT    EPW28902   4.249   0.221   4.376  0.0811 -0.2268 -0.1296
 7046WAT      O28903   4.137   6.567   4.882  0.4208  0.4962 -0.5329
 7046WAT     H128904   4.162   6.643   4.919 -0.6871  0.3823  0.4778
 7046WAT     H228905   4.050   6.574   4.877  0.3298 -0.6258 -0.6449
 7046WAT    EPW28906   4.128   6.579   4.887  0.2437  0.3137 -0.4001
 7047WAT      O28907   3.335   6.743   6.208  0.2787  0.5002  0.1028
 7047WAT     H128908   3.272   6.790   6.170  1.0011  0.0710 -1.7790
 7047WAT     H228909   3.394   6.733   6.144  0.5563 -2.1976  0.6503
 7047WAT    EPW28910   3.335   6.748   6.193  0.4264  0.0383 -0.0943
 7048WAT      O28911   2.321   5.132   4.649  0.3287  0.3707  0.5586
 7048WAT     H128912   2.287   5.097   4.576  2.5119  0.0333 -0.3988
 7048WAT     H228913   2.301   5.216   4.642 -0.2042  0.2066 -0.0226
 7048WAT    EPW28914   2.313   5.139   4.637  0.5725  0.2966  0.3313
 7049WAT      O28915   2.709   7.231   5.602 -0.1741  0.0817 -0.1210
 7049WAT     H128916   2.642   7.204   5.650  1.0739 -1.3369  0.9236
 7049WAT     H228917   2.701   7.186   5.527 -0.7097  0.3775 -0.2440
 7049WAT    EPW28918   2.698   7.221   5.598 -0.0688 -0.0842  0.0151
 7050WAT      O28919   3.067   5.313   5.065 -0.0835  0.4715 -0.5190
 7050WAT     H128920   3.101   5.339   5.142 -0.4887 -0.7760  0.1045
 7050WAT     H228921   3.137   5.287   5.020 -0.1366 -2.8303  1.0457
 7050WAT    EPW28922   3.082   5.313   5.070 -0.1512 -0.2005 -0.1958
 7051WAT      O28923   3.092   5.258   5.388  0.2750  0.1102  0.0285
 7051WAT     H128924   3.168   5.282   5.352  0.0300 -0.2922 -0.7814
 7051WAT     H228925   3.058   5.333   5.416  1.6681  0.1437  1.8578
 7051WAT    EPW28926   3.099   5.273   5.387  0.4446  0.0557  0.1791
 7052WAT      O28927   1.651   5.249   6.182  0.0962 -0.0949 -0.1509
 7052WAT     H128928   1.646   5.227   6.266  0.1399 -0.2320 -0.1832
 7052WAT     H228929   1.736   5.262   6.169  0.3122 -1.6982 -0.5733
 7052WAT    EPW28930   1.663   5.247   6.193  0.1345 -0.3520 -0.2181
 7053WAT      O28931   2.638   5.357   4.389 -0.1036  0.6126  0.6396
 7053WAT     H128932   2.626   5.339   4.305  1.0137 -0.8257  0.7430
 7053WAT     H228933   2.649   5.278   4.425  2.6194  1.3265  1.6031
 7053WAT    EPW28934   2.638   5.343   4.382  0.4637  0.5056  0.7972
 7054WAT      O28935   3.302   5.422   4.917  0.1154  0.3002 -0.2352
 7054WAT     H128936   3.356   5.476   4.874  0.2993  0.0385 -0.3343
 7054WAT     H228937   3.356   5.371   4.962 -0.0894  1.2961  1.2266
 7054WAT    EPW28938   3.318   5.423   4.917  0.1123  0.4086 -0.0339
 7055WAT      O28939   1.832   5.718   5.296  0.1510  0.0291  0.3975
 7055WAT     H128940   1.903   5.763   5.321 -1.1270  1.7913  1.0753
 7055WAT     H228941   1.864   5.657   5.243  2.1713  0.7430  0.7009
 7055WAT    EPW28942   1.848   5.716   5.292  0.2607  0.3949  0.5424
 7056WAT      O28943   3.014   6.140   5.232 -0.4985 -0.2487 -0.0796
 7056WAT     H128944   2.967   6.080   5.276  2.4961 -0.7361  2.8045
 7056WAT     H228945   3.041   6.096   5.161 -0.3208 -1.5558  0.7600
 7056WAT    EPW28946   3.011   6.125   5.228 -0.0299 -0.5138  0.4705
 7057WAT      O28947   3.122   5.670   5.724  0.4544 -0.0147 -0.0761
 7057WAT     H128948   3.168   5.596   5.714  1.9739  0.7804  0.7283
 7057WAT     H228949   3.091   5.663   5.805  0.4620  0.1534 -0.0594
 7057WAT    EPW28950   3.124   5.658   5.735  0.6800  0.1276  0.0452
 7058WAT      O28951   5.001   5.436   4.817 -0.8037 -0.1788 -0.2007
 7058WAT     H128952   5.037   5.505   4.777  3.4673 -1.0859  1.5737
 7058WAT     H228953   4.957   5.471   4.884 -1.0655  0.8834 -0.8997
 7058WAT    EPW28954   5.000   5.452   4.821 -0.2115 -0.1559 -0.0418
 7059WAT      O28955   1.823   4.229   4.108  0.4630 -0.2221  0.3056
 7059WAT     H128956   1.874   4.191   4.048 -0.5048 -0.7785 -0.1923
 7059WAT     H228957   1.783   4.162   4.147  0.6194  0.1696  1.1610
 7059WAT    EPW28958   1.825   4.214   4.104  0.3431 -0.2464  0.3584
 7060WAT      O28959   1.874   7.357   3.943 -0.1846  0.4167  0.4604
 7060WAT     H128960   1.794   7.341   3.911  0.4702  0.2601 -1.2410
 7060WAT     H228961   1.897   7.431   3.902  0.0939  1.1120  1.8383
 7060WAT    EPW28962   1.866   7.366   3.932 -0.0468  0.4963  0.4126
 7061WAT      O28963   1.862   6.417   5.442 -0.1035  0.0486 -0.1213
 7061WAT     H128964   1.894   6.497   5.427  0.8227 -0.5109 -1.3282
 7061WAT     H228965   1.780   6.422   5.411 -0.9022  1.1804  2.0015
 7061WAT    EPW28966   1.854   6.429   5.435 -0.0847  0.1332  0.0140
 7062WAT      O28967   2.052   6.676   4.429  0.2713 -0.4178  0.1741
 7062WAT     H128968   2.039   6.621   4.363  0.9609 -1.3605  0.8068
 7062WAT     H228969   2.135   6.701   4.419 -0.1286  0.8283 -0.3161
 7062WAT    EPW28970   2.062   6.672   4.418  0.3141 -0.3730  0.1951
 7063WAT      O28971   3.508   5.717   3.318  0.4460  0.0414  0.4050
 7063WAT     H128972   3.431   5.716   3.357  0.5541 -1.7340  0.6717
 7063WAT     H228973   3.532   5.801   3.321 -1.5751  0.6964  0.0439
 7063WAT    EPW28974   3.500   5.729   3.324  0.1634 -0.1241  0.3911
 7064WAT      O28975   2.863   6.083   4.194  0.5837 -0.2588  0.4594
 7064WAT     H128976   2.797   6.072   4.251  0.7873  0.9997  0.9829
 7064WAT     H228977   2.885   6.002   4.171  0.1501 -0.7778  1.7930
 7064WAT    EPW28978   2.856   6.070   4.199  0.5497 -0.1496  0.7337
 7065WAT      O28979   3.118   7.003   5.097 -0.0837 -0.0380  0.3113
 7065WAT     H128980   3.183   7.014   5.039  0.0621 -1.4217  0.1785
 7065WAT     H228981   3.103   7.084   5.126 -1.0053  0.9350 -2.5377
 7065WAT    EPW28982   3.125   7.017   5.093 -0.1983 -0.0987 -0.1292
 7066WAT      O28983   3.493   6.931   4.365  0.4531 -0.1188 -0.5200
 7066WAT     H128984   3.499   6.876   4.298  0.6286 -2.1504  1.0663
 7066WAT     H228985   3.569   6.973   4.365  0.5011 -0.1948 -1.4818
 7066WAT    EPW28986   3.505   6.929   4.355  0.4861 -0.4301 -0.4278
 7067WAT      O28987   2.382   6.697   4.932 -0.0887  0.1681  0.1963
 7067WAT     H128988   2.436   6.763   4.950 -0.3017  0.1676  0.8696
 7067WAT     H228989   2.374   6.655   5.008 -1.2551  0.3305  0.1819
 7067WAT    EPW28990   2.389   6.700   4.946 -0.2924  0.1920  0.2936
 7068WAT      O28991   2.776   6.310   4.727 -0.6651 -0.1793  0.1080
 7068WAT     H128992   2.728   6.382   4.715 -2.0754 -0.8021  1.5767
 7068WAT     H228993   2.790   6.281   4.646 -1.1893  1.0380 -0.4467
 7068WAT    EPW28994   2.771   6.317   4.714 -0.9509 -0.0914  0.2430
 7069WAT      O28995   2.336   5.506   5.668  0.5058 -0.5648  0.2001
 7069WAT     H128996   2.374   5.503   5.590 -0.7797  0.6559 -0.5224
 7069WAT     H228997   2.385   5.563   5.713  1.2834 -1.3182  0.3144
 7069WAT    EPW28998   2.349   5.514   5.663  0.4308 -0.4958  0.1102
 7070WAT      O28999   2.019   6.730   3.726 -0.6072 -0.1520  0.0377
 7070WAT     H129000   2.061   6.791   3.680 -1.4018  2.0090  1.9573
 7070WAT     H229001   2.052   6.655   3.697  0.6221  1.1918 -2.2739
 7070WAT    EPW29002   2.030   6.728   3.715 -0.5430  0.3657 -0.0202
 7071WAT      O29003   3.076   5.610   4.978 -0.0279 -0.0999  0.2878
 7071WAT     H129004   3.018   5.551   4.948  0.5462 -0.2588 -0.5454
 7071WAT     H229005   3.153   5.575   4.957  0.3078  1.2512 -0.8346
 7071WAT    EPW29006   3.079   5.596   4.970  0.1065  0.0762 -0.0011
 7072WAT      O29007   2.710   6.710   2.146  0.4268 -0.3055 -0.2770
 7072WAT     H129008   2.786   6.722   2.105  1.5110 -1.8407  1.1694
 7072WAT     H229009   2.708   6.775   2.204  0.4305 -0.0281 -0.5852
 7072WAT    EPW29010   2.721   6.722   2.148  0.5875 -0.4913 -0.1089
 7073WAT      O29011   2.516   6.520   6.167  0.0808 -0.3806 -0.5553
 7073WAT     H129012   2.509   6.563   6.091 -1.3936  0.8498  0.2426
 7073WAT     H229013   2.587   6.470   6.155  0.0014 -0.0772 -2.6634
 7073WAT    EPW29014   2.526   6.519   6.154 -0.1487 -0.1540 -0.7488
 7074WAT      O29015   2.797   5.838   4.377 -0.1644 -0.1889 -0.1806
 7074WAT     H129016   2.806   5.770   4.323 -1.5007 -0.9354  0.4818
 7074WAT     H229017   2.829   5.810   4.452 -0.4550  0.0183  0.0249
 7074WAT    EPW29018   2.803   5.824   4.380 -0.4047 -0.2685 -0.0524
 7075WAT      O29019   3.882   6.273   6.048  0.1364 -0.7327 -0.0912
 7075WAT     H129020   3.858   6.260   6.131 -0.9685  0.2798 -0.2263
 7075WAT     H229021   3.938   6.340   6.054  0.0878 -0.6864 -0.1531
 7075WAT    EPW29022   3.887   6.281   6.061 -0.0340 -0.5763 -0.1203
 7076WAT      O29023   2.354   4.788   5.497 -0.3831  0.2399 -0.4568
 7076WAT     H129024   2.395   4.819   5.426 -0.9021  1.2361 -0.3285
 7076WAT     H229025   2.284   4.839   5.505  0.0532  0.6467  1.2032
 7076WAT    EPW29026   2.350   4.800   5.488 -0.3953  0.4472 -0.1927
 7077WAT      O29027   3.625   5.930   5.341 -0.0297 -0.0412  0.1011
 7077WAT     H129028   3.634   5.846   5.318  0.1101 -0.0302  0.1135
 7077WAT     H229029   3.706   5.954   5.363 -0.0937  0.0576  0.2315
 7077WAT    EPW29030   3.638   5.921   5.341 -0.0185 -0.0250  0.1222
 7078WAT      O29031   0.655   5.795   6.878  0.3144  0.0577 -0.1135
 7078WAT     H129032   0.688   5.780   6.958 -0.4304  0.3079  0.2507
 7078WAT     H229033   0.571   5.771   6.886  0.6312 -1.6280 -1.3252
 7078WAT    EPW29034   0.647   5.789   6.891  0.2511 -0.1543 -0.2387
 7079WAT      O29035   3.432   6.368   4.387  0.2600  0.2371  0.4187
 7079WAT     H129036   3.445   6.355   4.302  1.1225  1.4052  0.3594
 7079WAT     H229037   3.417   6.453   4.394  1.4487  0.3987  1.5602
 7079WAT    EPW29038   3.432   6.378   4.376  0.5630  0.4335  0.5786
 7080WAT      O29039   3.579   7.263   4.859  0.2545  0.0969 -0.1838
 7080WAT     H129040   3.605   7.204   4.919  1.3194  1.2046  0.4908
 7080WAT     H229041   3.495   7.276   4.879  0.1210 -0.8674 -0.0679
 7080WAT    EPW29042   3.571   7.256   4.871  0.3921  0.1181 -0.0670
 7081WAT      O29043   2.728   6.800   5.808 -0.8430  0.0328  0.3410
 7081WAT     H129044   2.749   6.876   5.846  1.8967 -0.6618  0.4117
 7081WAT     H229045   2.727   6.820   5.723  2.4690 -0.2600  0.1258
 7081WAT    EPW29046   2.731   6.814   5.801  0.0510 -0.1131  0.3196
 7082WAT      O29047   3.676   5.731   4.644  0.9219 -0.0207  0.1798
 7082WAT     H129048   3.657   5.705   4.725  0.1343  1.0664  0.3663
 7082WAT     H229049   3.612   5.698   4.596 -1.3442  3.1185  0.7181
 7082WAT    EPW29050   3.664   5.722   4.649  0.4708  0.6036  0.2869
 7083WAT      O29051   1.904   0.089   4.763  0.0876  0.2961  0.1459
 7083WAT     H129052   1.933   0.010   4.739 -0.0628  0.1142  0.5540
 7083WAT     H229053   1.946   0.104   4.838 -1.1070 -0.1314  0.9431
 7083WAT    EPW29054   1.915   0.079   4.771 -0.1111  0.2061  0.3240
 7084WAT      O29055   2.314   5.146   5.402  0.6435 -0.4221  0.1844
 7084WAT     H129056   2.258   5.153   5.336  0.5369 -2.3887  0.0026
 7084WAT     H229057   2.268   5.107   5.465  0.7824  1.2973  1.4194
 7084WAT    EPW29058   2.299   5.142   5.402  0.6483 -0.4586  0.3400
 7085WAT      O29059   3.281   6.847   4.158 -0.5870 -0.2085  0.3647
 7085WAT     H129060   3.274   6.920   4.205  0.9292  0.1231  0.1070
 7085WAT     H229061   3.255   6.871   4.078  0.1731  0.1224  0.2154
 7085WAT    EPW29062   3.276   6.861   4.153 -0.2508 -0.1106  0.3046
 7086WAT      O29063   4.391   5.659   4.988 -0.4594 -0.2728  0.0643
 7086WAT     H129064   4.358   5.599   4.934  0.1284  0.4905 -1.1839
 7086WAT     H229065   4.442   5.708   4.936 -0.4176  0.9126  1.1682
 7086WAT    EPW29066   4.393   5.658   4.972 -0.3664  0.0151  0.0430
 7087WAT      O29067   2.236   6.440   6.463  0.2291  0.3840  0.8247
 7087WAT     H129068   2.319   6.467   6.463  0.2909  0.5908 -2.3650
 7087WAT     H229069   2.238   6.366   6.417 -1.1706 -0.4590  2.0284
 7087WAT    EPW29070   2.248   6.433   6.456  0.0315  0.2900  0.5314
 7088WAT      O29071   2.673   5.520   4.617 -0.0229  0.0969 -0.5876
 7088WAT     H129072   2.688   5.488   4.538  0.6113 -0.3287 -0.2986
 7088WAT     H229073   2.594   5.489   4.637 -0.6269  0.9910 -1.4290
 7088WAT    EPW29074   2.664   5.511   4.608 -0.0184  0.1661 -0.6692
 7089WAT      O29075   2.922   4.910   5.269  0.0488 -0.1431 -0.0531
 7089WAT     H129076   2.897   4.952   5.197 -0.0556 -0.6727 -0.3344
 7089WAT     H229077   2.920   4.826   5.245 -1.1618 -0.4247  0.9116
 7089WAT    EPW29078   2.918   4.904   5.255 -0.1454 -0.2629  0.0478
 7090WAT      O29079   1.461   4.700   4.443  0.3553 -0.0227 -0.0060
 7090WAT     H129080   1.527   4.663   4.401 -1.3071 -2.8137 -0.4122
 7090WAT     H229081   1.452   4.652   4.515 -1.3543  0.1142 -0.0773
 7090WAT    EPW29082   1.469   4.687   4.448 -0.1428 -0.4148 -0.0765
 7091WAT      O29083   2.889   6.240   5.514 -0.5376 -0.5666  0.2796
 7091WAT     H129084   2.856   6.238   5.433  0.3383  1.2546 -0.1723
 7091WAT     H229085   2.827   6.202   5.562 -1.6747 -0.4770 -1.0519
 7091WAT    EPW29086   2.875   6.234   5.509 -0.5762 -0.2843  0.0162
 7092WAT      O29087   3.344   6.686   4.862 -0.9087 -0.5018 -0.7633
 7092WAT     H129088   3.276   6.644   4.826  0.5205 -0.9145 -3.2123
 7092WAT     H229089   3.319   6.770   4.859 -1.5211 -0.6883 -1.1290
 7092WAT    EPW29090   3.330   6.692   4.856 -0.7881 -0.5903 -1.1791
 7093WAT      O29091   1.694   5.623   5.547 -0.7865  0.6357  0.0909
 7093WAT     H129092   1.656   5.666   5.481 -2.5218  0.5036  0.9562
 7093WAT     H229093   1.702   5.684   5.609 -1.0198  0.2862  0.4661
 7093WAT    EPW29094   1.690   5.639   5.546 -1.0773  0.5646  0.2742
 7094WAT      O29095   3.490   6.059   4.560  0.2470 -0.1678  0.3574
 7094WAT     H129096   3.422   6.108   4.535  0.4228  1.1266  2.2378
 7094WAT     H229097   3.492   5.996   4.500 -0.6326  1.5310 -1.5807
 7094WAT    EPW29098   3.480   6.057   4.548  0.1430  0.2743  0.3489
 7095WAT      O29099   2.382   7.127   4.813  0.5449 -0.0737  0.0217
 7095WAT     H129100   2.425   7.051   4.819  0.7972  0.1268  0.8149
 7095WAT     H229101   2.367   7.135   4.727  0.8252 -0.8467 -0.1079
 7095WAT    EPW29102   2.386   7.117   4.801  0.6236 -0.1583  0.1197
 7096WAT      O29103   3.811   6.610   4.872  0.2720 -0.0653 -0.0561
 7096WAT     H129104   3.728   6.588   4.889  0.5450 -1.1769 -0.0312
 7096WAT     H229105   3.806   6.660   4.801 -0.4207 -0.1370 -0.0607
 7096WAT    EPW29106   3.798   6.614   4.864  0.2100 -0.2401 -0.0531
 7097WAT      O29107   3.087   5.638   5.263 -0.4191  0.4512  0.4632
 7097WAT     H129108   3.153   5.692   5.247  0.4829 -0.7709 -0.0598
 7097WAT     H229109   3.064   5.610   5.183 -1.8895  1.1800  0.5777
 7097WAT    EPW29110   3.093   5.642   5.249 -0.5030  0.3783  0.4028
 7098WAT      O29111   4.825   5.203   2.705 -0.2648  0.3191 -0.2579
 7098WAT     H129112   4.743   5.185   2.728 -0.8317  1.5286 -1.1886
 7098WAT     H229113   4.872   5.172   2.772 -1.5697  0.7278  0.9144
 7098WAT    EPW29114   4.820   5.196   2.719 -0.5413  0.5581 -0.2222
 7099WAT      O29115   2.600   6.099   4.889  0.7849 -0.9211 -0.2336
 7099WAT     H129116   2.661   6.107   4.950  0.5718 -0.1485 -0.1081
 7099WAT     H229117   2.633   6.142   4.821  0.2375 -0.1429 -0.0361
 7099WAT    EPW29118   2.614   6.107   4.888  0.6726 -0.6920 -0.1859
 7100WAT      O29119   2.506   6.944   4.016  0.1083  0.3399  0.3653
 7100WAT     H129120   2.423   6.954   3.993  0.0562 -0.8725 -0.0740
 7100WAT     H229121   2.502   6.897   4.090  0.3894  0.7967  0.6788
 7100WAT    EPW29122   2.493   6.939   4.024  0.1421  0.2283  0.3467
 7101WAT      O29123   0.733   6.801   6.563  0.9161  0.5257 -0.3272
 7101WAT     H129124   0.793   6.752   6.524 -0.5342 -1.6320  0.0108
 7101WAT     H229125   0.657   6.770   6.532 -0.1656  0.7439  1.9232
 7101WAT    EPW29126   0.730   6.789   6.553  0.5421  0.2392  0.0552
 7102WAT      O29127   2.894   5.730   4.659 -0.0684  0.3695 -0.3569
 7102WAT     H129128   2.854   5.654   4.646  0.2959  0.1296 -0.0887
 7102WAT     H229129   2.868   5.753   4.739  1.7436 -0.6893  0.6038
 7102WAT    EPW29130   2.884   5.722   4.669  0.2531  0.1777 -0.1753
 7103WAT      O29131   1.891   4.645   3.956  0.1324 -0.4205  0.5842
 7103WAT     H129132   1.874   4.724   3.923  2.4467  0.5293  1.4474
 7103WAT     H229133   1.835   4.592   3.914 -0.7776  1.5089 -0.7647
 7103WAT    EPW29134   1.880   4.649   3.945  0.3398  0.0048  0.5125
 7104WAT      O29135   3.640   6.720   3.861  0.2720  0.0740  0.7825
 7104WAT     H129136   3.678   6.685   3.932  0.8225  1.0190  0.9738
 7104WAT     H229137   3.564   6.678   3.856  1.1186 -1.5175  0.6812
 7104WAT    EPW29138   3.634   6.708   3.871  0.4784 -0.0215  0.7958
 7105WAT      O29139   3.056   5.929   5.561 -0.3165  0.1726 -0.2903
 7105WAT     H129140   3.026   5.902   5.484 -4.2165 -1.6980  1.6027
 7105WAT     H229141   3.060   5.856   5.609  1.1743  1.3593  1.5819
 7105WAT    EPW29142   3.052   5.915   5.557 -0.6724  0.0716  0.2659
 7106WAT      O29143   3.512   5.531   5.718 -0.3137 -0.7875 -0.1119
 7106WAT     H129144   3.581   5.506   5.671 -1.0267 -0.8442 -1.1551
 7106WAT     H229145   3.544   5.593   5.771  0.1978  0.4396 -1.7909
 7106WAT    EPW29146   3.527   5.536   5.719 -0.3435 -0.6146 -0.5140
 7107WAT      O29147   4.140   5.157   3.732  0.0516 -0.5910 -0.2395
 7107WAT     H129148   4.113   5.074   3.735 -0.6000 -0.3670  1.3420
 7107WAT     H229149   4.066   5.201   3.715  0.5703 -0.3886 -2.0788
 7107WAT    EPW29150   4.125   5.151   3.730  0.0319 -0.5280 -0.2776
 7108WAT      O29151   5.087   5.338   3.639  0.0517  0.2873  0.1755
 7108WAT     H129152   5.127   5.260   3.637 -0.4079 -0.0056  1.1789
 7108WAT     H229153   5.149   5.392   3.670 -0.0533  0.0066  0.9084
 7108WAT    EPW29154   5.102   5.334   3.643 -0.0317  0.2026  0.4320
 7109WAT      O29155   3.781   5.360   3.217 -0.1201  0.6754  0.0086
 7109WAT     H129156   3.799   5.395   3.139  3.4482 -1.4466 -0.3172
 7109WAT     H229157   3.739   5.286   3.197 -0.7403  0.9609  0.2342
 7109WAT    EPW29158   3.777   5.354   3.202  0.3154  0.4041 -0.0062
 7110WAT      O29159   3.820   7.286   5.726  0.2247 -0.1682  0.5440
 7110WAT     H129160   3.756   7.330   5.686  0.3265  1.0499  1.6622
 7110WAT     H229161   3.845   7.227   5.666  0.3541  1.5442 -1.1674
 7110WAT    EPW29162   3.814   7.284   5.711  0.2588  0.2647  0.4564
 7111WAT      O29163   1.067   4.987   5.505 -0.1207 -0.2268  0.3126
 7111WAT     H129164   1.131   4.995   5.446  0.0186  0.7396  0.5723
 7111WAT     H229165   1.110   4.994   5.581 -0.4613 -0.2273  0.5045
 7111WAT    EPW29166   1.083   4.989   5.508 -0.1505 -0.0841  0.3794
 7112WAT      O29167   3.070   0.058   5.772 -1.2040  0.5599 -0.2336
 7112WAT     H129168   3.154   0.045   5.791 -0.6026  0.8831 -2.4100
 7112WAT     H229169   3.031  -0.014   5.804  0.5507 -1.8224 -2.9196
 7112WAT    EPW29170   3.077   0.045   5.780 -0.8560  0.2557 -0.9519
 7113WAT      O29171   3.197   5.001   5.458 -0.1146 -0.0392  0.5167
 7113WAT     H129172   3.133   5.045   5.419  0.1875  0.0459  0.1237
 7113WAT     H229173   3.270   5.038   5.428  0.1265  0.5904  1.7862
 7113WAT    EPW29174   3.198   5.013   5.448 -0.0344  0.0663  0.6462
 7114WAT      O29175   3.220   6.013   5.072  0.2231  0.4075 -0.1486
 7114WAT     H129176   3.180   6.016   4.994 -0.1319  3.2017  0.0394
 7114WAT     H229177   3.283   6.074   5.065  0.5083  0.3585  1.5843
 7114WAT    EPW29178   3.224   6.022   5.059  0.2128  0.8130  0.1352
 7115WAT      O29179   2.601   5.122   4.569 -0.2300 -0.1161 -0.0879
 7115WAT     H129180   2.662   5.117   4.632 -1.4904 -2.0290  1.0756
 7115WAT     H229181   2.528   5.140   4.612 -0.5372  2.5953 -1.5146
 7115WAT    EPW29182   2.599   5.124   4.584 -0.4616  0.0018 -0.1268
 7116WAT      O29183   2.903   5.844   4.940 -0.6983  0.6836  0.1667
 7116WAT     H129184   2.964   5.783   4.955  0.4546  1.8491  0.3598
 7116WAT     H229185   2.831   5.809   4.973 -0.4862 -1.3400 -1.3163
 7116WAT    EPW29186   2.901   5.830   4.947 -0.4966  0.5568 -0.0239
 7117WAT      O29187   3.757   6.467   5.164 -1.3667  0.3407 -0.2705
 7117WAT     H129188   3.739   6.406   5.223  0.3556  0.3210  0.2828
 7117WAT     H229189   3.760   6.423   5.088 -0.2033 -0.2823  0.1134
 7117WAT    EPW29190   3.755   6.452   5.161 -0.9404  0.2457 -0.1321
 7118WAT      O29191   3.159   6.188   4.168 -0.5072  0.2848  0.5129
 7118WAT     H129192   3.147   6.104   4.186 -0.1152  0.3316  1.0003
 7118WAT     H229193   3.246   6.198   4.172 -0.3141  0.2080 -1.7857
 7118WAT    EPW29194   3.170   6.177   4.171 -0.4208  0.2803  0.2454
 7119WAT      O29195   2.144   6.210   5.197  0.3247  0.0547 -0.0238
 7119WAT     H129196   2.201   6.146   5.179  0.0758  0.2579 -1.6309
 7119WAT     H229197   2.088   6.208   5.130  0.0056  1.6111  0.1627
 7119WAT    EPW29198   2.144   6.200   5.185  0.2408  0.3147 -0.2337
 7120WAT      O29199   2.054   0.111   4.998 -0.2510 -0.0521 -0.1534
 7120WAT     H129200   2.026   0.186   5.033  0.8475  0.4754 -0.3564
 7120WAT     H229201   2.097   0.073   5.063  1.1176  0.5635 -0.6513
 7120WAT    EPW29202   2.056   0.117   5.013  0.1134  0.1168 -0.2569
 7121WAT      O29203   3.913   5.991   4.144 -0.6402 -0.0086  0.0965
 7121WAT     H129204   3.840   6.011   4.189 -0.4054 -1.6615  1.3162
 7121WAT     H229205   3.914   5.903   4.146  2.0694 -0.0255  1.2966
 7121WAT    EPW29206   3.902   5.981   4.151 -0.2052 -0.2553  0.4540
 7122WAT      O29207   2.720   5.339   5.800  0.2576  0.1194  0.0613
 7122WAT     H129208   2.656   5.332   5.859 -0.5667  2.3558 -0.4585
 7122WAT     H229209   2.715   5.422   5.775  0.9186 -0.5923 -2.7676
 7122WAT    EPW29210   2.710   5.350   5.805  0.2335  0.3447 -0.4334
 7123WAT      O29211   2.876   5.075   6.521  0.4730  0.3551 -0.1743
 7123WAT     H129212   2.850   5.097   6.440 -0.2147  1.0756  0.2252
 7123WAT     H229213   2.935   5.012   6.507 -0.7013 -0.5825 -1.1692
 7123WAT    EPW29214   2.881   5.069   6.507  0.1979  0.3230 -0.2622
 7124WAT      O29215   1.179   5.729   4.412  0.1483 -0.0994  0.2420
 7124WAT     H129216   1.233   5.740   4.344 -0.4191 -0.9634 -0.3862
 7124WAT     H229217   1.117   5.788   4.398 -0.3924 -0.8101 -0.4648
 7124WAT    EPW29218   1.178   5.739   4.400 -0.0154 -0.3320  0.0448
 7125WAT      O29219   4.361   6.025   3.959  0.4228 -0.1660 -0.3205
 7125WAT     H129220   4.447   6.042   3.951  0.1893  1.9873  0.9700
 7125WAT     H229221   4.343   5.981   3.886  2.2331  1.1533 -1.6819
 7125WAT    EPW29222   4.371   6.021   3.947  0.6557  0.3470 -0.3310
 7126WAT      O29223   2.649   6.398   5.668  0.1913 -0.4793  0.6261
 7126WAT     H129224   2.573   6.438   5.684 -1.3601 -1.9812 -2.3190
 7126WAT     H229225   2.707   6.449   5.709 -2.3379  0.7090  3.0516
 7126WAT    EPW29226   2.646   6.412   5.676 -0.4115 -0.5256  0.5494
 7127WAT      O29227   2.897   6.621   5.407  0.4255  0.2171  0.0609
 7127WAT     H129228   2.912   6.697   5.367  1.9238  0.2453  0.5971
 7127WAT     H229229   2.879   6.566   5.341  0.9528  0.6809 -0.4814
 7127WAT    EPW29230   2.897   6.624   5.391  0.7247  0.2898  0.0600
 7128WAT      O29231   2.791   5.506   4.896  0.4891 -0.5079  0.2436
 7128WAT     H129232   2.744   5.483   4.826 -0.2312  1.0714  0.1495
 7128WAT     H229233   2.777   5.442   4.953 -0.5124 -0.8598 -0.3737
 7128WAT    EPW29234   2.782   5.493   4.894  0.2348 -0.3266  0.1385
 7129WAT      O29235   2.061   5.767   6.098 -0.7499  0.2506 -0.4390
 7129WAT     H129236   2.052   5.708   6.161 -2.1139 -0.1649 -0.9833
 7129WAT     H229237   2.117   5.730   6.042 -1.6307 -0.5866 -0.8039
 7129WAT    EPW29238   2.068   5.753   6.099 -1.0815  0.0656 -0.5733
 7130WAT      O29239   1.864   6.789   6.741  0.3634  0.0740  0.4009
 7130WAT     H129240   1.812   6.843   6.695  0.1642 -0.7183 -0.3317
 7130WAT     H229241   1.944   6.818   6.724  0.2469  0.2699  0.1761
 7130WAT    EPW29242   1.868   6.801   6.732  0.3167 -0.0141  0.2595
 7131WAT      O29243   2.513   7.365   5.170  0.0430  0.2094  0.4336
 7131WAT     H129244   2.459   7.417   5.126 -0.2213 -1.1635 -0.9456
 7131WAT     H229245   2.466   7.293   5.185  0.5767  0.1069  1.8045
 7131WAT    EPW29246   2.498   7.362   5.166  0.0828 -0.0085  0.4324
 7132WAT      O29247   4.460   6.302   5.435  0.4278 -0.2694 -0.3238
 7132WAT     H129248   4.452   6.277   5.518  0.7456 -0.1279 -0.2520
 7132WAT     H229249   4.380   6.333   5.415  0.1728 -0.8714 -0.2603
 7132WAT    EPW29250   4.447   6.303   5.444  0.4371 -0.3374 -0.3038
 7133WAT      O29251   2.737   5.339   5.418 -0.2705  0.1775 -0.1702
 7133WAT     H129252   2.762   5.266   5.459 -0.5522  0.7083  0.9917
 7133WAT     H229253   2.806   5.392   5.425 -0.4708  0.4214 -0.0055
 7133WAT    EPW29254   2.751   5.336   5.425 -0.3417  0.2919  0.0258
 7134WAT      O29255   2.758   4.731   5.890 -0.6179  0.0931 -1.0503
 7134WAT     H129256   2.729   4.653   5.916 -0.9058  0.6872  0.5273
 7134WAT     H229257   2.835   4.739   5.932 -0.4371  0.5279 -1.4562
 7134WAT    EPW29258   2.765   4.720   5.900 -0.6337  0.2451 -0.8772
 7135WAT      O29259   2.526   3.649   5.132 -0.0901 -0.1180  0.1514
 7135WAT     H129260   2.558   3.575   5.165  1.1935  0.9688  1.4455
 7135WAT     H229261   2.575   3.664   5.062 -1.7982 -1.5903 -1.4894
 7135WAT    EPW29262   2.538   3.641   5.126 -0.1528 -0.1750  0.1002
 7136WAT      O29263   3.729   5.592   3.737  0.2266  0.6291  0.3492
 7136WAT     H129264   3.694   5.514   3.719 -1.2357  0.8903  1.8137
 7136WAT     H229265   3.810   5.586   3.704 -0.6244 -0.5864 -1.7635
 7136WAT    EPW29266   3.736   5.580   3.729 -0.1151  0.4881  0.2534
 7137WAT      O29267   1.561   5.523   6.185  0.2097 -0.5435  0.3543
 7137WAT     H129268   1.584   5.443   6.210 -0.5197 -0.9733 -0.3232
 7137WAT     H229269   1.476   5.516   6.167 -0.0302  0.5552  0.9508
 7137WAT    EPW29270   1.552   5.510   6.186  0.0665 -0.4447  0.3424
 7138WAT      O29271   3.133   5.483   4.388 -0.0635  0.6664 -0.1527
 7138WAT     H129272   3.169   5.560   4.409 -0.4017  0.8706 -0.3101
 7138WAT     H229273   3.131   5.439   4.463  0.7419  0.5568 -0.1862
 7138WAT    EPW29274   3.138   5.488   4.402  0.0055  0.6804 -0.1809
 7139WAT      O29275   3.500   4.843   5.443  0.7032 -0.1396 -0.4275
 7139WAT     H129276   3.586   4.855   5.436  0.8475 -1.2101 -0.6986
 7139WAT     H229277   3.466   4.914   5.405  1.4313  1.0274  0.9967
 7139WAT    EPW29278   3.508   4.855   5.436  0.8321 -0.1253 -0.2572
 7140WAT      O29279   3.323   6.611   4.422 -0.0074 -0.0724  0.2447
 7140WAT     H129280   3.319   6.636   4.338  1.7640 -1.8635 -0.4354
 7140WAT     H229281   3.376   6.670   4.458  1.5035 -0.8917 -0.5798
 7140WAT    EPW29282   3.330   6.623   4.415  0.4775 -0.4580  0.0224
 7141WAT      O29283   2.200   6.075   7.379 -0.2406 -0.2384  0.2720
 7141WAT     H129284   2.179   6.032   7.307  1.2617  0.3955 -0.5957
 7141WAT     H229285   2.267   6.029   7.411  2.0765  1.8312 -1.2131
 7141WAT    EPW29286   2.207   6.062   7.373  0.3236  0.1609 -0.0756
 7142WAT      O29287   2.644   5.562   2.031 -0.3705 -0.2002  0.1832
 7142WAT     H129288   2.587   5.533   1.971 -1.7059 -0.7607  1.6678
 7142WAT     H229289   2.720   5.565   1.987 -1.7337  1.9991 -2.2999
 7142WAT    EPW29290   2.647   5.558   2.015 -0.7692  0.0419  0.0357
 7143WAT      O29291   2.946   6.892   5.344  0.1235 -0.2122 -0.4831
 7143WAT     H129292   2.882   6.950   5.362  1.1658  0.7721  0.2086
 7143WAT     H229293   2.957   6.900   5.258  0.4942  0.9207 -0.3526
 7143WAT    EPW29294   2.938   6.902   5.334  0.3322  0.1005 -0.3616
 7144WAT      O29295   2.473   7.443   4.490  0.5236  0.2987  0.0134
 7144WAT     H129296   2.388   7.443   4.508  0.7592  2.6291  1.5707
 7144WAT     H229297   2.483   7.374   4.438 -2.0771 -0.7722  0.7761
 7144WAT    EPW29298   2.462   7.433   4.485  0.1742  0.4847  0.3561
 7145WAT      O29299   2.473   7.523   5.389 -0.1115  0.2503  0.6065
 7145WAT     H129300   2.502   7.474   5.323 -0.6516  0.3078  0.3248
 7145WAT     H229301   2.528   7.504   5.454 -0.0925 -0.4476  0.3884
 7145WAT    EPW29302   2.485   7.513   5.389 -0.1885  0.1557  0.5327
 7146WAT      O29303   3.268   6.235   5.345  0.4226  0.0270 -0.1297
 7146WAT     H129304   3.310   6.221   5.270  0.3625 -3.1954  0.2838
 7146WAT     H229305   3.185   6.214   5.326  0.1020  0.7639  0.4442
 7146WAT    EPW29306   3.262   6.230   5.331  0.3664 -0.3401  0.0161
 7147WAT      O29307   2.733   7.115   4.762  0.1077  0.3596 -0.1745
 7147WAT     H129308   2.700   7.046   4.803  0.1498 -0.7326 -1.9077
 7147WAT     H229309   2.713   7.182   4.815 -1.7403 -0.6975  0.5463
 7147WAT    EPW29310   2.725   7.115   4.776 -0.1590  0.0421 -0.3241
 7148WAT      O29311   2.437   3.975   6.747 -0.5056 -0.3077  0.0152
 7148WAT     H129312   2.388   4.040   6.777 -0.2697  0.1009 -0.4768
 7148WAT     H229313   2.477   4.009   6.678 -0.9140 -1.1722 -0.6816
 7148WAT    EPW29314   2.435   3.989   6.741 -0.5311 -0.3751 -0.1604
 7149WAT      O29315   2.863   7.420   4.626  0.4779  0.2328 -0.2023
 7149WAT     H129316   2.849   7.384   4.548  0.3428  0.6203 -0.3636
 7149WAT     H229317   2.783   7.430   4.658  0.2888  2.4787 -1.1364
 7149WAT    EPW29318   2.849   7.416   4.619  0.4300  0.6218 -0.3641
 7150WAT      O29319   2.307   7.362   7.374  0.4079 -0.1714 -0.3165
 7150WAT     H129320   2.251   7.338   7.311 -0.3125  0.2601  0.1439
 7150WAT     H229321   2.254   7.386   7.439  1.1426 -0.6695  0.4753
 7150WAT    EPW29322   2.291   7.362   7.374  0.4100 -0.1812 -0.1315
 7151WAT      O29323   4.255   0.302   3.303 -0.8487  0.0501  0.4018
 7151WAT     H129324   4.244   0.382   3.336 -1.4805 -0.0853  0.5260
 7151WAT     H229325   4.200   0.253   3.350 -1.5398 -0.2000 -0.6391
 7151WAT    EPW29326   4.245   0.307   3.315 -1.0441 -0.0068  0.2664
 7152WAT      O29327   2.517   4.103   5.756 -0.3714  0.4784  0.1272
 7152WAT     H129328   2.544   4.046   5.817  0.5258 -0.5449 -1.1753
 7152WAT     H229329   2.529   4.060   5.681  2.2923  3.0599 -1.1227
 7152WAT    EPW29330   2.523   4.088   5.754  0.1546  0.7086 -0.2499
 7153WAT      O29331   2.816   7.533   5.069  0.0202  0.1348  0.2131
 7153WAT     H129332   2.797   7.560   5.150 -1.2160 -0.6875  0.2125
 7153WAT     H229333   2.800   7.604   5.020  0.3924  0.5149  0.6258
 7153WAT    EPW29334   2.811   7.548   5.074 -0.1074  0.0695  0.2740
 7154WAT      O29335   2.279   7.165   5.221 -0.2706  0.1440 -0.0332
 7154WAT     H129336   2.210   7.217   5.210  0.1743  0.6594 -0.4893
 7154WAT     H229337   2.251   7.087   5.194 -0.7102  0.3261 -0.0993
 7154WAT    EPW29338   2.265   7.161   5.215 -0.2698  0.2470 -0.1103
 7155WAT      O29339   1.800   6.556   4.809 -0.4978 -0.1734 -0.1282
 7155WAT     H129340   1.731   6.594   4.846 -1.8683 -0.6134 -2.0354
 7155WAT     H229341   1.797   6.474   4.838 -1.8023 -0.6258 -1.4050
 7155WAT    EPW29342   1.789   6.549   4.819 -0.8930 -0.3052 -0.5986
 7156WAT      O29343   3.183   5.431   4.123 -0.1025 -0.3708 -0.1753
 7156WAT     H129344   3.183   5.427   4.210 -0.5664  0.9333 -0.0976
 7156WAT     H229345   3.268   5.427   4.103 -0.0572 -3.3888  0.1242
 7156WAT    EPW29346   3.196   5.430   4.133 -0.1643 -0.6240 -0.1196
 7157WAT      O29347   3.424   7.115   3.366  0.0595 -0.2890 -0.0721
 7157WAT     H129348   3.396   7.111   3.284  1.8619  0.3756 -0.7809
 7157WAT     H229349   3.498   7.068   3.365  1.8337  2.2374  0.3124
 7157WAT    EPW29350   3.431   7.108   3.354  0.5878  0.1824 -0.1200
 7158WAT      O29351   3.163   5.781   4.663  0.0154  0.0166  0.0702
 7158WAT     H129352   3.080   5.758   4.679 -1.4418  4.3831  0.0932
 7158WAT     H229353   3.196   5.796   4.743 -0.5626  2.0815 -0.0292
 7158WAT    EPW29354   3.156   5.780   4.677 -0.2852  0.9667  0.0589
 7159WAT      O29355   3.093   0.062   3.396 -0.2086 -0.4884 -0.0766
 7159WAT     H129356   3.070   0.079   3.314  1.3820  1.4104 -0.2109
 7159WAT     H229357   3.173   0.029   3.389 -1.1171 -3.0840  0.6064
 7159WAT    EPW29358   3.102   0.060   3.383 -0.1078 -0.5913  0.0044
 7160WAT      O29359   3.471   6.053   6.292 -0.0580 -0.0479  0.2244
 7160WAT     H129360   3.509   6.057   6.371  0.1581 -0.3728  0.1414
 7160WAT     H229361   3.414   5.987   6.300  0.2218 -0.3199  0.0048
 7160WAT    EPW29362   3.469   6.043   6.305  0.0153 -0.1361  0.1797
 7161WAT      O29363   5.681   5.971   3.723 -0.3942  0.0393 -0.0398
 7161WAT     H129364   5.595   5.984   3.730 -0.5790 -1.1068  0.0002
 7161WAT     H229365   5.703   6.016   3.652 -0.6636  1.9366  0.9942
 7161WAT    EPW29366   5.671   5.979   3.714 -0.4613  0.1503  0.1188
 7162WAT      O29367   2.225   4.216   5.915  0.0782  0.2768 -0.1833
 7162WAT     H129368   2.290   4.195   5.860 -0.8593  2.0902 -2.1196
 7162WAT     H229369   2.224   4.150   5.972  0.9713 -1.8680 -2.4896
 7162WAT    EPW29370   2.234   4.203   5.915  0.0716  0.2278 -0.8100
 7163WAT      O29371   4.351   4.982   5.350 -0.3703 -0.4318  0.1591
 7163WAT     H129372   4.405   4.917   5.370 -0.4319  0.4038  3.7105
 7163WAT     H229373   4.385   5.051   5.392 -1.8596  1.2024 -1.1052
 7163WAT    EPW29374   4.364   4.983   5.359 -0.5994 -0.0670  0.4970
 7164WAT      O29375   0.939   7.520   5.401  0.2897  0.0919  0.1320
 7164WAT     H129376   0.898   7.445   5.414  1.7770 -0.8121 -0.1499
 7164WAT     H229377   0.903   7.574   5.460 -0.4900 -0.9542  0.6389
 7164WAT    EPW29378   0.928   7.517   5.412  0.3942 -0.1962  0.1653
 7165WAT      O29379   2.753   6.480   5.200 -0.1826 -0.4819 -0.4324
 7165WAT     H129380   2.794   6.544   5.157 -0.0789 -0.6720 -0.6192
 7165WAT     H229381   2.745   6.417   5.140  1.2119 -1.3004  0.1786
 7165WAT    EPW29382   2.758   6.480   5.185  0.0387 -0.6309 -0.3698
 7166WAT      O29383   2.852   6.555   5.809  0.4831  0.4073  0.6235
 7166WAT     H129384   2.926   6.524   5.776  0.0242  0.5719 -0.5948
 7166WAT     H229385   2.855   6.640   5.789  0.2512  0.5408  1.1341
 7166WAT    EPW29386   2.863   6.563   5.801  0.3811  0.4514  0.5190
 7167WAT      O29387   2.774   4.780   2.997 -0.0290  0.0177  0.1693
 7167WAT     H129388   2.807   4.712   3.040 -1.9527  0.3998  2.3985
 7167WAT     H229389   2.734   4.827   3.058  0.2358  2.5977 -1.4734
 7167WAT    EPW29390   2.773   4.777   3.012 -0.2741  0.4552  0.2559
 7168WAT      O29391   2.505   5.707   2.581 -0.0555 -0.1397  0.0148
 7168WAT     H129392   2.506   5.735   2.499  0.3234 -0.0596  0.0457
 7168WAT     H229393   2.555   5.765   2.623 -0.3288 -0.1211  0.3213
 7168WAT    EPW29394   2.512   5.720   2.575 -0.0399 -0.1251  0.0646
 7169WAT      O29395   2.613   4.234   1.920 -0.5296  0.6671 -0.1890
 7169WAT     H129396   2.677   4.284   1.888  0.1537 -0.8476 -1.3415
 7169WAT     H229397   2.647   4.199   1.992 -0.1306  0.1007 -0.6373
 7169WAT    EPW29398   2.627   4.236   1.926 -0.3697  0.3597 -0.4255
 7170WAT      O29399   3.296   6.642   2.036 -0.1507 -0.1595 -0.6459
 7170WAT     H129400   3.262   6.693   2.097 -1.7358 -0.2366 -1.4374
 7170WAT     H229401   3.335   6.578   2.082 -0.0192  0.5785  0.2855
 7170WAT    EPW29402   3.297   6.640   2.052 -0.3654 -0.0619 -0.6252
 7171WAT      O29403   2.105   5.999   0.221  0.2958 -0.3973 -0.1703
 7171WAT     H129404   2.092   6.068   0.272  1.3576  0.1436 -0.5855
 7171WAT     H229405   2.172   6.024   0.170  1.1700 -1.9884  0.1487
 7171WAT    EPW29406   2.113   6.013   0.221  0.5818 -0.5524 -0.1845
 7172WAT      O29407   2.385   5.030   2.418 -0.1650 -0.3459 -0.3316
 7172WAT     H129408   2.361   5.073   2.489 -0.8276 -2.4074  0.7659
 7172WAT     H229409   2.458   4.989   2.442 -1.0084 -1.9838 -0.3996
 7172WAT    EPW29410   2.392   5.030   2.432 -0.3875 -0.8924 -0.1795
 7173WAT      O29411   1.084   5.553   3.802  0.3098  0.1679  0.0357
 7173WAT     H129412   1.025   5.501   3.763 -0.5066 -0.3655  1.8680
 7173WAT     H229413   1.157   5.505   3.800  0.2043  0.0164 -0.5218
 7173WAT    EPW29414   1.086   5.538   3.796  0.1736  0.0667  0.2241
 7174WAT      O29415   3.556   6.638   3.169  0.0441 -0.4581  0.2197
 7174WAT     H129416   3.500   6.661   3.232  0.2148 -0.5871  0.4194
 7174WAT     H229417   3.606   6.709   3.159  1.0751 -0.9803  1.3807
 7174WAT    EPW29418   3.555   6.652   3.177  0.2216 -0.5543  0.4207
 7175WAT      O29419   2.343   4.575   2.375 -0.3044 -0.8876 -0.3017
 7175WAT     H129420   2.410   4.585   2.430  0.3343 -0.1469 -1.1667
 7175WAT     H229421   2.344   4.490   2.357  0.0118 -0.9886  0.1794
 7175WAT    EPW29422   2.353   4.564   2.380 -0.1633 -0.7931 -0.3584
 7176WAT      O29423   3.271   6.390   1.719 -0.5175  0.3986 -0.9527
 7176WAT     H129424   3.190   6.360   1.708  0.5988 -2.5533 -2.0675
 7176WAT     H229425   3.288   6.373   1.803 -0.7157  0.1024 -0.9723
 7176WAT    EPW29426   3.262   6.383   1.729 -0.3819 -0.0812 -1.1203
 7177WAT      O29427   1.264   6.718   3.393 -0.1590  0.0757  0.5126
 7177WAT     H129428   1.307   6.750   3.462  1.2933 -0.4615 -0.0918
 7177WAT     H229429   1.180   6.728   3.414  0.2549  0.8693  1.9011
 7177WAT    EPW29430   1.258   6.724   3.407  0.1167  0.1136  0.6285
 7178WAT      O29431   2.969   5.621   2.470  0.0494  0.2995 -0.4439
 7178WAT     H129432   2.999   5.657   2.543 -1.3127  1.1356 -0.2657
 7178WAT     H229433   2.915   5.559   2.498  0.6545 -0.3824 -0.7572
 7178WAT    EPW29434   2.966   5.617   2.485 -0.0624  0.3223 -0.4639
 7179WAT      O29435   3.316   5.945   1.728 -0.8944  0.1206 -0.4690
 7179WAT     H129436   3.236   5.976   1.713 -0.1545  1.4040 -2.1711
 7179WAT     H229437   3.345   5.924   1.648  0.1257 -1.2511  0.2214
 7179WAT    EPW29438   3.308   5.946   1.714 -0.6344  0.1076 -0.6185
 7180WAT      O29439   3.209   4.430   3.315  0.3701  0.0042  0.1091
 7180WAT     H129440   3.187   4.493   3.258 -3.5140 -0.8874  0.3657
 7180WAT     H229441   3.266   4.381   3.270 -1.2987  0.2434 -2.4885
 7180WAT    EPW29442   3.215   4.432   3.300 -0.4502 -0.0922 -0.2367
 7181WAT      O29443   3.140   6.878   3.917 -0.4049 -0.0666 -0.7256
 7181WAT     H129444   3.091   6.918   3.977  0.5970 -1.0240  0.7943
 7181WAT     H229445   3.177   6.944   3.874 -1.4037  0.6438 -0.5448
 7181WAT    EPW29446   3.138   6.894   3.920 -0.4044 -0.1031 -0.4744
 7182WAT      O29447   2.770   4.534   2.807 -0.1491  0.3822 -0.4976
 7182WAT     H129448   2.745   4.598   2.860  0.4303  0.4187 -0.2641
 7182WAT     H229449   2.850   4.513   2.836 -0.4144 -0.5810 -0.4403
 7182WAT    EPW29450   2.778   4.540   2.819 -0.1027  0.2453 -0.4547
 7183WAT      O29451   2.148   6.490   3.678  0.0558 -0.3436  0.6418
 7183WAT     H129452   2.200   6.454   3.738 -1.1430 -1.8844  0.8375
 7183WAT     H229453   2.203   6.516   3.616  1.0522 -2.9795  0.2797
 7183WAT    EPW29454   2.164   6.488   3.678  0.0259 -0.9606  0.6172
 7184WAT      O29455   3.526   5.430   4.240  0.2690  0.1707 -0.0881
 7184WAT     H129456   3.534   5.421   4.326 -0.4332  1.3873  0.1282
 7184WAT     H229457   3.483   5.358   4.216 -2.2187  1.1485  1.0566
 7184WAT    EPW29458   3.520   5.418   4.249 -0.2022  0.4949  0.1130
 7185WAT      O29459   3.933   4.459   0.284 -0.4079 -0.1625 -0.1077
 7185WAT     H129460   4.015   4.428   0.278 -0.1851  0.3077  0.4018
 7185WAT     H229461   3.884   4.391   0.260  0.0917 -0.7843  0.5704
 7185WAT    EPW29462   3.938   4.444   0.280 -0.3012 -0.1849  0.0677
 7186WAT      O29463   3.928   4.014   3.660 -0.6303  0.2406  0.6095
 7186WAT     H129464   3.868   3.994   3.720 -1.0618 -0.0280  0.0909
 7186WAT     H229465   3.914   3.956   3.597 -1.2561  1.5463 -0.5004
 7186WAT    EPW29466   3.917   4.002   3.660 -0.7865  0.3938  0.3689
 7187WAT      O29467   3.450   4.207   3.500 -0.4025  0.3687  0.0222
 7187WAT     H129468   3.408   4.200   3.424 -1.2410 -0.3323  0.5447
 7187WAT     H229469   3.534   4.210   3.476 -0.5505 -1.4445 -0.8680
 7187WAT    EPW29470   3.457   4.207   3.485 -0.5483 -0.0027 -0.0321
 7188WAT      O29471   2.444   4.879   3.299 -0.5926 -0.0176  0.3632
 7188WAT     H129472   2.431   4.964   3.315  0.8752  0.8523 -2.3232
 7188WAT     H229473   2.367   4.851   3.270 -0.9199  0.5407  0.6745
 7188WAT    EPW29474   2.431   4.887   3.297 -0.4241  0.1934  0.0123
 7189WAT      O29475   0.916   5.446   3.599 -0.3119  0.0286 -0.3649
 7189WAT     H129476   0.968   5.414   3.536 -0.6328 -0.4914 -0.3708
 7189WAT     H229477   0.889   5.375   3.641 -0.6109  0.3342 -0.0337
 7189WAT    EPW29478   0.920   5.431   3.596 -0.4035 -0.0031 -0.3168
 7190WAT      O29479   2.920   6.692   1.981 -1.1096  0.8511  0.0618
 7190WAT     H129480   2.996   6.682   1.939 -1.2315 -1.0519  0.2276
 7190WAT     H229481   2.912   6.779   1.987 -0.6478  1.2519 -3.0549
 7190WAT    EPW29482   2.930   6.703   1.976 -1.0594  0.6292 -0.3741
 7191WAT      O29483   3.344   6.454   3.943 -0.2429 -0.4900  0.3928
 7191WAT     H129484   3.275   6.497   3.975 -0.4965 -1.2753  0.9273
 7191WAT     H229485   3.308   6.387   3.900  0.0719  0.6599 -1.8354
 7191WAT    EPW29486   3.328   6.450   3.941 -0.2338 -0.4361  0.1426
 7192WAT      O29487   1.973   6.621   2.396 -0.1053  0.4099 -0.1768
 7192WAT     H129488   1.962   6.538   2.371  0.0612  0.4001 -0.2144
 7192WAT     H229489   2.058   6.635   2.385 -0.2254  0.7566 -0.7084
 7192WAT    EPW29490   1.984   6.611   2.391 -0.0985  0.4597 -0.2609
 7193WAT      O29491   1.403   6.211   2.587 -0.4747 -0.0554 -0.8283
 7193WAT     H129492   1.347   6.163   2.540 -1.7274  2.1883 -1.7650
 7193WAT     H229493   1.355   6.237   2.655  0.6244 -1.2608  0.4621
 7193WAT    EPW29494   1.388   6.207   2.590 -0.4974  0.0980 -0.7761
 7194WAT      O29495   3.155   5.431   4.672  0.3317 -0.0071 -0.6369
 7194WAT     H129496   3.205   5.426   4.744  1.9920 -2.1422 -1.8376
 7194WAT     H229497   3.097   5.367   4.683 -2.7962  2.7780  1.0059
 7194WAT    EPW29498   3.154   5.421   4.685  0.1149  0.0889 -0.5716
 7195WAT      O29499   2.949   5.543   4.019  0.1589 -0.7637 -0.1801
 7195WAT     H129500   2.960   5.551   3.933  1.0756 -1.9350 -0.1986
 7195WAT     H229501   3.027   5.517   4.048  0.1526  0.5785  1.1654
 7195WAT    EPW29502   2.962   5.540   4.010  0.2934 -0.7384  0.0159
 7196WAT      O29503   2.707   5.576   3.011 -0.2404 -0.1749  0.1501
 7196WAT     H129504   2.645   5.519   2.988 -1.2913 -0.7960  3.9162
 7196WAT     H229505   2.668   5.653   2.998 -1.2827 -0.5224  1.0296
 7196WAT    EPW29506   2.692   5.579   3.006 -0.5496 -0.3180  0.8364
 7197WAT      O29507   3.644   5.347   2.797 -0.3479  0.3157  0.1643
 7197WAT     H129508   3.600   5.282   2.835  0.7978 -0.6559 -0.0968
 7197WAT     H229509   3.687   5.307   2.733  0.5100  1.3087  0.1008
 7197WAT    EPW29510   3.644   5.331   2.793 -0.0520  0.3189  0.1163
 7198WAT      O29511   4.432   7.320   2.732 -0.5084  0.2600 -0.1212
 7198WAT     H129512   4.516   7.306   2.711 -0.2763  0.8440  0.4143
 7198WAT     H229513   4.433   7.399   2.769 -1.1368 -0.1545  0.8050
 7198WAT    EPW29514   4.445   7.329   2.734 -0.5669  0.2850  0.0947
 7199WAT      O29515   2.126   5.198   3.866  0.0635 -0.6046  0.0405
 7199WAT     H129516   2.075   5.156   3.923 -0.4776 -0.2698 -0.1938
 7199WAT     H229517   2.088   5.275   3.856  1.4536  0.2432  1.0197
 7199WAT    EPW29518   2.113   5.203   3.873  0.1889 -0.4299  0.1505
 7200WAT      O29519   2.580   6.825   2.668 -0.0803  0.3507  0.4586
 7200WAT     H129520   2.656   6.799   2.703  0.3274  0.3830 -0.3866
 7200WAT     H229521   2.535   6.750   2.661  0.1702  0.2204  0.2406
 7200WAT    EPW29522   2.585   6.810   2.672  0.0169  0.3362  0.3015
 7201WAT      O29523   1.766   6.435   2.645 -0.0894 -0.2205  0.2418
 7201WAT     H129524   1.838   6.425   2.692 -0.2257 -0.3955  0.4138
 7201WAT     H229525   1.764   6.521   2.629 -0.1801 -0.1217  0.7748
 7201WAT    EPW29526   1.776   6.447   2.649 -0.1229 -0.2318  0.3459
 7202WAT      O29527   2.974   4.154   2.551 -0.2606  1.1812  0.3121
 7202WAT     H129528   3.054   4.187   2.558  0.8239 -1.3107  0.7980
 7202WAT     H229529   2.938   4.173   2.628  0.5520  0.7258  0.8224
 7202WAT    EPW29530   2.980   4.162   2.564  0.0197  0.7458  0.4593
 7203WAT      O29531   3.579   6.434   3.419  0.6166  0.5121  0.3795
 7203WAT     H129532   3.619   6.508   3.442  0.8100  0.7116 -0.5867
 7203WAT     H229533   3.590   6.430   3.333  0.8659 -0.7962  0.4470
 7203WAT    EPW29534   3.587   6.445   3.410  0.6820  0.3483  0.2467
 7204WAT      O29535   2.562   7.452   3.673 -0.2338  0.7427  0.3880
 7204WAT     H129536   2.611   7.515   3.638  2.1353 -0.4934  1.2033
 7204WAT     H229537   2.482   7.486   3.676  0.4429  2.7122 -1.5345
 7204WAT    EPW29538   2.557   7.466   3.668  0.2161  0.8510  0.2244
 7205WAT      O29539   3.042   6.728   3.325 -0.6845 -0.5185 -0.0506
 7205WAT     H129540   3.123   6.748   3.301 -0.8737  1.7261  0.9220
 7205WAT     H229541   3.010   6.687   3.255  0.8795 -0.3063 -0.9418
 7205WAT    EPW29542   3.049   6.725   3.311 -0.4814 -0.1556 -0.0386
 7206WAT      O29543   3.646   5.133   3.144  0.0831  0.1608  0.1471
 7206WAT     H129544   3.691   5.068   3.107  0.0867  0.0948  0.2691
 7206WAT     H229545   3.602   5.094   3.208 -1.0137  0.0152 -0.6633
 7206WAT    EPW29546   3.646   5.118   3.148 -0.0784  0.1296  0.0454
 7207WAT      O29547   2.194   5.189   3.154  0.0346  0.3089 -0.1073
 7207WAT     H129548   2.228   5.167   3.231 -1.2627 -2.3355 -0.1820
 7207WAT     H229549   2.241   5.259   3.130  4.9184 -2.4166  0.1408
 7207WAT    EPW29550   2.206   5.196   3.162  0.5644 -0.4844 -0.0817
 7208WAT      O29551   4.711   5.177   2.189  0.2196  0.3103  0.2259
 7208WAT     H129552   4.699   5.240   2.130  1.8435 -1.3389 -2.0666
 7208WAT     H229553   4.764   5.214   2.248  1.0580  1.1558 -1.0136
 7208WAT    EPW29554   4.717   5.192   2.189  0.5833  0.1915 -0.2959
 7209WAT      O29555   3.019   6.592   1.527  0.2272 -0.3216 -0.7568
 7209WAT     H129556   3.018   6.653   1.590  0.5289  0.9099 -1.8943
 7209WAT     H229557   3.086   6.617   1.476  0.7550 -1.9744 -0.9322
 7209WAT    EPW29558   3.029   6.605   1.529  0.3497 -0.3838 -0.9507
 7210WAT      O29559   2.856   5.587   1.467  0.0922 -0.0169  0.2635
 7210WAT     H129560   2.772   5.571   1.452 -0.0370 -1.1962  1.9814
 7210WAT     H229561   2.897   5.518   1.432  0.4139  0.7978 -1.0133
 7210WAT    EPW29562   2.850   5.574   1.460  0.1206 -0.0708  0.3287
 7211WAT      O29563   2.170   5.743   0.912 -0.1243  0.1117 -0.0649
 7211WAT     H129564   2.234   5.790   0.874 -0.0662  0.8500  0.8982
 7211WAT     H229565   2.175   5.665   0.872  0.9732  0.3521 -0.4311
 7211WAT    EPW29566   2.180   5.739   0.900  0.0464  0.2563  0.0233
 7212WAT      O29567   1.750   7.532   3.046 -0.2719  0.0630  0.0048
 7212WAT     H129568   1.752   7.481   3.117 -0.5375 -2.2351 -1.5450
 7212WAT     H229569   1.835   7.544   3.028 -0.1933 -0.4015  0.0350
 7212WAT    EPW29570   1.763   7.526   3.054 -0.2995 -0.3451 -0.2197
 7213WAT      O29571   3.510   5.745   3.763  0.1349 -0.0563 -0.4814
 7213WAT     H129572   3.576   5.688   3.764  0.1144 -0.1260 -1.6436
 7213WAT     H229573   3.440   5.695   3.750  0.1083  0.2101 -1.4410
 7213WAT    EPW29574   3.509   5.729   3.761  0.1279 -0.0273 -0.7948
 7214WAT      O29575   4.967   5.059   2.919 -0.0864 -0.1910 -0.2619
 7214WAT     H129576   4.923   4.992   2.954 -1.6809  0.0798 -1.6241
 7214WAT     H229577   5.038   5.021   2.886 -0.6808 -1.1316 -0.5036
 7214WAT    EPW29578   4.971   5.044   2.920 -0.4098 -0.2899 -0.4989
 7215WAT      O29579   3.709   4.269   2.180  0.5769  0.5464 -0.0511
 7215WAT     H129580   3.705   4.211   2.115  0.2435  0.9270 -0.3767
 7215WAT     H229581   3.708   4.219   2.252  0.4268  0.1401 -0.3296
 7215WAT    EPW29582   3.708   4.253   2.181  0.5055  0.5426 -0.1403
 7216WAT      O29583   4.259   6.737   3.223  0.6486 -0.3587 -0.9443
 7216WAT     H129584   4.308   6.735   3.150  0.8995  1.4398 -0.8579
 7216WAT     H229585   4.305   6.787   3.277 -2.3693  3.7655 -1.7509
 7216WAT    EPW29586   4.273   6.744   3.220  0.2398  0.5162 -1.0507
 7217WAT      O29587   4.011   5.511   3.726 -0.3041 -0.1242 -0.9357
 7217WAT     H129588   3.981   5.439   3.687  1.4564 -0.6899 -1.3377
 7217WAT     H229589   4.041   5.560   3.660 -1.9186  1.2586 -0.7236
 7217WAT    EPW29590   4.011   5.508   3.710 -0.2825 -0.0035 -0.9638
 7218WAT      O29591   3.881   6.494   2.434  0.3059 -0.4490 -0.1470
 7218WAT     H129592   3.880   6.570   2.390  1.0960  0.0345  0.6625
 7218WAT     H229593   3.816   6.448   2.396  0.4794  0.2371 -1.3138
 7218WAT    EPW29594   3.871   6.498   2.422  0.4482 -0.2762 -0.1998
 7219WAT      O29595   3.089   6.041   4.515 -0.6345 -0.2043 -0.1435
 7219WAT     H129596   3.133   6.113   4.536 -0.4438 -0.3825  0.0762
 7219WAT     H229597   3.121   5.981   4.570 -0.2328 -0.6439 -0.8464
 7219WAT    EPW29598   3.100   6.043   4.527 -0.5470 -0.2956 -0.2149
 7220WAT      O29599   3.101   5.884   4.255 -0.5457 -0.5145  0.2401
 7220WAT     H129600   3.043   5.841   4.206 -0.1954  1.3553 -2.0039
 7220WAT     H229601   3.052   5.920   4.318 -1.5994 -0.2119 -0.7264
 7220WAT    EPW29602   3.085   5.883   4.257 -0.6496 -0.1936 -0.2341
 7221WAT      O29603   2.404   7.601   3.043  0.0909  0.0839 -0.2207
 7221WAT     H129604   2.384   7.530   3.089  0.8701  0.0624  0.0941
 7221WAT     H229605   2.413   7.663   3.103  2.0198 -0.1398 -0.2060
 7221WAT    EPW29606   2.402   7.600   3.059  0.4909  0.0477 -0.1721
 7222WAT      O29607   2.855   5.400   3.170 -0.2671 -0.0546 -0.3958
 7222WAT     H129608   2.809   5.461   3.129 -0.8989 -0.2376  0.0315
 7222WAT     H229609   2.805   5.328   3.163 -2.3222  0.6471  3.8456
 7222WAT    EPW29610   2.841   5.398   3.163 -0.6640  0.0220  0.2938
 7223WAT      O29611   4.367   5.069   2.656 -0.2715 -0.3528  0.0182
 7223WAT     H129612   4.439   5.035   2.620  0.4136  0.8505  0.2290
 7223WAT     H229613   4.326   4.999   2.689  1.4450 -0.9138  1.0707
 7223WAT    EPW29614   4.372   5.053   2.655  0.0833 -0.2579  0.2048
 7224WAT      O29615   3.209   4.810   3.516 -0.0379  0.1343  0.1093
 7224WAT     H129616   3.293   4.822   3.500 -0.4051  1.9889 -0.6930
 7224WAT     H229617   3.199   4.723   3.513  1.4469 -0.0275 -1.9217
 7224WAT    EPW29618   3.220   4.799   3.513  0.1272  0.3843 -0.3093
 7225WAT      O29619   2.409   6.969   4.336 -0.4759  0.3433  0.5711
 7225WAT     H129620   2.437   7.040   4.294  0.2697 -0.4989 -0.3873
 7225WAT     H229621   2.475   6.948   4.389  0.2238 -0.8526 -0.7063
 7225WAT    EPW29622   2.423   6.976   4.338 -0.2624  0.0422  0.2408
 7226WAT      O29623   1.784   5.027   2.238  0.0698  0.0416  0.4363
 7226WAT     H129624   1.855   5.054   2.281 -1.1357  2.3216  1.1494
 7226WAT     H229625   1.778   5.082   2.170 -1.8463  0.9537  1.2733
 7226WAT    EPW29626   1.794   5.039   2.234 -0.3913  0.5131  0.6653
 7227WAT      O29627   2.635   5.869   1.996 -0.5132 -0.6872  0.5666
 7227WAT     H129628   2.565   5.905   1.959  0.0671  0.1843  0.2940
 7227WAT     H229629   2.615   5.784   2.000 -0.8850 -0.7077 -1.1014
 7227WAT    EPW29630   2.622   5.862   1.991 -0.4824 -0.5615  0.2799
 7228WAT      O29631   3.566   7.463   1.516 -0.2465  0.5111  0.5790
 7228WAT     H129632   3.527   7.540   1.508 -0.7969  0.1607 -0.3230
 7228WAT     H229633   3.569   7.433   1.434  0.1337 -0.3348  0.8874
 7228WAT    EPW29634   3.561   7.470   1.503 -0.2716  0.3344  0.4913
 7229WAT      O29635   2.347   7.608   4.151 -0.5602 -0.2365  0.4092
 7229WAT     H129636   2.377   7.542   4.102  1.6235 -1.1911  2.7518
 7229WAT     H229637   2.284   7.571   4.198 -0.7075 -0.1028  0.3167
 7229WAT    EPW29638   2.342   7.593   4.151 -0.2594 -0.3578  0.7416
 7230WAT      O29639   2.628   6.388   2.987 -0.7590 -0.3328 -0.0686
 7230WAT     H129640   2.580   6.318   3.010 -2.1104  0.6362  0.1659
 7230WAT     H229641   2.572   6.455   2.996  0.1860  0.6671 -1.2947
 7230WAT    EPW29642   2.612   6.387   2.992 -0.8191 -0.0420 -0.2151
 7231WAT      O29643   3.291   6.443   3.497  0.7763  0.5738  0.0980
 7231WAT     H129644   3.276   6.377   3.443  0.4017  1.2313 -0.6131
 7231WAT     H229645   3.377   6.459   3.487  0.8884  0.1339  0.3486
 7231WAT    EPW29646   3.302   6.436   3.488  0.7375  0.6059  0.0300
 7232WAT      O29647   3.539   4.776   2.971 -0.5271 -0.6211  0.2603
 7232WAT     H129648   3.597   4.785   3.035 -0.3324 -0.8823  0.1187
 7232WAT     H229649   3.571   4.712   2.921  0.5842  1.1319 -1.4537
 7232WAT    EPW29650   3.552   4.768   2.973 -0.3342 -0.4007 -0.0138
 7233WAT      O29651   3.115   7.153   2.026 -0.2641 -0.1927  0.5361
 7233WAT     H129652   3.139   7.219   2.079 -0.7668  1.2995 -0.9909
 7233WAT     H229653   3.188   7.105   2.018  0.9391  1.6547 -0.3476
 7233WAT    EPW29654   3.129   7.156   2.033 -0.1606  0.3007  0.1800
 7234WAT      O29655   2.142   6.766   3.977  0.1220 -0.0502 -0.0573
 7234WAT     H129656   2.091   6.751   3.908 -0.0244 -0.3795  0.1209
 7234WAT     H229657   2.093   6.815   4.029 -0.2653 -0.9180  0.4128
 7234WAT    EPW29658   2.127   6.771   3.975  0.0431 -0.2270  0.0385
 7235WAT      O29659   2.545   4.912   4.416 -0.3253 -0.0933 -0.8754
 7235WAT     H129660   2.524   4.946   4.338  0.9555 -0.1478 -1.2750
 7235WAT     H229661   2.578   4.980   4.460 -2.4434  0.2967  0.2212
 7235WAT    EPW29662   2.547   4.927   4.411 -0.4490 -0.0437 -0.7725
 7236WAT      O29663   3.993   5.235   2.252 -0.2153 -0.1652  0.3799
 7236WAT     H129664   4.079   5.245   2.261 -0.3772  1.8019  0.0716
 7236WAT     H229665   3.969   5.197   2.327  0.6442  1.2484  1.4227
 7236WAT    EPW29666   4.002   5.231   2.265 -0.1122  0.3342  0.4884
 7237WAT      O29667   1.157   7.650   3.096  0.2777 -0.1499  0.0870
 7237WAT     H129668   1.100   7.584   3.098 -0.8370  0.7894  0.1229
 7237WAT     H229669   1.140   7.689   3.020  1.2756 -0.1895 -0.1678
 7237WAT    EPW29670   1.146   7.646   3.085  0.2604 -0.0170  0.0547
 7238WAT      O29671   3.451   6.141   3.181  0.0085 -0.4590  0.2848
 7238WAT     H129672   3.383   6.133   3.235  0.4952  0.4874  1.0574
 7238WAT     H229673   3.415   6.166   3.106 -0.4720  0.4325  0.7989
 7238WAT    EPW29674   3.436   6.143   3.178  0.0094 -0.1875  0.4749
 7239WAT      O29675   3.418   7.391   2.421  0.1706  0.7795  0.8751
 7239WAT     H129676   3.502   7.413   2.428  0.3908 -0.0759  1.0485
 7239WAT     H229677   3.376   7.466   2.438  0.8850  1.0784  1.3857
 7239WAT    EPW29678   3.424   7.406   2.425  0.3087  0.6973  0.9761
 7240WAT      O29679   2.017   5.711   1.888  0.1873  0.1215 -0.1963
 7240WAT     H129680   1.952   5.758   1.923  0.9356  0.7874  0.3207
 7240WAT     H229681   2.007   5.633   1.926 -0.8148 -0.0399 -0.7554
 7240WAT    EPW29682   2.006   5.706   1.899  0.1498  0.1960 -0.2025
 7241WAT      O29683   1.893   7.315   3.602  0.0583  0.1094 -0.3007
 7241WAT     H129684   1.921   7.392   3.573  0.7763  0.3474  0.9627
 7241WAT     H229685   1.920   7.259   3.541 -0.7102  0.8539 -1.3780
 7241WAT    EPW29686   1.901   7.318   3.589  0.0508  0.2545 -0.2732
 7242WAT      O29687   3.358   4.803   3.175 -0.0128 -0.0898 -0.6925
 7242WAT     H129688   3.410   4.774   3.239 -1.0179 -1.7881 -0.5916
 7242WAT     H229689   3.408   4.796   3.104  1.4338  2.6594 -0.0886
 7242WAT    EPW29690   3.373   4.798   3.174  0.0524  0.0655 -0.5884
 7243WAT      O29691   2.776   5.433   0.725  0.5965 -0.2948  0.1564
 7243WAT     H129692   2.839   5.385   0.763 -0.2254 -0.5314  1.2783
 7243WAT     H229693   2.740   5.476   0.792  0.9385  1.5023 -0.7344
 7243WAT    EPW29694   2.780   5.433   0.741  0.5256 -0.0643  0.1905
 7244WAT      O29695   1.872   6.501   2.983 -0.1032 -0.1522  0.3272
 7244WAT     H129696   1.905   6.521   3.062  1.0606  1.9774 -0.5953
 7244WAT     H229697   1.794   6.466   3.002 -0.4280  1.4368  2.4147
 7244WAT    EPW29698   1.865   6.499   2.998  0.0207  0.3971  0.4993
 7245WAT      O29699   2.827   5.128   2.527 -0.0643  0.5410 -0.0629
 7245WAT     H129700   2.754   5.173   2.511  0.7637  1.9125 -0.2328
 7245WAT     H229701   2.845   5.089   2.452 -0.2157  0.8376 -0.2554
 7245WAT    EPW29702   2.819   5.129   2.514  0.0356  0.7874 -0.1164
 7246WAT      O29703   4.720   6.673   1.697  0.3483  0.2412 -0.0968
 7246WAT     H129704   4.671   6.724   1.748 -1.1265 -1.5602  0.3795
 7246WAT     H229705   4.672   6.601   1.688  2.1653 -0.9129 -1.0786
 7246WAT    EPW29706   4.706   6.670   1.703  0.3988 -0.1954 -0.1715
 7247WAT      O29707   2.942   0.382   2.974 -0.6966  0.1065 -0.1451
 7247WAT     H129708   2.914   0.437   3.036  0.5710  1.9024 -1.0768
 7247WAT     H229709   3.029   0.384   2.982 -0.5899 -1.1506 -0.7498
 7247WAT    EPW29710   2.950   0.390   2.984 -0.4936  0.1861 -0.3720
 7248WAT      O29711   2.921   6.908   4.098  0.2689 -0.6126  0.1101
 7248WAT     H129712   2.860   6.854   4.130  2.4803 -1.6588  3.0467
 7248WAT     H229713   2.896   6.986   4.126 -0.8204 -0.6934 -0.5991
 7248WAT    EPW29714   2.908   6.911   4.107  0.4346 -0.7791  0.4391
 7249WAT      O29715   2.172   6.063   3.332 -0.3011 -0.2402 -0.4305
 7249WAT     H129716   2.167   6.150   3.325  0.9319 -0.1901 -0.9837
 7249WAT     H229717   2.135   6.047   3.409 -0.1718  0.8208 -0.1213
 7249WAT    EPW29718   2.166   6.074   3.342 -0.0999 -0.0761 -0.4666
 7250WAT      O29719   3.497   5.916   3.540 -0.0465 -0.1513 -0.4780
 7250WAT     H129720   3.434   5.974   3.554  1.4793  1.2337  1.2007
 7250WAT     H229721   3.500   5.871   3.615  2.0135  0.9674  0.1970
 7250WAT    EPW29722   3.488   5.918   3.553  0.4832  0.2185 -0.1303
 7251WAT      O29723   4.184   5.287   2.668  0.4523 -0.2116 -0.0259
 7251WAT     H129724   4.237   5.219   2.656  0.8806  0.1621 -0.2506
 7251WAT     H229725   4.230   5.340   2.720  0.4707  0.3065 -0.5655
 7251WAT    EPW29726   4.198   5.284   2.674  0.5183 -0.0799 -0.1388
 7252WAT      O29727   1.548   6.787   3.834 -0.1903 -0.0042 -0.1906
 7252WAT     H129728   1.565   6.868   3.861  0.3145 -0.0514 -0.3599
 7252WAT     H229729   1.485   6.759   3.889  0.3368  0.1431  0.4956
 7252WAT    EPW29730   1.541   6.795   3.846 -0.0379  0.0106 -0.1142
 7253WAT      O29731   2.505   4.081   1.360  0.0870 -0.5663  0.4545
 7253WAT     H129732   2.438   4.102   1.412 -0.8204 -1.0349 -0.4961
 7253WAT     H229733   2.467   4.049   1.289  1.3036 -0.1397 -0.4324
 7253WAT    EPW29734   2.490   4.080   1.357  0.1327 -0.5725  0.1831
 7254WAT      O29735   1.604   6.451   3.608 -0.1125 -0.0620 -0.1081
 7254WAT     H129736   1.554   6.471   3.540  0.2141 -0.8721 -0.6050
 7254WAT     H229737   1.642   6.526   3.629 -1.0750  0.4332 -0.0934
 7254WAT    EPW29738   1.602   6.465   3.601 -0.2065 -0.1085 -0.1793
 7255WAT      O29739   3.078   5.320   3.600  0.3843 -1.1116 -0.5416
 7255WAT     H129740   3.161   5.294   3.607  0.7129 -1.0930 -3.2849
 7255WAT     H229741   3.081   5.382   3.538 -1.9864 -3.2856 -3.1155
 7255WAT    EPW29742   3.091   5.325   3.592  0.0827 -1.4300 -1.3270
 7256WAT      O29743   2.389   6.640   5.238  0.1358 -0.0161 -0.8811
 7256WAT     H129744   2.377   6.566   5.193 -0.2047 -0.0835 -0.6878
 7256WAT     H229745   2.446   6.617   5.300 -0.9330 -0.4670 -0.0264
 7256WAT    EPW29746   2.395   6.626   5.241 -0.0724 -0.0926 -0.7263
 7257WAT      O29747   2.100   3.700   2.046 -0.2137  0.0244  0.5743
 7257WAT     H129748   2.033   3.647   2.029  1.6441 -2.3492  0.0886
 7257WAT     H229749   2.110   3.694   2.133 -1.0777  1.0362  0.7643
 7257WAT    EPW29750   2.092   3.691   2.057 -0.0669 -0.1768  0.5306
 7258WAT      O29751   1.833   4.451   1.943 -0.4670  0.1305 -0.1707
 7258WAT     H129752   1.914   4.476   1.920 -0.7602  1.3572  0.0734
 7258WAT     H229753   1.825   4.479   2.025 -1.1719  0.0685 -0.2138
 7258WAT    EPW29754   1.844   4.459   1.951 -0.6144  0.3025 -0.1410
 7259WAT      O29755   3.861   7.085   2.017 -0.1435  0.1868 -0.2000
 7259WAT     H129756   3.876   7.152   2.070 -2.7528  1.6233 -1.0947
 7259WAT     H229757   3.869   7.120   1.937  1.3976 -1.3502 -0.7804
 7259WAT    EPW29758   3.864   7.100   2.013 -0.3013  0.1719 -0.4179
 7260WAT      O29759   3.173   6.788   2.277 -0.1705  0.6598  0.4470
 7260WAT     H129760   3.115   6.853   2.276  0.0170  1.0545 -3.8165
 7260WAT     H229761   3.249   6.828   2.260 -0.1772 -0.4919 -3.1586
 7260WAT    EPW29762   3.176   6.804   2.274 -0.1438  0.5480 -0.7154
 7261WAT      O29763   3.239   5.665   3.837  0.1858 -0.3470 -0.3588
 7261WAT     H129764   3.255   5.659   3.922 -0.3554 -1.1627 -0.2929
 7261WAT     H229765   3.246   5.750   3.820  0.4198 -0.1927  0.4722
 7261WAT    EPW29766   3.242   5.676   3.847  0.1404 -0.4447 -0.2263
 7262WAT      O29767   2.975   7.141   3.366 -0.4265  0.4851 -0.1488
 7262WAT     H129768   2.938   7.133   3.288  0.6202 -1.1650 -0.5271
 7262WAT     H229769   2.945   7.072   3.411  0.0825  0.6169  0.4152
 7262WAT    EPW29770   2.965   7.129   3.361 -0.1967  0.2608 -0.1214
 7263WAT      O29771   3.142   5.293   3.002 -0.3788  0.3668 -0.2150
 7263WAT     H129772   3.068   5.324   3.038 -1.0539 -0.5168 -0.8016
 7263WAT     H229773   3.116   5.221   2.960  0.8301  0.0221 -0.4170
 7263WAT    EPW29774   3.127   5.287   3.001 -0.3000  0.1854 -0.3315
 7264WAT      O29775   2.977   6.982   2.346  0.2846 -0.0173 -0.2554
 7264WAT     H129776   2.940   6.997   2.269 -0.0291  2.1117  0.2511
 7264WAT     H229777   3.030   7.050   2.357  0.3536 -0.2933  1.3682
 7264WAT    EPW29778   2.979   6.994   2.336  0.2484  0.2565  0.0593
 7265WAT      O29779   2.588   5.324   4.117  0.2096  0.0702 -0.2470
 7265WAT     H129780   2.635   5.319   4.043 -0.0542  0.5642 -0.4577
 7265WAT     H229781   2.507   5.307   4.091  0.4364 -2.2605  0.3676
 7265WAT    EPW29782   2.583   5.321   4.102  0.2041 -0.2011 -0.1873
 7266WAT      O29783   3.255   4.812   2.749 -0.0748  0.6087  0.0463
 7266WAT     H129784   3.315   4.799   2.811 -0.9876 -1.1977  0.6087
 7266WAT     H229785   3.249   4.734   2.710 -1.0358  1.1538 -0.9561
 7266WAT    EPW29786   3.263   4.798   2.752 -0.3516  0.4224 -0.0187
 7267WAT      O29787   2.336   6.897   2.498  0.3074  0.1688 -0.0362
 7267WAT     H129788   2.403   6.878   2.550 -0.2657 -1.6513  0.1261
 7267WAT     H229789   2.305   6.818   2.475 -2.0316  0.9138  0.2382
 7267WAT    EPW29790   2.341   6.882   2.502 -0.1228  0.0100  0.0283
 7268WAT      O29791   1.248   6.627   4.387  0.1247  0.0668  0.0680
 7268WAT     H129792   1.287   6.568   4.336 -0.9740 -0.3996 -0.2536
 7268WAT     H229793   1.226   6.582   4.458 -0.6493  0.1077 -0.1454
 7268WAT    EPW29794   1.251   6.612   4.390 -0.1519  0.0040 -0.0110
 7269WAT      O29795   3.074   7.397   1.646  0.1287 -0.2526  0.0121
 7269WAT     H129796   3.109   7.439   1.714 -1.4908  2.0611 -0.4792
 7269WAT     H229797   3.008   7.353   1.682 -0.7450  0.9916 -0.0087
 7269WAT    EPW29798   3.070   7.396   1.662 -0.2396  0.2730 -0.0635
 7270WAT      O29799   2.597   5.937   2.711  0.4294 -0.2332  0.2168
 7270WAT     H129800   2.563   5.925   2.790  0.8286 -2.1215  0.1559
 7270WAT     H229801   2.553   6.005   2.680 -1.3213 -0.8365  1.2140
 7270WAT    EPW29802   2.586   5.945   2.718  0.2298 -0.6013  0.3551
 7271WAT      O29803   4.469   6.027   2.707 -0.0393 -0.1163  0.0719
 7271WAT     H129804   4.488   6.060   2.628  0.1776 -1.9396 -0.6894
 7271WAT     H229805   4.389   5.993   2.697  0.4925 -1.5036  0.2041
 7271WAT    EPW29806   4.460   6.027   2.694  0.0713 -0.5906 -0.0210
 7272WAT      O29807   1.931   4.313   0.549  0.1968  0.1458  0.8989
 7272WAT     H129808   1.994   4.255   0.561  0.7054  0.7425  1.1639
 7272WAT     H229809   1.871   4.292   0.609  1.5074  1.4340  2.7829
 7272WAT    EPW29810   1.931   4.301   0.560  0.4656  0.4242  1.2164
 7273WAT      O29811   2.129   5.941   3.046  0.0443 -0.6314  0.1041
 7273WAT     H129812   2.123   5.967   3.129 -1.6603 -2.1178  0.5059
 7273WAT     H229813   2.173   6.006   3.008  0.3774  0.3702  2.0240
 7273WAT    EPW29814   2.135   5.954   3.053 -0.1583 -0.7030  0.4470
 7274WAT      O29815   2.842   5.970   0.665 -0.1882 -0.2673 -0.3351
 7274WAT     H129816   2.887   5.961   0.739  1.0276  0.9976 -0.8802
 7274WAT     H229817   2.785   5.905   0.668  0.1513 -0.5264  1.4874
 7274WAT    EPW29818   2.840   5.959   0.676  0.0416 -0.1188 -0.1464
 7275WAT      O29819   3.285   6.206   3.778  0.6153 -0.1879 -0.7481
 7275WAT     H129820   3.333   6.152   3.826  0.5525 -1.4562 -2.0274
 7275WAT     H229821   3.338   6.227   3.712  0.4830  0.9913 -0.5146
 7275WAT    EPW29822   3.300   6.201   3.775  0.5865 -0.2011 -0.9026
 7276WAT      O29823   2.109   4.427   1.865 -0.7324  0.4229 -0.2870
 7276WAT     H129824   2.144   4.484   1.809 -1.2613  3.3953  2.1316
 7276WAT     H229825   2.179   4.385   1.897 -0.4240 -1.3417 -2.9768
 7276WAT    EPW29826   2.124   4.430   1.862 -0.7650  0.6013 -0.3270
 7277WAT      O29827   4.869   7.678   1.933 -0.3362 -0.3549  0.2188
 7277WAT     H129828   4.806   7.715   1.981 -0.5267 -0.7045  0.2412
 7277WAT     H229829   4.916   7.632   1.991 -0.9919 -1.3608 -0.0187
 7277WAT    EPW29830   4.867   7.677   1.948 -0.4612 -0.5551  0.1870
 7278WAT      O29831   1.456   4.072   1.475  0.7414  0.2094 -0.8981
 7278WAT     H129832   1.432   4.090   1.393 -2.2479 -1.6837 -0.6090
 7278WAT     H229833   1.477   3.987   1.472 -1.9318 -0.6404  0.6057
 7278WAT    EPW29834   1.456   4.062   1.463 -0.0951 -0.1958 -0.6333
 7279WAT      O29835   5.023   5.972   1.639 -0.1438  0.1423 -0.4374
 7279WAT     H129836   5.050   5.911   1.695 -0.1181  1.6451  1.2558
 7279WAT     H229837   4.938   5.982   1.658  0.1730  1.6308  0.3294
 7279WAT    EPW29838   5.014   5.964   1.650 -0.0932  0.5842 -0.0740
 7280WAT      O29839   4.017   6.026   2.263  0.3110  0.0775  0.5916
 7280WAT     H129840   4.011   6.101   2.306 -2.7720 -0.9036  2.1005
 7280WAT     H229841   3.994   6.046   2.182  1.6346  1.0787  0.4275
 7280WAT    EPW29842   4.013   6.040   2.257  0.0511  0.0804  0.7902
 7281WAT      O29843   2.115   5.168   1.993 -0.1365 -0.4981  0.0844
 7281WAT     H129844   2.110   5.102   2.050 -2.4755  1.1907  2.0513
 7281WAT     H229845   2.176   5.220   2.027  0.9126 -1.0820 -0.8621
 7281WAT    EPW29846   2.123   5.166   2.006 -0.3271 -0.3349  0.2351
 7282WAT      O29847   3.309   5.078   2.711  0.3716 -0.5878  0.3940
 7282WAT     H129848   3.358   5.086   2.782 -0.4812  0.5255  0.8828
 7282WAT     H229849   3.282   4.995   2.714  0.4515 -0.5879  1.3018
 7282WAT    EPW29850   3.312   5.067   2.722  0.2574 -0.4234  0.6003
 7283WAT      O29851   3.352   6.180   2.909 -0.4699  0.2590 -0.3558
 7283WAT     H129852   3.275   6.217   2.890 -0.3099  0.2929 -0.9592
 7283WAT     H229853   3.386   6.162   2.831  0.4503  0.9014 -0.1248
 7283WAT    EPW29854   3.345   6.183   2.895 -0.3104  0.3589 -0.4108
 7284WAT      O29855   2.240   5.757   2.671 -0.0316 -0.0003  0.6138
 7284WAT     H129856   2.233   5.843   2.660  0.7703 -0.1613 -1.7715
 7284WAT     H229857   2.319   5.739   2.639 -0.8426 -1.7954 -0.5369
 7284WAT    EPW29858   2.251   5.767   2.664 -0.0329 -0.2892  0.0914
 7285WAT      O29859   3.856   0.144   3.743 -0.0340 -0.6693  0.4109
 7285WAT     H129860   3.857   0.231   3.744 -1.0723 -0.6280 -0.6082
 7285WAT     H229861   3.772   0.125   3.729  0.2130 -1.8377  0.4315
 7285WAT    EPW29862   3.844   0.154   3.741 -0.1509 -0.8358  0.2634
 7286WAT      O29863   4.501   5.411   2.580 -0.2718  0.0492  0.2866
 7286WAT     H129864   4.484   5.392   2.663  0.6038  0.3775  0.5412
 7286WAT     H229865   4.469   5.492   2.570 -0.4676 -0.0285  0.2668
 7286WAT    EPW29866   4.494   5.420   2.591 -0.1714  0.0862  0.3213
 7287WAT      O29867   3.906   6.155   2.558  0.4826 -0.8174 -0.2368
 7287WAT     H129868   3.852   6.223   2.554  0.1164 -1.1673 -2.1297
 7287WAT     H229869   3.857   6.092   2.594 -0.2740 -1.0098 -1.5486
 7287WAT    EPW29870   3.891   6.155   2.563  0.3167 -0.8975 -0.7102
 7288WAT      O29871   3.256   4.877   2.406 -0.4744 -0.1630 -0.2345
 7288WAT     H129872   3.219   4.868   2.484 -1.0409 -0.6135 -0.5549
 7288WAT     H229873   3.342   4.882   2.424 -0.4723 -1.8501  0.2929
 7288WAT    EPW29874   3.263   4.877   2.420 -0.5577 -0.4787 -0.2039
 7289WAT      O29875   3.066   7.329   0.952  0.2182  0.1083 -0.1017
 7289WAT     H129876   3.010   7.282   0.905  1.0323 -0.6131 -0.3648
 7289WAT     H229877   3.023   7.404   0.967 -0.6039 -0.2338 -0.7402
 7289WAT    EPW29878   3.052   7.333   0.947  0.2170 -0.0488 -0.2349
 7290WAT      O29879   1.982   5.924   3.801  0.2437  0.3401  0.0654
 7290WAT     H129880   1.984   5.869   3.869  1.6342  0.8370  0.4564
 7290WAT     H229881   1.936   5.992   3.832 -0.4165 -0.0614 -0.0080
 7290WAT    EPW29882   1.976   5.926   3.816  0.3516  0.3542  0.1123
 7291WAT      O29883   2.317   6.226   3.712  0.2534  0.3054 -0.1635
 7291WAT     H129884   2.328   6.261   3.633 -0.2759 -1.1627 -0.9174
 7291WAT     H229885   2.348   6.145   3.703  1.4722  0.5138  1.5402
 7291WAT    EPW29886   2.324   6.219   3.699  0.3552  0.1193 -0.0232
 7292WAT      O29887   2.281   7.114   4.545  0.6951  0.5345 -0.2321
 7292WAT     H129888   2.221   7.055   4.568 -0.4283  0.8282 -2.1917
 7292WAT     H229889   2.321   7.078   4.477  1.0139  1.4049 -0.5228
 7292WAT    EPW29890   2.278   7.100   4.538  0.5762  0.7064 -0.5645
 7293WAT      O29891   2.614   5.826   3.906 -0.4275 -0.4900 -0.3777
 7293WAT     H129892   2.642   5.893   3.954 -1.0241 -0.1293 -0.5176
 7293WAT     H229893   2.547   5.795   3.953  0.7431 -1.9382  0.4392
 7293WAT    EPW29894   2.608   5.831   3.920 -0.3427 -0.6506 -0.2777
 7294WAT      O29895   3.933   6.236   2.953 -0.0144  0.3605 -0.7368
 7294WAT     H129896   3.986   6.286   3.001 -1.4158  1.1166  0.1016
 7294WAT     H229897   3.859   6.283   2.950 -0.4527 -0.3690 -2.3808
 7294WAT    EPW29898   3.930   6.250   2.960 -0.2862  0.3644 -0.8558
 7295WAT      O29899   3.872   4.160   3.209 -0.2448 -0.6907 -0.9810
 7295WAT     H129900   3.900   4.120   3.136  0.0830  1.0698 -1.8659
 7295WAT     H229901   3.940   4.209   3.233 -0.6504 -0.6150  0.0599
 7295WAT    EPW29902   3.886   4.161   3.201 -0.2563 -0.4194 -0.9579
 7296WAT      O29903   3.406   4.394   3.941 -0.4757 -0.0577  0.7101
 7296WAT     H129904   3.476   4.369   3.987  1.2392  0.8771 -1.2081
 7296WAT     H229905   3.412   4.481   3.941 -1.0106 -0.0100 -0.4181
 7296WAT    EPW29906   3.417   4.404   3.948 -0.3014  0.0874  0.2601
 7297WAT      O29907   4.964   0.440   2.813 -0.6140 -0.1991 -0.4741
 7297WAT     H129908   5.004   0.459   2.888 -1.1332  2.0732 -0.7018
 7297WAT     H229909   4.949   0.354   2.819  1.9292 -0.6538  0.7298
 7297WAT    EPW29910   4.967   0.430   2.825 -0.3150  0.0694 -0.3299
 7298WAT      O29911   3.268   6.625   2.642  0.4713  0.3121  0.6261
 7298WAT     H129912   3.215   6.556   2.639  1.1426 -0.3162  2.2151
 7298WAT     H229913   3.222   6.688   2.603 -1.5874 -0.1241  2.1506
 7298WAT    EPW29914   3.253   6.624   2.636  0.2663  0.1549  1.0860
 7299WAT      O29915   4.032   6.722   1.309 -0.4167  0.3559 -0.0215
 7299WAT     H129916   3.962   6.702   1.260 -0.2959 -0.0339 -0.0331
 7299WAT     H229917   4.031   6.810   1.309 -0.0326  0.3778 -1.2791
 7299WAT    EPW29918   4.021   6.732   1.302 -0.3421  0.3016 -0.2090
 7300WAT      O29919   1.362   5.345   1.088  0.0546 -0.2438  0.1003
 7300WAT     H129920   1.367   5.414   1.142  1.1629 -0.9241  0.9335
 7300WAT     H229921   1.290   5.360   1.042  0.0246  1.2497  0.5655
 7300WAT    EPW29922   1.352   5.358   1.089  0.2139 -0.1237  0.2921
 7301WAT      O29923   3.569   5.058   3.404 -0.0669 -0.4103 -0.1714
 7301WAT     H129924   3.641   5.062   3.452 -0.4384 -1.4825  0.4960
 7301WAT     H229925   3.510   5.102   3.451  0.2320  0.8189 -0.9067
 7301WAT    EPW29926   3.571   5.065   3.418 -0.0776 -0.3871 -0.1814
 7302WAT      O29927   3.926   6.782   3.378  0.0101 -0.0189 -0.0640
 7302WAT     H129928   3.951   6.862   3.402  1.0129 -0.4817  0.4519
 7302WAT     H229929   3.990   6.755   3.326 -0.4513 -0.3957 -0.4516
 7302WAT    EPW29930   3.939   6.790   3.374  0.0901 -0.1429 -0.0450
 7303WAT      O29931   3.290   5.197   1.200 -0.1753 -0.4695 -0.2092
 7303WAT     H129932   3.313   5.157   1.126 -0.4529 -0.1785 -0.4535
 7303WAT     H229933   3.211   5.230   1.182 -0.4785 -0.8416  0.3865
 7303WAT    EPW29934   3.282   5.196   1.187 -0.2611 -0.4815 -0.1573
 7304WAT      O29935   3.547   4.334   3.152 -0.0621  0.4505 -0.0069
 7304WAT     H129936   3.479   4.318   3.101 -0.8165  1.6273  0.5797
 7304WAT     H229937   3.604   4.374   3.098  0.2093 -0.5655 -0.5033
 7304WAT    EPW29938   3.546   4.338   3.136 -0.1335  0.4742  0.0064
 7305WAT      O29939   3.057   5.306   2.359 -0.1840  0.4698  0.0585
 7305WAT     H129940   2.971   5.310   2.341 -0.3235  1.3596  0.8424
 7305WAT     H229941   3.059   5.274   2.440  0.3853 -2.3653 -0.9390
 7305WAT    EPW29942   3.044   5.302   2.368 -0.1205  0.1824  0.0270
 7306WAT      O29943   3.479   5.613   4.826  0.0691 -0.1517 -0.5562
 7306WAT     H129944   3.508   5.607   4.908 -2.4973 -1.7626  0.3521
 7306WAT     H229945   3.465   5.699   4.816 -0.2324  0.0142  0.9733
 7306WAT    EPW29946   3.482   5.625   4.837 -0.3546 -0.3652 -0.1961
 7307WAT      O29947   2.704   6.470   4.164  0.7772  0.4100  0.5923
 7307WAT     H129948   2.753   6.415   4.211  0.2619  0.4849  1.2311
 7307WAT     H229949   2.623   6.443   4.179  0.6352 -1.0584 -2.1285
 7307WAT    EPW29950   2.699   6.458   4.173  0.6801  0.2041  0.2848
 7308WAT      O29951   2.124   6.544   3.245  0.0870 -0.5747 -0.1898
 7308WAT     H129952   2.172   6.484   3.204 -0.8861 -0.2521 -1.8660
 7308WAT     H229953   2.164   6.619   3.224  1.2261 -0.5406  1.7919
 7308WAT    EPW29954   2.137   6.546   3.236  0.1115 -0.5220 -0.1447
 7309WAT      O29955   2.487   5.850   2.951  0.0248 -0.6997 -0.6394
 7309WAT     H129956   2.473   5.893   3.026 -0.4044  1.0458 -1.6626
 7309WAT     H229957   2.426   5.788   2.952  0.9972 -1.7007  1.1323
 7309WAT    EPW29958   2.476   5.848   2.962  0.1050 -0.5897 -0.5288
 7310WAT      O29959   3.883   6.222   3.975 -0.0360 -0.0908  0.4829
 7310WAT     H129960   3.881   6.147   4.019 -0.4673 -1.0105 -1.0182
 7310WAT     H229961   3.911   6.280   4.034  3.6061 -1.9999  0.9066
 7310WAT    EPW29962   3.887   6.219   3.990  0.4383 -0.5087  0.3237
 7311WAT      O29963   3.227   5.732   2.539 -0.0435 -0.3443  0.0261
 7311WAT     H129964   3.179   5.764   2.605 -2.5062 -1.5679 -1.0069
 7311WAT     H229965   3.225   5.646   2.553  0.4315 -0.5281 -0.9697
 7311WAT    EPW29966   3.219   5.724   2.551 -0.3371 -0.5522 -0.2736
 7312WAT      O29967   2.895   5.907   3.810 -0.2580 -0.0184  0.5405
 7312WAT     H129968   2.968   5.949   3.790 -0.7338  0.7363  0.3703
 7312WAT     H229969   2.878   5.859   3.739 -0.3108  0.3496  0.3017
 7312WAT    EPW29970   2.903   5.906   3.797 -0.3361  0.1474  0.4801
 7313WAT      O29971   1.147   5.409   4.753  0.1284 -0.4330 -0.0373
 7313WAT     H129972   1.090   5.475   4.762  1.8955  1.2817 -0.6974
 7313WAT     H229973   1.164   5.410   4.667  0.5925 -1.4072  0.0370
 7313WAT    EPW29974   1.141   5.419   4.741  0.4580 -0.3236 -0.1239
 7314WAT      O29975   3.157   7.308   4.177  0.2487  0.5483 -0.7399
 7314WAT     H129976   3.203   7.234   4.185  1.8292  1.2316 -2.8675
 7314WAT     H229977   3.170   7.348   4.253  0.1295 -0.9050  0.0895
 7314WAT    EPW29978   3.166   7.303   4.190  0.4645  0.4345 -0.9317
 7315WAT      O29979   5.126   7.162   1.325 -0.2365 -0.3613 -0.3989
 7315WAT     H129980   5.185   7.177   1.387  0.9519  0.1988 -1.5998
 7315WAT     H229981   5.164   7.193   1.253 -2.2681  0.6110 -1.1407
 7315WAT    EPW29982   5.140   7.169   1.323 -0.3610 -0.1349 -0.6859
 7316WAT      O29983   1.588   5.571   3.378  0.3238  0.4052  0.2889
 7316WAT     H129984   1.617   5.636   3.429  1.0847  1.8832 -1.8960
 7316WAT     H229985   1.522   5.607   3.333 -0.2057 -0.7897  0.0715
 7316WAT    EPW29986   1.583   5.586   3.379  0.3580  0.4470 -0.0660
 7317WAT      O29987   4.788   7.248   4.026  0.2183  0.2327  0.3885
 7317WAT     H129988   4.874   7.262   4.027 -0.0884  2.7627  2.5752
 7317WAT     H229989   4.780   7.168   3.993  3.3216  0.2939 -0.7815
 7317WAT    EPW29990   4.799   7.239   4.021  0.6314  0.6154  0.5387
 7318WAT      O29991   4.790   5.459   2.621 -0.0976 -0.1022  0.5069
 7318WAT     H129992   4.716   5.456   2.573 -0.2698  1.1811  0.6736
 7318WAT     H229993   4.798   5.377   2.650 -2.2085  0.0095  1.6058
 7318WAT    EPW29994   4.780   5.446   2.618 -0.4348  0.1038  0.6938
 7319WAT      O29995   1.765   5.604   2.662  0.4820 -0.1088 -0.1597
 7319WAT     H129996   1.836   5.642   2.628  0.0184  1.3348  0.4336
 7319WAT     H229997   1.798   5.547   2.719  1.1931 -0.7011 -1.1247
 7319WAT    EPW29998   1.781   5.601   2.665  0.5186  0.0170 -0.2146
 7320WAT      O29999   4.075   6.411   2.699  0.2630  0.6499 -0.0836
 7320WAT     H130000   4.020   6.391   2.634 -0.8231  2.3154  0.2456
 7320WAT     H230001   4.056   6.352   2.760 -1.3357  1.2367  0.0652
 7320WAT    EPW30002   4.064   6.399   2.698 -0.1336  0.9826 -0.0130
 7321WAT      O30003   2.785   5.356   3.444  0.3693 -0.1193 -0.6247
 7321WAT     H130004   2.807   5.382   3.364  0.8025  0.2182 -0.3999
 7321WAT     H230005   2.823   5.278   3.453  1.0307  0.2204 -0.4383
 7321WAT    EPW30006   2.794   5.348   3.434  0.5310 -0.0192 -0.5640
 7322WAT      O30007   1.732   5.535   2.401 -0.0861 -0.0734  0.4117
 7322WAT     H130008   1.739   5.537   2.488 -1.1068 -1.1854  0.5407
 7322WAT     H230009   1.813   5.519   2.375  0.0853 -0.5934  1.2149
 7322WAT    EPW30010   1.745   5.533   2.410 -0.2116 -0.3145  0.5494
 7323WAT      O30011   2.738   5.353   3.885  0.5226 -0.3028 -0.3821
 7323WAT     H130012   2.706   5.382   3.810  0.7170  0.9662  0.0006
 7323WAT     H230013   2.797   5.413   3.907  0.5361 -0.7013  0.7372
 7323WAT    EPW30014   2.742   5.366   3.877  0.5533 -0.1742 -0.1602
 7324WAT      O30015   4.156   3.575   6.994  0.4940 -0.1057  0.6332
 7324WAT     H130016   4.213   3.639   6.977 -2.0666  2.2885  0.4105
 7324WAT     H230017   4.115   3.563   6.918 -2.3163  1.5578  1.7336
 7324WAT    EPW30018   4.158   3.583   6.980 -0.2994  0.4937  0.7629
 7325WAT      O30019   2.442   7.550   1.600  0.0210 -0.3154  0.0726
 7325WAT     H130020   2.389   7.543   1.531  1.8172  1.4420 -1.6487
 7325WAT     H230021   2.494   7.480   1.593  0.2804 -0.0777 -0.4706
 7325WAT    EPW30022   2.442   7.539   1.589  0.3246 -0.0207 -0.2619
 7326WAT      O30023   3.288   4.136   3.285  0.6047  0.2287 -0.0601
 7326WAT     H130024   3.289   4.135   3.198 -1.5500 -1.4434 -0.1517
 7326WAT     H230025   3.212   4.098   3.305  1.2877  0.0588  2.5611
 7326WAT    EPW30026   3.277   4.130   3.275  0.3873 -0.0434  0.3136
 7327WAT      O30027   1.814   6.244   1.367  0.0966 -0.3550  0.3006
 7327WAT     H130028   1.896   6.271   1.376  0.3496 -0.8681 -0.4013
 7327WAT     H230029   1.820   6.179   1.309 -0.8203 -0.3015  0.1332
 7327WAT    EPW30030   1.827   6.239   1.360 -0.0015 -0.4229  0.1721
 7328WAT      O30031   3.422   5.286   2.196  0.0400 -0.4082  0.1636
 7328WAT     H130032   3.373   5.321   2.259 -0.4806  1.3208 -1.1046
 7328WAT     H230033   3.493   5.337   2.196  1.0131 -1.7270  0.7431
 7328WAT    EPW30034   3.425   5.299   2.205  0.1069 -0.3476  0.0618
 7329WAT      O30035   2.125   7.066   3.111  0.0766 -0.1355  0.1551
 7329WAT     H130036   2.101   7.099   3.034 -0.5398  0.2355  0.4991
 7329WAT     H230037   2.206   7.097   3.122  1.0060 -1.8604 -1.2758
 7329WAT    EPW30038   2.134   7.076   3.101  0.1228 -0.3355 -0.0055
 7330WAT      O30039   3.150   7.300   2.660 -0.3681 -0.9247 -0.3061
 7330WAT     H130040   3.233   7.297   2.686  0.1951 -1.4496 -1.9875
 7330WAT     H230041   3.124   7.217   2.665 -0.4319 -0.9388 -0.8155
 7330WAT    EPW30042   3.158   7.288   2.664 -0.2944 -1.0044 -0.6297
 7331WAT      O30043   2.005   5.593   1.245  0.3837 -0.2266  0.5548
 7331WAT     H130044   2.072   5.646   1.228  0.0311 -0.0634 -0.3816
 7331WAT     H230045   1.936   5.646   1.243 -0.1627 -0.9028 -1.9050
 7331WAT    EPW30046   2.005   5.608   1.242  0.2509 -0.3024  0.0531
 7332WAT      O30047   3.951   5.113   2.700 -0.1563 -0.2492  0.0588
 7332WAT     H130048   3.969   5.069   2.627 -1.1222 -0.1334 -0.2688
 7332WAT     H230049   4.020   5.164   2.711 -0.5109  0.6338 -1.4722
 7332WAT    EPW30050   3.964   5.114   2.691 -0.3514 -0.1017 -0.2157
 7333WAT      O30051   3.883   4.956   3.344  0.5847  0.2905 -0.3067
 7333WAT     H130052   3.907   5.037   3.365 -0.3137  0.5272 -0.1726
 7333WAT     H230053   3.929   4.907   3.400  0.6051  0.7423  0.0796
 7333WAT    EPW30054   3.893   4.961   3.356  0.4550  0.3922 -0.2298
 7334WAT      O30055   2.457   6.561   2.665 -0.1100  0.6768 -0.1286
 7334WAT     H130056   2.526   6.513   2.689 -1.1715 -0.3172  1.0488
 7334WAT     H230057   2.453   6.549   2.579  1.4704  1.1733 -0.3031
 7334WAT    EPW30058   2.467   6.552   2.656 -0.0333  0.6033  0.0196
 7335WAT      O30059   4.534   5.878   3.256 -0.3557 -0.2468  0.4956
 7335WAT     H130060   4.619   5.879   3.278 -0.3902 -0.7444  0.6546
 7335WAT     H230061   4.515   5.793   3.252 -0.3718 -0.1955 -1.3752
 7335WAT    EPW30062   4.544   5.866   3.259 -0.3632 -0.3127  0.2428
 7336WAT      O30063   2.660   6.196   3.439 -0.1562 -0.0738  0.9135
 7336WAT     H130064   2.680   6.116   3.469  2.2008  0.7717  1.8502
 7336WAT     H230065   2.731   6.219   3.394 -2.0731  0.2916 -2.1902
 7336WAT    EPW30066   2.674   6.187   3.437 -0.0912  0.1051  0.5934
 7337WAT      O30067   4.051   5.740   2.217 -0.1799  0.4095 -0.0642
 7337WAT     H130068   3.970   5.711   2.203  0.2398 -0.8760 -0.0079
 7337WAT     H230069   4.040   5.825   2.232 -1.4928  0.3022 -0.2633
 7337WAT    EPW30070   4.037   5.748   2.217 -0.3119  0.2037 -0.0853
 7338WAT      O30071   3.365   7.035   1.948  0.0839  0.0025  0.8459
 7338WAT     H130072   3.427   7.067   1.895  0.8518 -0.4584  1.4504
 7338WAT     H230073   3.410   7.007   2.017 -0.8820  0.3090  1.6099
 7338WAT    EPW30074   3.381   7.036   1.950  0.0547 -0.0203  1.0481
 7339WAT      O30075   1.638   5.940   4.587 -0.2448  0.1196 -0.1970
 7339WAT     H130076   1.617   5.902   4.512  1.0168 -0.1858 -0.4205
 7339WAT     H230077   1.601   5.889   4.647 -1.0703  0.2407 -0.5898
 7339WAT    EPW30078   1.630   5.927   4.585 -0.1804  0.0924 -0.2880
 7340WAT      O30079   3.676   6.070   4.283  0.0453  0.6395 -0.0867
 7340WAT     H130080   3.621   6.007   4.308 -0.1250  1.2914  1.2469
 7340WAT     H230081   3.633   6.111   4.219  0.7081 -1.3853 -1.9551
 7340WAT    EPW30082   3.662   6.067   4.277  0.1181  0.4367 -0.1657
 7341WAT      O30083   2.532   5.336   3.514  0.1908  0.0164  0.1006
 7341WAT     H130084   2.533   5.388   3.584  2.2932  3.1854 -1.9887
 7341WAT     H230085   2.615   5.339   3.485 -0.7262 -0.4008 -2.9258
 7341WAT    EPW30086   2.545   5.344   3.520  0.3659  0.4229 -0.6551
 7342WAT      O30087   3.986   4.333   3.863  0.2051  0.4635 -0.3357
 7342WAT     H130088   3.903   4.305   3.865 -0.2517  1.7819  1.1291
 7342WAT     H230089   4.031   4.262   3.887 -0.6438  0.1677  0.4523
 7342WAT    EPW30090   3.980   4.318   3.867  0.0122  0.6145 -0.0030
 7343WAT      O30091   3.483   6.648   4.130  0.1384  0.2008  0.1427
 7343WAT     H130092   3.438   6.722   4.118 -0.3942 -0.1715 -0.2194
 7343WAT     H230093   3.442   6.590   4.078 -0.0622 -0.5834  1.1263
 7343WAT    EPW30094   3.470   6.650   4.121  0.0301  0.0300  0.2345
 7344WAT      O30095   2.901   5.105   3.593 -0.8752  0.7444 -0.0274
 7344WAT     H130096   2.950   5.175   3.610  2.2727 -1.3709  0.4772
 7344WAT     H230097   2.943   5.067   3.526 -1.9008 -1.1572  0.3409
 7344WAT    EPW30098   2.914   5.110   3.585 -0.5617  0.1510  0.1015
 7345WAT      O30099   2.400   5.683   4.366  0.0705 -0.3380  0.2524
 7345WAT     H130100   2.468   5.647   4.325  0.7141  0.3724  0.6644
 7345WAT     H230101   2.430   5.699   4.446 -0.2646  0.8592  0.1580
 7345WAT    EPW30102   2.414   5.680   4.372  0.1161 -0.0562  0.2993
 7346WAT      O30103   3.652   6.381   3.932  0.1476 -0.1534 -0.5320
 7346WAT     H130104   3.716   6.323   3.943 -0.8978 -1.3416 -0.4585
 7346WAT     H230105   3.614   6.356   3.857 -0.8764 -0.1653 -0.0400
 7346WAT    EPW30106   3.656   6.368   3.922 -0.1581 -0.3307 -0.4484
 7347WAT      O30107   2.648   5.342   2.527 -0.8816 -0.2303 -0.0446
 7347WAT     H130108   2.712   5.382   2.571  0.5189 -1.8797 -0.4790
 7347WAT     H230109   2.620   5.404   2.472  1.3966  0.1512 -0.8890
 7347WAT    EPW30110   2.653   5.357   2.525 -0.3382 -0.4176 -0.2335
 7348WAT      O30111   3.189   6.666   2.917 -0.1531 -0.1309 -0.4411
 7348WAT     H130112   3.250   6.613   2.951 -0.3854 -0.6850 -0.8722
 7348WAT     H230113   3.178   6.635   2.836 -0.6630  0.2642 -0.5264
 7348WAT    EPW30114   3.196   6.654   2.910 -0.2627 -0.1544 -0.5174
 7349WAT      O30115   2.028   5.109   2.336  0.3308 -0.3084 -0.0326
 7349WAT     H130116   2.042   5.130   2.420 -1.1032  2.0776 -0.2741
 7349WAT     H230117   2.103   5.071   2.311  1.7723  1.1986  1.6787
 7349WAT    EPW30118   2.041   5.107   2.345  0.3319  0.2667  0.1845
 7350WAT      O30119   3.759   6.838   3.089 -0.5389 -0.5520 -0.0957
 7350WAT     H130120   3.774   6.899   3.028 -1.6446 -1.2685 -1.1410
 7350WAT     H230121   3.832   6.791   3.090  0.3982  0.8620  0.8543
 7350WAT    EPW30122   3.772   6.840   3.080 -0.5638 -0.4490 -0.1098
 7351WAT      O30123   4.917   5.717   1.482 -0.9430 -0.4090  0.2434
 7351WAT     H130124   4.988   5.761   1.507 -0.4601 -0.8022 -0.4032
 7351WAT     H230125   4.893   5.757   1.408 -2.7150  1.1324  1.5628
 7351WAT    EPW30126   4.924   5.729   1.475 -1.1334 -0.2394  0.3428
 7352WAT      O30127   5.112   5.845   2.449 -0.3717  0.3245  0.3176
 7352WAT     H130128   5.155   5.920   2.461 -0.2588  0.3655 -0.3244
 7352WAT     H230129   5.084   5.851   2.366  0.2523 -0.6510  0.0255
 7352WAT    EPW30130   5.114   5.857   2.438 -0.2629  0.1865  0.1796
 7353WAT      O30131   2.865   6.581   3.976  0.3115  0.3551 -0.2359
 7353WAT     H130132   2.824   6.529   4.033  0.4157 -0.6356 -1.0414
 7353WAT     H230133   2.949   6.575   4.000  0.5934 -1.4354 -1.5051
 7353WAT    EPW30134   2.871   6.573   3.988  0.3685 -0.0557 -0.5424
 7354WAT      O30135   2.856   5.581   4.337 -0.2316 -0.7614  0.2495
 7354WAT     H130136   2.825   5.501   4.355  0.3479 -0.4209  3.2744
 7354WAT     H230137   2.942   5.571   4.342 -0.1215 -0.0893 -0.2073
 7354WAT    EPW30138   2.864   5.567   4.340 -0.1298 -0.6118  0.6288
 7355WAT      O30139   3.352   6.736   3.346 -0.4870 -0.1697  0.4174
 7355WAT     H130140   3.315   6.665   3.380 -0.5420 -0.3221  0.0401
 7355WAT     H230141   3.377   6.781   3.416 -1.6860  0.0979  0.6855
 7355WAT    EPW30142   3.351   6.732   3.361 -0.6723 -0.1527  0.4013
 7356WAT      O30143   3.154   6.937   3.020  0.0496 -0.3195 -0.2190
 7356WAT     H130144   3.166   6.862   2.977 -1.9164 -0.2654 -0.9922
 7356WAT     H230145   3.067   6.940   3.032  0.1923  1.3381  0.7080
 7356WAT    EPW30146   3.143   6.926   3.015 -0.2198 -0.0666 -0.1963
 7357WAT      O30147   3.760   5.990   3.513 -0.3213  0.0105  0.5973
 7357WAT     H130148   3.678   5.965   3.527 -0.8232 -0.1834 -2.2276
 7357WAT     H230149   3.753   6.066   3.471  0.9409  0.0842  0.4619
 7357WAT    EPW30150   3.747   5.997   3.509 -0.2090 -0.0073  0.1600
 7358WAT      O30151   2.595   1.629   3.091 -0.2011 -0.4051 -0.1548
 7358WAT     H130152   2.630   1.550   3.081  2.4450  0.9240 -3.0977
 7358WAT     H230153   2.549   1.640   3.018 -0.8045  0.6852  0.3673
 7358WAT    EPW30154   2.593   1.619   3.079  0.1007 -0.0477 -0.5124
 7359WAT      O30155   4.447   4.457   7.756 -0.1485 -0.2514 -0.1015
 7359WAT     H130156   4.480   4.531   7.723 -1.6033 -0.3445 -1.9403
 7359WAT     H230157   4.419   4.481   7.836  0.3769  0.9047 -0.2487
 7359WAT    EPW30158   4.448   4.472   7.763 -0.2858 -0.0944 -0.3949
 7360WAT      O30159   4.169   5.135   1.948 -0.5076  0.5116 -0.0252
 7360WAT     H130160   4.244   5.168   1.918 -0.2495  0.4430  0.5260
 7360WAT     H230161   4.126   5.113   1.876  0.3750 -0.2627 -0.3296
 7360WAT    EPW30162   4.174   5.137   1.933 -0.3391  0.3871  0.0112
 7361WAT      O30163   1.399   6.069   0.368  0.6692 -0.1034  0.4688
 7361WAT     H130164   1.426   6.065   0.451  0.3834 -0.4528  0.5491
 7361WAT     H230165   1.314   6.054   0.374  0.4703  0.8429  0.2044
 7361WAT    EPW30166   1.391   6.066   0.381  0.5976 -0.0152  0.4416
 7362WAT      O30167   3.998   7.185   7.229  0.2598  0.3254  0.1637
 7362WAT     H130168   3.930   7.136   7.203 -0.7812  0.7339  1.9540
 7362WAT     H230169   4.009   7.241   7.163 -1.7323  0.8037  0.1709
 7362WAT    EPW30170   3.989   7.186   7.215 -0.1883  0.4564  0.4293
 7363WAT      O30171   0.853   4.635   0.782 -0.2847  0.2994  0.4099
 7363WAT     H130172   0.884   4.558   0.809 -3.8220 -1.3247  0.3109
 7363WAT     H230173   0.825   4.619   0.701 -1.8976  1.3986  0.7116
 7363WAT    EPW30174   0.854   4.621   0.774 -1.0455  0.2219  0.4398
 7364WAT      O30175   3.474   3.434   1.307  0.2692 -0.1887 -0.1700
 7364WAT     H130176   3.394   3.448   1.276 -0.0946  1.1508  1.2554
 7364WAT     H230177   3.461   3.421   1.392  1.4255 -1.7068 -0.1800
 7364WAT    EPW30178   3.460   3.434   1.315  0.3863 -0.2151  0.0391
 7365WAT      O30179   2.921   5.859   7.683  0.0498 -0.1233 -0.4680
 7365WAT     H130180   2.881   5.790   7.717 -0.3629  0.3238 -0.0342
 7365WAT     H230181   3.005   5.836   7.685 -0.1129 -0.7764 -0.7145
 7365WAT    EPW30182   2.927   5.845   7.688 -0.0352 -0.1537 -0.4403
 7366WAT      O30183   2.808   5.324   2.247  0.4983  0.0397  0.0159
 7366WAT     H130184   2.754   5.388   2.271 -0.2669 -0.2263 -0.9023
 7366WAT     H230185   2.763   5.283   2.184  0.7477 -1.7353  0.9531
 7366WAT    EPW30186   2.793   5.328   2.241  0.4221 -0.2618  0.0187
 7367WAT      O30187   4.399   5.819   1.800 -0.0573  0.2697 -0.5245
 7367WAT     H130188   4.382   5.883   1.742  0.4461  1.6126  0.7481
 7367WAT     H230189   4.486   5.822   1.808 -0.1671  0.5362  0.7346
 7367WAT    EPW30190   4.409   5.829   1.793  0.0009  0.5075 -0.1505
 7368WAT      O30191   3.633   6.563   7.325  0.4702  0.2374  0.4486
 7368WAT     H130192   3.693   6.517   7.369 -0.7932 -0.6763  1.2935
 7368WAT     H230193   3.571   6.576   7.385 -0.5473  0.4314 -0.6305
 7368WAT    EPW30194   3.633   6.558   7.341  0.1333  0.1311  0.4140
 7369WAT      O30195   2.593   5.497   1.383 -0.0427  0.1807 -0.2876
 7369WAT     H130196   2.560   5.551   1.324 -1.0271 -1.7173 -1.5753
 7369WAT     H230197   2.523   5.456   1.416  0.6576 -0.3517  0.6127
 7369WAT    EPW30198   2.578   5.499   1.379 -0.0847 -0.1783 -0.3448
 7370WAT      O30199   2.049   6.835   3.408  0.0547  0.1958 -0.0588
 7370WAT     H130200   2.059   6.903   3.462 -0.7624  0.2775  0.0014
 7370WAT     H230201   2.111   6.779   3.433 -0.5903  0.0430  1.2636
 7370WAT    EPW30202   2.059   6.837   3.419 -0.1612  0.1853  0.1455
 7371WAT      O30203   3.632   5.708   1.865  0.1392  0.2603 -0.4431
 7371WAT     H130204   3.610   5.701   1.781 -2.7822 -0.5771  0.2718
 7371WAT     H230205   3.570   5.662   1.906 -0.0469  2.7319  2.3505
 7371WAT    EPW30206   3.619   5.700   1.859 -0.3199  0.5017  0.0752
 7372WAT      O30207   1.714   4.729   0.190 -0.6433 -0.4206 -0.2428
 7372WAT     H130208   1.684   4.788   0.247 -0.8468  1.3540 -2.0477
 7372WAT     H230209   1.642   4.695   0.155 -0.5702  0.1565 -0.9950
 7372WAT    EPW30210   1.699   4.733   0.193 -0.6626 -0.0732 -0.6206
 7373WAT      O30211   3.019   0.390   2.319 -0.2295  0.0852 -0.1129
 7373WAT     H130212   3.055   0.368   2.395 -0.5020  2.1791  0.6727
 7373WAT     H230213   2.934   0.381   2.333 -0.2304 -2.3120 -1.1482
 7373WAT    EPW30214   3.012   0.385   2.332 -0.2699  0.0404 -0.1498
 7374WAT      O30215   1.865   6.047   0.085  0.1624  0.2154 -0.2365
 7374WAT     H130216   1.918   6.013   0.145  0.5171  2.7019  0.9689
 7374WAT     H230217   1.789   6.055   0.127 -0.2543 -0.1855 -0.8933
 7374WAT    EPW30218   1.862   6.043   0.100  0.1532  0.5235 -0.1555
 7375WAT      O30219   3.369   5.413   0.931  0.2574 -0.3318  0.0206
 7375WAT     H130220   3.372   5.474   0.869  1.7327  0.9921  1.3036
 7375WAT     H230221   3.323   5.348   0.895  0.0339  0.8842 -1.9786
 7375WAT    EPW30222   3.363   5.412   0.917  0.4423  0.0434 -0.0852
 7376WAT      O30223   2.013   5.298   0.756 -0.0174 -0.0429  0.0973
 7376WAT     H130224   2.003   5.283   0.671 -0.0259  2.1691 -0.3498
 7376WAT     H230225   1.945   5.258   0.793 -0.5729 -0.1659 -1.0363
 7376WAT    EPW30226   2.002   5.290   0.749 -0.1007  0.2657 -0.1362
 7377WAT      O30227   3.650   5.255   1.904  0.4200  0.2143  0.6025
 7377WAT     H130228   3.603   5.193   1.942 -0.1260 -0.6390 -1.3544
 7377WAT     H230229   3.710   5.275   1.964 -0.9345 -0.3900  2.2263
 7377WAT    EPW30230   3.652   5.249   1.918  0.1393 -0.0010  0.5533
 7378WAT      O30231   3.019   5.471   7.147 -0.2656 -0.0504 -0.1959
 7378WAT     H130232   2.941   5.432   7.155 -0.4065  0.0187 -1.1645
 7378WAT     H230233   3.075   5.404   7.147 -0.2756 -0.0811  0.8782
 7378WAT    EPW30234   3.015   5.455   7.148 -0.2879 -0.0447 -0.1803
 7379WAT      O30235   3.691   5.989   3.092  0.5355  0.2524 -0.0409
 7379WAT     H130236   3.635   6.043   3.131 -0.2868 -0.7544  0.2121
 7379WAT     H230237   3.766   6.003   3.133 -0.5462 -1.6795  2.9287
 7379WAT    EPW30238   3.694   5.999   3.104  0.2543 -0.1817  0.4351
 7380WAT      O30239   3.245   4.713   1.730 -0.0320 -0.8665  0.1477
 7380WAT     H130240   3.277   4.703   1.649 -0.0281 -0.9435  0.1589
 7380WAT     H230241   3.177   4.658   1.732 -0.7472 -0.0286 -0.1902
 7380WAT    EPW30242   3.240   4.704   1.718 -0.1371 -0.7541  0.0995
 7381WAT      O30243   2.443   5.788   2.311  0.9299 -0.5039 -0.6285
 7381WAT     H130244   2.461   5.783   2.225  0.4724 -0.6267 -0.7234
 7381WAT     H230245   2.391   5.859   2.316 -0.1861 -1.2888 -0.6700
 7381WAT    EPW30246   2.438   5.798   2.299  0.6974 -0.6380 -0.6486
 7382WAT      O30247   2.459   0.101   0.771  0.2554  0.1695  0.1668
 7382WAT     H130248   2.486   0.152   0.705 -0.6720  2.5447  1.4962
 7382WAT     H230249   2.509   0.127   0.837 -0.4000 -0.5099  0.9390
 7382WAT    EPW30250   2.470   0.113   0.771  0.0216  0.4200  0.4773
 7383WAT      O30251   1.715   5.671   0.244 -0.1326  0.3251  0.0765
 7383WAT     H130252   1.704   5.725   0.176 -1.0910  1.9824  1.4725
 7383WAT     H230253   1.678   5.714   0.310  1.2670 -0.9668  1.7910
 7383WAT    EPW30254   1.708   5.686   0.244 -0.0675  0.3791  0.5360
 7384WAT      O30255   2.598   6.621   0.591  0.2244  0.2313  0.0109
 7384WAT     H130256   2.543   6.686   0.607  0.7858  0.7374 -0.0887
 7384WAT     H230257   2.570   6.589   0.514 -0.3768  0.0069  0.3221
 7384WAT    EPW30258   2.586   6.626   0.582  0.2185  0.2729  0.0421
 7385WAT      O30259   4.455   5.093   0.709  1.2198  0.3798  0.3142
 7385WAT     H130260   4.436   5.133   0.784  1.2760  0.2552  0.3956
 7385WAT     H230261   4.452   5.157   0.650 -1.6276  0.0548 -0.0395
 7385WAT    EPW30262   4.452   5.108   0.711  0.8075  0.3134  0.2739
 7386WAT      O30263   2.955   5.756   1.245  0.0880  0.3847 -0.0157
 7386WAT     H130264   2.906   5.732   1.177  1.1024  0.8256 -0.9309
 7386WAT     H230265   2.900   5.751   1.312 -0.9679  0.0127 -0.8723
 7386WAT    EPW30266   2.940   5.752   1.245  0.0819  0.3949 -0.2774
 7387WAT      O30267   2.504   4.643   2.620 -0.8105  0.1475 -0.2710
 7387WAT     H130268   2.513   4.728   2.600 -0.3772  0.4135  0.9532
 7387WAT     H230269   2.433   4.643   2.671 -1.1233 -0.3070 -0.7086
 7387WAT    EPW30270   2.495   4.656   2.625 -0.7927  0.1196 -0.1548
 7388WAT      O30271   2.721   5.683   7.244  0.1718 -0.3621 -0.3395
 7388WAT     H130272   2.766   5.728   7.304 -1.0217 -2.0354  1.9761
 7388WAT     H230273   2.755   5.603   7.249 -1.0212 -0.9226 -0.7208
 7388WAT    EPW30274   2.733   5.678   7.254 -0.1808 -0.6921 -0.0538
 7389WAT      O30275   4.276   4.064   1.475 -0.3096 -0.5978  0.0013
 7389WAT     H130276   4.345   4.062   1.529 -0.1391  0.5042 -0.1529
 7389WAT     H230277   4.282   4.142   1.437 -2.6520  0.2819  1.2713
 7389WAT    EPW30278   4.287   4.075   1.477 -0.6304 -0.3051  0.1661
 7390WAT      O30279   1.504   0.007   0.707  0.4536 -0.5721  1.0597
 7390WAT     H130280   1.545   0.073   0.747 -0.2954  1.1694 -0.8684
 7390WAT     H230281   1.566  -0.026   0.655  0.6189 -0.9482  1.4818
 7390WAT    EPW30282   1.519   0.012   0.706  0.3674 -0.3704  0.8372
 7391WAT      O30283   2.877   4.819   2.022 -0.1394  0.0223  0.6130
 7391WAT     H130284   2.924   4.833   1.950 -0.6127 -0.4033  0.2154
 7391WAT     H230285   2.937   4.799   2.082  0.2982  0.8218  0.4645
 7391WAT    EPW30286   2.893   4.818   2.020 -0.1447  0.0775  0.5323
 7392WAT      O30287   3.019   6.860   0.514 -0.5946 -0.0507  0.3027
 7392WAT     H130288   2.977   6.806   0.568 -0.6420  1.9034  2.3620
 7392WAT     H230289   2.956   6.887   0.459 -0.5147 -2.1641 -0.9421
 7392WAT    EPW30290   3.003   6.856   0.514 -0.5898 -0.0742  0.4230
 7393WAT      O30291   1.238   6.428   0.567 -0.3929  0.3837  0.1570
 7393WAT     H130292   1.298   6.453   0.510 -1.0397  1.4825 -0.0772
 7393WAT     H230293   1.249   6.483   0.634 -0.0486 -0.4879  0.8339
 7393WAT    EPW30294   1.248   6.440   0.569 -0.4376  0.4173  0.2224
 7394WAT      O30295   3.270   5.351   1.971  0.0275  0.3225 -0.2205
 7394WAT     H130296   3.282   5.320   2.052  0.3352  0.6803 -0.1238
 7394WAT     H230297   3.202   5.405   1.981  0.6697  1.1050  0.0087
 7394WAT    EPW30298   3.262   5.355   1.985  0.1678  0.4909 -0.1724
 7395WAT      O30299   3.689   6.192   7.572 -0.0922 -0.3319 -0.8783
 7395WAT     H130300   3.747   6.134   7.602  0.2421 -0.8225 -2.4057
 7395WAT     H230301   3.612   6.158   7.597  0.2138  0.4866  1.4481
 7395WAT    EPW30302   3.686   6.178   7.580  0.0024 -0.2834 -0.7603
 7396WAT      O30303   4.721   4.394   0.234  0.1888  0.0781  0.1760
 7396WAT     H130304   4.712   4.373   0.149  1.6780 -0.3515  0.0871
 7396WAT     H230305   4.686   4.473   0.240 -0.8149 -0.2841 -0.6349
 7396WAT    EPW30306   4.715   4.402   0.222  0.2605 -0.0388  0.0431
 7397WAT      O30307   2.248   0.304   0.277 -0.2547  0.0642  0.0888
 7397WAT     H130308   2.292   0.379   0.286  0.5889 -0.5079  0.9348
 7397WAT     H230309   2.181   0.325   0.226 -0.2028  1.4673  0.5683
 7397WAT    EPW30310   2.245   0.318   0.271 -0.1224  0.1869  0.2846
 7398WAT      O30311   3.377   4.389   0.816  0.3205 -0.6845  0.1741
 7398WAT     H130312   3.302   4.365   0.855  0.5339  0.2654  1.2153
 7398WAT     H230313   3.360   4.376   0.731 -0.9572 -0.7018  0.4012
 7398WAT    EPW30314   3.363   4.384   0.809  0.1633 -0.5467  0.3614
 7399WAT      O30315   3.525   3.873   1.950  0.1099  0.1690 -0.3033
 7399WAT     H130316   3.471   3.940   1.960  0.6097  0.4720  0.3950
 7399WAT     H230317   3.586   3.885   2.011  0.8785 -0.2560 -0.9581
 7399WAT    EPW30318   3.526   3.885   1.960  0.2972  0.1510 -0.2969
 7400WAT      O30319   1.123   4.838   1.267 -0.0660 -0.2164 -0.4238
 7400WAT     H130320   1.122   4.816   1.183  0.7173 -3.3391  0.2654
 7400WAT     H230321   1.079   4.914   1.269 -1.7315 -0.9556 -3.3774
 7400WAT    EPW30322   1.117   4.846   1.255 -0.1963 -0.7869 -0.7583
 7401WAT      O30323   3.478   4.991   1.952  0.3162 -0.2952  0.4356
 7401WAT     H130324   3.480   4.987   2.039  1.3263  1.5940  0.5418
 7401WAT     H230325   3.403   5.032   1.935  0.9219  0.8877  0.5305
 7401WAT    EPW30326   3.467   4.997   1.962  0.5549  0.1586  0.4653
 7402WAT      O30327   3.975   5.854   0.096  0.1849 -0.1162  0.2060
 7402WAT     H130328   4.055   5.819   0.099 -0.0765 -0.6819  1.5741
 7402WAT     H230329   3.969   5.897   0.172 -1.2563 -1.1725  0.7345
 7402WAT    EPW30330   3.986   5.855   0.108 -0.0666 -0.3558  0.4862
 7403WAT      O30331   2.709   5.202   2.014  0.0976 -0.2524 -0.3646
 7403WAT     H130332   2.745   5.202   1.934  0.7890 -1.0518 -0.0720
 7403WAT     H230333   2.627   5.177   1.999  0.5107 -1.4537 -0.7241
 7403WAT    EPW30334   2.702   5.198   2.000  0.2607 -0.5479 -0.3745
 7404WAT      O30335   1.229   6.198   0.734  0.0522  0.3529  0.4153
 7404WAT     H130336   1.244   6.257   0.672  0.6887 -1.5697 -1.3776
 7404WAT     H230337   1.147   6.215   0.760 -0.5006  0.7809 -1.4859
 7404WAT    EPW30338   1.219   6.209   0.729  0.0646  0.1321 -0.1304
 7405WAT      O30339   3.120   6.988   1.348 -0.0105  0.6537  0.6081
 7405WAT     H130340   3.063   6.963   1.287  0.2153  1.4973  0.0386
 7405WAT     H230341   3.069   7.015   1.414 -0.2638  0.4273  0.5059
 7405WAT    EPW30342   3.104   6.988   1.349 -0.0146  0.7449  0.5089
 7406WAT      O30343   3.621   5.280   0.413 -0.1428 -0.7463 -0.4916
 7406WAT     H130344   3.603   5.242   0.336 -0.5878 -1.4996 -0.0288
 7406WAT     H230345   3.697   5.320   0.398 -1.4720  1.4393 -2.1343
 7406WAT    EPW30346   3.630   5.280   0.399 -0.4049 -0.5347 -0.6659
 7407WAT      O30347   2.202   7.310   0.884 -0.1688 -0.0234 -0.0462
 7407WAT     H130348   2.228   7.227   0.888  0.3679  0.1218 -0.3119
 7407WAT     H230349   2.150   7.319   0.954  1.4728 -0.0193  1.2457
 7407WAT    EPW30350   2.198   7.299   0.895  0.1530 -0.0014  0.1054
 7408WAT      O30351   3.376   4.065   0.228  0.2496  0.0236  0.5803
 7408WAT     H130352   3.313   4.008   0.248  0.5407 -0.6158 -0.2908
 7408WAT     H230353   3.340   4.142   0.246 -0.8166 -0.3308  0.0091
 7408WAT    EPW30354   3.362   4.068   0.234  0.1351 -0.1232  0.3672
 7409WAT      O30355   3.680   5.620   6.641  0.2037  0.7265 -0.3924
 7409WAT     H130356   3.605   5.653   6.611 -1.4272 -2.1382  0.0818
 7409WAT     H230357   3.690   5.546   6.596  1.8620  0.2074  0.7172
 7409WAT    EPW30358   3.670   5.614   6.630  0.2077  0.2266 -0.1584
 7410WAT      O30359   4.263   5.206   1.217  0.3370  0.1791  0.6370
 7410WAT     H130360   4.247   5.292   1.210  1.1203  0.4145  1.6605
 7410WAT     H230361   4.338   5.202   1.260 -0.8427 -1.0690  2.7064
 7410WAT    EPW30362   4.271   5.218   1.222  0.2784  0.0295  1.0939
 7411WAT      O30363   3.424   4.930   1.033 -0.3876  0.8994  0.0859
 7411WAT     H130364   3.495   4.972   1.063 -0.4592  1.8713 -1.0416
 7411WAT     H230365   3.454   4.890   0.961 -0.7623  0.5060  0.1478
 7411WAT    EPW30366   3.439   4.930   1.027 -0.4536  0.9849 -0.0715
 7412WAT      O30367   2.371   4.739   2.145  0.3048  0.2061 -0.1090
 7412WAT     H130368   2.444   4.783   2.161 -0.1899  0.7340  0.8451
 7412WAT     H230369   2.371   4.676   2.206  0.9967 -1.1441 -1.4474
 7412WAT    EPW30370   2.382   4.736   2.156  0.3339  0.0846 -0.1658
 7413WAT      O30371   2.084   5.103   1.143 -0.5571  0.8056 -0.8572
 7413WAT     H130372   2.138   5.061   1.197 -0.4634 -0.3885 -1.8325
 7413WAT     H230373   2.006   5.098   1.183 -0.5660 -0.4025 -0.9949
 7413WAT    EPW30374   2.080   5.096   1.157 -0.5446  0.4508 -1.0216
 7414WAT      O30375   2.802   7.472   1.383 -0.1675 -0.2309 -0.0998
 7414WAT     H130376   2.880   7.508   1.364 -0.6230  0.6586 -0.3636
 7414WAT     H230377   2.776   7.517   1.453  0.0646 -1.3335  0.7237
 7414WAT    EPW30378   2.810   7.484   1.391 -0.2005 -0.2624 -0.0171
 7415WAT      O30379   4.036   4.362   0.533 -0.2908 -0.2811  0.2943
 7415WAT     H130380   3.970   4.320   0.572 -0.4417 -0.3415 -0.0220
 7415WAT     H230381   3.995   4.424   0.486 -0.4100 -2.2216 -2.3977
 7415WAT    EPW30382   4.020   4.365   0.532 -0.3307 -0.5767 -0.1501
 7416WAT      O30383   2.938   5.845   7.165  0.0362 -0.2413 -0.2901
 7416WAT     H130384   2.927   5.918   7.118  0.4630  0.5267  0.7736
 7416WAT     H230385   2.863   5.802   7.153  0.2229 -0.1862 -1.8526
 7416WAT    EPW30386   2.925   5.849   7.156  0.1268 -0.1197 -0.3638
 7417WAT      O30387   3.742   5.776   2.903 -0.1330 -0.5010 -0.2299
 7417WAT     H130388   3.712   5.827   2.967  1.4956 -1.0356  1.0146
 7417WAT     H230389   3.748   5.831   2.835 -0.6114  0.4148  0.4392
 7417WAT    EPW30390   3.739   5.792   2.902  0.0369 -0.4446  0.0528
 7418WAT      O30391   3.956   4.197   1.315  0.3132  0.0423  0.2302
 7418WAT     H130392   3.921   4.241   1.249  0.4904  0.3938  0.3680
 7418WAT     H230393   4.006   4.137   1.275  1.1577  0.8509  0.0361
 7418WAT    EPW30394   3.958   4.194   1.300  0.4641  0.2137  0.2219
 7419WAT      O30395   0.934   6.984   2.938 -0.0116 -0.0541 -0.7466
 7419WAT     H130396   0.854   7.019   2.937 -0.2083 -0.4746 -2.1148
 7419WAT     H230397   0.931   6.928   3.005 -0.4989  0.7027 -0.1098
 7419WAT    EPW30398   0.922   6.981   2.948 -0.1126 -0.0044 -0.8547
 7420WAT      O30399   2.972   5.314   0.861 -0.0845 -0.6502  0.2326
 7420WAT     H130400   2.991   5.326   0.945 -1.1254  0.2869  0.3502
 7420WAT     H230401   3.051   5.313   0.822  0.3810 -0.6774  1.1488
 7420WAT    EPW30402   2.987   5.315   0.867 -0.1695 -0.5158  0.3854
 7421WAT      O30403   1.709   4.925   0.396 -0.6331 -0.8336 -0.0375
 7421WAT     H130404   1.727   4.898   0.476 -0.0992  1.8328  0.8640
 7421WAT     H230405   1.782   4.965   0.370 -1.1905 -0.6125 -1.3787
 7421WAT    EPW30406   1.722   4.927   0.404 -0.6366 -0.4071 -0.1024
 7422WAT      O30407   4.415   6.288   0.393  0.3768  0.0878 -0.1824
 7422WAT     H130408   4.350   6.239   0.363  0.7822  0.5365 -1.9268
 7422WAT     H230409   4.476   6.230   0.418 -0.1152 -0.3117  0.0895
 7422WAT    EPW30410   4.415   6.273   0.392  0.3640  0.0951 -0.3999
 7423WAT      O30411   3.351   5.808   1.152 -0.1628  0.5432  0.3228
 7423WAT     H130412   3.432   5.774   1.154  0.1656  0.7610 -2.8866
 7423WAT     H230413   3.300   5.738   1.155  0.1379  0.3503  1.5662
 7423WAT    EPW30414   3.356   5.792   1.152 -0.0699  0.5469  0.0324
 7424WAT      O30415   1.339   7.357   0.850  0.1065 -0.0978  0.6525
 7424WAT     H130416   1.404   7.357   0.791 -1.2117 -2.2669 -0.9747
 7424WAT     H230417   1.339   7.438   0.881  0.9049  1.2083 -2.3815
 7424WAT    EPW30418   1.349   7.369   0.846  0.0297 -0.2253 -0.0361
 7425WAT      O30419   2.227   5.091   1.753  0.1657  0.5330 -0.1787
 7425WAT     H130420   2.202   5.124   1.830 -0.6269  1.5313 -0.8299
 7425WAT     H230421   2.171   5.127   1.696  1.6222  0.9641 -1.4074
 7425WAT    EPW30422   2.215   5.101   1.756  0.2638  0.7442 -0.4564
 7426WAT      O30423   4.962   0.351   1.962  0.0607  0.2948  0.1797
 7426WAT     H130424   4.970   0.414   1.902  0.2732  0.2692  0.1791
 7426WAT     H230425   4.876   0.337   1.967  0.0941 -0.5267 -0.9961
 7426WAT    EPW30426   4.951   0.358   1.954  0.0970  0.1697  0.0059
 7427WAT      O30427   3.131   5.789   0.601 -0.3779 -0.4893  0.4204
 7427WAT     H130428   3.046   5.787   0.581  0.0722 -3.0563 -1.7221
 7427WAT     H230429   3.147   5.709   0.631  1.4863 -0.3668 -0.1489
 7427WAT    EPW30430   3.121   5.777   0.603 -0.0360 -0.8504  0.0198
 7428WAT      O30431   3.157   6.453   0.166 -0.6099  0.3788  0.6801
 7428WAT     H130432   3.117   6.413   0.100 -1.2949  2.1475 -0.0323
 7428WAT     H230433   3.113   6.528   0.175  0.5654  0.9680  2.0016
 7428WAT    EPW30434   3.145   6.458   0.158 -0.5375  0.7271  0.7701
 7429WAT      O30435   4.118   4.974   1.324 -0.0097 -0.1416 -0.3543
 7429WAT     H130436   4.162   5.000   1.395 -1.1396  1.8693 -0.3264
 7429WAT     H230437   4.147   5.027   1.261 -0.3274 -0.7050 -0.9915
 7429WAT    EPW30438   4.129   4.986   1.325 -0.2236  0.0722 -0.4443
 7430WAT      O30439   2.886   5.669   0.523 -0.1857 -0.2561 -0.0572
 7430WAT     H130440   2.921   5.603   0.479 -0.3574 -0.9538  0.8260
 7430WAT     H230441   2.802   5.646   0.532  0.0564 -0.6210  1.4912
 7430WAT    EPW30442   2.878   5.656   0.518 -0.1753 -0.4131  0.3020
 7431WAT      O30443   3.995   4.202   2.217 -0.0866 -0.4865 -0.0208
 7431WAT     H130444   3.918   4.214   2.256  0.8842  0.3226  1.7311
 7431WAT     H230445   3.973   4.172   2.138 -2.2342  0.8366  0.0051
 7431WAT    EPW30446   3.980   4.199   2.211 -0.2604 -0.1715  0.2418
 7432WAT      O30447   4.120   3.997   0.740 -0.0984 -0.1188  0.2149
 7432WAT     H130448   4.124   4.081   0.764  0.4429 -0.4598  1.4234
 7432WAT     H230449   4.189   3.962   0.780  0.2564 -0.9597 -1.0845
 7432WAT    EPW30450   4.131   4.005   0.750  0.0340 -0.2934  0.2015
 7433WAT      O30451   2.758   6.649   0.330 -0.0123 -0.2314  0.1440
 7433WAT     H130452   2.767   6.569   0.364 -0.3708 -0.0479  0.6815
 7433WAT     H230453   2.833   6.660   0.286  1.1505  0.0891  2.0960
 7433WAT    EPW30454   2.771   6.639   0.329  0.1065 -0.1569  0.5117
 7434WAT      O30455   4.093   5.288   6.385  0.2582  0.5755  0.4394
 7434WAT     H130456   4.120   5.307   6.304 -0.3124  0.1899  0.1518
 7434WAT     H230457   4.029   5.230   6.372  2.5048 -2.3677  1.2839
 7434WAT    EPW30458   4.087   5.282   6.371  0.5058  0.0838  0.5217
 7435WAT      O30459   3.263   6.726   0.668  0.4292 -0.1636  0.2541
 7435WAT     H130460   3.299   6.668   0.722 -0.5875  0.4231  1.6323
 7435WAT     H230461   3.207   6.678   0.621  0.4234 -0.4853  0.5823
 7435WAT    EPW30462   3.260   6.710   0.669  0.2781 -0.1245  0.5062
 7436WAT      O30463   1.092   6.349   1.210 -0.1063  0.3762 -0.0030
 7436WAT     H130464   1.038   6.392   1.158  1.4791  1.8242 -0.5189
 7436WAT     H230465   1.089   6.393   1.285  0.0781  0.2481  0.0836
 7436WAT    EPW30466   1.084   6.362   1.214  0.1551  0.5711 -0.0664
 7437WAT      O30467   0.913   6.702   0.423 -0.0813  0.2790 -0.5465
 7437WAT     H130468   0.913   6.772   0.475  1.8394 -0.5022  0.5886
 7437WAT     H230469   0.887   6.637   0.475  0.5011 -0.2794 -0.9327
 7437WAT    EPW30470   0.909   6.703   0.438  0.2885  0.0811 -0.4359
 7438WAT      O30471   3.020   4.529   1.711  0.1947  0.3789  0.7152
 7438WAT     H130472   3.079   4.471   1.685 -0.0784 -0.2528  1.4896
 7438WAT     H230473   2.977   4.549   1.637 -0.1655 -0.9074  0.5686
 7438WAT    EPW30474   3.022   4.524   1.696  0.1011  0.0956  0.8080
 7439WAT      O30475   0.948   6.168   1.625 -0.4764 -0.1576 -0.0529
 7439WAT     H130476   0.889   6.139   1.568  1.7486 -0.5702 -2.3432
 7439WAT     H230477   1.023   6.135   1.596  1.2806  2.3444  1.1765
 7439WAT    EPW30478   0.951   6.159   1.612  0.1118  0.1510 -0.2096
 7440WAT      O30479   1.940   6.175   0.828 -0.0799  0.7344 -0.5062
 7440WAT     H130480   1.941   6.088   0.827 -2.1149  0.6706 -0.9550
 7440WAT     H230481   1.981   6.196   0.902  1.3310 -0.5342 -0.8732
 7440WAT    EPW30482   1.946   6.166   0.838 -0.1721  0.5376 -0.6267
 7441WAT      O30483   3.708   3.950   7.809 -0.3000 -0.5824 -0.5164
 7441WAT     H130484   3.639   3.998   7.830  0.7272  0.1573  1.4253
 7441WAT     H230485   3.715   3.961   7.722 -1.0138  1.5419 -0.3687
 7441WAT    EPW30486   3.699   3.959   7.799 -0.2537 -0.1594 -0.2078
 7442WAT      O30487   3.650   6.519   1.536  0.3959 -0.9073  0.4989
 7442WAT     H130488   3.730   6.538   1.509  1.2909 -2.4594  1.8503
 7442WAT     H230489   3.603   6.588   1.512  1.9014 -0.4188 -1.2596
 7442WAT    EPW30490   3.655   6.532   1.529  0.7505 -1.0644  0.4388
 7443WAT      O30491   0.900   6.981   0.460  0.7030  0.0652  0.7012
 7443WAT     H130492   0.855   7.054   0.449  0.8772  0.5749  2.8394
 7443WAT     H230493   0.881   6.957   0.542  1.7798 -1.4846  0.5530
 7443WAT    EPW30494   0.891   6.988   0.471  0.8878 -0.0885  0.9951
 7444WAT      O30495   2.876   6.270   3.050  0.1856 -0.3814 -0.2067
 7444WAT     H130496   2.841   6.194   3.027 -0.4702  0.0216 -0.5756
 7444WAT     H230497   2.812   6.327   3.037  1.4676  0.6597 -2.5629
 7444WAT    EPW30498   2.862   6.267   3.045  0.2781 -0.1680 -0.6093
 7445WAT      O30499   1.907   5.913   0.886 -0.0515  0.0485  0.6886
 7445WAT     H130500   1.845   5.855   0.864 -0.5649 -0.0883  2.3623
 7445WAT     H230501   1.970   5.863   0.920  0.9972  0.1955 -0.9646
 7445WAT    EPW30502   1.907   5.897   0.888  0.0276  0.0500  0.6916
 7446WAT      O30503   3.011   4.866   7.799 -0.2381 -0.6473 -0.1201
 7446WAT     H130504   3.008   4.879   7.885  0.7832  0.8705 -0.2852
 7446WAT     H230505   2.935   4.900   7.771  0.5919  1.3967 -0.0709
 7446WAT    EPW30506   2.999   4.873   7.808  0.0354 -0.1212 -0.1372
 7447WAT      O30507   3.488   5.287   1.392 -0.0555 -0.5467 -0.2305
 7447WAT     H130508   3.446   5.350   1.436 -0.5391 -1.2778  0.4119
 7447WAT     H230509   3.428   5.258   1.336  0.0695 -0.6063 -0.3330
 7447WAT    EPW30510   3.473   5.292   1.390 -0.1084 -0.6635 -0.1508
 7448WAT      O30511   2.878   4.226   1.565 -0.0937 -0.1431 -0.2251
 7448WAT     H130512   2.934   4.163   1.584 -3.2329 -3.4679 -0.7705
 7448WAT     H230513   2.802   4.196   1.596 -2.2235  2.2701 -2.5408
 7448WAT    EPW30514   2.875   4.212   1.572 -0.8720 -0.2778 -0.6478
 7449WAT      O30515   3.722   7.402   0.181 -0.6401 -0.1823  0.5197
 7449WAT     H130516   3.724   7.487   0.198  0.0935  0.1729 -1.2473
 7449WAT     H230517   3.730   7.366   0.260  0.2990  1.3729  1.1719
 7449WAT    EPW30518   3.723   7.409   0.195 -0.3930  0.0999  0.3550
 7450WAT      O30519   2.802   4.942   1.625  0.2865 -0.3518  0.1744
 7450WAT     H130520   2.756   4.917   1.695  1.9214  0.2552  1.5358
 7450WAT     H230521   2.885   4.931   1.650  0.9363  0.7476 -1.3401
 7450WAT    EPW30522   2.808   4.937   1.639  0.6240 -0.0997  0.1518
 7451WAT      O30523   3.310   5.956   5.863 -0.3944 -0.0978  0.1563
 7451WAT     H130524   3.286   6.024   5.911 -1.3366 -0.3039 -0.0072
 7451WAT     H230525   3.281   5.887   5.908  0.0706 -0.3642  0.0546
 7451WAT    EPW30526   3.302   5.956   5.877 -0.4649 -0.1676  0.1171
 7452WAT      O30527   2.420   4.331   2.275  0.2905  0.1537 -0.5143
 7452WAT     H130528   2.501   4.362   2.277  0.1107  0.6114  0.4215
 7452WAT     H230529   2.410   4.304   2.193  1.2505  0.4468 -0.7413
 7452WAT    EPW30530   2.431   4.332   2.263  0.4057  0.2646 -0.4096
 7453WAT      O30531   3.645   4.158   1.890 -0.4703  0.3256  0.1793
 7453WAT     H130532   3.636   4.111   1.818 -1.0375 -1.8584  1.5716
 7453WAT     H230533   3.732   4.166   1.899 -0.3905  0.3466 -0.5637
 7453WAT    EPW30534   3.657   4.152   1.881 -0.5423  0.0061  0.2752
 7454WAT      O30535   4.118   4.809   1.705  0.0253  0.6419  0.1648
 7454WAT     H130536   4.142   4.786   1.786 -0.5608  1.9922  0.7491
 7454WAT     H230537   4.152   4.889   1.695 -1.4985  1.2954 -0.1754
 7454WAT    EPW30538   4.126   4.818   1.715 -0.2864  0.9379  0.2009
 7455WAT      O30539   3.057   5.085   7.461  0.4751  0.3360  0.1845
 7455WAT     H130540   3.099   5.030   7.408  1.4143 -0.6518  1.8496
 7455WAT     H230541   3.118   5.110   7.518 -0.5387  1.1269  0.9801
 7455WAT    EPW30542   3.072   5.080   7.462  0.4641  0.3069  0.5480
 7456WAT      O30543   2.389   4.219   1.023 -0.2597  0.3501 -0.3998
 7456WAT     H130544   2.336   4.236   1.091 -0.3265 -0.3375 -0.2746
 7456WAT     H230545   2.432   4.294   1.012 -0.5012  0.5823  0.1751
 7456WAT    EPW30546   2.387   4.232   1.031 -0.3052  0.2828 -0.2964
 7457WAT      O30547   4.245   7.235   7.826 -0.0295  0.0437  0.0439
 7457WAT     H130548   4.257   7.309   7.870 -1.1076 -0.0930  0.6139
 7457WAT     H230549   4.163   7.242   7.796  0.1254 -0.5821 -0.5601
 7457WAT    EPW30550   4.235   7.247   7.828 -0.1658 -0.0689  0.0389
 7458WAT      O30551   3.205   6.096   7.422 -0.2102 -0.2726  0.1337
 7458WAT     H130552   3.158   6.124   7.490 -0.9206 -1.7887  0.3253
 7458WAT     H230553   3.180   6.013   7.413  0.9346 -0.5262 -1.0851
 7458WAT    EPW30554   3.194   6.088   7.431 -0.1460 -0.5340 -0.0180
 7459WAT      O30555   1.534   5.740   1.181 -0.6292 -0.2255 -0.3543
 7459WAT     H130556   1.587   5.688   1.135  1.0088 -0.1095  1.2801
 7459WAT     H230557   1.491   5.785   1.121  3.4422  2.0490 -1.9441
 7459WAT    EPW30558   1.536   5.739   1.166  0.2142  0.1276 -0.3477
 7460WAT      O30559   2.761   6.012   1.287  0.3426 -0.2426 -0.0211
 7460WAT     H130560   2.847   5.998   1.277  0.4742  0.1984  0.4472
 7460WAT     H230561   2.725   5.959   1.229  1.0333  1.8745 -2.5642
 7460WAT    EPW30562   2.768   6.002   1.277  0.4641  0.1353 -0.3276
 7461WAT      O30563   2.155   5.025   7.040 -0.0309  0.0912 -0.0313
 7461WAT     H130564   2.104   5.086   7.075  1.9490  1.1977  1.1126
 7461WAT     H230565   2.202   5.069   6.981  0.5471 -0.5789 -0.0836
 7461WAT    EPW30566   2.154   5.040   7.037  0.3470  0.1556  0.1300
 7462WAT      O30567   3.284   5.535   1.179  0.1007  0.2525 -0.7823
 7462WAT     H130568   3.271   5.487   1.251 -3.3432 -0.0135 -1.3833
 7462WAT     H230569   3.336   5.486   1.130  0.1532 -0.8824  0.3595
 7462WAT    EPW30570   3.290   5.521   1.183 -0.4003  0.0455 -0.7024
 7463WAT      O30571   3.795   4.845   1.023 -0.4634  0.5537 -0.4831
 7463WAT     H130572   3.881   4.855   1.022 -0.3260 -0.0895  1.1586
 7463WAT     H230573   3.764   4.927   1.023  0.1098  0.7814 -1.5197
 7463WAT    EPW30574   3.803   4.859   1.023 -0.3584  0.4923 -0.3937
 7464WAT      O30575   2.670   6.274   1.298  0.6161 -0.8676  0.5201
 7464WAT     H130576   2.710   6.319   1.235 -0.0366  0.2735  0.8979
 7464WAT     H230577   2.703   6.193   1.289  1.4051 -0.4573 -0.5195
 7464WAT    EPW30578   2.681   6.268   1.288  0.6363 -0.6384  0.4223
 7465WAT      O30579   2.325   3.330   1.664 -0.2891  0.2414  0.9686
 7465WAT     H130580   2.265   3.339   1.601 -0.2702 -0.2435  0.8767
 7465WAT     H230581   2.339   3.412   1.690 -1.2831  0.3252  1.2710
 7465WAT    EPW30582   2.318   3.343   1.658 -0.4332  0.1822  0.9997
 7466WAT      O30583   3.330   5.760   2.170 -0.0757  0.4390  0.0042
 7466WAT     H130584   3.388   5.704   2.137  0.6942  2.5767 -2.6858
 7466WAT     H230585   3.368   5.788   2.243  0.1655 -1.4453  0.6322
 7466WAT    EPW30586   3.344   5.756   2.176  0.0737  0.4764 -0.3004
 7467WAT      O30587   2.459   6.178   1.665  0.3118 -0.2447  0.4336
 7467WAT     H130588   2.394   6.147   1.616  0.3048 -0.7460  0.7489
 7467WAT     H230589   2.528   6.176   1.611 -0.0622  0.9449 -0.1175
 7467WAT    EPW30590   2.460   6.173   1.650  0.2555 -0.1430  0.3988
 7468WAT      O30591   0.861   6.105   0.021  0.3905 -0.3137 -0.8138
 7468WAT     H130592   0.864   6.190   0.038 -1.5402 -0.4211  0.2460
 7468WAT     H230593   0.823   6.071   0.091 -1.0303 -1.7403 -2.2079
 7468WAT    EPW30594   0.856   6.112   0.034 -0.1046 -0.5403 -0.8632
 7469WAT      O30595   2.981   5.694   1.686 -0.7427 -0.2324  0.3746
 7469WAT     H130596   2.923   5.682   1.622 -2.1324  1.4004  1.2362
 7469WAT     H230597   2.942   5.752   1.738  0.6256 -0.9953  2.3558
 7469WAT    EPW30598   2.967   5.701   1.684 -0.7458 -0.1039  0.7946
 7470WAT      O30599   3.299   5.930   0.071  0.2424  0.1308 -0.3038
 7470WAT     H130600   3.259   5.879   0.012  0.9412  1.5192 -2.0609
 7470WAT     H230601   3.241   5.993   0.087  0.0448 -0.2563  0.5528
 7470WAT    EPW30602   3.284   5.932   0.065  0.3164  0.2787 -0.4368
 7471WAT      O30603   1.676   4.560   7.206  0.4132  0.7606  0.4193
 7471WAT     H130604   1.729   4.533   7.270  0.1593 -0.7764  0.0236
 7471WAT     H230605   1.641   4.634   7.238 -1.4991 -1.1171  3.1292
 7471WAT    EPW30606   1.679   4.567   7.220  0.0932  0.2562  0.7612
 7472WAT      O30607   1.188   5.722   0.180 -0.3322 -0.1184  0.0668
 7472WAT     H130608   1.208   5.646   0.218 -1.9026  0.0207  1.2531
 7472WAT     H230609   1.145   5.699   0.108 -0.3503 -0.3515  0.1528
 7472WAT    EPW30610   1.185   5.707   0.175 -0.5669 -0.1323  0.2548
 7473WAT      O30611   1.816   5.442   7.783  0.0485  0.1286  0.2379
 7473WAT     H130612   1.895   5.419   7.812  0.6526 -0.5418 -1.7433
 7473WAT     H230613   1.816   5.529   7.786  1.2543  0.1738 -0.6200
 7473WAT    EPW30614   1.827   5.451   7.788  0.3158  0.0362 -0.1815
 7474WAT      O30615   4.406   6.485   2.794  0.3439 -0.3326  0.8944
 7474WAT     H130616   4.378   6.502   2.713  0.2693  0.5793  1.1045
 7474WAT     H230617   4.392   6.399   2.802 -0.2942 -0.3107  0.1900
 7474WAT    EPW30618   4.400   6.475   2.783  0.2386 -0.1946  0.8214
 7475WAT      O30619   3.001   1.161   1.043  0.0839 -0.3793  0.3872
 7475WAT     H130620   3.016   1.086   1.087  2.3176  0.3405  1.0043
 7475WAT     H230621   3.014   1.222   1.103 -0.7332  0.5617 -0.3653
 7475WAT    EPW30622   3.005   1.159   1.058  0.2932 -0.1340  0.3672
 7476WAT      O30623   2.404   4.591   0.413  0.2840  0.4065 -0.1484
 7476WAT     H130624   2.484   4.574   0.442 -0.1759  0.1764  1.0062
 7476WAT     H230625   2.390   4.674   0.437  0.2796  0.5549 -0.6313
 7476WAT    EPW30626   2.414   4.601   0.421  0.2154  0.3944 -0.0492
 7477WAT      O30627   2.821   4.855   1.265  0.6983 -0.0742 -0.2780
 7477WAT     H130628   2.773   4.819   1.329 -0.7906 -1.5340 -2.0679
 7477WAT     H230629   2.782   4.932   1.251 -0.3485 -0.6794 -0.8216
 7477WAT    EPW30630   2.808   4.861   1.272  0.3237 -0.3792 -0.6227
 7478WAT      O30631   3.038   3.933   2.192  0.3795 -0.7040 -0.1879
 7478WAT     H130632   3.048   3.927   2.278 -0.3967  0.5135  0.0047
 7478WAT     H230633   2.997   3.859   2.171  0.5889 -1.0157  0.4790
 7478WAT    EPW30634   3.033   3.921   2.201  0.2958 -0.5702 -0.0609
 7479WAT      O30635   2.603   7.345   0.903  0.1941 -0.7160  0.1825
 7479WAT     H130636   2.591   7.410   0.847 -2.3246  0.0002  1.4184
 7479WAT     H230637   2.611   7.384   0.980 -0.2263 -1.7955  0.8060
 7479WAT    EPW30638   2.602   7.360   0.906 -0.2401 -0.7696  0.4572
 7480WAT      O30639   1.693   2.629   0.508 -0.1550 -0.5918  0.0428
 7480WAT     H130640   1.774   2.658   0.522 -0.4257 -0.0128  0.4764
 7480WAT     H230641   1.691   2.612   0.422 -0.0793  1.0416 -0.3087
 7480WAT    EPW30642   1.704   2.631   0.497 -0.1838 -0.2650  0.0549
 7481WAT      O30643   3.029   6.907   2.627  0.9047 -0.6350  0.1199
 7481WAT     H130644   3.106   6.941   2.648 -0.4884  3.0312  0.1269
 7481WAT     H230645   3.013   6.939   2.547 -1.3821  0.4864  0.9182
 7481WAT    EPW30646   3.038   6.917   2.618  0.3611  0.0722  0.2388
 7482WAT      O30647   1.534   4.582   0.025  0.1015 -0.1713  0.2512
 7482WAT     H130648   1.548   4.600  -0.059  0.1289  0.9658  0.4844
 7482WAT     H230649   1.556   4.497   0.032 -2.2139 -0.9849 -1.3872
 7482WAT    EPW30650   1.539   4.572   0.014 -0.2365 -0.1235  0.0436
 7483WAT      O30651   2.712   6.688   1.196  0.7064  0.6062 -0.1489
 7483WAT     H130652   2.685   6.685   1.113  0.1143  1.1065  0.0155
 7483WAT     H230653   2.793   6.721   1.190  0.7602  0.4028 -0.5469
 7483WAT    EPW30654   2.720   6.692   1.183  0.6268  0.6500 -0.1834
 7484WAT      O30655   2.477   5.132   1.942  1.1017  0.1586  0.2159
 7484WAT     H130656   2.430   5.187   1.990  1.7612  0.6612  0.2956
 7484WAT     H230657   2.472   5.166   1.862  2.9394  1.3430  0.5580
 7484WAT    EPW30658   2.469   5.145   1.937  1.4706  0.4078  0.2782
 7485WAT      O30659   4.576   5.993   1.462 -0.0163  0.2883 -0.0618
 7485WAT     H130660   4.563   5.907   1.450  1.0089 -0.0452  0.9972
 7485WAT     H230661   4.526   6.030   1.401 -0.6277 -1.0573 -0.4169
 7485WAT    EPW30662   4.567   5.986   1.451  0.0448  0.0403  0.0422
 7486WAT      O30663   3.236   6.177   0.557  0.1333  0.3554  0.3639
 7486WAT     H130664   3.264   6.101   0.524 -1.0527  0.1348 -0.1646
 7486WAT     H230665   3.278   6.182   0.634  1.3527 -0.1089 -0.2426
 7486WAT    EPW30666   3.246   6.166   0.564  0.1382  0.2542  0.1962
 7487WAT      O30667   2.261   4.964   1.362 -0.4829 -0.2725 -0.3336
 7487WAT     H130668   2.310   4.895   1.341 -0.2726 -0.1541 -0.2322
 7487WAT     H230669   2.230   4.944   1.441 -0.8102 -0.4619 -0.5059
 7487WAT    EPW30670   2.264   4.951   1.370 -0.5002 -0.2830 -0.3441
 7488WAT      O30671   4.211   6.850   2.584  0.3407 -0.3100  0.2035
 7488WAT     H130672   4.182   6.802   2.651  0.3657  0.0777  0.4973
 7488WAT     H230673   4.265   6.907   2.622  1.1750 -0.7555 -0.2795
 7488WAT    EPW30674   4.215   6.851   2.599  0.4676 -0.3185  0.1755
 7489WAT      O30675   3.851   7.555   2.191 -0.2095  1.0427 -0.3582
 7489WAT     H130676   3.883   7.474   2.191 -1.6425  0.4053  1.0525
 7489WAT     H230677   3.890   7.593   2.123  1.7654 -0.3011 -0.0603
 7489WAT    EPW30678   3.861   7.548   2.181 -0.1294  0.7500 -0.1058
 7490WAT      O30679   4.535   6.146   7.541 -0.3858  0.5389  0.1028
 7490WAT     H130680   4.579   6.089   7.491 -1.6495  0.2585 -0.7609
 7490WAT     H230681   4.553   6.121   7.622 -1.1505 -1.3450 -0.2516
 7490WAT    EPW30682   4.544   6.134   7.545 -0.6854  0.2192 -0.0771
 7491WAT      O30683   1.486   6.612   1.246 -0.0909 -0.2814  0.0796
 7491WAT     H130684   1.438   6.650   1.184 -1.0481 -1.2371  0.2093
 7491WAT     H230685   1.460   6.529   1.244  1.4867 -0.8207  0.2324
 7491WAT    EPW30686   1.475   6.605   1.236  0.0007 -0.5022  0.1213
 7492WAT      O30687   3.474   5.560   2.025  0.0051  0.1903 -0.3138
 7492WAT     H130688   3.542   5.513   2.051 -0.3207 -0.8570 -1.2788
 7492WAT     H230689   3.409   5.501   2.020 -1.2586  1.3210  1.5240
 7492WAT    EPW30690   3.474   5.544   2.028 -0.2297  0.2026 -0.1849
 7493WAT      O30691   2.485   5.694   1.201 -0.1991  0.1685 -0.4776
 7493WAT     H130692   2.414   5.724   1.242 -0.0742 -0.5547  0.2890
 7493WAT     H230693   2.452   5.646   1.137 -0.4041 -0.0285 -0.2270
 7493WAT    EPW30694   2.469   5.692   1.198 -0.2109  0.0326 -0.3274
 7494WAT      O30695   3.488   5.575   0.734 -0.8627  0.6405  0.5834
 7494WAT     H130696   3.563   5.546   0.701 -1.9200 -0.0406 -1.3820
 7494WAT     H230697   3.484   5.658   0.709  0.3988  1.5357  2.9902
 7494WAT    EPW30698   3.499   5.583   0.726 -0.8325  0.6721  0.6486
 7495WAT      O30699   2.689   4.742   1.457 -0.3964 -0.0184  0.1943
 7495WAT     H130700   2.735   4.669   1.471  0.0077  0.0487 -0.7131
 7495WAT     H230701   2.717   4.797   1.519 -0.4204 -0.4922  0.6360
 7495WAT    EPW30702   2.700   4.739   1.468 -0.3402 -0.0785  0.1255
 7496WAT      O30703   3.663   6.033   0.026  0.3045  0.1894 -0.0433
 7496WAT     H130704   3.597   6.013  -0.027 -1.0681  1.9343  0.9170
 7496WAT     H230705   3.630   6.024   0.106  1.0921  1.4302  0.4572
 7496WAT    EPW30706   3.649   6.028   0.030  0.2181  0.6304  0.1725
 7497WAT      O30707   2.611   5.506   2.305  0.2858  0.0607 -0.0473
 7497WAT     H130708   2.612   5.498   2.218  1.4236  2.6765 -0.3581
 7497WAT     H230709   2.660   5.577   2.320  0.6095 -0.6336  2.7870
 7497WAT    EPW30710   2.618   5.515   2.294  0.5017  0.3445  0.3255
 7498WAT      O30711   1.833   3.298   1.784  0.7842 -0.2753  0.0361
 7498WAT     H130712   1.821   3.384   1.783  1.7432 -0.0908  1.3724
 7498WAT     H230713   1.766   3.268   1.832 -0.7087 -0.5419 -2.0903
 7498WAT    EPW30714   1.821   3.306   1.791  0.7053 -0.2875 -0.0806
 7499WAT      O30715   3.665   6.873   2.042 -0.4217  0.4397 -0.2999
 7499WAT     H130716   3.660   6.817   1.976  0.2815  0.0366 -0.0147
 7499WAT     H230717   3.695   6.946   2.005 -2.3900  1.0246 -0.8938
 7499WAT    EPW30718   3.669   6.876   2.027 -0.6086  0.4665 -0.3455
 7500WAT      O30719   3.029   4.952   2.749 -0.1448 -0.2047 -0.1167
 7500WAT     H130720   2.966   4.903   2.712 -0.6989 -0.6376  1.3144
 7500WAT     H230721   3.098   4.898   2.749 -0.5771 -0.7798  0.8749
 7500WAT    EPW30722   3.030   4.937   2.743 -0.2905 -0.3536  0.2412
 7501WAT      O30723   3.906   6.658   1.570 -0.0643 -0.5124  0.3749
 7501WAT     H130724   3.924   6.684   1.489 -0.9773 -0.7246  0.1015
 7501WAT     H230725   3.960   6.590   1.582 -0.4308 -0.9346 -0.3142
 7501WAT    EPW30726   3.917   6.652   1.560 -0.2533 -0.6061  0.2327
 7502WAT      O30727   2.835   6.387   0.470 -0.1840  0.4309  0.3042
 7502WAT     H130728   2.775   6.356   0.525  0.7688 -0.5777  0.7972
 7502WAT     H230729   2.869   6.316   0.434  1.0682  0.9507  0.3975
 7502WAT    EPW30730   2.831   6.372   0.472  0.1417  0.3587  0.3908
 7503WAT      O30731   2.569   5.309   0.551  0.4240  0.0945 -0.4758
 7503WAT     H130732   2.622   5.333   0.616 -1.2496  0.6729  0.7576
 7503WAT     H230733   2.617   5.254   0.504  1.6768 -0.4707  1.3603
 7503WAT    EPW30734   2.584   5.304   0.554  0.3619  0.0965 -0.0224
 7504WAT      O30735   4.266   4.178   1.817 -0.1349 -0.1297  0.2676
 7504WAT     H130736   4.207   4.120   1.843  0.6900 -1.0704  0.1007
 7504WAT     H230737   4.252   4.247   1.869 -2.0539  0.0850 -0.4793
 7504WAT    EPW30738   4.255   4.180   1.829 -0.2965 -0.2370  0.1326
 7505WAT      O30739   2.195   4.749   1.928  0.2832  0.3899  0.1653
 7505WAT     H130740   2.255   4.747   1.991  0.4962 -1.2541 -0.0397
 7505WAT     H230741   2.120   4.763   1.971  0.6954  1.7256  0.4947
 7505WAT    EPW30742   2.193   4.751   1.944  0.3756  0.3443  0.1837
 7506WAT      O30743   3.047   6.050   1.363  0.5511 -0.0327 -0.1110
 7506WAT     H130744   3.036   6.134   1.343 -0.6647 -0.5135 -1.7018
 7506WAT     H230745   3.118   6.027   1.319  0.1241 -0.1375 -0.7607
 7506WAT    EPW30746   3.056   6.059   1.354  0.3084 -0.1192 -0.4420
 7507WAT      O30747   3.783   4.212   0.311 -0.1970 -0.2114  0.1199
 7507WAT     H130748   3.820   4.149   0.263 -1.9788 -1.9449  0.8824
 7507WAT     H230749   3.815   4.197   0.391  0.7075  1.0046  0.0145
 7507WAT    EPW30750   3.793   4.200   0.316 -0.3266 -0.2878  0.2169
 7508WAT      O30751   1.171   4.676   1.036  0.0982 -0.5002 -0.7649
 7508WAT     H130752   1.131   4.623   1.094  1.3042 -0.6878 -0.0741
 7508WAT     H230753   1.166   4.632   0.961 -0.7261 -0.6463 -0.6364
 7508WAT    EPW30754   1.164   4.662   1.034  0.1545 -0.5495 -0.6439
 7509WAT      O30755   4.347   4.608   0.111 -0.1792 -0.1644  0.0477
 7509WAT     H130756   4.327   4.688   0.140  2.0985 -0.9304  4.7021
 7509WAT     H230757   4.295   4.556   0.156  1.7445 -1.4208  0.9693
 7509WAT    EPW30758   4.337   4.612   0.122  0.4414 -0.4632  0.8714
 7510WAT      O30759   4.148   3.903   7.278 -0.1421  0.1905 -0.5005
 7510WAT     H130760   4.229   3.876   7.297 -0.5053 -0.5728  0.0159
 7510WAT     H230761   4.100   3.831   7.286 -1.0629  0.8612  0.3495
 7510WAT    EPW30762   4.153   3.889   7.282 -0.3318  0.1768 -0.2987
 7511WAT      O30763   3.424   5.220   2.496 -0.0638 -0.7874  0.4286
 7511WAT     H130764   3.495   5.171   2.507 -0.1592 -1.0756 -0.2108
 7511WAT     H230765   3.367   5.188   2.554  0.2451 -0.7048  0.7806
 7511WAT    EPW30766   3.426   5.208   2.506 -0.0323 -0.8177  0.3861
 7512WAT      O30767   3.657   4.648   0.302 -0.3316  0.4389  0.4288
 7512WAT     H130768   3.639   4.563   0.298  1.6191  0.0138 -1.5157
 7512WAT     H230769   3.709   4.655   0.372 -1.4155  0.2648  1.2689
 7512WAT    EPW30770   3.662   4.636   0.312 -0.2035  0.3504  0.2657
 7513WAT      O30771   3.707   7.212   7.406  0.0616  0.1219 -0.4242
 7513WAT     H130772   3.705   7.294   7.434 -0.6617 -0.3321  0.9754
 7513WAT     H230773   3.707   7.219   7.319  2.4914  1.6294 -0.3988
 7513WAT    EPW30774   3.707   7.225   7.397  0.3137  0.2776 -0.2137
 7514WAT      O30775   1.997   4.166   0.797  0.4821 -0.0177  0.1560
 7514WAT     H130776   1.977   4.237   0.843  1.6402  1.8800 -2.0755
 7514WAT     H230777   1.949   4.104   0.835 -0.1760  1.7837  2.5646
 7514WAT    EPW30778   1.987   4.167   0.809  0.5560  0.5288  0.1822
 7515WAT      O30779   3.114   4.542   0.618  0.1218 -0.1338 -0.1005
 7515WAT     H130780   3.039   4.498   0.632 -0.3597  0.6723 -0.0694
 7515WAT     H230781   3.164   4.519   0.686  0.4729 -1.8072 -0.8575
 7515WAT    EPW30782   3.110   4.532   0.630  0.1025 -0.2619 -0.2078
 7516WAT      O30783   3.473   5.551   0.233 -0.0749  0.0058 -0.6617
 7516WAT     H130784   3.505   5.632   0.236 -0.3965  0.1455 -0.9142
 7516WAT     H230785   3.430   5.544   0.309  1.1377 -0.4397  0.0064
 7516WAT    EPW30786   3.471   5.562   0.245  0.0567 -0.0394 -0.6003
 7517WAT      O30787   3.527   5.637   1.608  0.7259  0.1938 -0.2518
 7517WAT     H130788   3.526   5.694   1.542 -0.0989  1.8469  1.1404
 7517WAT     H230789   3.446   5.606   1.610  0.4080  1.0409  0.7034
 7517WAT    EPW30790   3.515   5.641   1.598  0.5571  0.5631  0.0950
 7518WAT      O30791   4.378   4.470   0.927  0.2700 -1.1251 -0.0971
 7518WAT     H130792   4.456   4.496   0.956  0.4077  0.8497 -2.0190
 7518WAT     H230793   4.392   4.452   0.843 -1.1080 -1.9842 -0.1734
 7518WAT    EPW30794   4.391   4.471   0.919  0.0868 -0.9603 -0.3923
 7519WAT      O30795   2.663   6.063   7.781  0.3307  0.2859 -0.4323
 7519WAT     H130796   2.741   6.065   7.820  0.4585 -1.8830 -0.4853
 7519WAT     H230797   2.608   6.091   7.843  0.7069 -1.8295  0.9521
 7519WAT    EPW30798   2.666   6.067   7.796  0.4051 -0.3470 -0.2356
 7520WAT      O30799   1.415   6.830   1.404 -0.0874  0.5646  0.1402
 7520WAT     H130800   1.461   6.775   1.355 -0.1519  0.0702  0.6146
 7520WAT     H230801   1.353   6.860   1.350 -0.0503  0.1665 -0.1250
 7520WAT    EPW30802   1.413   6.826   1.389 -0.0915  0.4327  0.1711
 7521WAT      O30803   3.498   4.874   1.621  0.6261  0.0723 -0.1774
 7521WAT     H130804   3.426   4.853   1.666  2.0632 -0.6145  2.0008
 7521WAT     H230805   3.509   4.959   1.640  0.0432  0.3746 -1.1093
 7521WAT    EPW30806   3.489   4.884   1.631  0.7523  0.0155  0.0067
 7522WAT      O30807   3.562   5.813   7.738 -0.0231 -0.0051  0.4978
 7522WAT     H130808   3.606   5.803   7.663  0.7341  2.7707  0.4763
 7522WAT     H230809   3.618   5.784   7.798 -0.0731 -0.9036  0.1328
 7522WAT    EPW30810   3.577   5.807   7.736  0.0814  0.2722  0.4407
 7523WAT      O30811   3.808   5.520   2.978  0.1130 -0.2340 -0.8426
 7523WAT     H130812   3.782   5.602   2.965  0.2620 -0.1128 -0.3775
 7523WAT     H230813   3.753   5.473   2.928  1.1988  0.2696 -2.5980
 7523WAT    EPW30814   3.796   5.525   2.969  0.2954 -0.1417 -1.0332
 7524WAT      O30815   2.900   5.880   1.896  0.3927  0.0342  0.1974
 7524WAT     H130816   2.888   5.959   1.860  0.5150  1.5682  3.1308
 7524WAT     H230817   2.819   5.849   1.902  0.5172 -2.7834 -5.7749
 7524WAT    EPW30818   2.886   5.887   1.892  0.4291 -0.1554 -0.2515
 7525WAT      O30819   3.057   6.035   1.636 -0.4079 -0.0544  0.3708
 7525WAT     H130820   3.045   6.113   1.674  1.0228  0.1721  0.4260
 7525WAT     H230821   3.054   6.053   1.551  0.6122  0.2133  0.3748
 7525WAT    EPW30822   3.055   6.049   1.629 -0.0459  0.0186  0.3796
 7526WAT      O30823   1.667   5.142   1.086 -0.7504 -0.0299 -0.2883
 7526WAT     H130824   1.647   5.062   1.116 -0.4159  0.5563  1.6345
 7526WAT     H230825   1.592   5.169   1.050 -2.0171  0.1043  2.1891
 7526WAT    EPW30826   1.653   5.134   1.085 -0.8881  0.0765  0.3617
 7527WAT      O30827   4.282   5.554   1.579  0.4604 -0.5243 -0.0501
 7527WAT     H130828   4.254   5.524   1.502 -0.8573 -1.2229  0.6628
 7527WAT     H230829   4.223   5.616   1.599  1.7815  0.9077 -0.3821
 7527WAT    EPW30830   4.269   5.559   1.571  0.4609 -0.4160  0.0061
 7528WAT      O30831   1.845   4.744   1.911  0.2309 -0.3540  0.3985
 7528WAT     H130832   1.871   4.766   1.991 -1.9255  0.1343  1.0309
 7528WAT     H230833   1.816   4.662   1.921  0.3326 -0.4350  0.0293
 7528WAT    EPW30834   1.844   4.735   1.924 -0.0726 -0.2938  0.4374
 7529WAT      O30835   1.727   7.013   0.933 -0.1427 -0.4838  0.1713
 7529WAT     H130836   1.811   6.989   0.936  0.0182 -0.1634 -1.0996
 7529WAT     H230837   1.713   7.050   1.010  0.9918 -0.2358  0.2717
 7529WAT    EPW30838   1.737   7.015   0.945  0.0486 -0.3998 -0.0016
 7530WAT      O30839   1.879   7.210   1.452 -0.7147  0.0056  0.3476
 7530WAT     H130840   1.963   7.235   1.446 -0.7740  0.3689  0.9993
 7530WAT     H230841   1.835   7.284   1.440 -0.9525 -0.2380 -0.2897
 7530WAT    EPW30842   1.885   7.224   1.449 -0.7586  0.0233  0.3497
 7531WAT      O30843   1.893   5.655   3.119 -0.0076  0.4016 -0.1228
 7531WAT     H130844   1.929   5.630   3.044  0.0836 -1.4443  0.4960
 7531WAT     H230845   1.826   5.600   3.130 -0.7215  1.3700  0.5969
 7531WAT    EPW30846   1.889   5.643   3.110 -0.0996  0.2720  0.0750
 7532WAT      O30847   2.890   4.562   3.139 -0.2372 -0.0388  0.1899
 7532WAT     H130848   2.975   4.580   3.127 -0.2125 -0.4306 -0.2384
 7532WAT     H230849   2.877   4.582   3.223  0.6099 -1.2432  0.6334
 7532WAT    EPW30850   2.901   4.567   3.149 -0.1084 -0.2746  0.1922
 7533WAT      O30851   2.469   3.077   1.637  0.2794  0.2313  0.0897
 7533WAT     H130852   2.554   3.085   1.621  0.2812  0.8711  0.4261
 7533WAT     H230853   2.443   3.158   1.655 -0.5990  0.2010 -0.9412
 7533WAT    EPW30854   2.477   3.090   1.638  0.1499  0.3214 -0.0129
 7534WAT      O30855   3.049   5.171   7.007  0.2398  0.1197 -0.4424
 7534WAT     H130856   3.035   5.249   6.970 -1.3800 -0.8370 -1.9849
 7534WAT     H230857   3.084   5.192   7.084 -1.0577  2.4161 -0.3772
 7534WAT    EPW30858   3.052   5.186   7.013 -0.1911  0.3176 -0.6607
 7535WAT      O30859   3.324   6.172   2.410 -0.2050 -0.3014  0.0348
 7535WAT     H130860   3.328   6.252   2.375  0.6337 -0.0705  0.5985
 7535WAT     H230861   3.241   6.148   2.400 -0.4903  0.6893 -0.0482
 7535WAT    EPW30862   3.313   6.180   2.403 -0.1233 -0.1210  0.1058
 7536WAT      O30863   1.937   5.346   0.225 -0.6868 -0.3797 -0.1416
 7536WAT     H130864   1.939   5.405   0.288  0.3461  0.4494 -0.9127
 7536WAT     H230865   1.858   5.310   0.232 -0.4257 -0.6397  1.8883
 7536WAT    EPW30866   1.926   5.349   0.235 -0.4956 -0.2956  0.0443
 7537WAT      O30867   1.817   4.827   0.640  0.3980 -0.4127  0.4986
 7537WAT     H130868   1.850   4.748   0.626  2.5052  0.4495  0.1662
 7537WAT     H230869   1.801   4.829   0.726  0.4807 -1.1434  0.5316
 7537WAT    EPW30870   1.820   4.816   0.651  0.7215 -0.3933  0.4544
 7538WAT      O30871   3.390   5.608   6.573 -0.0732  0.0287  0.1837
 7538WAT     H130872   3.368   5.628   6.491 -0.0901  0.8050  0.3771
 7538WAT     H230873   3.322   5.562   6.602 -0.0805 -0.2245 -0.2175
 7538WAT    EPW30874   3.377   5.604   6.565 -0.0768  0.1059  0.1530
 7539WAT      O30875   2.779   6.606   7.195 -0.4600 -0.4693 -0.0859
 7539WAT     H130876   2.758   6.666   7.135  2.2643 -0.6630 -1.3313
 7539WAT     H230877   2.754   6.644   7.270 -0.8983  1.2262 -1.0318
 7539WAT    EPW30878   2.772   6.621   7.197 -0.1223 -0.2474 -0.4096
 7540WAT      O30879   1.141   6.140   0.092 -0.7017  0.1737  0.3109
 7540WAT     H130880   1.144   6.095   0.166 -0.8937  1.5974  1.2254
 7540WAT     H230881   1.056   6.144   0.074 -0.7151  0.4823  0.4376
 7540WAT    EPW30882   1.129   6.134   0.100 -0.7320  0.4296  0.4647
 7541WAT      O30883   1.405   5.528   1.283 -0.4655 -0.5241 -0.0584
 7541WAT     H130884   1.486   5.527   1.315 -0.8067  0.0180  0.8514
 7541WAT     H230885   1.404   5.597   1.230 -0.2012 -0.8173 -0.4536
 7541WAT    EPW30886   1.417   5.538   1.279 -0.4769 -0.4874  0.0176
 7542WAT      O30887   4.220   4.741   1.960 -0.3829  0.5864 -0.1111
 7542WAT     H130888   4.143   4.721   1.998 -0.8739  0.4591 -1.1359
 7542WAT     H230889   4.252   4.804   2.010 -1.2962  0.8366  0.1755
 7542WAT    EPW30890   4.213   4.747   1.973 -0.5904  0.6045 -0.2201
 7543WAT      O30891   4.010   3.116   0.969 -0.1588  1.0900  0.3632
 7543WAT     H130892   4.078   3.145   1.014  0.9244  0.1558 -0.6201
 7543WAT     H230893   3.992   3.039   1.006 -1.2207  1.6520  1.1147
 7543WAT    EPW30894   4.017   3.109   0.981 -0.1556  1.0350  0.3289
 7544WAT      O30895   3.508   6.126   1.329 -0.5541  0.2141 -0.3041
 7544WAT     H130896   3.486   6.139   1.413 -0.8133 -3.1543  0.3096
 7544WAT     H230897   3.534   6.205   1.302  0.8428  1.2255  3.3206
 7544WAT    EPW30898   3.508   6.139   1.338 -0.3860 -0.1341  0.3220
 7545WAT      O30899   2.906   7.650   1.848 -0.6164  0.0296  0.2099
 7545WAT     H130900   2.950   7.725   1.839 -1.3333  0.3647 -0.6009
 7545WAT     H230901   2.925   7.626   1.930  0.1814  0.7312  0.2503
 7545WAT    EPW30902   2.915   7.658   1.859 -0.6044  0.1827  0.0961
 7546WAT      O30903   4.292   5.939   2.261 -0.4430 -0.2891 -0.4697
 7546WAT     H130904   4.276   5.958   2.177  0.6546 -0.1652 -0.6599
 7546WAT     H230905   4.240   5.994   2.304 -0.0056  0.6150 -1.0570
 7546WAT    EPW30906   4.282   5.950   2.255 -0.2163 -0.1373 -0.5846
 7547WAT      O30907   2.067   5.866   0.618  0.0283  0.0110 -0.1555
 7547WAT     H130908   2.148   5.879   0.586  0.0887 -1.4808 -0.6844
 7547WAT     H230909   2.081   5.817   0.688 -0.3788  0.3355  0.1540
 7547WAT    EPW30910   2.081   5.861   0.624 -0.0229 -0.1614 -0.1879
 7548WAT      O30911   5.006   5.857   2.194  0.0564 -0.3658  0.2515
 7548WAT     H130912   4.943   5.895   2.147  0.3096  1.0257  1.0040
 7548WAT     H230913   5.023   5.784   2.149 -0.8082  0.1332 -0.9507
 7548WAT    EPW30914   4.999   5.852   2.180 -0.0339 -0.0865  0.1851
 7549WAT      O30915   4.589   6.837   1.018 -0.4269  0.0271 -0.2712
 7549WAT     H130916   4.618   6.907   0.976  1.3497 -0.3364  0.2501
 7549WAT     H230917   4.647   6.826   1.082  0.2102 -2.7042 -1.1501
 7549WAT    EPW30918   4.602   6.845   1.021 -0.0703 -0.4301 -0.3240
 7550WAT      O30919   3.214   4.919   7.283  0.0554  0.0261  0.1063
 7550WAT     H130920   3.262   4.863   7.329  0.9452 -0.0716 -0.9174
 7550WAT     H230921   3.140   4.875   7.268 -0.1131 -0.0681  1.1115
 7550WAT    EPW30922   3.210   4.904   7.288  0.1620 -0.0023  0.1036
 7551WAT      O30923   3.567   3.681   0.805 -0.1490  0.9051 -0.2665
 7551WAT     H130924   3.546   3.713   0.727 -0.5859  1.7221  0.1737
 7551WAT     H230925   3.494   3.643   0.833 -0.1134  0.9820 -0.0689
 7551WAT    EPW30926   3.553   3.680   0.797 -0.2083  1.0371 -0.1723
 7552WAT      O30927   2.410   6.663   1.227 -0.0455  0.5417  0.7351
 7552WAT     H130928   2.385   6.746   1.220 -0.6756  0.6181  2.9341
 7552WAT     H230929   2.494   6.664   1.206 -0.1755  1.6195  0.1973
 7552WAT    EPW30930   2.418   6.675   1.223 -0.1578  0.7122  0.9805
 7553WAT      O30931   3.353   3.934   7.260 -0.0582 -0.0886 -0.3352
 7553WAT     H130932   3.412   3.979   7.305  0.3273 -0.4938 -0.4202
 7553WAT     H230933   3.290   3.991   7.244 -0.5648 -0.1186  1.3806
 7553WAT    EPW30934   3.352   3.949   7.264 -0.0761 -0.1529 -0.0943
 7554WAT      O30935   2.576   5.900   1.486  0.2806 -0.0699  0.8417
 7554WAT     H130936   2.636   5.908   1.549  0.8452 -0.4499  0.3630
 7554WAT     H230937   2.620   5.921   1.413 -0.0650 -0.7127  0.4387
 7554WAT    EPW30938   2.591   5.904   1.484  0.3130 -0.2210  0.7114
 7555WAT      O30939   1.748   5.196   1.587 -0.2816  0.0939  0.1209
 7555WAT     H130940   1.762   5.135   1.647 -0.1275 -2.0318 -1.9251
 7555WAT     H230941   1.662   5.196   1.577 -0.1762 -1.0848 -1.0569
 7555WAT    EPW30942   1.738   5.187   1.594 -0.2433 -0.3942 -0.3553
 7556WAT      O30943   2.853   4.390   1.904  0.4292 -0.5860  0.3715
 7556WAT     H130944   2.886   4.443   1.843 -1.6603 -1.2269 -1.4126
 7556WAT     H230945   2.918   4.332   1.918  1.1076 -0.1700 -0.9128
 7556WAT    EPW30946   2.868   4.389   1.897  0.2207 -0.6192 -0.0818
 7557WAT      O30947   2.959   6.370   7.831  0.1883  0.4435 -0.1089
 7557WAT     H130948   2.928   6.437   7.785 -0.5745  1.9836  2.4407
 7557WAT     H230949   2.892   6.346   7.881  1.7823  1.0586  2.5262
 7557WAT    EPW30950   2.945   6.376   7.832  0.3111  0.7619  0.6570
 7558WAT      O30951   2.815   5.639   7.825  0.7001  0.0999  0.3483
 7558WAT     H130952   2.845   5.669   7.901 -1.6009 -2.6514  2.5582
 7558WAT     H230953   2.729   5.652   7.830  0.3954 -0.8626 -1.4403
 7558WAT    EPW30954   2.807   5.645   7.837  0.3152 -0.4487  0.4105
 7559WAT      O30955   4.234   6.692   7.659  0.0848  0.2973  0.0254
 7559WAT     H130956   4.168   6.666   7.609  0.4196 -1.9165  0.6316
 7559WAT     H230957   4.208   6.769   7.690 -1.4237  0.2876 -1.1337
 7559WAT    EPW30958   4.220   6.700   7.656 -0.0886 -0.0311 -0.0563
 7560WAT      O30959   3.743   5.464   0.652  0.1924 -0.1266  0.1207
 7560WAT     H130960   3.701   5.398   0.690  0.8127 -0.4186  0.3109
 7560WAT     H230961   3.827   5.449   0.671  0.5342 -0.3157 -1.3866
 7560WAT    EPW30962   3.750   5.452   0.660  0.3345 -0.1977 -0.0738
 7561WAT      O30963   4.036   4.779   0.394 -0.1909 -0.3515  0.2079
 7561WAT     H130964   4.103   4.760   0.447 -1.1921  0.2307  1.7858
 7561WAT     H230965   4.073   4.788   0.316  1.3506 -1.4308  0.7569
 7561WAT    EPW30966   4.052   4.777   0.391 -0.1111 -0.4249  0.5221
 7562WAT      O30967   3.038   5.667   2.748  0.4523  0.3185 -0.1876
 7562WAT     H130968   3.024   5.727   2.810  1.3794  1.9699 -1.4723
 7562WAT     H230969   3.098   5.615   2.783 -0.2589  0.2090  0.9059
 7562WAT    EPW30970   3.045   5.668   2.762  0.4842  0.5463 -0.2158
 7563WAT      O30971   3.983   4.773   7.272 -0.0296  0.5884  0.5249
 7563WAT     H130972   4.051   4.791   7.324 -0.1250 -1.4754  1.4707
 7563WAT     H230973   3.944   4.706   7.312 -1.6055  0.5750 -0.9174
 7563WAT    EPW30974   3.987   4.765   7.286 -0.2765  0.2816  0.4516
 7564WAT      O30975   1.408   4.948   0.740 -0.3639  0.1352 -0.2472
 7564WAT     H130976   1.352   5.015   0.736 -0.9600 -0.3065  0.4164
 7564WAT     H230977   1.390   4.911   0.817 -1.2799 -1.8442 -1.3329
 7564WAT    EPW30978   1.397   4.953   0.751 -0.5873 -0.2225 -0.3096
 7565WAT      O30979   2.840   6.749   2.755 -0.1037  0.5668  0.2352
 7565WAT     H130980   2.893   6.804   2.713  0.6475 -0.1023  0.2744
 7565WAT     H230981   2.868   6.670   2.731 -1.3619  0.1831 -0.0671
 7565WAT    EPW30982   2.852   6.745   2.745 -0.1786  0.4112  0.1963
 7566WAT      O30983   1.741   6.640   1.365 -0.2064 -0.2371  0.3955
 7566WAT     H130984   1.656   6.626   1.347  0.1417 -2.0799 -0.0891
 7566WAT     H230985   1.759   6.714   1.323 -1.3724 -0.2514 -0.1861
 7566WAT    EPW30986   1.731   6.649   1.357 -0.3272 -0.5114  0.2380
 7567WAT      O30987   2.362   6.046   0.568  0.3341 -0.1100  0.0420
 7567WAT     H130988   2.419   6.016   0.508 -1.6306 -0.5200 -1.7648
 7567WAT     H230989   2.351   6.129   0.546  0.2733 -0.0194  0.4101
 7567WAT    EPW30990   2.369   6.054   0.556  0.0349 -0.1572 -0.1705
 7568WAT      O30991   2.388   5.487   2.657  0.6562 -0.4845 -0.2135
 7568WAT     H130992   2.302   5.490   2.641  0.5941  0.0036  0.1709
 7568WAT     H230993   2.416   5.564   2.626  1.1183 -1.0610 -1.2465
 7568WAT    EPW30994   2.379   5.499   2.650  0.7153 -0.4976 -0.3093
 7569WAT      O30995   3.734   2.583   6.770 -0.2381 -0.1315  0.3503
 7569WAT     H130996   3.761   2.597   6.688  0.3307 -0.0771  0.5446
 7569WAT     H230997   3.756   2.500   6.785 -1.5606 -0.5774 -0.0085
 7569WAT    EPW30998   3.741   2.573   6.760 -0.3494 -0.1893  0.3260
 7570WAT      O30999   3.005   2.761   6.597  0.5357  0.3187 -0.7575
 7570WAT     H131000   2.957   2.824   6.634 -0.1758 -0.4906 -0.2607
 7570WAT     H231001   3.030   2.711   6.664  0.6177 -0.2435 -1.1959
 7570WAT    EPW31002   3.001   2.763   6.612  0.4427  0.1161 -0.7489
 7571WAT      O31003   3.251   4.840   7.684 -0.3465  0.1445  0.2367
 7571WAT     H131004   3.181   4.868   7.727 -0.9846 -0.9806 -0.0284
 7571WAT     H231005   3.287   4.782   7.738 -0.2745 -0.1333 -0.1085
 7571WAT    EPW31006   3.246   4.836   7.698 -0.4301 -0.0627  0.1466
 7572WAT      O31007   5.158   3.779   6.794  0.1880 -0.3110  0.0966
 7572WAT     H131008   5.227   3.725   6.798  0.0803 -0.3534  1.5664
 7572WAT     H231009   5.135   3.789   6.877 -0.3608  1.2932 -0.2315
 7572WAT    EPW31010   5.165   3.772   6.807  0.0910 -0.0803  0.2653
 7573WAT      O31011   1.936   3.049   7.325  0.2592  0.3090  0.0175
 7573WAT     H131012   2.012   3.016   7.296  0.0327 -2.8893  2.4954
 7573WAT     H231013   1.960   3.097   7.394  0.1168 -0.4545  0.6155
 7573WAT    EPW31014   1.951   3.051   7.331  0.2047 -0.2762  0.4718
 7574WAT      O31015   2.047   4.579   4.864  0.5538 -0.1305  0.2189
 7574WAT     H131016   1.968   4.611   4.881  0.9738  1.7740 -1.0603
 7574WAT     H231017   2.093   4.599   4.935  0.2393  0.0187  0.3831
 7574WAT    EPW31018   2.042   4.586   4.877  0.5694  0.1729  0.0542
 7575WAT      O31019   5.330   3.561   6.779  0.2006 -0.7252 -0.2042
 7575WAT     H131020   5.342   3.523   6.702 -0.0433 -0.8022 -0.2057
 7575WAT     H231021   5.264   3.515   6.814 -0.7812  0.3262 -0.6275
 7575WAT    EPW31022   5.322   3.548   6.773  0.0195 -0.5813 -0.2669
 7576WAT      O31023   3.531   4.253   6.623  0.2606  0.3795  0.0505
 7576WAT     H131024   3.577   4.216   6.687  0.9653  0.1772 -0.5679
 7576WAT     H231025   3.585   4.313   6.591 -0.7273  1.7293  0.7936
 7576WAT    EPW31026   3.546   4.256   6.628  0.2187  0.5490  0.0689
 7577WAT      O31027   3.331   2.465   7.272 -0.1870 -0.1162  0.5500
 7577WAT     H131028   3.251   2.459   7.307 -1.0280 -1.3200 -1.3587
 7577WAT     H231029   3.355   2.547   7.288 -3.3280  1.4723 -1.6970
 7577WAT    EPW31030   3.322   2.476   7.279 -0.7752 -0.0594 -0.0639
 7578WAT      O31031   2.231   6.456   5.095  0.2002 -0.0141 -0.0496
 7578WAT     H131032   2.281   6.438   5.026 -1.2773  0.9379 -1.4336
 7578WAT     H231033   2.213   6.378   5.128  2.0101 -0.4156  0.0974
 7578WAT    EPW31034   2.236   6.442   5.090  0.2493  0.0672 -0.2323
 7579WAT      O31035   2.099   4.115   0.465  0.1381  0.4199 -0.1402
 7579WAT     H131036   2.150   4.185   0.462  1.2549 -0.3366 -3.3069
 7579WAT     H231037   2.068   4.108   0.384 -2.1393 -1.2420  0.7443
 7579WAT    EPW31038   2.102   4.124   0.453 -0.0333  0.0626 -0.4773
 7580WAT      O31039   2.619   5.092   7.103  0.3830  0.0412  0.0096
 7580WAT     H131040   2.543   5.101   7.145 -0.8005 -2.2096 -1.4152
 7580WAT     H231041   2.619   5.158   7.046  0.3258  1.0415  1.1430
 7580WAT    EPW31042   2.608   5.103   7.101  0.1997 -0.1435 -0.0334
 7581WAT      O31043   2.613   2.695   6.207  0.5710 -0.1572 -0.2737
 7581WAT     H131044   2.543   2.747   6.206 -0.1229 -1.0599  0.0509
 7581WAT     H231045   2.668   2.736   6.260  0.1365  0.3834 -0.2295
 7581WAT    EPW31046   2.611   2.709   6.214  0.4043 -0.2107 -0.2192
 7582WAT      O31047   2.973   2.528   7.633 -0.1011 -0.3180  0.1881
 7582WAT     H131048   3.036   2.488   7.680 -0.0974 -0.7039 -0.1361
 7582WAT     H231049   2.902   2.481   7.650 -0.2512 -0.0363  0.3499
 7582WAT    EPW31050   2.972   2.515   7.643 -0.1227 -0.3334  0.1641
 7583WAT      O31051   3.135   4.770   6.924  0.1938 -0.6901 -0.1940
 7583WAT     H131052   3.153   4.841   6.877 -0.5593 -0.1662  0.3002
 7583WAT     H231053   3.212   4.729   6.928  0.8036  0.4328  0.0920
 7583WAT    EPW31054   3.149   4.774   6.917  0.1726 -0.4468 -0.0788
 7584WAT      O31055   4.044   3.051   7.283 -0.1037  0.6513  0.1942
 7584WAT     H131056   4.055   3.114   7.342  1.9619  0.5338  0.0155
 7584WAT     H231057   4.099   3.074   7.218  0.1336 -0.9272 -0.2017
 7584WAT    EPW31058   4.054   3.064   7.282  0.2365  0.4007  0.1093
 7585WAT      O31059   2.619   3.961   6.549  0.1411 -0.0063  0.3408
 7585WAT     H131060   2.674   4.004   6.497  0.0973 -1.7726 -1.2761
 7585WAT     H231061   2.667   3.897   6.582 -0.5374 -0.6087  0.1942
 7585WAT    EPW31062   2.634   3.958   6.546  0.0344 -0.3562  0.0803
 7586WAT      O31063   3.253   5.428   5.721  0.3155  0.6405  0.2687
 7586WAT     H131064   3.327   5.471   5.732  1.9899 -1.5948 -1.3155
 7586WAT     H231065   3.278   5.353   5.683 -2.5867 -0.8494  0.9877
 7586WAT    EPW31066   3.267   5.423   5.717  0.1341  0.0902  0.1409
 7587WAT      O31067   2.957   3.662   7.496  0.0463  0.3880 -0.4295
 7587WAT     H131068   3.023   3.719   7.496 -1.5200  2.3096  0.1291
 7587WAT     H231069   2.945   3.645   7.581  1.0533 -1.5237 -0.6261
 7587WAT    EPW31070   2.965   3.668   7.509 -0.0363  0.3894 -0.3760
 7588WAT      O31071   2.738   1.922   7.579  0.1682 -0.5877  0.0379
 7588WAT     H131072   2.677   1.893   7.634 -0.5083 -1.5237 -1.1299
 7588WAT     H231073   2.691   1.944   7.508  1.0298  0.3112 -0.2641
 7588WAT    EPW31074   2.722   1.921   7.576  0.1955 -0.5932 -0.1792
 7589WAT      O31075   3.269   2.499   6.561  0.1573 -0.2064 -0.2274
 7589WAT     H131076   3.297   2.581   6.549  1.1174 -0.5157 -0.1813
 7589WAT     H231077   3.302   2.477   6.639  2.0735 -1.4749 -1.3102
 7589WAT    EPW31078   3.278   2.508   6.571  0.5822 -0.4395 -0.3806
 7590WAT      O31079   3.133   2.303   5.786 -0.0725  0.6179  0.0356
 7590WAT     H131080   3.181   2.251   5.836 -0.5292  0.3229  0.1787
 7590WAT     H231081   3.056   2.261   5.782  0.5969 -0.5685 -2.7715
 7590WAT    EPW31082   3.129   2.289   5.793 -0.0411  0.3991 -0.3579
 7591WAT      O31083   3.122   2.252   5.080  0.3103  0.3007 -0.2106
 7591WAT     H131084   3.123   2.170   5.049  1.0190 -0.1706  0.9786
 7591WAT     H231085   3.187   2.252   5.138 -0.3480  1.4039  0.5625
 7591WAT    EPW31086   3.131   2.240   5.084  0.3177  0.3940  0.0793
 7592WAT      O31087   2.576   3.813   7.379  0.2616 -0.2714 -0.5637
 7592WAT     H131088   2.616   3.848   7.309  1.3074 -0.4566 -0.0798
 7592WAT     H231089   2.622   3.741   7.395 -0.2376 -0.4649  0.0566
 7592WAT    EPW31090   2.589   3.808   7.371  0.3423 -0.3273 -0.4006
 7593WAT      O31091   2.088   4.020   7.564  0.2882  0.6184  0.0360
 7593WAT     H131092   2.010   3.991   7.590 -0.9849  1.9192 -2.0702
 7593WAT     H231093   2.097   4.097   7.605 -0.2531  1.1690 -0.8518
 7593WAT    EPW31094   2.078   4.027   7.574  0.0202  0.8919 -0.4063
 7594WAT      O31095   3.061   3.815   6.704  0.2417 -0.4402  0.2626
 7594WAT     H131096   3.079   3.730   6.708 -0.6217 -0.7032 -0.8330
 7594WAT     H231097   3.138   3.853   6.720  0.7068 -1.4180  0.4498
 7594WAT    EPW31098   3.075   3.808   6.707  0.1829 -0.6235  0.1284
 7595WAT      O31099   2.762   4.402   6.333 -0.5063 -0.6191 -0.1859
 7595WAT     H131100   2.844   4.422   6.357 -0.4226  0.0172 -0.9327
 7595WAT     H231101   2.768   4.319   6.306  0.0896 -0.3185 -1.0259
 7595WAT    EPW31102   2.775   4.393   6.332 -0.4059 -0.4807 -0.4203
 7596WAT      O31103   2.672   3.864   5.920 -0.2288 -0.2127 -0.6697
 7596WAT     H131104   2.676   3.787   5.960  0.5727  0.3951  0.4828
 7596WAT     H231105   2.729   3.857   5.854  0.0631 -0.5105 -0.3882
 7596WAT    EPW31106   2.681   3.852   5.916 -0.0673 -0.1669 -0.4579
 7597WAT      O31107   4.031   3.227   7.571  0.2673 -0.4596  0.5270
 7597WAT     H131108   3.984   3.277   7.517 -0.8435 -0.6508  1.2905
 7597WAT     H231109   4.113   3.252   7.555  0.1819 -1.5955 -2.3804
 7597WAT    EPW31110   4.036   3.238   7.561  0.0906 -0.6556  0.2103
 7598WAT      O31111   1.827   5.018   7.261  0.2312 -0.3234 -0.0884
 7598WAT     H131112   1.785   4.959   7.309 -1.6801  1.7105  0.9280
 7598WAT     H231113   1.826   4.983   7.181 -0.5644 -1.7876  0.5232
 7598WAT    EPW31114   1.821   5.004   7.256 -0.1687 -0.2393  0.1521
 7599WAT      O31115   2.970   3.048   6.184 -0.3067  0.3500  0.0592
 7599WAT     H131116   3.038   3.066   6.236 -1.3252 -0.6065  1.8190
 7599WAT     H231117   2.947   3.127   6.153  1.1543  0.7717 -0.0399
 7599WAT    EPW31118   2.977   3.063   6.187 -0.2413  0.2710  0.3046
 7600WAT      O31119   3.789   3.541   6.715  0.0346 -0.0120  0.1636
 7600WAT     H131120   3.752   3.569   6.789 -0.2755 -1.0956  0.4315
 7600WAT     H231121   3.762   3.600   6.656  0.0445  0.6989  0.8486
 7600WAT    EPW31122   3.779   3.554   6.717 -0.0098 -0.0671  0.3044
 7601WAT      O31123   1.988   5.869   6.518 -0.7455 -0.6211  0.2570
 7601WAT     H131124   2.003   5.887   6.602 -0.4427  1.5153 -0.1971
 7601WAT     H231125   1.901   5.868   6.513 -0.7661 -0.4446  0.5361
 7601WAT    EPW31126   1.977   5.872   6.530 -0.7038 -0.2794  0.2312
 7602WAT      O31127   2.970   5.303   6.665  0.1029 -0.2621 -0.0523
 7602WAT     H131128   2.916   5.371   6.659  1.2744  0.8637  1.3278
 7602WAT     H231129   2.925   5.237   6.630 -2.2344  0.5617  1.2147
 7602WAT    EPW31130   2.955   5.303   6.659 -0.0693  0.0259  0.3387
 7603WAT      O31131   2.829   4.238   6.806 -0.1831 -0.5268 -0.0862
 7603WAT     H131132   2.779   4.298   6.846  0.3192  0.4141 -0.8210
 7603WAT     H231133   2.771   4.180   6.776 -0.6834 -0.4357  0.6725
 7603WAT    EPW31134   2.813   4.239   6.808 -0.1828 -0.3744 -0.0826
 7604WAT      O31135   3.449   3.331   6.495 -0.1717 -0.0152 -0.2634
 7604WAT     H131136   3.403   3.358   6.425  2.6195  1.6302 -1.6363
 7604WAT     H231137   3.404   3.262   6.523 -4.4623  2.4064 -0.2864
 7604WAT    EPW31138   3.436   3.325   6.489 -0.3932  0.5856 -0.4696
 7605WAT      O31139   2.740   3.939   6.835 -0.1582 -0.4334  0.0355
 7605WAT     H131140   2.762   3.858   6.860  1.2545 -0.1846 -0.2899
 7605WAT     H231141   2.681   3.926   6.772 -0.0834 -1.2110  0.1189
 7605WAT    EPW31142   2.735   3.925   6.830  0.0615 -0.5115 -0.0002
 7606WAT      O31143   3.728   2.811   5.748  0.0146  0.4133 -0.7449
 7606WAT     H131144   3.808   2.847   5.749 -0.4063  1.3838  0.2448
 7606WAT     H231145   3.710   2.801   5.663  0.9845  0.6222 -0.9855
 7606WAT    EPW31146   3.737   2.815   5.736  0.0957  0.5876 -0.6342
 7607WAT      O31147   3.458   4.976   6.668 -0.6646 -0.1209  0.3027
 7607WAT     H131148   3.526   4.978   6.722  0.3124 -2.4831 -0.7364
 7607WAT     H231149   3.455   4.894   6.640 -3.5009  0.0710 -0.3050
 7607WAT    EPW31150   3.468   4.964   6.672 -0.9393 -0.4415  0.0594
 7608WAT      O31151   3.278   4.437   6.561 -0.0609 -0.2267 -0.0502
 7608WAT     H131152   3.193   4.434   6.580 -0.3198 -0.4247 -1.1996
 7608WAT     H231153   3.315   4.454   6.638 -1.1737  0.3502  0.3771
 7608WAT    EPW31154   3.271   4.439   6.575 -0.2635 -0.1707 -0.1568
 7609WAT      O31155   4.712   2.471   6.983  0.5316  0.3038 -0.0874
 7609WAT     H131156   4.635   2.507   7.002  0.3879 -0.3812  0.7033
 7609WAT     H231157   4.737   2.511   6.910 -0.6174  0.4790 -0.3956
 7609WAT    EPW31158   4.704   2.482   6.975  0.3406  0.2285 -0.0161
 7610WAT      O31159   1.635   4.255   6.415  0.7127 -0.1058  0.1123
 7610WAT     H131160   1.650   4.340   6.407  4.0195 -0.5778 -0.1614
 7610WAT     H231161   1.671   4.221   6.343 -0.5082 -1.7763  0.2239
 7610WAT    EPW31162   1.642   4.262   6.403  1.0208 -0.4223  0.0883
 7611WAT      O31163   3.962   4.591   0.852  0.5951 -0.7682  0.1571
 7611WAT     H131164   3.877   4.581   0.835 -0.0014 -0.3715  2.5608
 7611WAT     H231165   3.984   4.660   0.804 -0.3010 -1.1695 -0.8824
 7611WAT    EPW31166   3.952   4.600   0.842  0.3746 -0.7689  0.3586
 7612WAT      O31167   3.309   4.623   6.176  0.3996  0.1675 -0.0612
 7612WAT     H131168   3.247   4.579   6.132 -0.0808  1.2376 -0.4990
 7612WAT     H231169   3.343   4.563   6.230 -0.8840 -0.4994  0.0456
 7612WAT    EPW31170   3.305   4.607   6.177  0.1390  0.2271 -0.1101
 7613WAT      O31171   2.021   2.235   5.444  0.4235  0.1933  0.2317
 7613WAT     H131172   2.056   2.290   5.502  0.0476  0.7859 -0.0894
 7613WAT     H231173   2.032   2.157   5.481  1.3864  0.4357  0.4824
 7613WAT    EPW31174   2.027   2.232   5.458  0.5102  0.3166  0.2213
 7614WAT      O31175   3.151   1.668   6.665  0.9255  0.0815  0.0890
 7614WAT     H131176   3.143   1.622   6.591  0.7543  0.8543 -0.3791
 7614WAT     H231177   3.214   1.725   6.647  1.2824 -0.0898  0.7435
 7614WAT    EPW31178   3.159   1.669   6.651  0.9529  0.1703  0.1165
 7615WAT      O31179   4.258   3.565   7.413  0.7062  0.2897  0.4247
 7615WAT     H131180   4.310   3.495   7.407  0.9999  0.4795  0.7334
 7615WAT     H231181   4.259   3.584   7.498 -0.3583 -0.0730  0.5330
 7615WAT    EPW31182   4.266   3.558   7.424  0.5923  0.2642  0.4863
 7616WAT      O31183   4.738   3.030   6.577  0.4553  0.3005  0.5281
 7616WAT     H131184   4.696   3.025   6.501 -0.2244  2.4969  0.6888
 7616WAT     H231185   4.684   2.992   6.634  1.2915 -2.0376 -0.1161
 7616WAT    EPW31186   4.724   3.024   6.574  0.4784  0.2796  0.4567
 7617WAT      O31187   3.580   5.207   7.781  0.3454  0.3144 -0.2444
 7617WAT     H131188   3.579   5.293   7.768  0.5048  0.0643 -2.2159
 7617WAT     H231189   3.655   5.181   7.747  0.3561 -0.6180  0.4340
 7617WAT    EPW31190   3.591   5.216   7.774  0.3705  0.1398 -0.4354
 7618WAT      O31191   4.071   3.492   6.732 -0.3811 -0.2484  0.0679
 7618WAT     H131192   3.992   3.521   6.707  0.0994  0.6433 -0.4741
 7618WAT     H231193   4.120   3.505   6.661 -0.1298 -2.4988 -0.2394
 7618WAT    EPW31194   4.066   3.498   6.718 -0.2730 -0.4491 -0.0575
 7619WAT      O31195   4.196   4.409   5.627 -0.4940  0.1572  0.3178
 7619WAT     H131196   4.193   4.348   5.565  1.5734 -0.9740  1.2413
 7619WAT     H231197   4.194   4.362   5.701 -0.2894  1.3014  1.0686
 7619WAT    EPW31198   4.195   4.393   5.629 -0.1584  0.1591  0.5651
 7620WAT      O31199   3.703   3.746   6.543 -0.1735 -0.1283 -0.2133
 7620WAT     H131200   3.680   3.768   6.461 -0.4971  0.9089  0.1363
 7620WAT     H231201   3.630   3.761   6.589  0.6175  1.3538  0.6102
 7620WAT    EPW31202   3.689   3.751   6.537 -0.1045  0.2438 -0.0400
 7621WAT      O31203   3.147   5.090   6.264 -0.0849 -0.4466 -0.3221
 7621WAT     H131204   3.149   5.022   6.319  0.8026  0.0982  0.3587
 7621WAT     H231205   3.213   5.075   6.209  1.2660  0.6596  0.8913
 7621WAT    EPW31206   3.157   5.078   6.264  0.2457 -0.2027 -0.0423
 7622WAT      O31207   2.622   3.219   6.727  0.2785 -0.0575 -0.2382
 7622WAT     H131208   2.673   3.176   6.672 -0.6499 -1.4559 -0.0412
 7622WAT     H231209   2.542   3.211   6.693 -0.3800 -1.2959  1.4603
 7622WAT    EPW31210   2.617   3.212   6.714  0.0441 -0.4470  0.0418
 7623WAT      O31211   2.656   4.215   5.356 -1.0449 -0.1731 -0.2239
 7623WAT     H131212   2.698   4.285   5.386 -1.0469 -0.8576  1.4638
 7623WAT     H231213   2.592   4.203   5.415 -0.2041 -2.3965  0.3032
 7623WAT    EPW31214   2.653   4.224   5.369 -0.9210 -0.6027  0.1033
 7624WAT      O31215   3.452   3.781   6.662  0.2794 -0.3766 -0.0919
 7624WAT     H131216   3.415   3.787   6.584  0.3250 -0.0332 -0.0885
 7624WAT     H231217   3.446   3.696   6.682  1.6981 -0.7654 -1.1710
 7624WAT    EPW31218   3.446   3.769   6.654  0.4957 -0.3833 -0.2508
 7625WAT      O31219   2.152   2.885   6.359 -0.1644 -0.3518  0.3124
 7625WAT     H131220   2.114   2.963   6.350  0.9273  0.0940 -0.7570
 7625WAT     H231221   2.085   2.830   6.365 -0.9568  0.6489  0.9320
 7625WAT    EPW31222   2.136   2.888   6.358 -0.1202 -0.1381  0.2460
 7626WAT      O31223   3.115   4.329   6.881 -0.3240 -0.0903 -0.1330
 7626WAT     H131224   3.040   4.288   6.897  0.5243 -1.0528  1.6239
 7626WAT     H231225   3.161   4.271   6.835 -0.2778  0.1176 -0.3521
 7626WAT    EPW31226   3.111   4.314   6.877 -0.1919 -0.2018  0.0942
 7627WAT      O31227   3.537   3.721   0.534  0.3614 -0.3129 -0.4599
 7627WAT     H131228   3.578   3.796   0.520  0.8998 -0.6943 -1.0056
 7627WAT     H231229   3.508   3.698   0.455  0.4742 -0.8306 -0.3564
 7627WAT    EPW31230   3.538   3.728   0.520  0.4576 -0.4457 -0.5252
 7628WAT      O31231   4.633   2.743   7.272 -0.7007  0.3709 -0.1973
 7628WAT     H131232   4.682   2.803   7.232  1.6998 -1.4123 -0.1746
 7628WAT     H231233   4.593   2.702   7.206  1.6284 -1.1941 -0.7865
 7628WAT    EPW31234   4.634   2.746   7.256 -0.0021 -0.1237 -0.2810
 7629WAT      O31235   4.092   3.207   6.798 -0.6347  0.2121  0.4188
 7629WAT     H131236   4.112   3.289   6.775 -0.3898  0.0990  0.2248
 7629WAT     H231237   4.034   3.183   6.738  0.3160 -0.2277 -0.3480
 7629WAT    EPW31238   4.087   3.216   6.786 -0.4580  0.1304  0.2768
 7630WAT      O31239   1.797   2.754   7.029 -0.1507  0.4861 -0.3140
 7630WAT     H131240   1.839   2.741   6.954  0.9784 -0.0511  0.3705
 7630WAT     H231241   1.748   2.824   7.014  0.9037  1.0620 -1.2084
 7630WAT    EPW31242   1.796   2.762   7.016  0.1718  0.4918 -0.3450
 7631WAT      O31243   4.183   3.761   5.611  0.2156  0.7382 -0.3164
 7631WAT     H131244   4.127   3.779   5.547 -1.1385 -0.1570  0.5783
 7631WAT     H231245   4.162   3.818   5.673  0.6439  0.7333 -0.1656
 7631WAT    EPW31246   4.172   3.772   5.611  0.0789  0.6052 -0.1620
 7632WAT      O31247   3.811   3.858   6.174 -0.4021  0.0930 -0.3794
 7632WAT     H131248   3.738   3.818   6.150 -0.2976 -0.9300  0.8821
 7632WAT     H231249   3.871   3.794   6.173  0.2199  0.6615 -0.2918
 7632WAT    EPW31250   3.809   3.843   6.171 -0.2948  0.0259 -0.1801
 7633WAT      O31251   1.431   5.763   5.675  0.4508 -0.0608 -0.6228
 7633WAT     H131252   1.426   5.784   5.760 -0.7297 -0.6774 -0.5254
 7633WAT     H231253   1.429   5.841   5.635 -0.5561  0.1797 -0.1359
 7633WAT    EPW31254   1.430   5.778   5.682  0.1276 -0.1163 -0.5365
 7634WAT      O31255   2.992   2.411   6.642 -0.2801  0.4476  0.0587
 7634WAT     H131256   2.965   2.369   6.570 -1.2930 -0.7232  1.0881
 7634WAT     H231257   3.065   2.451   6.615 -1.1060  0.8092 -1.8666
 7634WAT    EPW31258   2.999   2.411   6.627 -0.5517  0.3280 -0.0736
 7635WAT      O31259   3.279   3.534   0.610  0.1598 -0.6591 -0.1382
 7635WAT     H131260   3.318   3.594   0.560  2.5509 -1.2488  0.8966
 7635WAT     H231261   3.303   3.459   0.574  2.3415 -1.1257  1.9848
 7635WAT    EPW31262   3.288   3.532   0.598  0.8353 -0.8152  0.3283
 7636WAT      O31263   3.435   3.764   5.712 -0.3047 -0.7741  0.0378
 7636WAT     H131264   3.385   3.699   5.684 -0.3186 -1.2376  1.0789
 7636WAT     H231265   3.497   3.724   5.758  2.3285 -0.4208 -2.8901
 7636WAT    EPW31266   3.437   3.749   5.715  0.0822 -0.7904 -0.2409
 7637WAT      O31267   1.588   4.181   6.823 -0.3097  0.4114  0.1267
 7637WAT     H131268   1.522   4.237   6.814 -0.3355  0.7081  1.7838
 7637WAT     H231269   1.596   4.145   6.744 -2.3219  0.4996 -0.1623
 7637WAT    EPW31270   1.580   4.184   6.810 -0.6108  0.4682  0.3288
 7638WAT      O31271   4.278   3.069   5.706 -0.1988  0.2329  0.4555
 7638WAT     H131272   4.310   3.142   5.671  0.0010 -0.1867 -0.2680
 7638WAT     H231273   4.286   3.010   5.641  0.2512 -0.5907  1.2407
 7638WAT    EPW31274   4.284   3.071   5.691 -0.1028  0.0493  0.4646
 7639WAT      O31275   3.439   3.728   7.075 -0.2433 -0.2236  0.0658
 7639WAT     H131276   3.387   3.659   7.088  0.1196 -0.4152  0.5585
 7639WAT     H231277   3.416   3.783   7.139 -0.5088  0.1038 -0.3048
 7639WAT    EPW31278   3.427   3.726   7.087 -0.2289 -0.2036  0.0838
 7640WAT      O31279   2.167   1.543   0.298 -0.0001 -0.5946  0.6040
 7640WAT     H131280   2.240   1.519   0.340  1.4125  2.4482  0.1814
 7640WAT     H231281   2.175   1.504   0.220  3.2053  2.3201 -0.8114
 7640WAT    EPW31282   2.179   1.534   0.293  0.6821  0.2854  0.3325
 7641WAT      O31283   2.055   4.296   6.472  0.7164  0.1827  0.9386
 7641WAT     H131284   2.138   4.272   6.485  0.7914 -0.4181 -0.5175
 7641WAT     H231285   2.039   4.272   6.390 -0.8941  0.3460  1.1761
 7641WAT    EPW31286   2.065   4.289   6.462  0.4896  0.1181  0.7586
 7642WAT      O31287   3.698   2.894   6.315 -0.2895 -0.1444  0.1229
 7642WAT     H131288   3.691   2.922   6.397 -1.7154  0.6811 -0.2302
 7642WAT     H231289   3.741   2.958   6.275 -0.2713 -0.1878  0.0732
 7642WAT    EPW31290   3.703   2.908   6.321 -0.4974 -0.0289  0.0634
 7643WAT      O31291   2.992   4.781   7.163  0.3100  0.0858 -0.0225
 7643WAT     H131292   2.919   4.830   7.169 -0.8190 -1.3299 -1.3355
 7643WAT     H231293   3.014   4.789   7.079  1.1759 -0.1895  0.1773
 7643WAT    EPW31294   2.984   4.790   7.151  0.2711 -0.1640 -0.1869
 7644WAT      O31295   2.258   3.879   6.998 -0.4964 -0.7588 -0.0781
 7644WAT     H131296   2.328   3.834   7.022 -0.5823 -1.1501 -0.5439
 7644WAT     H231297   2.274   3.960   7.028 -0.9754 -1.3773  1.9782
 7644WAT    EPW31298   2.270   3.884   7.006 -0.5799 -0.9080  0.1569
 7645WAT      O31299   3.107   3.824   0.022  0.1493  0.6420 -0.1260
 7645WAT     H131300   3.057   3.766  -0.019  2.1052 -0.3255 -1.2551
 7645WAT     H231301   3.052   3.890   0.039 -1.5554 -0.4911 -1.0098
 7645WAT    EPW31302   3.091   3.825   0.019  0.1864  0.3317 -0.4234
 7646WAT      O31303   3.714   2.793   0.223 -0.1524  0.2783 -0.0178
 7646WAT     H131304   3.672   2.734   0.174  2.4927 -1.5180 -0.3500
 7646WAT     H231305   3.684   2.779   0.303  0.6845 -1.8809 -0.0257
 7646WAT    EPW31306   3.704   2.782   0.228  0.3620 -0.3060 -0.0680
 7647WAT      O31307   3.116   3.991   6.039  0.1517  0.3909  0.1358
 7647WAT     H131308   3.202   4.005   6.048  0.7462 -0.4549 -2.9674
 7647WAT     H231309   3.084   4.070   6.020  0.8697  0.2676 -1.8661
 7647WAT    EPW31310   3.124   4.005   6.037  0.3456  0.2477 -0.6184
 7648WAT      O31311   2.833   3.680   6.959 -0.3979 -0.5324  0.3388
 7648WAT     H131312   2.794   3.651   6.886 -1.2950 -0.8136  0.9175
 7648WAT     H231313   2.917   3.684   6.936 -0.6380 -0.7862 -0.6607
 7648WAT    EPW31314   2.840   3.677   6.945 -0.5659 -0.6114  0.2766
 7649WAT      O31315   3.202   3.047   6.331 -0.0606  0.2102  0.1660
 7649WAT     H131316   3.206   3.047   6.418  2.3581  1.9584  0.1535
 7649WAT     H231317   3.252   2.979   6.308  1.4106  1.2316  0.1958
 7649WAT    EPW31318   3.210   3.037   6.340  0.5140  0.6193  0.1686
 7650WAT      O31319   3.324   5.749   5.185  0.1959 -0.3303  0.5356
 7650WAT     H131320   3.306   5.823   5.141 -3.7768 -1.3834 -0.0326
 7650WAT     H231321   3.344   5.777   5.265  3.3641  1.4234 -0.6873
 7650WAT    EPW31322   3.324   5.764   5.190  0.0770 -0.2268  0.2710
 7651WAT      O31323   3.307   3.895   6.862 -0.5908 -0.0592 -0.2987
 7651WAT     H131324   3.360   3.846   6.814 -0.6937 -1.7639  1.2054
 7651WAT     H231325   3.338   3.885   6.943 -3.5573 -1.8048  0.7807
 7651WAT    EPW31326   3.319   3.886   6.867 -1.0442 -0.5688  0.0829
 7652WAT      O31327   2.507   4.097   7.508 -0.2531 -0.0409 -0.2720
 7652WAT     H131328   2.529   4.020   7.472 -1.5512 -0.3207 -0.5418
 7652WAT     H231329   2.583   4.134   7.526  0.4081 -1.1688 -0.6369
 7652WAT    EPW31330   2.521   4.091   7.505 -0.3472 -0.2489 -0.3658
 7653WAT      O31331   3.092   4.333   6.324 -0.3059  0.3123 -0.1548
 7653WAT     H131332   3.084   4.287   6.250 -0.2175 -0.6996  0.4396
 7653WAT     H231333   3.064   4.277   6.385 -0.3941  1.1381  0.5767
 7653WAT    EPW31334   3.087   4.318   6.322 -0.3059  0.2848  0.0411
 7654WAT      O31335   3.243   3.546   7.133  0.2879  0.2734 -0.6968
 7654WAT     H131336   3.174   3.495   7.147 -1.1286  2.5133  0.9061
 7654WAT     H231337   3.278   3.557   7.212  1.0923  1.0731 -1.1392
 7654WAT    EPW31338   3.238   3.540   7.146  0.1975  0.7224 -0.5254
 7655WAT      O31339   3.047   3.395   7.498  0.3572 -0.3118  0.2835
 7655WAT     H131340   3.025   3.364   7.577  0.0577 -0.1865  0.2491
 7655WAT     H231341   3.010   3.474   7.496 -0.6248 -0.7732 -0.4302
 7655WAT    EPW31342   3.039   3.402   7.510  0.1679 -0.3615  0.1730
 7656WAT      O31343   4.039   4.041   7.033 -0.5697  0.0558 -0.0673
 7656WAT     H131344   4.074   4.009   7.107 -0.8590  1.9634  0.9492
 7656WAT     H231345   3.975   3.985   7.015 -1.9961  0.7111  2.4456
 7656WAT    EPW31346   4.035   4.028   7.042 -0.8232  0.4344  0.4540
 7657WAT      O31347   3.283   4.827   6.402  0.6031 -0.3998  0.3505
 7657WAT     H131348   3.286   4.759   6.348  0.8972  0.6566 -1.0248
 7657WAT     H231349   3.365   4.857   6.402  0.9600 -1.2113  2.5604
 7657WAT    EPW31350   3.296   4.822   6.394  0.6993 -0.3636  0.4738
 7658WAT      O31351   3.612   2.048   7.651 -0.0388  0.0095  0.3269
 7658WAT     H131352   3.699   2.051   7.658 -0.1782  2.0480  2.2679
 7658WAT     H231353   3.594   2.113   7.596 -0.3928  1.7292  2.3151
 7658WAT    EPW31354   3.622   2.058   7.644 -0.1117  0.5647  0.9073
 7659WAT      O31355   3.483   2.750   7.306  0.4769 -0.5728 -0.3772
 7659WAT     H131356   3.556   2.773   7.265  0.5376 -2.1818 -1.2713
 7659WAT     H231357   3.511   2.696   7.369  0.1685 -0.0733  0.1964
 7659WAT    EPW31358   3.498   2.745   7.309  0.4403 -0.7367 -0.4245
 7660WAT      O31359   2.759   3.180   7.866 -0.3029  0.4956  0.1399
 7660WAT     H131360   2.747   3.139   7.942  1.6008 -1.0072 -0.2899
 7660WAT     H231361   2.695   3.239   7.864  0.7343  2.0244  3.8260
 7660WAT    EPW31362   2.748   3.183   7.877  0.1315  0.4995  0.6209
 7661WAT      O31363   4.288   3.837   6.995 -0.0252 -0.6767  0.1590
 7661WAT     H131364   4.214   3.877   7.020 -1.3376 -2.3004 -0.8702
 7661WAT     H231365   4.326   3.815   7.070 -0.3067  0.6649  0.7098
 7661WAT    EPW31366   4.282   3.840   7.010 -0.2606 -0.7184  0.0883
 7662WAT      O31367   3.442   5.682   7.112  0.5410  0.4893  0.2275
 7662WAT     H131368   3.356   5.670   7.102  0.2278  2.2189  0.5597
 7662WAT     H231369   3.475   5.663   7.033  0.1414 -2.0585  0.5934
 7662WAT    EPW31370   3.434   5.678   7.099  0.4357  0.3685  0.3306
 7663WAT      O31371   4.340   2.236   6.207  0.0011  0.7942  0.0058
 7663WAT     H131372   4.260   2.212   6.182 -1.0562  1.9743  2.0525
 7663WAT     H231373   4.377   2.160   6.231 -0.9345  0.3921  0.2088
 7663WAT    EPW31374   4.334   2.221   6.207 -0.2933  0.9091  0.3381
 7664WAT      O31375   3.674   4.534   5.907 -0.0713 -0.1305 -0.0063
 7664WAT     H131376   3.761   4.531   5.903 -0.1057 -0.1558 -1.3480
 7664WAT     H231377   3.652   4.565   5.828 -1.2388  0.7813  0.6561
 7664WAT    EPW31378   3.684   4.538   5.895 -0.2488  0.0005 -0.1067
 7665WAT      O31379   3.716   3.973   7.516 -0.4532  0.1751  0.2070
 7665WAT     H131380   3.668   4.019   7.460  0.0625 -1.8915 -2.1181
 7665WAT     H231381   3.798   3.991   7.491 -0.1308  0.5813  1.5051
 7665WAT    EPW31382   3.721   3.983   7.504 -0.3294 -0.0702  0.0553
 7666WAT      O31383   3.810   3.854   5.865  0.1881  0.2349 -0.3812
 7666WAT     H131384   3.864   3.893   5.809  0.2325  1.3146  0.3742
 7666WAT     H231385   3.846   3.871   5.943 -1.6723  1.7977  0.2298
 7666WAT    EPW31386   3.823   3.862   5.868 -0.0802  0.6253 -0.1794
 7667WAT      O31387   3.434   4.845   0.202 -0.2756  0.0703 -0.1530
 7667WAT     H131388   3.492   4.799   0.248  3.5140  2.8941 -1.4816
 7667WAT     H231389   3.413   4.792   0.136  0.4365 -1.2765  0.6720
 7667WAT    EPW31390   3.440   4.831   0.199  0.3894  0.2885 -0.2274
 7668WAT      O31391   3.195   4.834   5.734 -0.4400  0.0390 -0.3403
 7668WAT     H131392   3.179   4.916   5.708 -1.4669  0.7558  2.1697
 7668WAT     H231393   3.281   4.833   5.748  0.2002 -0.4395 -3.5650
 7668WAT    EPW31394   3.205   4.846   5.732 -0.4971  0.0742 -0.4459
 7669WAT      O31395   4.041   3.633   7.251  0.1947  0.3977 -0.4952
 7669WAT     H131396   4.058   3.627   7.165 -2.5022  0.2808 -1.1236
 7669WAT     H231397   4.110   3.595   7.288  0.2180 -2.1335 -2.7740
 7669WAT    EPW31398   4.053   3.626   7.244 -0.2002  0.0065 -0.9247
 7670WAT      O31399   4.149   3.924   6.595  0.5430  0.1830  0.1979
 7670WAT     H131400   4.067   3.952   6.606  0.0195 -0.4740 -1.6343
 7670WAT     H231401   4.146   3.882   6.518  2.6198  0.2016  0.0575
 7670WAT    EPW31402   4.137   3.922   6.585  0.7724  0.0887 -0.0935
 7671WAT      O31403   4.752   3.577   6.328  0.1432  0.0622  0.1980
 7671WAT     H131404   4.773   3.520   6.390  0.9721  0.8160  0.6242
 7671WAT     H231405   4.713   3.528   6.267  0.5094 -0.8950  0.7228
 7671WAT    EPW31406   4.749   3.561   6.328  0.3197  0.0322  0.3385
 7672WAT      O31407   3.088   3.552   6.772  0.8524 -1.0419  0.1809
 7672WAT     H131408   3.165   3.525   6.743  1.0303 -1.5960  1.1258
 7672WAT     H231409   3.057   3.483   6.816 -0.2291 -0.8616 -0.2712
 7672WAT    EPW31410   3.094   3.538   6.774  0.7189 -1.0971  0.2537
 7673WAT      O31411   5.039   3.261   6.458 -0.4230 -0.3685  1.0414
 7673WAT     H131412   5.125   3.251   6.449 -0.0483  2.2838  0.6391
 7673WAT     H231413   5.020   3.214   6.529  1.2592 -1.3496  0.9014
 7673WAT    EPW31414   5.049   3.253   6.467 -0.1192 -0.1216  0.9613
 7674WAT      O31415   1.088   2.733   6.533 -0.0803  0.7444  0.2336
 7674WAT     H131416   1.119   2.784   6.470 -1.5185  0.9826 -0.3226
 7674WAT     H231417   1.069   2.788   6.598 -0.4834  0.7612  0.1027
 7674WAT    EPW31418   1.090   2.748   6.534 -0.3523  0.7821  0.1321
 7675WAT      O31419   2.812   3.184   5.841 -0.4520 -0.1911  0.4740
 7675WAT     H131420   2.891   3.146   5.847 -0.8888 -0.9711  1.5544
 7675WAT     H231421   2.805   3.230   5.915 -0.4675  0.9955 -0.2392
 7675WAT    EPW31422   2.823   3.185   5.853 -0.5188 -0.1310  0.5283
 7676WAT      O31423   2.480   3.722   7.097  0.5187 -0.8236  0.2024
 7676WAT     H131424   2.452   3.687   7.172 -0.9289 -0.5736 -0.1808
 7676WAT     H231425   2.530   3.788   7.123 -0.1550 -0.5909  0.9759
 7676WAT    EPW31426   2.483   3.727   7.112  0.2054 -0.7523  0.2601
 7677WAT      O31427   3.195   3.306   0.061 -0.0606  0.5518  0.8385
 7677WAT     H131428   3.226   3.224   0.056 -0.4247  0.3828  1.2820
 7677WAT     H231429   3.257   3.353   0.022  0.1124  0.0550  0.4928
 7677WAT    EPW31430   3.209   3.301   0.055 -0.0888  0.4534  0.8530
 7678WAT      O31431   3.569   4.317   6.089  0.3381 -0.0493  0.8105
 7678WAT     H131432   3.516   4.365   6.139  0.2377 -0.0439  0.6983
 7678WAT     H231433   3.591   4.371   6.024 -1.4080 -0.7796 -0.4495
 7678WAT    EPW31434   3.564   4.332   6.087  0.0653 -0.1564  0.6078
 7679WAT      O31435   1.521   4.207   5.011 -0.4404  0.1362 -0.7638
 7679WAT     H131436   1.573   4.277   5.005  1.0405 -0.8675 -0.1213
 7679WAT     H231437   1.498   4.193   4.928  0.5314  0.4523 -1.1052
 7679WAT    EPW31438   1.525   4.215   4.998 -0.0781  0.0346 -0.7193
 7680WAT      O31439   2.687   3.361   6.326  0.0287  0.2678  0.2853
 7680WAT     H131440   2.711   3.445   6.324 -0.2950  0.3582  0.1062
 7680WAT     H231441   2.600   3.365   6.331  0.0540 -0.0522  1.0628
 7680WAT    EPW31442   2.677   3.374   6.326 -0.0153  0.2339  0.3737
 7681WAT      O31443   3.702   5.415   6.415 -0.2768 -0.3839 -0.0722
 7681WAT     H131444   3.685   5.460   6.342  0.7535 -2.1027 -1.4370
 7681WAT     H231445   3.757   5.353   6.389  1.1555 -0.3004  2.4462
 7681WAT    EPW31446   3.708   5.413   6.400  0.0870 -0.6255  0.0982
 7682WAT      O31447   0.831   3.760   0.602  0.1516 -0.7768  0.1768
 7682WAT     H131448   0.817   3.825   0.658 -2.0157 -1.3111  0.3594
 7682WAT     H231449   0.800   3.690   0.644  0.0695 -1.4801 -1.0130
 7682WAT    EPW31450   0.824   3.759   0.616 -0.1807 -0.9596  0.0280
 7683WAT      O31451   2.970   4.593   7.634  0.6044 -0.1245  0.1009
 7683WAT     H131452   2.959   4.659   7.578  0.1632  0.2403  0.6100
 7683WAT     H231453   3.016   4.628   7.698  0.5551 -0.3691  0.2720
 7683WAT    EPW31454   2.975   4.608   7.635  0.5319 -0.1068  0.2014
 7684WAT      O31455   2.476   3.990   5.255  0.8533  0.1494  0.0243
 7684WAT     H131456   2.427   3.920   5.271  0.9725  0.2072  0.6997
 7684WAT     H231457   2.558   3.958   5.258  0.8826  0.1924 -0.3317
 7684WAT    EPW31458   2.481   3.975   5.258  0.8752  0.1643  0.0714
 7685WAT      O31459   4.210   3.640   0.481  0.3570 -0.1861  0.2896
 7685WAT     H131460   4.247   3.568   0.514  2.8258  0.0012 -1.7712
 7685WAT     H231461   4.173   3.611   0.407 -2.3541 -0.0195  1.4456
 7685WAT    EPW31462   4.210   3.625   0.475  0.3212 -0.1338  0.1560
 7686WAT      O31463   4.061   4.607   6.495  0.3522 -0.4273 -0.0775
 7686WAT     H131464   4.133   4.616   6.446  1.8020  0.4592  2.0924
 7686WAT     H231465   4.084   4.547   6.555 -0.8563 -0.3933  0.4535
 7686WAT    EPW31466   4.075   4.599   6.497  0.3879 -0.2914  0.3215
 7687WAT      O31467   2.460   3.623   6.283  0.2774 -0.1225 -0.0271
 7687WAT     H131468   2.435   3.706   6.293 -3.6322 -1.1841  0.7351
 7687WAT     H231469   2.465   3.593   6.365  0.8558 -0.8603 -0.3171
 7687WAT    EPW31470   2.457   3.630   6.297 -0.2147 -0.3883  0.0427
 7688WAT      O31471   1.461   3.060   7.242 -0.2468 -0.0417  0.2221
 7688WAT     H131472   1.422   3.089   7.314  0.7195 -0.4361  0.9280
 7688WAT     H231473   1.401   3.072   7.179 -1.1634  0.1503  1.1162
 7688WAT    EPW31474   1.446   3.066   7.243 -0.2395 -0.0716  0.4585
 7689WAT      O31475   4.731   2.646   6.501 -0.6326 -0.2163 -0.1216
 7689WAT     H131476   4.651   2.680   6.496 -0.6294 -0.0756  0.6846
 7689WAT     H231477   4.774   2.685   6.436 -1.0587  0.1360 -0.1976
 7689WAT    EPW31478   4.725   2.657   6.491 -0.6951 -0.1434 -0.0137
 7690WAT      O31479   4.664   4.378   6.383 -0.1311 -0.1658  0.3171
 7690WAT     H131480   4.699   4.325   6.443  1.0986 -0.4757 -0.6226
 7690WAT     H231481   4.631   4.324   6.324  0.6221  0.1006 -0.3666
 7690WAT    EPW31482   4.665   4.362   6.383  0.1618 -0.1722  0.0773
 7691WAT      O31483   2.252   4.268   0.782 -0.6464  0.2696  0.1616
 7691WAT     H131484   2.170   4.239   0.787 -0.7417  0.4990 -0.0448
 7691WAT     H231485   2.283   4.258   0.863 -0.4051 -1.2112 -0.0951
 7691WAT    EPW31486   2.245   4.262   0.794 -0.6248  0.0847  0.0932
 7692WAT      O31487   3.760   4.712   1.272  0.3072 -0.8549 -0.4626
 7692WAT     H131488   3.798   4.779   1.312 -2.6272  0.0745  1.0527
 7692WAT     H231489   3.752   4.740   1.190 -0.6149  0.5723  0.0823
 7692WAT    EPW31490   3.765   4.726   1.266 -0.2625 -0.5068 -0.1583
 7693WAT      O31491   3.305   4.156   6.311  0.2143  0.3223 -0.4051
 7693WAT     H131492   3.381   4.168   6.354 -0.3588  0.8208  0.4887
 7693WAT     H231493   3.275   4.237   6.299 -0.0437  0.1394 -1.0220
 7693WAT    EPW31494   3.312   4.170   6.315  0.0916  0.3689 -0.3642
 7694WAT      O31495   2.857   1.902   6.214 -0.0936  0.2395  0.5709
 7694WAT     H131496   2.893   1.907   6.134  1.6850  0.6229  1.3613
 7694WAT     H231497   2.844   1.986   6.235 -1.8965  0.1183  0.1674
 7694WAT    EPW31498   2.860   1.915   6.205 -0.0972  0.2782  0.6281
 7695WAT      O31499   3.752   5.260   6.992 -0.2002 -0.4135 -0.1664
 7695WAT     H131500   3.798   5.318   7.039  0.1217 -1.6475  1.1037
 7695WAT     H231501   3.787   5.183   7.015 -1.6492 -1.2378 -0.6308
 7695WAT    EPW31502   3.764   5.257   7.002 -0.3667 -0.7176 -0.0474
 7696WAT      O31503   3.238   3.392   6.339 -0.1937  0.0093  0.1826
 7696WAT     H131504   3.221   3.317   6.299  0.4086 -0.3175  0.5220
 7696WAT     H231505   3.243   3.450   6.274 -1.7248 -0.0193 -0.0050
 7696WAT    EPW31506   3.236   3.389   6.324 -0.3309 -0.0432  0.2050
 7697WAT      O31507   3.811   5.534   7.104 -0.2612  0.0997 -0.0900
 7697WAT     H131508   3.894   5.537   7.130 -0.3633 -1.6462  0.5737
 7697WAT     H231509   3.769   5.498   7.172 -1.6194  1.1935 -0.3000
 7697WAT    EPW31510   3.817   5.529   7.118 -0.4769  0.0034 -0.0230
 7698WAT      O31511   3.443   2.837   0.543 -0.7443  0.0848 -0.0624
 7698WAT     H131512   3.382   2.823   0.482  1.0598 -0.0604 -1.9579
 7698WAT     H231513   3.513   2.794   0.512  1.5675  3.5533 -0.1754
 7698WAT    EPW31514   3.444   2.828   0.530 -0.1363  0.5757 -0.3591
 7699WAT      O31515   3.603   3.717   7.539  0.1848  0.1291 -0.7555
 7699WAT     H131516   3.553   3.729   7.609 -0.1330  0.0542 -0.9651
 7699WAT     H231517   3.647   3.793   7.531  2.8583 -1.0116  1.5428
 7699WAT    EPW31518   3.602   3.730   7.548  0.5328 -0.0505 -0.4469
 7700WAT      O31519   2.088   5.400   0.017  0.1327  0.0090 -0.6159
 7700WAT     H131520   2.123   5.320   0.021 -0.7969 -0.3694  0.2628
 7700WAT     H231521   2.065   5.417   0.099 -1.3285  0.4260 -1.0748
 7700WAT    EPW31522   2.090   5.391   0.029 -0.2204  0.0147 -0.5539
 7701WAT      O31523   3.410   3.589   7.362  0.4332  0.1057  0.3728
 7701WAT     H131524   3.459   3.637   7.416  2.6991 -0.9279 -0.6052
 7701WAT     H231525   3.387   3.520   7.410  0.0788  0.5113  0.7903
 7701WAT    EPW31526   3.414   3.586   7.377  0.7156  0.0129  0.2900
 7702WAT      O31527   2.615   5.121   6.165 -0.3143  0.3523  0.0687
 7702WAT     H131528   2.569   5.118   6.239  0.8494 -1.2003  0.7773
 7702WAT     H231529   2.698   5.115   6.191  0.2648  1.8635 -1.2654
 7702WAT    EPW31530   2.620   5.120   6.180 -0.0568  0.3462 -0.0237
 7703WAT      O31531   4.483   2.907   0.040  0.5446 -1.1491  0.0663
 7703WAT     H131532   4.483   2.884  -0.044  0.6998 -1.1144  0.0567
 7703WAT     H231533   4.460   2.833   0.081  0.2745 -1.1155 -0.0178
 7703WAT    EPW31534   4.479   2.893   0.034  0.5276 -1.1390  0.0525
 7704WAT      O31535   2.796   2.607   7.864 -0.2280 -0.1905  0.7473
 7704WAT     H131536   2.727   2.565   7.896 -0.1500  0.3533  1.6646
 7704WAT     H231537   2.863   2.573   7.908  0.0370 -0.3613  0.2195
 7704WAT    EPW31538   2.795   2.596   7.875 -0.1773 -0.1354  0.8048
 7705WAT      O31539   2.922   3.602   7.763 -0.2665  0.5557  0.1232
 7705WAT     H131540   2.839   3.628   7.763 -0.0291  1.3516 -0.7614
 7705WAT     H231541   2.917   3.516   7.754 -0.9903  0.6099 -0.0138
 7705WAT    EPW31542   2.909   3.593   7.762 -0.3383  0.6812 -0.0277
 7706WAT      O31543   3.038   3.359   0.270  0.4689  0.1745 -0.1161
 7706WAT     H131544   3.086   3.345   0.198  0.1345  0.9245 -0.4964
 7706WAT     H231545   3.097   3.384   0.329  0.5529  1.1304 -0.5954
 7706WAT    EPW31546   3.054   3.360   0.268  0.4319  0.4265 -0.2431
 7707WAT      O31547   3.158   5.699   7.117 -0.1336 -0.0307  0.2516
 7707WAT     H131548   3.102   5.751   7.158 -0.5140 -1.1022  1.1488
 7707WAT     H231549   3.122   5.620   7.126  1.3580 -0.7022  0.5659
 7707WAT    EPW31550   3.144   5.695   7.124  0.0305 -0.2882  0.4306
 7708WAT      O31551   5.033   2.555   5.466 -0.1116 -0.4531  0.1039
 7708WAT     H131552   5.037   2.519   5.546 -1.5128 -0.1152  0.3608
 7708WAT     H231553   4.948   2.571   5.456  0.0596 -0.3727 -1.4222
 7708WAT    EPW31554   5.021   2.552   5.477 -0.2933 -0.3913 -0.0836
 7709WAT      O31555   2.957   3.026   5.580  0.2271  0.4141  0.2558
 7709WAT     H131556   2.932   2.977   5.513  0.1412  0.6322  0.1278
 7709WAT     H231557   2.958   2.970   5.647 -0.4109  0.3511  0.2238
 7709WAT    EPW31558   2.953   3.011   5.580  0.1202  0.4370  0.2321
 7710WAT      O31559   3.831   3.577   5.840 -0.0813 -0.1264 -0.2487
 7710WAT     H131560   3.904   3.567   5.794 -0.1015  3.1025 -1.2691
 7710WAT     H231561   3.813   3.662   5.831 -2.5465 -0.2508  2.1405
 7710WAT    EPW31562   3.839   3.588   5.832 -0.4484  0.3322 -0.0465
 7711WAT      O31563   3.570   3.740   6.084 -0.1590  0.1731 -0.6485
 7711WAT     H131564   3.558   3.804   6.027 -0.5432 -0.4310 -1.2607
 7711WAT     H231565   3.545   3.775   6.160 -1.2781  0.4406 -1.1305
 7711WAT    EPW31566   3.565   3.754   6.087 -0.3810  0.1234 -0.8102
 7712WAT      O31567   5.514   4.333   6.369  0.4468 -0.3880  0.6343
 7712WAT     H131568   5.454   4.396   6.369  0.5090 -0.2404 -1.7613
 7712WAT     H231569   5.586   4.373   6.342  0.6266 -1.3416 -0.3691
 7712WAT    EPW31570   5.516   4.348   6.365  0.4825 -0.5070  0.1322
 7713WAT      O31571   4.540   3.894   0.012 -0.7033  0.0462  0.3325
 7713WAT     H131572   4.587   3.820   0.011  1.6684  1.3904 -2.3687
 7713WAT     H231573   4.489   3.886  -0.058 -0.2595  1.0252 -0.1173
 7713WAT    EPW31574   4.540   3.882   0.002 -0.2874  0.3894 -0.1330
 7714WAT      O31575   3.561   2.610   5.823  0.2672 -0.2910  0.2690
 7714WAT     H131576   3.625   2.667   5.813 -0.1525  0.0102 -0.8491
 7714WAT     H231577   3.602   2.536   5.845  0.8877  0.1788  0.7260
 7714WAT    EPW31578   3.576   2.608   5.825  0.2969 -0.1771  0.1714
 7715WAT      O31579   2.355   1.842   6.006  0.2988  0.6516 -0.2437
 7715WAT     H131580   2.331   1.926   5.998 -0.2590  1.0230  3.4982
 7715WAT     H231581   2.411   1.843   6.072  0.3112 -1.9593 -0.1111
 7715WAT    EPW31582   2.360   1.855   6.014  0.2182  0.3208  0.3286
 7716WAT      O31583   6.367   2.310   5.865 -0.5106 -0.5008  0.1163
 7716WAT     H131584   6.388   2.282   5.786 -1.3310  0.1657 -0.3583
 7716WAT     H231585   6.441   2.341   5.897 -0.2735 -0.3430 -0.5778
 7716WAT    EPW31586   6.381   2.310   5.858 -0.5967 -0.3790 -0.0564
 7717WAT      O31587   2.829   3.274   6.115 -0.0093  0.1803 -0.1073
 7717WAT     H131588   2.910   3.296   6.137  0.1748 -1.3167  0.8239
 7717WAT     H231589   2.781   3.304   6.181  0.0324 -0.6096  0.2910
 7717WAT    EPW31590   2.834   3.281   6.128  0.0240 -0.1575  0.0891
 7718WAT      O31591   3.876   5.023   7.068  0.1889 -0.1042  0.0712
 7718WAT     H131592   3.877   4.966   7.134  2.1139 -0.9320 -0.6163
 7718WAT     H231593   3.841   4.978   7.002  0.8557 -0.1973 -0.2224
 7718WAT    EPW31594   3.871   5.008   7.068  0.5718 -0.2402 -0.0737
 7719WAT      O31595   3.001   2.808   7.705  0.2345 -0.0241  0.1440
 7719WAT     H131596   2.959   2.733   7.689  2.3337 -1.2043 -0.3415
 7719WAT     H231597   3.004   2.811   7.792  0.2302 -0.5810  0.1694
 7719WAT    EPW31598   2.995   2.797   7.716  0.5439 -0.2807  0.0760
 7720WAT      O31599   3.945   3.630   6.112  0.1746  0.0754 -0.1123
 7720WAT     H131600   3.928   3.563   6.167 -3.0303  0.5375 -0.3044
 7720WAT     H231601   3.894   3.613   6.044 -1.0089  2.8122 -0.0375
 7720WAT    EPW31602   3.935   3.617   6.110 -0.4737  0.5479 -0.1296
 7721WAT      O31603   1.884   3.336   4.492  0.1016 -0.4231 -0.2244
 7721WAT     H131604   1.934   3.320   4.562  1.5884  1.8098 -0.6662
 7721WAT     H231605   1.885   3.260   4.449  1.0013 -1.1845  1.0666
 7721WAT    EPW31606   1.892   3.322   4.496  0.4541 -0.2058 -0.0990
 7722WAT      O31607   3.704   4.947   6.788 -0.3222 -0.6702  0.6715
 7722WAT     H131608   3.686   4.898   6.859 -0.0109 -2.3424 -0.3375
 7722WAT     H231609   3.771   4.905   6.751  0.3268  0.8665  0.0291
 7722WAT    EPW31610   3.711   4.933   6.793 -0.1803 -0.6902  0.4276
 7723WAT      O31611   3.720   4.458   7.200 -0.2012 -0.4170  0.0115
 7723WAT     H131612   3.787   4.490   7.245 -1.3436  0.0448  1.4569
 7723WAT     H231613   3.738   4.373   7.194  0.0796 -0.4583  1.2033
 7723WAT    EPW31614   3.733   4.450   7.206 -0.3285 -0.3549  0.4011
 7724WAT      O31615   4.497   4.018   5.931  0.1620 -0.3052  0.0079
 7724WAT     H131616   4.496   4.065   6.004 -3.3792  2.1733 -1.3787
 7724WAT     H231617   4.543   4.068   5.875 -0.1097 -0.4860 -0.3823
 7724WAT    EPW31618   4.504   4.032   5.933 -0.4013  0.0343 -0.2546
 7725WAT      O31619   2.571   3.402   1.437 -0.2714  0.0896 -0.2211
 7725WAT     H131620   2.522   3.330   1.428  0.8132 -0.8536  0.9989
 7725WAT     H231621   2.566   3.419   1.522 -0.7672  1.6979 -0.5398
 7725WAT    EPW31622   2.563   3.394   1.448 -0.1844  0.1879 -0.0879
 7726WAT      O31623   4.144   2.652   7.091  0.4371 -0.2524  0.6290
 7726WAT     H131624   4.123   2.667   7.174 -0.7026  1.8006  0.0308
 7726WAT     H231625   4.074   2.679   7.046  2.0720  1.3813 -1.1438
 7726WAT    EPW31626   4.131   2.658   7.096  0.5102  0.2922  0.2788
 7727WAT      O31627   3.729   3.335   6.538  0.5018 -0.5065  0.0559
 7727WAT     H131628   3.751   3.386   6.605  0.2840 -1.3668  0.8219
 7727WAT     H231629   3.641   3.339   6.538  0.5251  0.1413 -0.7181
 7727WAT    EPW31630   3.719   3.343   6.548  0.4731 -0.5379  0.0547
 7728WAT      O31631   3.289   4.172   6.726 -0.1460 -0.0596  0.0676
 7728WAT     H131632   3.298   4.091   6.756 -0.3460  0.0729  0.4919
 7728WAT     H231633   3.369   4.193   6.698  0.6152  0.6133  2.5351
 7728WAT    EPW31634   3.302   4.163   6.726 -0.0631  0.0594  0.4948
 7729WAT      O31635   2.788   5.217   7.417  0.1289 -0.0917  0.4742
 7729WAT     H131636   2.765   5.203   7.500  1.5614 -3.0962  0.4855
 7729WAT     H231637   2.874   5.229   7.421  0.5462 -2.2312 -0.6796
 7729WAT    EPW31638   2.797   5.217   7.430  0.4021 -0.8515  0.3054
 7730WAT      O31639   3.161   4.361   1.556  0.5036  0.2229 -0.4921
 7730WAT     H131640   3.167   4.294   1.612  1.3913  0.4441 -0.2965
 7730WAT     H231641   3.093   4.340   1.506 -0.9863  0.5049  1.2914
 7730WAT    EPW31642   3.152   4.348   1.557  0.4146  0.2972 -0.1997
 7731WAT      O31643   3.813   3.534   7.642 -0.4704 -0.0465  0.0291
 7731WAT     H131644   3.737   3.576   7.630 -1.3130 -1.3267  0.7197
 7731WAT     H231645   3.821   3.486   7.570  0.0119  0.5360 -0.3188
 7731WAT    EPW31646   3.803   3.533   7.630 -0.5236 -0.1495  0.0797
 7732WAT      O31647   2.291   3.772   6.619  0.1677 -0.3529 -0.5602
 7732WAT     H131648   2.319   3.784   6.538 -0.9201  0.1405 -0.8783
 7732WAT     H231649   2.329   3.838   6.663 -1.3317  1.0360 -1.2195
 7732WAT    EPW31650   2.301   3.784   6.614 -0.2145 -0.0748 -0.7046
 7733WAT      O31651   3.435   2.881   6.254 -0.2905 -0.3615  0.1698
 7733WAT     H131652   3.432   2.843   6.175 -0.2663 -0.6667  0.3118
 7733WAT     H231653   3.520   2.891   6.268 -0.3015 -0.1648  0.0888
 7733WAT    EPW31654   3.447   2.877   6.244 -0.2886 -0.3776  0.1788
 7734WAT      O31655   2.820   2.566   7.252 -0.0968 -0.3442 -0.1146
 7734WAT     H131656   2.897   2.533   7.278  0.0199  0.3538  0.4546
 7734WAT     H231657   2.786   2.598   7.325 -0.4602  0.2867 -0.5517
 7734WAT    EPW31658   2.826   2.566   7.266 -0.1332 -0.1479 -0.0951
 7735WAT      O31659   4.171   4.569   7.642  0.1214  0.0703  0.4075
 7735WAT     H131660   4.246   4.546   7.680  0.4806  1.3965  0.5535
 7735WAT     H231661   4.180   4.655   7.630 -1.1383  0.1460 -0.1217
 7735WAT    EPW31662   4.183   4.579   7.646 -0.0116  0.2774  0.3509
 7736WAT      O31663   3.565   4.102   7.328 -0.3042 -0.1537 -0.3852
 7736WAT     H131664   3.562   4.118   7.242 -0.2391 -0.6591 -0.4840
 7736WAT     H231665   3.566   4.181   7.364 -0.0456  0.0600 -0.8639
 7736WAT    EPW31666   3.565   4.116   7.321 -0.2564 -0.1968 -0.4705
 7737WAT      O31667   3.048   3.178   6.685 -0.0613 -0.1130  0.3318
 7737WAT     H131668   3.020   3.239   6.741 -2.3461  1.7824 -2.5714
 7737WAT     H231669   2.995   3.110   6.700  0.4913 -0.2903  1.5652
 7737WAT    EPW31670   3.036   3.177   6.695 -0.3172  0.1408  0.0851
 7738WAT      O31671   0.855   2.421   6.763 -0.1296 -0.3505  0.0974
 7738WAT     H131672   0.864   2.347   6.716  3.7792  0.5825 -1.0633
 7738WAT     H231673   0.839   2.481   6.702  0.9145  0.2913  0.4270
 7738WAT    EPW31674   0.854   2.419   6.747  0.6021 -0.1179 -0.0254
 7739WAT      O31675   2.931   5.720   0.199  0.0798 -0.2451  0.1022
 7739WAT     H131676   2.900   5.724   0.281  1.8742  1.0477  0.7807
 7739WAT     H231677   2.987   5.653   0.202 -0.1590 -0.4579 -0.1838
 7739WAT    EPW31678   2.935   5.710   0.212  0.3096 -0.0856  0.1602
 7740WAT      O31679   3.283   2.492   5.445 -0.1133  0.3788 -0.0854
 7740WAT     H131680   3.368   2.484   5.430  0.1358 -1.3079  1.7706
 7740WAT     H231681   3.279   2.529   5.524 -0.9545 -2.0442  1.1157
 7740WAT    EPW31682   3.295   2.496   5.454 -0.2008 -0.2283  0.3662
 7741WAT      O31683   3.395   4.563   6.784  0.1608 -0.8510 -0.1735
 7741WAT     H131684   3.464   4.531   6.826  0.3276 -2.5263 -1.5692
 7741WAT     H231685   3.430   4.604   6.715 -0.1262  1.3744  0.9193
 7741WAT    EPW31686   3.411   4.564   6.780  0.1430 -0.7698 -0.2183
 7742WAT      O31687   4.394   1.293   5.702 -0.1007  0.0846  0.1150
 7742WAT     H131688   4.323   1.243   5.697  0.7538 -1.3770  1.5686
 7742WAT     H231689   4.363   1.371   5.726 -1.1745 -0.7046  1.3997
 7742WAT    EPW31690   4.379   1.297   5.705 -0.1331 -0.2479  0.5195
 7743WAT      O31691   3.514   3.045   6.782 -0.2943  0.2139 -0.3182
 7743WAT     H131692   3.577   3.099   6.811  0.0958 -0.6816  0.5437
 7743WAT     H231693   3.508   2.985   6.845 -0.3050 -1.0853 -1.5174
 7743WAT    EPW31694   3.522   3.044   6.796 -0.2383 -0.1103 -0.3680
 7744WAT      O31695   5.752   3.004   6.509  0.0902  0.4504 -0.3616
 7744WAT     H131696   5.785   2.977   6.433 -0.9118  0.1946 -0.7259
 7744WAT     H231697   5.749   3.091   6.501  0.1709  0.4363 -0.5433
 7744WAT    EPW31698   5.756   3.013   6.496 -0.0459  0.4105 -0.4422
 7745WAT      O31699   3.541   4.247   5.757 -0.4838 -0.6522  0.0137
 7745WAT     H131700   3.520   4.164   5.741  0.8107 -0.7151 -1.7465
 7745WAT     H231701   3.498   4.266   5.830 -0.4836 -3.0052  0.7101
 7745WAT    EPW31702   3.532   4.237   5.766 -0.2925 -1.0091 -0.1435
 7746WAT      O31703   2.200   4.504   6.223 -0.7340 -0.0343  0.0590
 7746WAT     H131704   2.150   4.575   6.234 -0.5390 -0.0433  1.0242
 7746WAT     H231705   2.142   4.440   6.207 -0.9983  0.0516  0.6715
 7746WAT    EPW31706   2.184   4.505   6.222 -0.7442 -0.0229  0.2921
 7747WAT      O31707   2.217   3.786   5.632 -0.3959  0.1257 -0.0009
 7747WAT     H131708   2.204   3.741   5.558 -0.6288 -0.7522  0.5507
 7747WAT     H231709   2.137   3.788   5.668 -0.2789  0.5208  0.2350
 7747WAT    EPW31710   2.203   3.779   5.627 -0.4130  0.0544  0.1154
 7748WAT      O31711   2.699   2.342   5.958 -0.2029  0.2248 -0.0061
 7748WAT     H131712   2.639   2.281   5.977 -0.2996  0.1830 -0.4371
 7748WAT     H231713   2.765   2.324   6.012  0.4959 -1.3449 -1.2808
 7748WAT    EPW31714   2.700   2.330   5.969 -0.1139 -0.0132 -0.2581
 7749WAT      O31715   5.745   3.783   6.792 -0.8443  0.2123 -0.5802
 7749WAT     H131716   5.827   3.776   6.819 -0.4863 -0.3358 -1.7553
 7749WAT     H231717   5.703   3.719   6.834 -0.7798  0.7750  0.3624
 7749WAT    EPW31718   5.751   3.773   6.802 -0.7819  0.2145 -0.6145
 7750WAT      O31719   4.451   3.181   7.865  0.1260 -0.3420 -0.0011
 7750WAT     H131720   4.472   3.099   7.886  2.7533 -0.2078 -1.7221
 7750WAT     H231721   4.473   3.227   7.936 -0.7137 -0.9727  0.7018
 7750WAT    EPW31722   4.457   3.176   7.879  0.3901 -0.4153 -0.1515
 7751WAT      O31723   1.885   5.041   1.316  0.1608 -0.2178  0.1699
 7751WAT     H131724   1.929   4.966   1.323 -0.4233 -0.5926 -0.1213
 7751WAT     H231725   1.808   5.024   1.352  0.1953  0.3957  0.5584
 7751WAT    EPW31726   1.880   5.028   1.322  0.0796 -0.1826  0.1843
 7752WAT      O31727   4.221   4.496   7.359 -0.6693  0.2819 -0.1867
 7752WAT     H131728   4.204   4.543   7.430 -0.0514 -2.5209  2.0022
 7752WAT     H231729   4.306   4.478   7.366 -1.0165 -1.7824 -0.3895
 7752WAT    EPW31730   4.231   4.500   7.371 -0.6293 -0.4371  0.1067
 7753WAT      O31731   1.989   4.635   7.479 -0.2555 -0.1350 -0.0076
 7753WAT     H131732   2.072   4.633   7.453 -0.3828 -1.8350 -0.3480
 7753WAT     H231733   1.993   4.613   7.563 -0.2641  1.0179  0.3104
 7753WAT    EPW31734   2.002   4.632   7.488 -0.2756 -0.2158 -0.0109
 7754WAT      O31735   4.156   1.925   6.346  0.4585  0.0129  0.1927
 7754WAT     H131736   4.145   1.930   6.432 -0.9574  0.7172 -0.0080
 7754WAT     H231737   4.103   1.860   6.322  1.3823 -0.6646 -0.0831
 7754WAT    EPW31738   4.147   1.916   6.355  0.3858  0.0169  0.1223
 7755WAT      O31739   5.361   4.656   7.510  0.1304 -0.5773  0.1319
 7755WAT     H131740   5.397   4.679   7.586 -0.3421 -0.3992  0.3105
 7755WAT     H231741   5.419   4.600   7.475 -1.1333 -3.4865  2.2190
 7755WAT    EPW31742   5.375   4.651   7.516 -0.1261 -0.9807  0.4666
 7756WAT      O31743   1.808   4.904   7.003 -0.1740  0.1419 -0.7699
 7756WAT     H131744   1.839   4.957   6.940  1.1708 -0.6851 -0.8445
 7756WAT     H231745   1.848   4.828   6.986  0.4114 -0.0361  1.2279
 7756WAT    EPW31746   1.818   4.901   6.991  0.1111 -0.0065 -0.4858
 7757WAT      O31747   4.179   5.364   6.131  0.0176 -0.2348 -0.4306
 7757WAT     H131748   4.133   5.405   6.069 -0.4224 -1.9687 -1.3282
 7757WAT     H231749   4.256   5.348   6.092  0.0738 -0.5116 -0.2095
 7757WAT    EPW31750   4.184   5.368   6.116 -0.0391 -0.5319 -0.5306
 7758WAT      O31751   4.018   2.647   7.338 -0.3904 -0.0217 -0.1500
 7758WAT     H131752   3.977   2.574   7.313  0.4536 -1.4183  2.2681
 7758WAT     H231753   3.953   2.698   7.366 -0.8854 -0.2031 -0.9116
 7758WAT    EPW31754   4.002   2.644   7.338 -0.3389 -0.2548  0.0947
 7759WAT      O31755   3.303   2.663   6.963 -0.0965  0.4051 -0.3392
 7759WAT     H131756   3.259   2.678   7.037 -2.4844 -1.5775 -1.2088
 7759WAT     H231757   3.381   2.700   6.977 -1.6548  3.2859  1.7229
 7759WAT    EPW31758   3.308   2.671   6.976 -0.6794  0.5378 -0.1630
 7760WAT      O31759   2.979   3.275   7.749 -0.4985 -0.3280 -0.5088
 7760WAT     H131760   3.037   3.279   7.814 -1.4272 -2.1027  0.5260
 7760WAT     H231761   2.912   3.232   7.785 -1.5756 -0.2159 -2.2873
 7760WAT    EPW31762   2.978   3.269   7.764 -0.7948 -0.5736 -0.6186
 7761WAT      O31763   2.537   4.627   6.999  0.1254 -0.2187 -0.3570
 7761WAT     H131764   2.602   4.673   6.963 -1.9544  1.0634 -2.7400
 7761WAT     H231765   2.466   4.674   6.981 -1.5254 -1.4942  2.2448
 7761WAT    EPW31766   2.536   4.640   6.991 -0.4257 -0.2177 -0.3246
 7762WAT      O31767   1.836   3.894   7.178  0.2204 -0.3068  0.4719
 7762WAT     H131768   1.822   3.974   7.211  2.6455  1.4356 -2.2785
 7762WAT     H231769   1.807   3.900   7.096 -0.7539 -2.7423  0.5705
 7762WAT    EPW31770   1.830   3.907   7.171  0.4347 -0.4092  0.0801
 7763WAT      O31771   3.205   4.441   0.057 -0.1052  0.1187 -0.8293
 7763WAT     H131772   3.199   4.366   0.013  1.6978 -2.2084  2.4880
 7763WAT     H231773   3.123   4.457   0.082 -0.5674 -0.4793 -1.8883
 7763WAT    EPW31774   3.192   4.432   0.054  0.0929 -0.3134 -0.4957
 7764WAT      O31775   3.936   2.718   6.914  0.8650  0.0856 -0.1959
 7764WAT     H131776   3.899   2.656   6.864 -1.0268  0.5806  0.4962
 7764WAT     H231777   3.952   2.783   6.858 -0.0848  0.1537 -0.4070
 7764WAT    EPW31778   3.933   2.719   6.898  0.4453  0.1688 -0.1248
 7765WAT      O31779   2.879   4.992   5.972 -0.4333  0.5305 -0.3176
 7765WAT     H131780   2.897   5.030   5.895  2.6028  1.4880  0.7136
 7765WAT     H231781   2.886   5.058   6.029  1.8604 -0.8501  1.1751
 7765WAT    EPW31782   2.883   5.008   5.969  0.3540  0.4680  0.0553
 7766WAT      O31783   1.485   4.984   6.573  0.1251 -0.3778 -0.0174
 7766WAT     H131784   1.487   5.038   6.641  0.0710 -0.9683  0.4657
 7766WAT     H231785   1.518   4.910   6.605 -0.8103 -0.9626 -0.3590
 7766WAT    EPW31786   1.490   4.981   6.588 -0.0211 -0.5514  0.0035
 7767WAT      O31787   3.376   4.652   7.844  0.1704 -0.3815 -0.9142
 7767WAT     H131788   3.327   4.589   7.881 -1.6539  0.8711 -1.0329
 7767WAT     H231789   3.421   4.610   7.783  0.3924 -1.8559  0.1900
 7767WAT    EPW31790   3.375   4.636   7.841 -0.0663 -0.4143 -0.7686
 7768WAT      O31791   2.799   5.532   6.605  0.4907 -0.0227 -0.5181
 7768WAT     H131792   2.809   5.582   6.676  0.8196 -0.9134  0.0764
 7768WAT     H231793   2.742   5.472   6.630 -1.2141  0.9931 -1.7560
 7768WAT    EPW31794   2.792   5.531   6.619  0.2874 -0.0042 -0.6131
 7769WAT      O31795   2.388   5.212   7.219  0.2683  0.3903 -0.5568
 7769WAT     H131796   2.410   5.296   7.218  0.9381  0.2209 -1.6820
 7769WAT     H231797   2.422   5.183   7.295  0.5220  1.0054 -0.4297
 7769WAT    EPW31798   2.397   5.220   7.230  0.4047  0.4561 -0.7042
 7770WAT      O31799   4.526   4.194   6.765  0.3716 -0.7242  0.4165
 7770WAT     H131800   4.494   4.175   6.844 -0.7883  0.6136  0.2973
 7770WAT     H231801   4.467   4.158   6.711  1.7227 -2.5993  0.0924
 7770WAT    EPW31802   4.512   4.186   6.769  0.3998 -0.8036  0.3510
 7771WAT      O31803   3.471   4.113   7.845  0.2687 -0.4722  0.2467
 7771WAT     H131804   3.412   4.076   7.792 -0.7256  2.3450 -0.7671
 7771WAT     H231805   3.440   4.095   7.925 -0.2418 -1.6346 -0.1858
 7771WAT    EPW31806   3.457   4.105   7.849  0.0464 -0.2277  0.0331
 7772WAT      O31807   3.246   5.189   0.822  0.4114  0.0584 -0.2905
 7772WAT     H131808   3.237   5.103   0.814 -0.4638  0.2616 -1.9458
 7772WAT     H231809   3.282   5.213   0.747  0.6334  1.1525  0.1447
 7772WAT    EPW31810   3.250   5.180   0.810  0.3149  0.2500 -0.4707
 7773WAT      O31811   2.031   5.712   7.439  0.5410  0.5156  0.1100
 7773WAT     H131812   1.944   5.704   7.443  0.1886  0.5258 -3.7367
 7773WAT     H231813   2.060   5.636   7.472 -0.8677  0.4763  1.3916
 7773WAT    EPW31814   2.022   5.699   7.444  0.2809  0.5113 -0.2689
 7774WAT      O31815   3.507   4.076   7.057  0.6728  0.0467  0.2590
 7774WAT     H131816   3.493   4.147   7.008 -1.6436 -0.4412  0.0748
 7774WAT     H231817   3.436   4.072   7.107  0.9404 -1.9071  0.5514
 7774WAT    EPW31818   3.494   4.086   7.057  0.3701 -0.3140  0.2750
 7775WAT      O31819   3.967   3.755   7.560 -0.2195  0.2755  0.2823
 7775WAT     H131820   3.924   3.685   7.590  1.1454 -0.7907 -0.1130
 7775WAT     H231821   3.941   3.762   7.477 -3.8062  3.0760  1.3797
 7775WAT    EPW31822   3.957   3.746   7.552 -0.5477  0.5317  0.3860
 7776WAT      O31823   2.012   4.252   6.203 -0.3654 -0.5795 -0.4020
 7776WAT     H131824   1.929   4.229   6.188 -0.2806 -0.3684 -1.2606
 7776WAT     H231825   2.058   4.191   6.162 -0.0974 -0.5199 -0.1940
 7776WAT    EPW31826   2.007   4.240   6.195 -0.3133 -0.5395 -0.4981
 7777WAT      O31827   2.725   2.505   4.377  0.3349  0.2474  0.2287
 7777WAT     H131828   2.758   2.503   4.296 -3.2387 -0.3183 -1.3978
 7777WAT     H231829   2.776   2.449   4.421  1.9050 -0.0377 -1.8057
 7777WAT    EPW31830   2.738   2.496   4.372  0.0389  0.1217 -0.3121
 7778WAT      O31831   2.124   4.300   4.479 -0.2236  0.2560  0.0888
 7778WAT     H131832   2.101   4.226   4.520  0.9183  1.4328  3.2143
 7778WAT     H231833   2.209   4.308   4.499 -0.6299  3.0973  1.2527
 7778WAT    EPW31834   2.133   4.290   4.488 -0.1149  0.8495  0.7225
 7779WAT      O31835   2.379   4.251   3.835  0.2102  0.1035  0.0705
 7779WAT     H131836   2.394   4.296   3.762  1.6113  0.2554  0.4258
 7779WAT     H231837   2.451   4.263   3.882 -0.7677  0.2279  1.6180
 7779WAT    EPW31838   2.392   4.259   3.831  0.2727  0.1443  0.3516
 7780WAT      O31839   3.053   3.209   4.297 -0.2966  0.1327 -0.0440
 7780WAT     H131840   3.046   3.278   4.350  0.2321 -0.3439  0.6711
 7780WAT     H231841   3.139   3.196   4.291 -0.3338  0.3314 -1.2440
 7780WAT    EPW31842   3.065   3.217   4.304 -0.2240  0.0916 -0.1156
 7781WAT      O31843   3.045   4.107   5.408 -0.4843 -0.3828  0.3749
 7781WAT     H131844   2.992   4.075   5.347 -1.3340  0.0541  0.8797
 7781WAT     H231845   3.077   4.180   5.372  0.6369 -1.1897 -0.3536
 7781WAT    EPW31846   3.042   4.113   5.393 -0.4442 -0.4374  0.3419
 7782WAT      O31847   1.144   3.302   5.752 -0.3139 -0.0858 -0.1337
 7782WAT     H131848   1.076   3.352   5.774 -0.4760 -0.4837  0.2903
 7782WAT     H231849   1.118   3.263   5.679 -0.5033 -0.1545 -0.0311
 7782WAT    EPW31850   1.130   3.304   5.745 -0.3659 -0.1547 -0.0559
 7783WAT      O31851   2.853   3.620   5.521 -0.3507 -0.7673  0.0845
 7783WAT     H131852   2.847   3.703   5.549  1.1797 -0.4277 -0.4990
 7783WAT     H231853   2.820   3.623   5.441  0.9232 -0.4037 -0.4518
 7783WAT    EPW31854   2.847   3.633   5.514  0.0636 -0.6635 -0.0809
 7784WAT      O31855   3.143   4.345   5.346  0.5478 -0.2187 -0.3245
 7784WAT     H131856   3.113   4.389   5.276 -0.1480  1.4981  0.9816
 7784WAT     H231857   3.229   4.358   5.342  0.4090  0.8350 -0.2830
 7784WAT    EPW31858   3.151   4.354   5.335  0.4245  0.1905 -0.1254
 7785WAT      O31859   2.064   3.296   4.703 -0.5341  0.4788 -0.4515
 7785WAT     H131860   2.055   3.209   4.705  0.2423  0.4068 -0.0009
 7785WAT     H231861   2.003   3.324   4.759 -0.1934  0.1704  0.0844
 7785WAT    EPW31862   2.054   3.287   4.711 -0.3691  0.4226 -0.3057
 7786WAT      O31863   2.862   3.352   4.486 -0.3743  0.6626  0.4614
 7786WAT     H131864   2.902   3.412   4.437 -0.6734  0.3044 -0.2351
 7786WAT     H231865   2.792   3.330   4.439 -0.0792 -0.4931  0.5375
 7786WAT    EPW31866   2.857   3.357   4.472 -0.3749  0.4390  0.3698
 7787WAT      O31867   2.117   3.608   6.336  0.0354  0.1338 -0.2445
 7787WAT     H131868   2.147   3.548   6.392  0.3616  0.6962  0.1992
 7787WAT     H231869   2.064   3.657   6.385 -0.4941  0.0074 -0.6846
 7787WAT    EPW31870   2.113   3.606   6.352  0.0054  0.1982 -0.2440
 7788WAT      O31871   0.985   6.334   3.917 -1.3941  0.5823  0.1485
 7788WAT     H131872   0.918   6.379   3.951 -0.5603  1.9082  0.1062
 7788WAT     H231873   1.004   6.275   3.979 -1.9743  0.8219  0.5638
 7788WAT    EPW31874   0.978   6.332   3.931 -1.3566  0.8135  0.2036
 7789WAT      O31875   2.200   3.774   4.619  0.1013 -0.0925 -0.4205
 7789WAT     H131876   2.227   3.691   4.619 -0.4183 -0.2616 -0.1987
 7789WAT     H231877   2.257   3.813   4.672  0.3201 -0.3155 -0.4876
 7789WAT    EPW31878   2.213   3.768   4.627  0.0568 -0.1504 -0.3976
 7790WAT      O31879   2.313   3.051   4.867 -0.5325 -0.1196 -0.4682
 7790WAT     H131880   2.304   3.018   4.947  0.3840 -1.5158 -0.9241
 7790WAT     H231881   2.384   3.013   4.836 -0.1506  1.3366 -1.5181
 7790WAT    EPW31882   2.322   3.041   4.875 -0.3407 -0.1108 -0.6906
 7791WAT      O31883   1.892   3.523   6.574  0.1964 -0.5688  0.4714
 7791WAT     H131884   1.920   3.606   6.568 -0.7515 -0.3130 -0.6058
 7791WAT     H231885   1.808   3.531   6.593  0.5831 -1.3380  2.7927
 7791WAT    EPW31886   1.884   3.537   6.576  0.1135 -0.6446  0.6552
 7792WAT      O31887   1.882   6.278   4.624  0.0933  0.7276 -0.7242
 7792WAT     H131888   1.866   6.309   4.545  2.1798 -0.5888 -1.7548
 7792WAT     H231889   1.901   6.194   4.610  1.2345  0.6255  1.0324
 7792WAT    EPW31890   1.883   6.270   4.611  0.5701  0.5181 -0.6170
 7793WAT      O31891   2.813   3.029   5.170  0.0583 -0.2798 -0.1060
 7793WAT     H131892   2.855   3.018   5.094  1.0966  1.1270  0.2122
 7793WAT     H231893   2.862   2.985   5.227 -0.0507 -0.3487 -0.0665
 7793WAT    EPW31894   2.827   3.021   5.167  0.1956 -0.0821 -0.0532
 7794WAT      O31895   2.469   2.967   6.331 -0.4599  0.3538  0.5460
 7794WAT     H131896   2.420   3.039   6.329 -0.6418  0.2732  1.5310
 7794WAT     H231897   2.543   2.994   6.369 -1.1837 -0.3168  2.5674
 7794WAT    EPW31898   2.473   2.982   6.336 -0.5937  0.2428  0.9901
 7795WAT      O31899   2.730   4.460   4.895 -0.3606 -0.5627  0.3677
 7795WAT     H131900   2.796   4.505   4.929 -0.6740  0.6443 -0.5632
 7795WAT     H231901   2.666   4.520   4.888 -1.2395 -1.4744  0.3542
 7795WAT    EPW31902   2.730   4.476   4.899 -0.5367 -0.5190  0.2282
 7796WAT      O31903   2.618   3.469   5.609 -0.4690 -0.1813 -0.4392
 7796WAT     H131904   2.600   3.490   5.691  0.5428 -0.5338 -0.1155
 7796WAT     H231905   2.682   3.524   5.586 -0.8874  0.0611 -1.0703
 7796WAT    EPW31906   2.625   3.480   5.618 -0.3813 -0.1975 -0.4846
 7797WAT      O31907   2.666   4.479   5.966  0.3995  0.0616 -0.1437
 7797WAT     H131908   2.701   4.450   5.892  0.2963 -0.9053  0.1786
 7797WAT     H231909   2.581   4.466   5.954  0.4270 -0.5763  0.3489
 7797WAT    EPW31910   2.659   4.473   5.953  0.3883 -0.1755 -0.0233
 7798WAT      O31911   2.839   4.104   6.401 -0.0232  0.0412  0.0528
 7798WAT     H131912   2.903   4.094   6.460 -1.4661  0.9692  1.9024
 7798WAT     H231913   2.869   4.063   6.330  2.7015  0.6472  0.7385
 7798WAT    EPW31914   2.852   4.097   6.399  0.1661  0.2678  0.4273
 7799WAT      O31915   3.405   4.387   5.305  0.6270  0.3819  0.5334
 7799WAT     H131916   3.480   4.347   5.325  1.3065  0.8037 -0.9789
 7799WAT     H231917   3.414   4.403   5.220 -0.8432  1.1929  0.5141
 7799WAT    EPW31918   3.418   4.383   5.295  0.5102  0.5640  0.3071
 7800WAT      O31919   2.871   4.287   4.248 -0.3602  0.0121  0.4072
 7800WAT     H131920   2.908   4.225   4.297 -0.8015 -0.8807 -0.3679
 7800WAT     H231921   2.808   4.245   4.205 -0.9633  1.0952  0.1905
 7800WAT    EPW31922   2.867   4.272   4.249 -0.5145  0.0402  0.2607
 7801WAT      O31923   1.524   3.155   4.416  0.1423 -0.4719 -0.2941
 7801WAT     H131924   1.501   3.196   4.489 -0.1601 -1.3313  0.0976
 7801WAT     H231925   1.524   3.219   4.356  1.9846  0.5780  0.7455
 7801WAT    EPW31926   1.521   3.171   4.418  0.3698 -0.4438 -0.0827
 7802WAT      O31927   2.825   6.959   5.037  0.1956 -0.7374  0.3679
 7802WAT     H131928   2.853   7.018   5.095  0.9114  0.8975 -1.5060
 7802WAT     H231929   2.899   6.928   5.002 -0.1424  0.8138 -1.9562
 7802WAT    EPW31930   2.840   6.963   5.040  0.2514 -0.2667 -0.2522
 7803WAT      O31931   2.208   3.607   6.076  0.5607 -0.0463 -0.2362
 7803WAT     H131932   2.183   3.585   6.156 -0.2312  0.4903 -0.3178
 7803WAT     H231933   2.192   3.536   6.029 -0.1601  0.0442 -0.1424
 7803WAT    EPW31934   2.202   3.594   6.081  0.3372  0.0463 -0.2344
 7804WAT      O31935   2.541   4.663   4.860 -0.3440 -0.1306  0.6464
 7804WAT     H131936   2.526   4.703   4.784 -1.1174 -0.7504  0.4581
 7804WAT     H231937   2.592   4.719   4.903 -1.1773  0.9486  0.2874
 7804WAT    EPW31938   2.546   4.677   4.855 -0.5813 -0.0627  0.5656
 7805WAT      O31939   1.869   3.223   5.467 -0.3410  0.1083 -0.0699
 7805WAT     H131940   1.940   3.187   5.433  0.5996  1.1590  0.7147
 7805WAT     H231941   1.840   3.276   5.404  0.6870  1.1159  0.2746
 7805WAT    EPW31942   1.875   3.226   5.453 -0.0502  0.4123  0.0969
 7806WAT      O31943   1.256   3.670   5.484 -1.2591  0.0524  0.3055
 7806WAT     H131944   1.308   3.691   5.551  1.5384 -3.1362 -0.5609
 7806WAT     H231945   1.293   3.712   5.416 -0.5429 -1.1647 -0.0919
 7806WAT    EPW31946   1.269   3.679   5.484 -0.7401 -0.5984  0.1188
 7807WAT      O31947   3.514   4.760   6.099  0.3650 -0.6750 -0.0222
 7807WAT     H131948   3.512   4.759   6.012 -0.3457 -0.5523 -0.0118
 7807WAT     H231949   3.444   4.712   6.122  0.5290 -0.6851  0.4794
 7807WAT    EPW31950   3.503   4.753   6.090  0.2843 -0.6583  0.0535
 7808WAT      O31951   3.589   4.008   5.896 -0.1605  0.3122  0.1029
 7808WAT     H131952   3.658   3.961   5.867 -0.2159  1.5375 -2.2465
 7808WAT     H231953   3.626   4.070   5.944  0.1162 -0.6663  1.1872
 7808WAT    EPW31954   3.605   4.010   5.898 -0.1278  0.3487 -0.0840
 7809WAT      O31955   2.304   5.331   4.021 -0.4613 -0.1737  0.3261
 7809WAT     H131956   2.270   5.349   4.099 -1.6370  0.6086 -0.3389
 7809WAT     H231957   2.250   5.271   3.988  0.1114 -0.6130  0.1619
 7809WAT    EPW31958   2.291   5.324   4.027 -0.5504 -0.1230  0.2036
 7810WAT      O31959   3.668   3.298   7.244  0.3419  0.2790 -0.8363
 7810WAT     H131960   3.685   3.213   7.233 -1.2239 -0.4978  1.8513
 7810WAT     H231961   3.581   3.301   7.249  0.4449  1.7715  0.7154
 7810WAT    EPW31962   3.658   3.286   7.243  0.1258  0.3847 -0.2101
 7811WAT      O31963   1.800   3.813   4.416 -0.1096  0.6346  0.2357
 7811WAT     H131964   1.878   3.849   4.432  0.4839 -1.4382  2.6798
 7811WAT     H231965   1.820   3.730   4.395 -1.6126 -0.3738  2.4139
 7811WAT    EPW31966   1.815   3.806   4.415 -0.2439  0.1795  0.9185
 7812WAT      O31967   2.282   5.599   4.892  0.5626  0.0585 -0.2089
 7812WAT     H131968   2.276   5.598   4.979 -2.4847  0.3690 -0.3313
 7812WAT     H231969   2.334   5.667   4.876 -0.0845  0.9736  1.3561
 7812WAT    EPW31970   2.289   5.609   4.902  0.0169  0.2395  0.0042
 7813WAT      O31971   2.875   4.071   4.445  0.5851  0.0945 -0.1045
 7813WAT     H131972   2.869   3.994   4.404 -1.2471  0.8230 -1.3487
 7813WAT     H231973   2.864   4.051   4.529  2.5074 -1.2240 -0.0995
 7813WAT    EPW31974   2.873   4.057   4.451  0.5984  0.0074 -0.2876
 7814WAT      O31975   1.695   4.422   4.981 -0.0610 -0.8464 -0.5945
 7814WAT     H131976   1.677   4.406   4.897  0.2879 -1.9149 -0.4833
 7814WAT     H231977   1.731   4.501   4.980 -1.9693  0.0619 -1.1744
 7814WAT    EPW31978   1.698   4.431   4.969 -0.2913 -0.8701 -0.6638
 7815WAT      O31979   2.216   4.422   5.278 -0.2601 -0.2605 -0.6657
 7815WAT     H131980   2.266   4.480   5.320  0.2675 -1.2738  0.1313
 7815WAT     H231981   2.164   4.390   5.340  1.5115 -2.8508 -0.3518
 7815WAT    EPW31982   2.215   4.426   5.293  0.0795 -0.7928 -0.5016
 7816WAT      O31983   2.085   3.204   3.937 -0.7465  0.7245  0.1414
 7816WAT     H131984   2.045   3.191   4.014 -0.6538  0.9111  0.2191
 7816WAT     H231985   2.166   3.175   3.950 -0.4135  1.7704  0.4423
 7816WAT    EPW31986   2.091   3.198   3.950 -0.6836  0.9065  0.1973
 7817WAT      O31987   2.474   3.710   4.302  0.3151 -0.1874  0.0148
 7817WAT     H131988   2.505   3.737   4.226  2.1930  0.2388  0.8891
 7817WAT     H231989   2.545   3.690   4.348 -0.7338  0.0124  1.8277
 7817WAT    EPW31990   2.489   3.711   4.298  0.4376 -0.0949  0.4118
 7818WAT      O31991   2.723   3.762   4.974 -0.1245 -0.5369  0.1806
 7818WAT     H131992   2.707   3.758   4.888 -0.5021  0.6274  0.1685
 7818WAT     H231993   2.761   3.840   4.983 -0.1792 -0.6127  1.0866
 7818WAT    EPW31994   2.726   3.773   4.963 -0.1884 -0.3761  0.3127
 7819WAT      O31995   2.538   2.249   5.211  0.0106 -0.0305  0.5607
 7819WAT     H131996   2.498   2.171   5.211 -0.6772  0.1570 -3.1846
 7819WAT     H231997   2.621   2.230   5.192  0.2976  0.0900  1.5897
 7819WAT    EPW31998   2.545   2.235   5.208 -0.0486  0.0150  0.1595
 7820WAT      O31999   3.135   2.724   7.197 -0.1725 -0.0451  0.3084
 7820WAT     H132000   3.138   2.653   7.247  0.0422 -0.5647 -0.4351
 7820WAT     H232001   3.054   2.723   7.165 -0.1912  0.0857  0.3512
 7820WAT    EPW32002   3.123   2.714   7.200 -0.1435 -0.1025  0.2049
 7821WAT      O32003   3.009   5.188   4.665  0.2757 -0.0416  0.0445
 7821WAT     H132004   2.934   5.211   4.704  0.5475  0.2135  0.4201
 7821WAT     H232005   2.988   5.116   4.620 -0.7188  1.1300 -1.4979
 7821WAT    EPW32006   2.995   5.181   4.664  0.1689  0.1691 -0.1278
 7822WAT      O32007   2.799   3.233   5.334  0.2454  0.2709 -0.0605
 7822WAT     H132008   2.872   3.282   5.335 -0.0624  0.7779 -1.0564
 7822WAT     H232009   2.817   3.171   5.275 -0.1490  0.4533 -0.3809
 7822WAT    EPW32010   2.812   3.231   5.325  0.1417  0.3727 -0.2549
 7823WAT      O32011   3.334   4.625   5.461 -0.0543 -0.0599  0.4065
 7823WAT     H132012   3.370   4.549   5.435  0.9282 -0.2172  2.0859
 7823WAT     H232013   3.401   4.681   5.459 -1.4106  1.9575 -4.5226
 7823WAT    EPW32014   3.349   4.622   5.457 -0.1095  0.2148 -0.0736
 7824WAT      O32015   5.498   3.079   5.411  0.0218  0.4148 -0.8246
 7824WAT     H132016   5.560   3.034   5.370  1.6700  1.5422  0.3063
 7824WAT     H232017   5.430   3.025   5.411  1.2098 -1.1504 -1.5090
 7824WAT    EPW32018   5.497   3.065   5.405  0.4408  0.3502 -0.7586
 7825WAT      O32019   2.783   4.335   4.651 -0.2741 -0.6626 -0.1567
 7825WAT     H132020   2.765   4.379   4.724 -0.2814 -1.2703  0.2129
 7825WAT     H232021   2.811   4.258   4.680 -2.0424 -1.5923 -0.8070
 7825WAT    EPW32022   2.784   4.331   4.666 -0.5364 -0.8897 -0.1982
 7826WAT      O32023   1.546   3.675   4.969  0.1638 -0.1713 -0.3144
 7826WAT     H132024   1.605   3.690   4.907 -0.3085  0.7838 -0.5493
 7826WAT     H232025   1.469   3.689   4.929 -0.2016 -0.7901  0.1440
 7826WAT    EPW32026   1.543   3.679   4.954  0.0401 -0.1216 -0.2814
 7827WAT      O32027   2.534   2.997   4.237  0.1727 -0.3434 -0.1223
 7827WAT     H132028   2.468   3.013   4.292  1.2939  0.0028  1.1825
 7827WAT     H232029   2.599   2.971   4.290  1.5870  0.8769 -1.1644
 7827WAT    EPW32030   2.534   2.996   4.253  0.5472 -0.1120 -0.0835
 7828WAT      O32031   2.314   3.568   3.993  0.1536  0.6503  0.2052
 7828WAT     H132032   2.383   3.516   3.983 -0.0254  0.5894 -0.8373
 7828WAT     H232033   2.248   3.520   3.962 -0.2884  0.8939  0.7432
 7828WAT    EPW32034   2.315   3.553   3.987  0.0619  0.6773  0.1307
 7829WAT      O32035   2.274   4.887   5.123 -0.1423 -0.3419 -0.4472
 7829WAT     H132036   2.226   4.815   5.116  0.5604 -0.7357 -1.3718
 7829WAT     H232037   2.277   4.919   5.042 -0.8522  1.0144  0.0277
 7829WAT    EPW32038   2.268   4.881   5.110 -0.1434 -0.1997 -0.5136
 7830WAT      O32039   2.424   3.096   4.486 -0.2389  0.1946 -0.1509
 7830WAT     H132040   2.342   3.102   4.455  0.1309 -0.2251 -1.2409
 7830WAT     H232041   2.442   3.177   4.512 -1.3534  0.1009  1.0588
 7830WAT    EPW32042   2.414   3.109   4.485 -0.3489  0.1188 -0.1332
 7831WAT      O32043   2.614   3.736   4.710  0.5396 -0.2532  0.0989
 7831WAT     H132044   2.625   3.719   4.625 -1.6690 -1.9526  0.0685
 7831WAT     H232045   2.561   3.805   4.711  1.5691  0.5745  0.1694
 7831WAT    EPW32046   2.608   3.744   4.697  0.3654 -0.3819  0.1048
 7832WAT      O32047   2.400   3.920   4.744  0.3073  0.6598  0.0012
 7832WAT     H132048   2.443   3.993   4.765  0.2337  0.4342  0.9961
 7832WAT     H232049   2.416   3.910   4.659  0.8614  1.4717  0.0013
 7832WAT    EPW32050   2.409   3.929   4.735  0.3783  0.7464  0.1482
 7833WAT      O32051   1.391   2.753   4.842 -0.1792 -0.0857 -0.7311
 7833WAT     H132052   1.394   2.691   4.903 -0.5615  0.2619 -0.3527
 7833WAT     H232053   1.443   2.815   4.873 -1.0173  0.4406 -0.3596
 7833WAT    EPW32054   1.400   2.753   4.855 -0.3595  0.0434 -0.6203
 7834WAT      O32055   2.818   4.011   5.232  0.1570  0.0471  0.4299
 7834WAT     H132056   2.773   4.065   5.284 -1.9179 -1.0753 -0.0714
 7834WAT     H232057   2.799   4.040   5.151 -3.1529 -2.6953 -0.0440
 7834WAT    EPW32058   2.808   4.023   5.227 -0.6385 -0.5238  0.2858
 7835WAT      O32059   2.416   3.350   6.252 -0.1227  0.3458  0.1848
 7835WAT     H132060   2.408   3.298   6.183  2.0361 -0.7244  0.6344
 7835WAT     H232061   2.391   3.428   6.223 -1.0962 -0.4567 -1.2242
 7835WAT    EPW32062   2.411   3.354   6.238  0.0524  0.0692  0.0431
 7836WAT      O32063   3.008   3.525   6.470 -0.2268  0.7507 -0.7588
 7836WAT     H132064   3.001   3.510   6.555 -1.8625  0.2161 -0.9519
 7836WAT     H232065   3.071   3.470   6.444 -0.2012  0.4282 -0.0225
 7836WAT    EPW32066   3.016   3.515   6.478 -0.4646  0.6241 -0.6786
 7837WAT      O32067   3.019   3.322   5.071 -0.1612  0.0523  0.6201
 7837WAT     H132068   2.970   3.391   5.050 -1.5697 -0.9819  0.3030
 7837WAT     H232069   3.080   3.355   5.123  0.8275  1.9670 -1.5845
 7837WAT    EPW32070   3.021   3.337   5.076 -0.2232  0.1824  0.2476
 7838WAT      O32071   3.212   3.584   5.684  0.0842 -0.4678  0.6678
 7838WAT     H132072   3.192   3.632   5.754 -2.1944 -0.3108 -0.0090
 7838WAT     H232073   3.156   3.518   5.687  1.7717 -1.9912  0.4245
 7838WAT    EPW32074   3.201   3.582   5.695 -0.0031 -0.6697  0.5319
 7839WAT      O32075   1.568   2.588   5.581 -0.1961  0.3137  0.6606
 7839WAT     H132076   1.542   2.668   5.557 -1.5926 -0.3557 -0.1780
 7839WAT     H232077   1.518   2.571   5.651  0.6582  0.4739  1.3163
 7839WAT    EPW32078   1.556   2.598   5.588 -0.2762  0.2385  0.6336
 7840WAT      O32079   2.027   4.412   5.478  0.1786 -0.3315 -0.1426
 7840WAT     H132080   1.960   4.371   5.441 -0.0271 -0.0000 -0.1458
 7840WAT     H232081   2.040   4.367   5.552 -1.0400  0.4877  0.6175
 7840WAT    EPW32082   2.019   4.399   5.484 -0.0318 -0.1615 -0.0308
 7841WAT      O32083   1.573   2.198   4.050  0.4821  0.0585  0.3536
 7841WAT     H132084   1.651   2.191   4.088  0.7276  1.3790  0.1425
 7841WAT     H232085   1.592   2.231   3.972 -0.2308 -0.3312  0.0120
 7841WAT    EPW32086   1.587   2.202   4.044  0.4130  0.1960  0.2719
 7842WAT      O32087   2.413   3.878   6.364  0.2579 -0.0375 -0.9538
 7842WAT     H132088   2.371   3.955   6.355 -0.3252 -0.0149  1.2150
 7842WAT     H232089   2.488   3.901   6.404 -0.4345 -0.6367  0.8049
 7842WAT    EPW32090   2.418   3.893   6.369  0.0695 -0.1227 -0.3736
 7843WAT      O32091   3.259   2.958   5.676  0.3477  0.3156 -0.2902
 7843WAT     H132092   3.274   2.959   5.590  1.9691 -1.5552 -0.1093
 7843WAT     H232093   3.286   2.879   5.700 -1.6022  0.1687  1.7116
 7843WAT    EPW32094   3.265   2.947   5.667  0.2991  0.0175  0.0322
 7844WAT      O32095   2.106   2.911   5.971  0.7909 -0.0091  0.2678
 7844WAT     H132096   2.033   2.878   6.007  0.6061  0.1042  0.0009
 7844WAT     H232097   2.168   2.890   6.028  1.1082 -2.9446 -0.9706
 7844WAT    EPW32098   2.104   2.903   5.985  0.8104 -0.4260  0.0455
 7845WAT      O32099   2.394   2.814   6.553  0.2855 -0.1379  0.1707
 7845WAT     H132100   2.317   2.831   6.590  0.8869  0.0768  1.3865
 7845WAT     H232101   2.396   2.867   6.483  0.2843  1.6135  1.4305
 7845WAT    EPW32102   2.383   2.824   6.548  0.3742  0.1525  0.5364
 7846WAT      O32103   2.178   5.002   6.251  0.7964  0.3539 -0.3911
 7846WAT     H132104   2.248   4.968   6.291  0.6233 -0.8461 -1.0534
 7846WAT     H232105   2.207   5.019   6.170  0.2808 -0.3458 -0.7318
 7846WAT    EPW32106   2.193   5.000   6.245  0.6946  0.0733 -0.5392
 7847WAT      O32107   2.397   2.101   3.952  0.7665  0.0197 -0.2252
 7847WAT     H132108   2.368   2.122   3.873  2.3149  0.0146 -0.8267
 7847WAT     H232109   2.426   2.177   3.984  1.7957 -0.2800 -0.4058
 7847WAT    EPW32110   2.397   2.116   3.945  1.1473 -0.0254 -0.3407
 7848WAT      O32111   3.526   1.670   6.238 -0.1941  0.2151 -0.1928
 7848WAT     H132112   3.603   1.704   6.261 -0.2900  0.8793 -0.8403
 7848WAT     H232113   3.485   1.735   6.198 -1.2832 -0.0047  0.5274
 7848WAT    EPW32114   3.532   1.685   6.235 -0.3692  0.2807 -0.1821
 7849WAT      O32115   2.292   4.481   4.137 -0.4747 -0.3633 -0.1421
 7849WAT     H132116   2.352   4.442   4.187  0.1913 -0.5147 -1.0243
 7849WAT     H232117   2.242   4.414   4.110  0.1877 -0.5186 -1.0180
 7849WAT    EPW32118   2.293   4.465   4.140 -0.2784 -0.4086 -0.4018
 7850WAT      O32119   2.903   2.956   6.779  0.7775  0.4130  0.5636
 7850WAT     H132120   2.848   2.956   6.847  1.1900  2.2324  0.9496
 7850WAT     H232121   2.978   2.927   6.812  0.3322 -1.1892  0.2474
 7850WAT    EPW32122   2.906   2.951   6.794  0.7726  0.4451  0.5740
 7851WAT      O32123   2.773   5.086   4.826 -0.7175 -0.0436  0.0758
 7851WAT     H132124   2.808   5.095   4.905 -2.1438 -1.5320  0.9230
 7851WAT     H232125   2.794   5.004   4.803 -0.0491  0.4690 -1.2615
 7851WAT    EPW32126   2.782   5.075   4.834 -0.8295 -0.1878  0.0034
 7852WAT      O32127   2.954   4.034   3.927 -0.3295 -0.0499  0.4046
 7852WAT     H132128   2.887   4.027   3.983  0.0382 -0.7040  0.7816
 7852WAT     H232129   2.940   3.968   3.871 -0.0643 -0.1228  0.4228
 7852WAT    EPW32130   2.942   4.023   3.927 -0.2360 -0.1573  0.4630
 7853WAT      O32131   3.268   3.286   5.662 -0.6628 -0.1517  0.0886
 7853WAT     H132132   3.183   3.306   5.660 -0.3408  2.2874  3.2715
 7853WAT     H232133   3.286   3.281   5.747  2.1793 -1.8784 -0.4702
 7853WAT    EPW32134   3.258   3.288   5.674 -0.1954 -0.0465  0.4763
 7854WAT      O32135   3.105   4.494   6.034  0.4243  0.0516 -0.6753
 7854WAT     H132136   3.056   4.563   6.013 -0.2446 -0.5019 -0.9432
 7854WAT     H232137   3.048   4.429   6.042  1.0123 -0.4160 -0.1265
 7854WAT    EPW32138   3.090   4.495   6.032  0.4123 -0.0992 -0.6338
 7855WAT      O32139   3.077   3.149   4.855 -0.5138 -0.2875  0.6783
 7855WAT     H132140   3.039   3.207   4.908  0.7349  0.0903  1.1980
 7855WAT     H232141   3.150   3.189   4.830  0.4707 -1.6865  1.1872
 7855WAT    EPW32142   3.082   3.164   4.859 -0.1839 -0.4383  0.8302
 7856WAT      O32143   1.509   7.068   5.850 -0.1196 -0.0445  0.2022
 7856WAT     H132144   1.507   7.089   5.766  2.4620  1.3478  0.3904
 7856WAT     H232145   1.513   6.981   5.850 -1.1379 -0.1100 -1.0494
 7856WAT    EPW32146   1.509   7.058   5.838  0.1114  0.1515  0.0451
 7857WAT      O32147   1.789   2.966   5.964 -0.3295 -0.3489  0.2111
 7857WAT     H132148   1.735   3.007   6.018  0.4930 -0.0813  0.8451
 7857WAT     H232149   1.817   2.897   6.010  0.5178 -0.0221  0.2088
 7857WAT    EPW32150   1.785   2.962   5.979 -0.0828 -0.2611  0.3045
 7858WAT      O32151   3.551   5.783   5.845  0.1469 -0.2745 -0.0541
 7858WAT     H132152   3.495   5.849   5.832  0.6586  0.0410 -0.6805
 7858WAT     H232153   3.568   5.787   5.931 -1.4152 -0.8901  0.3334
 7858WAT    EPW32154   3.545   5.793   5.856 -0.0083 -0.3188 -0.0894
 7859WAT      O32155   2.220   3.604   4.234 -0.1612 -0.1247  0.2061
 7859WAT     H132156   2.290   3.644   4.267  1.5047 -1.6577 -1.2405
 7859WAT     H232157   2.242   3.589   4.151 -3.0096  1.0272 -0.8997
 7859WAT    EPW32158   2.234   3.607   4.226 -0.3359 -0.1810 -0.1710
 7860WAT      O32159   2.775   3.483   7.142  0.0123 -0.3598 -1.0491
 7860WAT     H132160   2.735   3.420   7.097 -1.6390  0.7810 -1.2613
 7860WAT     H232161   2.780   3.549   7.086 -2.4400  1.2307  0.4261
 7860WAT    EPW32162   2.770   3.484   7.127 -0.5939  0.0436 -0.8626
 7861WAT      O32163   2.961   6.262   4.928 -0.0563  0.1472  0.3172
 7861WAT     H132164   2.908   6.251   4.997  0.6365 -0.2942  0.7854
 7861WAT     H232165   2.907   6.291   4.865 -0.6597  0.7722  1.1016
 7861WAT    EPW32166   2.945   6.265   4.929 -0.0431  0.1743  0.5022
 7862WAT      O32167   2.564   3.454   5.892 -0.2073  0.1978 -0.3308
 7862WAT     H132168   2.531   3.375   5.875 -0.6849  0.2731  0.2253
 7862WAT     H232169   2.503   3.508   5.860  0.3908  0.3522 -1.2416
 7862WAT    EPW32170   2.550   3.450   5.885 -0.1895  0.2317 -0.3832
 7863WAT      O32171   1.677   3.416   5.283  0.3377  0.2475 -0.2114
 7863WAT     H132172   1.709   3.487   5.244  1.3279 -0.4498 -0.7260
 7863WAT     H232173   1.593   3.436   5.297  0.2710  1.0166 -1.5384
 7863WAT    EPW32174   1.669   3.429   5.279  0.4742  0.2581 -0.4834
 7864WAT      O32175   2.779   4.493   5.349 -0.2998 -0.2637 -0.0531
 7864WAT     H132176   2.740   4.561   5.386  1.2590 -0.1888  1.5820
 7864WAT     H232177   2.844   4.529   5.303 -0.6772 -0.5265 -0.7972
 7864WAT    EPW32178   2.783   4.508   5.348 -0.1253 -0.2915  0.0785
 7865WAT      O32179   2.135   2.872   3.876  0.6001 -0.3514  0.2473
 7865WAT     H132180   2.134   2.788   3.898  0.1062  0.4398  4.0496
 7865WAT     H232181   2.219   2.890   3.863  0.5273 -1.9122 -3.8740
 7865WAT    EPW32182   2.147   2.863   3.878  0.5164 -0.4650  0.2002
 7866WAT      O32183   2.928   4.219   0.297 -0.2270 -0.4445 -0.6282
 7866WAT     H132184   2.933   4.139   0.263  0.2605 -1.6729  2.0197
 7866WAT     H232185   2.842   4.235   0.301 -0.3135  0.4047 -3.5511
 7866WAT    EPW32186   2.916   4.210   0.293 -0.1678 -0.5005 -0.6688
 7867WAT      O32187   3.210   3.070   0.451  0.0669 -0.0772 -0.2954
 7867WAT     H132188   3.222   3.048   0.535 -0.4598 -1.9181 -0.6576
 7867WAT     H232189   3.124   3.066   0.441 -0.0053  1.6692 -0.5678
 7867WAT    EPW32190   3.199   3.066   0.462 -0.0216 -0.0911 -0.3891
 7868WAT      O32191   1.943   4.357   1.633  0.2557  0.6724  0.1761
 7868WAT     H132192   1.856   4.362   1.638  0.2694  3.3551 -0.6880
 7868WAT     H232193   1.969   4.378   1.714  0.0934  1.4847  0.0253
 7868WAT    EPW32194   1.934   4.361   1.646  0.2337  1.1887  0.0262
 7869WAT      O32195   1.924   1.849   4.136  0.0561 -0.2431 -0.4004
 7869WAT     H132196   1.971   1.923   4.139 -0.4711  0.1131 -0.7500
 7869WAT     H232197   1.904   1.842   4.051 -0.8259 -0.1983 -0.2012
 7869WAT    EPW32198   1.928   1.859   4.124 -0.1521 -0.1839 -0.4226
 7870WAT      O32199   2.547   3.915   2.495  0.4949 -0.6754  0.1906
 7870WAT     H132200   2.610   3.880   2.546  2.5923  0.5265 -1.4089
 7870WAT     H232201   2.590   3.976   2.449 -2.2668  1.5821  0.3583
 7870WAT    EPW32202   2.563   3.919   2.496  0.3968 -0.1644 -0.0209
 7871WAT      O32203   2.629   5.101   3.653  0.4139  0.2425  0.0636
 7871WAT     H132204   2.714   5.113   3.638  0.6919 -0.8447  0.6787
 7871WAT     H232205   2.592   5.172   3.618  1.3793 -0.1599 -1.9470
 7871WAT    EPW32206   2.636   5.113   3.645  0.5976  0.0224 -0.1425
 7872WAT      O32207   2.693   4.109   3.237  0.1173  0.3250 -0.6766
 7872WAT     H132208   2.726   4.037   3.272  0.3295 -1.1683 -3.5897
 7872WAT     H232209   2.759   4.140   3.188 -0.8538  0.8092 -1.7328
 7872WAT    EPW32210   2.708   4.103   3.235  0.0052  0.1760 -1.2630
 7873WAT      O32211   2.478   3.341   3.284 -0.1790  0.1965 -0.0804
 7873WAT     H132212   2.450   3.266   3.320 -2.1788  0.3260 -1.2259
 7873WAT     H232213   2.532   3.373   3.344 -2.5224 -0.1202  2.4161
 7873WAT    EPW32214   2.482   3.334   3.298 -0.8206  0.1689  0.1192
 7874WAT      O32215   2.518   4.335   4.246 -0.8116  0.0461 -0.0147
 7874WAT     H132216   2.504   4.252   4.270  0.4371 -0.4036 -0.7364
 7874WAT     H232217   2.543   4.328   4.162  1.0632  0.9460  0.4095
 7874WAT    EPW32218   2.520   4.322   4.237 -0.3502  0.1126 -0.0586
 7875WAT      O32219   2.370   3.926   3.416  0.2469  0.9255 -0.7081
 7875WAT     H132220   2.449   3.894   3.435 -0.3571 -0.5147 -0.4791
 7875WAT     H232221   2.383   4.012   3.414  2.0973  0.6891 -1.8781
 7875WAT    EPW32222   2.384   3.934   3.418  0.4310  0.6778 -0.8471
 7876WAT      O32223   2.029   2.977   3.637  0.2438  0.2239 -1.1389
 7876WAT     H132224   2.058   2.965   3.718  1.8152 -0.6290 -1.7819
 7876WAT     H232225   1.947   3.004   3.648  0.3924  0.0299  0.7194
 7876WAT    EPW32226   2.022   2.979   3.650  0.4979  0.0693 -0.9594
 7877WAT      O32227   1.671   4.071   3.136  0.0584  0.2788  0.4911
 7877WAT     H132228   1.641   4.063   3.218  0.0299  0.2407  0.4771
 7877WAT     H232229   1.757   4.060   3.145  0.3614  2.4824  0.8423
 7877WAT    EPW32230   1.679   4.068   3.150  0.0990  0.5987  0.5409
 7878WAT      O32231   2.881   3.318   3.088 -0.2641  0.1621  0.5849
 7878WAT     H132232   2.802   3.282   3.094  0.3388 -1.4768 -0.6525
 7878WAT     H232233   2.912   3.288   3.012  1.9514 -0.0997  1.5070
 7878WAT    EPW32234   2.874   3.308   3.078  0.1523 -0.1187  0.5384
 7879WAT      O32235   3.244   3.499   2.213  0.2340 -0.0942  0.0644
 7879WAT     H132236   3.325   3.492   2.245  0.5528  0.1801 -0.6570
 7879WAT     H232237   3.194   3.498   2.284  1.0153  2.2063  0.7219
 7879WAT    EPW32238   3.249   3.498   2.228  0.3965  0.2862  0.0550
 7880WAT      O32239   2.569   2.955   3.193  0.1602  0.2125 -0.2970
 7880WAT     H132240   2.608   3.017   3.145 -1.1028 -0.1878 -1.9190
 7880WAT     H232241   2.588   2.978   3.275  2.1598  1.0798 -0.9538
 7880WAT    EPW32242   2.577   2.968   3.198  0.2690  0.2815 -0.6337
 7881WAT      O32243   2.615   3.789   4.085  0.2368 -0.4768 -0.1303
 7881WAT     H132244   2.630   3.765   4.002  0.9640  0.9403 -0.4489
 7881WAT     H232245   2.694   3.783   4.122  0.2106  0.2933  0.0615
 7881WAT    EPW32246   2.629   3.784   4.078  0.3404 -0.1537 -0.1490
 7882WAT      O32247   2.372   3.813   1.951 -0.1293 -0.1092 -0.0312
 7882WAT     H132248   2.347   3.890   1.918 -0.7531 -0.9634 -1.6600
 7882WAT     H232249   2.310   3.795   2.010 -0.1787  0.4637  0.0988
 7882WAT    EPW32250   2.359   3.822   1.955 -0.2287 -0.1508 -0.2526
 7883WAT      O32251   3.622   4.541   2.197  0.2484 -0.3486  0.2229
 7883WAT     H132252   3.652   4.459   2.183  1.9785  0.0299  1.3637
 7883WAT     H232253   3.615   4.573   2.117 -1.3226 -1.8759 -0.3117
 7883WAT    EPW32254   3.626   4.533   2.183  0.2719 -0.5183  0.3124
 7884WAT      O32255   1.488   4.375   2.887  0.2288 -0.3985  0.1473
 7884WAT     H132256   1.499   4.441   2.943 -0.3544 -0.7253  0.6654
 7884WAT     H232257   1.567   4.339   2.882  0.0752 -1.0018  1.5911
 7884WAT    EPW32258   1.501   4.380   2.895  0.1200 -0.5359  0.4372
 7885WAT      O32259   2.154   3.140   3.429 -0.2972  0.0984 -0.5590
 7885WAT     H132260   2.124   3.207   3.476  1.3805  1.1738 -0.9461
 7885WAT     H232261   2.121   3.070   3.470 -1.2056  1.1074  0.4913
 7885WAT    EPW32262   2.145   3.140   3.442 -0.1835  0.4063 -0.4610
 7886WAT      O32263   3.151   3.834   1.439  0.0214 -0.5680  0.0768
 7886WAT     H132264   3.135   3.806   1.520  3.5948 -0.3276  1.0081
 7886WAT     H232265   3.105   3.909   1.434 -0.9693 -1.0341  1.5087
 7886WAT    EPW32266   3.142   3.841   1.450  0.4029 -0.6013  0.4259
 7887WAT      O32267   2.978   4.281   3.383 -0.0707  0.4992 -0.1202
 7887WAT     H132268   3.059   4.307   3.366 -0.0260  0.6445  0.3034
 7887WAT     H232269   2.980   4.195   3.369 -0.1271  0.6648 -1.1886
 7887WAT    EPW32270   2.990   4.272   3.379 -0.0724  0.5451 -0.2154
 7888WAT      O32271   2.134   2.300   3.458  0.3310 -0.6016 -0.1755
 7888WAT     H132272   2.153   2.269   3.538  0.5156 -0.6659 -0.2447
 7888WAT     H232273   2.198   2.357   3.442 -0.6307  0.7063  0.4371
 7888WAT    EPW32274   2.146   2.303   3.468  0.2162 -0.4179 -0.0952
 7889WAT      O32275   3.814   5.454   4.382  0.1164 -0.2253 -0.0272
 7889WAT     H132276   3.852   5.517   4.334 -1.4342 -0.2012 -1.3094
 7889WAT     H232277   3.839   5.380   4.343  1.0025 -0.3594  0.7749
 7889WAT    EPW32278   3.823   5.453   4.369  0.0182 -0.2415 -0.0981
 7890WAT      O32279   3.042   4.986   3.363  0.1491  0.0100  0.0249
 7890WAT     H132280   3.104   5.039   3.333  1.1058 -1.0018  0.1721
 7890WAT     H232281   3.085   4.914   3.386 -1.2488 -1.2729 -1.1794
 7890WAT    EPW32282   3.058   4.983   3.362  0.0839 -0.3289 -0.1313
 7891WAT      O32283   3.314   3.377   3.259  0.0307 -0.0164  0.7207
 7891WAT     H132284   3.366   3.428   3.307  0.9436  0.9009 -1.1117
 7891WAT     H232285   3.361   3.362   3.187 -1.2819 -1.2494  0.0701
 7891WAT    EPW32286   3.328   3.382   3.255 -0.0283 -0.0630  0.3539
 7892WAT      O32287   3.096   4.748   2.180  0.1753 -0.0435  1.1413
 7892WAT     H132288   3.170   4.774   2.143 -0.7423  0.8187 -0.1533
 7892WAT     H232289   3.086   4.803   2.247  1.5709 -1.2883  2.4744
 7892WAT    EPW32290   3.106   4.760   2.185  0.2459 -0.1001  1.1470
 7893WAT      O32291   2.639   3.278   4.138  0.1321  0.4904 -0.4886
 7893WAT     H132292   2.632   3.322   4.213  0.6700 -2.0212  1.1614
 7893WAT     H232293   2.620   3.196   4.161  2.7230 -0.8277 -2.5259
 7893WAT    EPW32294   2.635   3.273   4.153  0.5943 -0.0753 -0.5458
 7894WAT      O32295   3.284   4.120   3.710  0.1114 -0.1676  0.2539
 7894WAT     H132296   3.213   4.079   3.678  0.6413 -0.8909 -0.0209
 7894WAT     H232297   3.328   4.145   3.639 -0.4340  1.3517  0.4060
 7894WAT    EPW32298   3.280   4.118   3.695  0.1091 -0.0500  0.2358
 7895WAT      O32299   3.290   4.546   2.597 -0.1132 -0.4946  0.8424
 7895WAT     H132300   3.259   4.465   2.609 -1.3167 -0.1024  0.5202
 7895WAT     H232301   3.342   4.538   2.528  0.0316 -1.0595  1.0124
 7895WAT    EPW32302   3.293   4.533   2.588 -0.2696 -0.5201  0.8199
 7896WAT      O32303   3.573   2.375   2.608  0.0033  0.3660 -0.2234
 7896WAT     H132304   3.570   2.302   2.561  0.2307 -0.4198  0.9243
 7896WAT     H232305   3.587   2.346   2.689 -1.5410  1.5870  0.5241
 7896WAT    EPW32306   3.575   2.360   2.613 -0.1912  0.4303  0.0565
 7897WAT      O32307   2.047   1.869   3.362  0.5156  0.2457 -0.3678
 7897WAT     H132308   2.076   1.948   3.339  0.5712 -0.2467 -2.1832
 7897WAT     H232309   1.963   1.869   3.336  0.3341 -0.0859  0.1881
 7897WAT    EPW32310   2.039   1.881   3.355  0.4970  0.1240 -0.5538
 7898WAT      O32311   2.603   4.136   4.418 -0.4314 -0.2903 -0.3052
 7898WAT     H132312   2.557   4.064   4.432 -0.9935 -0.3720 -2.2489
 7898WAT     H232313   2.683   4.115   4.445 -0.5353 -1.7491 -1.0359
 7898WAT    EPW32314   2.608   4.123   4.424 -0.5298 -0.5179 -0.7002
 7899WAT      O32315   1.822   3.349   2.754 -0.3050  0.3827 -0.7890
 7899WAT     H132316   1.820   3.428   2.791  0.6306 -0.3998  1.0848
 7899WAT     H232317   1.778   3.299   2.810 -1.5426 -0.3347 -2.3206
 7899WAT    EPW32318   1.815   3.353   2.768 -0.3496  0.1611 -0.7384
 7900WAT      O32319   4.925   4.710   2.091  0.0492  0.1135 -0.9719
 7900WAT     H132320   4.902   4.794   2.083 -0.9371 -0.2183 -1.9609
 7900WAT     H232321   5.001   4.705   2.048 -1.3110 -0.0247 -3.5988
 7900WAT    EPW32322   4.932   4.722   2.083 -0.2974  0.0440 -1.5061
 7901WAT      O32323   2.142   3.315   1.445 -0.4414  0.4056 -0.0609
 7901WAT     H132324   2.183   3.302   1.370  0.2972 -0.0996  0.4143
 7901WAT     H232325   2.080   3.373   1.425 -1.6738 -1.3480 -1.5253
 7901WAT    EPW32326   2.139   3.322   1.431 -0.5144  0.0720 -0.2070
 7902WAT      O32327   2.585   3.412   2.146  0.3923  0.0634  0.1552
 7902WAT     H132328   2.552   3.345   2.191 -1.7672  2.3786  2.3105
 7902WAT     H232329   2.670   3.407   2.162  0.1920 -1.6733  0.9137
 7902WAT    EPW32330   2.593   3.401   2.155  0.0437  0.1489  0.5857
 7903WAT      O32331   2.409   3.963   3.852 -0.7575  0.2475  0.5192
 7903WAT     H132332   2.489   3.954   3.818 -1.4466 -1.1663 -0.8501
 7903WAT     H232333   2.390   4.047   3.837 -0.1999  0.1745 -0.7353
 7903WAT    EPW32334   2.418   3.975   3.845 -0.7769  0.0279  0.1316
 7904WAT      O32335   2.060   3.340   2.313 -0.2438  0.3011 -0.3636
 7904WAT     H132336   1.979   3.354   2.284 -0.3097 -0.8518 -0.7702
 7904WAT     H232337   2.048   3.305   2.392 -0.1075  1.2081  0.0712
 7904WAT    EPW32338   2.046   3.337   2.320 -0.2334  0.2648 -0.3594
 7905WAT      O32339   2.721   4.060   4.129  0.1196  0.2737  0.3348
 7905WAT     H132340   2.649   4.018   4.102  0.4307  0.1563 -0.3214
 7905WAT     H232341   2.758   4.003   4.184 -0.8196  0.7471  1.5022
 7905WAT    EPW32342   2.716   4.045   4.133  0.0268  0.3263  0.4103
 7906WAT      O32343   2.264   4.760   4.481 -0.0268  0.0537 -0.7395
 7906WAT     H132344   2.224   4.785   4.554 -2.5655  0.9832 -2.3331
 7906WAT     H232345   2.208   4.704   4.445  0.2150  1.1149 -2.9146
 7906WAT    EPW32346   2.250   4.755   4.487 -0.3661  0.3478 -1.2962
 7907WAT      O32347   1.236   2.344   4.615 -0.1022  0.3716  0.3620
 7907WAT     H132348   1.175   2.403   4.634 -0.9198 -0.3641  0.0714
 7907WAT     H232349   1.263   2.367   4.535 -0.0157  0.6763  0.4775
 7907WAT    EPW32350   1.231   2.357   4.606 -0.2102  0.3079  0.3362
 7908WAT      O32351   2.399   3.578   1.298  0.4538  0.9228  0.4116
 7908WAT     H132352   2.462   3.634   1.322  1.5179 -0.6053  1.3489
 7908WAT     H232353   2.418   3.505   1.342 -1.6879  0.2225  0.3049
 7908WAT    EPW32354   2.411   3.575   1.308  0.2946  0.5936  0.5343
 7909WAT      O32355   2.339   5.317   2.362 -0.6908 -0.1508 -0.1498
 7909WAT     H132356   2.382   5.370   2.415 -1.5815  0.6356 -0.1817
 7909WAT     H232357   2.368   5.237   2.384  1.5338  0.3841 -0.9008
 7909WAT    EPW32358   2.349   5.313   2.373 -0.4937  0.0444 -0.2655
 7910WAT      O32359   2.671   2.551   3.255 -0.7270  0.4090  0.0079
 7910WAT     H132360   2.744   2.507   3.239 -1.6997 -1.0202 -0.7183
 7910WAT     H232361   2.620   2.493   3.296 -1.2728  1.5300  0.9796
 7910WAT    EPW32362   2.674   2.536   3.259 -0.9513  0.3635  0.0442
 7911WAT      O32363   4.192   4.110   3.625 -0.1183  0.0608 -0.3974
 7911WAT     H132364   4.125   4.064   3.658 -0.2075  0.4648 -0.0029
 7911WAT     H232365   4.260   4.083   3.674 -0.4290  1.4073  0.8485
 7911WAT    EPW32366   4.193   4.099   3.637 -0.1774  0.3194 -0.1551
 7912WAT      O32367   3.392   3.916   2.338  0.2468 -0.5981  0.4283
 7912WAT     H132368   3.371   3.876   2.264  1.9647  0.7567 -0.8826
 7912WAT     H232369   3.319   3.911   2.386 -2.0887  1.2193 -2.5609
 7912WAT    EPW32370   3.378   3.910   2.334  0.1555 -0.1295 -0.2070
 7913WAT      O32371   2.493   3.672   2.988 -0.0487  0.0658 -0.6319
 7913WAT     H132372   2.515   3.637   2.911 -0.0521 -0.4943 -0.3789
 7913WAT     H232373   2.567   3.711   3.015  0.1184 -0.2489 -0.6375
 7913WAT    EPW32374   2.507   3.673   2.980 -0.0245 -0.0635 -0.5954
 7914WAT      O32375   2.870   4.179   2.793 -0.1734 -0.0844  0.4147
 7914WAT     H132376   2.946   4.192   2.834 -0.8815  2.0669  1.2013
 7914WAT     H232377   2.838   4.108   2.832  1.1436 -0.6636  0.5047
 7914WAT    EPW32378   2.877   4.170   2.805 -0.0834  0.1478  0.5442
 7915WAT      O32379   2.353   4.105   2.118 -0.0287 -0.3712  0.0748
 7915WAT     H132380   2.281   4.083   2.162  0.7737 -0.3364  1.4596
 7915WAT     H232381   2.414   4.052   2.151  0.6826 -0.0809 -0.7414
 7915WAT    EPW32382   2.351   4.093   2.129  0.1949 -0.3232  0.1588
 7916WAT      O32383   1.793   3.858   3.500 -0.0243  0.2417 -0.2850
 7916WAT     H132384   1.818   3.941   3.486  0.0416  0.2900  0.0830
 7916WAT     H232385   1.713   3.855   3.467  0.1786  0.3010 -0.7884
 7916WAT    EPW32386   1.785   3.870   3.493  0.0154  0.2576 -0.3050
 7917WAT      O32387   2.663   3.980   3.718  0.3040 -0.3296 -0.0043
 7917WAT     H132388   2.688   4.063   3.711 -0.7144  0.1190  1.2463
 7917WAT     H232389   2.738   3.937   3.731  0.9674  0.2056 -1.7564
 7917WAT    EPW32390   2.678   3.986   3.719  0.2516 -0.1843 -0.0783
 7918WAT      O32391   2.103   4.060   2.260  0.3819  0.5299 -0.4388
 7918WAT     H132392   2.114   3.997   2.320 -0.4925  0.6996 -0.0735
 7918WAT     H232393   2.110   4.134   2.306  0.8508  0.6951 -0.7661
 7918WAT    EPW32394   2.105   4.061   2.276  0.3220  0.5794 -0.4332
 7919WAT      O32395   2.192   3.587   2.315 -0.1926 -0.0116  0.2247
 7919WAT     H132396   2.163   3.505   2.323  0.1062 -0.2535 -1.0679
 7919WAT     H232397   2.278   3.579   2.324 -0.2340  0.2891  0.9486
 7919WAT    EPW32398   2.201   3.574   2.318 -0.1546 -0.0029  0.1407
 7920WAT      O32399   2.856   2.987   2.991  0.2376 -0.0546 -0.0709
 7920WAT     H132400   2.886   3.047   2.935  0.4225  0.4493  0.5507
 7920WAT     H232401   2.836   2.919   2.940 -0.0149  0.5458 -0.8016
 7920WAT    EPW32402   2.857   2.986   2.975  0.2276  0.1086 -0.0870
 7921WAT      O32403   3.878   4.608   3.154 -0.6564 -0.3689  0.1663
 7921WAT     H132404   3.861   4.546   3.095 -0.9566 -0.1783  0.0498
 7921WAT     H232405   3.956   4.639   3.129 -1.2656  0.4561 -0.7910
 7921WAT    EPW32406   3.887   4.603   3.142 -0.7907 -0.2189  0.0077
 7922WAT      O32407   2.441   5.149   3.290 -0.4566 -0.5535  0.0315
 7922WAT     H132408   2.454   5.212   3.350  0.6542  2.4019 -2.9606
 7922WAT     H232409   2.522   5.128   3.265 -0.8082 -3.3689  0.9704
 7922WAT    EPW32410   2.455   5.155   3.295 -0.3444 -0.5328 -0.2718
 7923WAT      O32411   2.783   2.445   4.912  0.2191 -0.8128 -0.1562
 7923WAT     H132412   2.742   2.521   4.928  2.6622  0.1435  2.5110
 7923WAT     H232413   2.839   2.465   4.848 -0.0016 -0.7110 -0.3171
 7923WAT    EPW32414   2.785   2.460   4.905  0.5474 -0.6565  0.2140
 7924WAT      O32415   1.541   2.443   4.406  0.0944 -0.0762  0.1691
 7924WAT     H132416   1.524   2.516   4.452 -1.1319 -0.9781  1.2254
 7924WAT     H232417   1.468   2.429   4.361  0.8441  0.1034 -1.1745
 7924WAT    EPW32418   1.528   2.452   4.406  0.0240 -0.1829  0.1266
 7925WAT      O32419   2.637   3.209   3.097  0.2247 -0.2512  0.2881
 7925WAT     H132420   2.594   3.215   3.021  1.6336  0.4751 -0.4824
 7925WAT     H232421   2.591   3.260   3.150  1.8674  3.3140 -1.3886
 7925WAT    EPW32422   2.624   3.217   3.093  0.6755  0.3827 -0.0734
 7926WAT      O32423   2.784   3.929   2.866 -0.6602 -0.5492 -0.3649
 7926WAT     H132424   2.789   3.858   2.816  3.4047 -1.0017  0.3746
 7926WAT     H232425   2.783   3.897   2.947  1.6088  0.1352 -0.0084
 7926WAT    EPW32426   2.785   3.914   2.871  0.2755 -0.5150 -0.2030
 7927WAT      O32427   2.375   5.733   1.999 -0.2266  0.1565 -0.0422
 7927WAT     H132428   2.355   5.655   1.966 -3.2529  0.6234  0.3618
 7927WAT     H232429   2.351   5.789   1.936  0.9496  0.8091  0.0661
 7927WAT    EPW32430   2.368   5.730   1.985 -0.4999  0.3219  0.0335
 7928WAT      O32431   3.621   3.588   2.472  0.1078 -0.1315 -0.4614
 7928WAT     H132432   3.668   3.529   2.515 -0.3426 -0.9745 -1.1083
 7928WAT     H232433   3.559   3.541   2.432  0.2929  0.6498 -1.7384
 7928WAT    EPW32434   3.619   3.573   2.472  0.0687 -0.1406 -0.7456
 7929WAT      O32435   1.985   5.345   3.101  0.4528 -0.2812 -0.0779
 7929WAT     H132436   1.962   5.387   3.174  0.1930 -2.4705  1.2103
 7929WAT     H232437   2.041   5.284   3.130 -0.2895 -1.7499 -1.5567
 7929WAT    EPW32438   1.990   5.342   3.116  0.3048 -0.8216 -0.1061
 7930WAT      O32439   2.605   4.321   3.991 -0.4665  0.5205 -0.0564
 7930WAT     H132440   2.663   4.292   3.933 -0.3534 -1.8563  1.1262
 7930WAT     H232441   2.628   4.404   4.003 -0.0556  0.9252 -2.8039
 7930WAT    EPW32442   2.617   4.329   3.984 -0.3891  0.2292 -0.2876
 7931WAT      O32443   3.437   3.677   2.654 -0.5603  0.1332 -0.1178
 7931WAT     H132444   3.484   3.648   2.587 -0.2360 -1.2030  0.6535
 7931WAT     H232445   3.491   3.670   2.722 -1.5674 -0.5983  0.6413
 7931WAT    EPW32446   3.452   3.671   2.654 -0.6612 -0.1722  0.1083
 7932WAT      O32447   3.019   3.488   0.560  0.8215  0.3540 -0.1681
 7932WAT     H132448   3.100   3.516   0.576  1.2226 -0.5132 -0.6088
 7932WAT     H232449   3.025   3.402   0.571 -0.5724  0.4726  1.9890
 7932WAT    EPW32450   3.032   3.479   0.564  0.6749  0.2434  0.0854
 7933WAT      O32451   2.831   3.713   2.215  0.0823 -0.1577  0.1796
 7933WAT     H132452   2.777   3.731   2.149  1.0699  2.4549 -0.0267
 7933WAT     H232453   2.830   3.626   2.219 -2.6277 -0.2687 -1.0282
 7933WAT    EPW32454   2.823   3.703   2.206 -0.1721  0.2119 -0.0293
 7934WAT      O32455   2.877   6.283   3.326 -0.7747  0.1088 -0.6412
 7934WAT     H132456   2.885   6.281   3.240 -0.5979 -2.1809 -0.6194
 7934WAT     H232457   2.958   6.267   3.355 -0.6297  1.7443  0.0210
 7934WAT    EPW32458   2.891   6.281   3.318 -0.7272  0.0122 -0.5402
 7935WAT      O32459   3.123   2.633   2.763 -0.3007 -0.0137  0.1767
 7935WAT     H132460   3.073   2.672   2.824  0.8487  2.2335 -0.2258
 7935WAT     H232461   3.153   2.562   2.804 -2.5300 -0.6128  0.9325
 7935WAT    EPW32462   3.120   2.628   2.778 -0.4603  0.2298  0.2289
 7936WAT      O32463   2.833   2.721   2.895 -0.2098  0.9274  0.0552
 7936WAT     H132464   2.809   2.715   2.811 -1.2631 -2.5075  0.4436
 7936WAT     H232465   2.759   2.741   2.936 -0.1211  0.7166  0.3208
 7936WAT    EPW32466   2.819   2.723   2.889 -0.3523  0.3888  0.1518
 7937WAT      O32467   3.428   3.366   3.007 -0.6139  0.2128  0.0537
 7937WAT     H132468   3.395   3.409   2.939 -1.1864 -0.1512  0.0923
 7937WAT     H232469   3.499   3.327   2.974  0.2347  1.6199  0.1568
 7937WAT    EPW32470   3.433   3.366   2.992 -0.5731  0.3669  0.0746
 7938WAT      O32471   3.144   1.910   2.251  0.9050 -0.0604 -0.3630
 7938WAT     H132472   3.172   1.985   2.286 -1.1231  1.4524 -1.7113
 7938WAT     H232473   3.162   1.851   2.312  2.3998  1.5408  0.8569
 7938WAT    EPW32474   3.150   1.913   2.265  0.8263  0.3996 -0.3820
 7939WAT      O32475   1.154   4.128   2.348  0.0572 -0.1792  0.5066
 7939WAT     H132476   1.190   4.201   2.380 -1.2706  0.5073  0.4903
 7939WAT     H232477   1.079   4.121   2.392 -1.5774  0.4761 -1.9797
 7939WAT    EPW32478   1.149   4.137   2.359 -0.3804  0.0190  0.1369
 7940WAT      O32479   2.958   2.953   2.109 -0.2234 -0.1950  0.7961
 7940WAT     H132480   3.043   2.966   2.119 -0.1463 -0.3595  0.3645
 7940WAT     H232481   2.941   2.884   2.160  0.1491 -0.9672 -0.1011
 7940WAT    EPW32482   2.968   2.945   2.118 -0.1570 -0.3334  0.5998
 7941WAT      O32483   2.624   3.387   3.513  0.4718  0.3063  0.4694
 7941WAT     H132484   2.579   3.428   3.575 -0.1020 -0.0371  0.2867
 7941WAT     H232485   2.691   3.351   3.556 -1.6262 -2.7165  1.5407
 7941WAT    EPW32486   2.627   3.387   3.528  0.0771 -0.1910  0.6006
 7942WAT      O32487   2.596   4.850   3.539 -0.0538  0.4789  0.4066
 7942WAT     H132488   2.606   4.924   3.584 -0.2961 -0.4134  2.0194
 7942WAT     H232489   2.559   4.876   3.465  1.6966  2.1934  0.0579
 7942WAT    EPW32490   2.592   4.864   3.535  0.1690  0.6004  0.5933
 7943WAT      O32491   1.062   3.650   2.385 -0.5528 -0.0452  0.2654
 7943WAT     H132492   1.119   3.586   2.403 -0.7585  0.0251  1.1746
 7943WAT     H232493   0.990   3.626   2.428 -0.5829  0.8717  0.7396
 7943WAT    EPW32494   1.060   3.637   2.394 -0.5876  0.1006  0.4697
 7944WAT      O32495   3.630   4.346   7.538 -0.2634  0.3843 -0.4093
 7944WAT     H132496   3.597   4.426   7.553  1.2110  1.2018 -1.2967
 7944WAT     H232497   3.676   4.330   7.611 -1.7234 -0.3279  0.4002
 7944WAT    EPW32498   3.632   4.356   7.551 -0.2613  0.3999 -0.4208
 7945WAT      O32499   2.878   3.593   3.033  0.1571  0.0021 -0.7708
 7945WAT     H132500   2.952   3.590   3.079 -1.2993 -0.3157  1.7188
 7945WAT     H232501   2.838   3.518   3.052 -1.2636  0.6053 -1.2119
 7945WAT    EPW32502   2.883   3.581   3.043 -0.2679  0.0442 -0.4682
 7946WAT      O32503   3.477   2.618   2.474 -0.1976 -0.0747  0.5639
 7946WAT     H132504   3.473   2.554   2.532  1.4232  0.2166  1.0645
 7946WAT     H232505   3.467   2.691   2.521  4.4501  0.4167  1.2616
 7946WAT    EPW32506   3.475   2.619   2.489  0.7284  0.0409  0.7409
 7947WAT      O32507   1.574   2.869   4.166 -0.3083  0.4437 -0.4686
 7947WAT     H132508   1.633   2.874   4.229 -1.2841 -0.7256  0.6112
 7947WAT     H232509   1.547   2.951   4.155  0.7778  0.8339 -0.2616
 7947WAT    EPW32510   1.579   2.882   4.173 -0.2920  0.3286 -0.2785
 7948WAT      O32511   5.125   4.117   0.054  0.0816 -0.2009  0.3150
 7948WAT     H132512   5.153   4.038   0.074  0.1679 -0.4738 -0.8461
 7948WAT     H232513   5.048   4.123   0.096 -0.1411 -1.0729  0.0399
 7948WAT    EPW32514   5.118   4.106   0.063  0.0615 -0.3700  0.1028
 7949WAT      O32515   3.767   5.402   2.471 -0.1816  0.2656  0.2280
 7949WAT     H132516   3.734   5.472   2.511  1.6763  0.5924  1.2947
 7949WAT     H232517   3.853   5.416   2.472  0.1677 -1.5442 -0.4768
 7949WAT    EPW32518   3.775   5.414   2.477  0.1444  0.0465  0.2815
 7950WAT      O32519   3.028   4.008   3.628 -0.2952  0.5618 -0.9122
 7950WAT     H132520   3.020   3.999   3.542  0.2090 -1.3453 -0.8158
 7950WAT     H232521   2.975   3.946   3.660  0.1138  0.7158  0.1187
 7950WAT    EPW32522   3.019   3.997   3.620 -0.1603  0.3028 -0.7457
 7951WAT      O32523   2.850   3.433   2.281  0.0887 -0.5802  0.0070
 7951WAT     H132524   2.936   3.433   2.297 -0.1418 -0.0611  1.4981
 7951WAT     H232525   2.818   3.384   2.346 -0.7651 -0.4646 -0.3194
 7951WAT    EPW32526   2.858   3.426   2.293 -0.0715 -0.4865  0.1790
 7952WAT      O32527   2.891   2.958   3.288  0.3864 -0.2026  0.1060
 7952WAT     H132528   2.883   2.972   3.202 -0.2331 -0.3464  0.1331
 7952WAT     H232529   2.920   3.034   3.319  0.2926 -0.0448 -0.1914
 7952WAT    EPW32530   2.894   2.971   3.280  0.2811 -0.2005  0.0661
 7953WAT      O32531   2.881   4.618   3.429  0.1356  0.5896 -0.1892
 7953WAT     H132532   2.846   4.540   3.446  2.1554 -0.1460  0.9811
 7953WAT     H232533   2.875   4.661   3.504 -0.2070  1.2735 -0.5940
 7953WAT    EPW32534   2.875   4.613   3.442  0.3834  0.5820 -0.0761
 7954WAT      O32535   3.683   4.275   3.800 -0.4798 -0.5459  0.2593
 7954WAT     H132536   3.672   4.354   3.835 -1.5343  0.2306 -1.6869
 7954WAT     H232537   3.675   4.221   3.869 -0.0708  0.9814  1.5706
 7954WAT    EPW32538   3.680   4.278   3.816 -0.5751 -0.2056  0.1655
 7955WAT      O32539   2.230   3.678   3.379  0.0333  0.1756 -0.7985
 7955WAT     H132540   2.254   3.630   3.310  0.8981  1.2242 -1.2522
 7955WAT     H232541   2.276   3.751   3.370 -0.0533  0.4488  0.7534
 7955WAT    EPW32542   2.240   3.681   3.367  0.1482  0.3709 -0.6363
 7956WAT      O32543   1.869   3.612   2.890 -0.1144  0.2690  0.1946
 7956WAT     H132544   1.799   3.584   2.933 -0.0848 -3.6958 -1.8775
 7956WAT     H232545   1.935   3.594   2.945 -0.4039 -0.5524  0.2959
 7956WAT    EPW32546   1.869   3.605   2.905 -0.1528 -0.4380 -0.0965
 7957WAT      O32547   2.807   4.969   4.229 -0.9052  0.0050 -0.1593
 7957WAT     H132548   2.841   5.047   4.209 -0.4476  0.8860  3.3091
 7957WAT     H232549   2.721   4.983   4.227 -0.8300  0.5747  0.2536
 7957WAT    EPW32550   2.800   4.983   4.226 -0.8265  0.2193  0.4140
 7958WAT      O32551   1.716   4.237   2.915  0.0993 -0.2169 -0.3333
 7958WAT     H132552   1.795   4.217   2.882  0.1811  0.0291 -0.2909
 7958WAT     H232553   1.706   4.179   2.980 -0.0614 -0.6984 -0.7904
 7958WAT    EPW32554   1.726   4.226   2.920  0.0877 -0.2517 -0.3946
 7959WAT      O32555   0.857   4.308   4.821  0.4097  0.3968 -0.1367
 7959WAT     H132556   0.923   4.258   4.849  1.2405  0.5653 -1.6672
 7959WAT     H232557   0.795   4.251   4.800  0.7587  0.1042 -0.3865
 7959WAT    EPW32558   0.857   4.293   4.822  0.5840  0.3785 -0.3997
 7960WAT      O32559   3.047   5.020   3.011 -0.5174  0.1740  0.3291
 7960WAT     H132560   3.000   4.963   3.056  0.9392 -1.3268  0.0229
 7960WAT     H232561   3.044   4.990   2.929  0.1271  0.6150  0.1331
 7960WAT    EPW32562   3.040   5.007   3.005 -0.2070  0.0174  0.2549
 7961WAT      O32563   1.431   3.509   2.781 -0.2651 -0.2756  0.4670
 7961WAT     H132564   1.386   3.506   2.856 -1.8320 -0.1360 -0.4048
 7961WAT     H232565   1.427   3.594   2.758  0.6109 -0.2307  0.4505
 7961WAT    EPW32566   1.424   3.521   2.789 -0.3671 -0.2484  0.3358
 7962WAT      O32567   3.648   4.583   3.488  0.0398  0.1233  0.2759
 7962WAT     H132568   3.589   4.552   3.545 -0.5951 -0.6975 -0.8027
 7962WAT     H232569   3.711   4.615   3.540 -0.1622 -1.2605  1.4471
 7962WAT    EPW32570   3.649   4.583   3.504 -0.0838 -0.2024  0.2896
 7963WAT      O32571   2.029   6.492   4.230  0.0230  0.1119 -0.3180
 7963WAT     H132572   1.986   6.447   4.291  0.5420 -0.2225 -0.1923
 7963WAT     H232573   2.085   6.434   4.197 -1.5115 -0.2744 -2.4530
 7963WAT    EPW32574   2.031   6.477   4.234 -0.1270  0.0054 -0.6148
 7964WAT      O32575   3.671   4.519   3.928  0.6415  0.4434  0.3467
 7964WAT     H132576   3.697   4.601   3.912  1.6228  0.3762  1.5056
 7964WAT     H232577   3.665   4.516   4.015 -1.4182 -0.1266  0.2324
 7964WAT    EPW32578   3.674   4.531   3.938  0.4822  0.3493  0.5010
 7965WAT      O32579   2.555   3.198   5.007 -0.6242 -0.4038 -0.8582
 7965WAT     H132580   2.625   3.177   4.960  0.4920  0.9332  0.1028
 7965WAT     H232581   2.548   3.134   5.066  1.1050  0.4338  0.3517
 7965WAT    EPW32582   2.564   3.186   5.009 -0.2039 -0.0826 -0.5375
 7966WAT      O32583   1.943   3.572   3.366 -0.0902  0.1855 -0.1674
 7966WAT     H132584   1.943   3.645   3.414 -1.7791  0.0112  0.1811
 7966WAT     H232585   1.987   3.595   3.294  2.3412  0.4929  1.3383
 7966WAT    EPW32586   1.949   3.586   3.362  0.0195  0.2051  0.1065
 7967WAT      O32587   2.827   3.304   3.692 -0.0934  0.1110 -0.5401
 7967WAT     H132588   2.888   3.250   3.660  2.0429  0.5855  2.3697
 7967WAT     H232589   2.870   3.377   3.709 -0.8071 -0.1265  3.3847
 7967WAT    EPW32590   2.843   3.307   3.690  0.1168  0.1460  0.4695
 7968WAT      O32591   3.897   4.585   2.545  0.5206 -0.0966  0.4090
 7968WAT     H132592   3.928   4.527   2.489  2.0411  0.9356  0.1065
 7968WAT     H232593   3.860   4.537   2.607  1.5897 -1.3554  0.0960
 7968WAT    EPW32594   3.896   4.570   2.546  0.9031 -0.1301  0.3181
 7969WAT      O32595   3.012   5.545   3.757 -0.3017  0.3661  0.3607
 7969WAT     H132596   3.027   5.469   3.718 -0.7187 -0.1260  1.1416
 7969WAT     H232597   3.091   5.569   3.786 -0.3292 -0.2862  1.0123
 7969WAT    EPW32598   3.026   5.537   3.756 -0.3673  0.1970  0.5723
 7970WAT      O32599   2.601   4.042   0.888  0.0177  0.3961 -0.3353
 7970WAT     H132600   2.554   4.102   0.930  0.8152  1.1074 -0.4501
 7970WAT     H232601   2.671   4.030   0.939 -0.0590 -0.3333 -0.3835
 7970WAT    EPW32602   2.604   4.049   0.901  0.1242  0.3935 -0.3594
 7971WAT      O32603   1.859   4.180   2.212 -0.3372  0.5712 -0.4708
 7971WAT     H132604   1.819   4.141   2.279 -0.6377  2.3951  0.4958
 7971WAT     H232605   1.930   4.131   2.199 -2.1467 -2.0347 -1.4170
 7971WAT    EPW32606   1.864   4.167   2.220 -0.6489  0.4556 -0.4678
 7972WAT      O32607   1.320   4.153   2.642 -0.5740 -0.0267  0.0976
 7972WAT     H132608   1.322   4.118   2.722 -1.8712 -0.5662 -0.0794
 7972WAT     H232609   1.331   4.084   2.590  1.1831  0.4338 -0.2120
 7972WAT    EPW32610   1.322   4.138   2.646 -0.5060 -0.0384  0.0257
 7973WAT      O32611   2.255   3.416   2.044  0.1226 -0.0473 -0.0295
 7973WAT     H132612   2.183   3.367   2.037  0.3342 -0.1203 -2.5662
 7973WAT     H232613   2.248   3.451   2.124 -1.4692 -1.9419  0.7555
 7973WAT    EPW32614   2.243   3.414   2.055 -0.0813 -0.3380 -0.2883
 7974WAT      O32615   1.743   2.407   3.606  0.5365 -0.2338 -0.0530
 7974WAT     H132616   1.771   2.389   3.525  2.3633  1.2713  0.1623
 7974WAT     H232617   1.707   2.486   3.598  1.2347  0.1752  0.6742
 7974WAT    EPW32618   1.742   2.416   3.593  0.9095  0.0490  0.0863
 7975WAT      O32619   2.809   3.378   4.756 -0.1884  0.3001 -0.5381
 7975WAT     H132620   2.781   3.295   4.754  0.2086  0.1781 -0.9995
 7975WAT     H232621   2.804   3.404   4.673 -0.0827  0.6704 -0.4322
 7975WAT    EPW32622   2.804   3.370   4.744 -0.1141  0.3368 -0.5906
 7976WAT      O32623   2.562   2.740   1.059  0.0334  0.1612  0.3112
 7976WAT     H132624   2.577   2.734   1.145  1.2908 -0.9123  0.0515
 7976WAT     H232625   2.642   2.744   1.025 -0.4293 -0.1617 -0.8462
 7976WAT    EPW32626   2.576   2.740   1.067  0.1508 -0.0451  0.1019
 7977WAT      O32627   2.930   5.202   4.137  0.1158 -0.2018 -0.4411
 7977WAT     H132628   3.011   5.180   4.116 -0.2942 -1.8819 -0.3911
 7977WAT     H232629   2.920   5.281   4.103  2.9663  1.7258  2.6258
 7977WAT    EPW32630   2.940   5.210   4.129  0.4763 -0.1652  0.0193
 7978WAT      O32631   2.903   4.765   3.692  0.3141  0.6628  0.4713
 7978WAT     H132632   2.938   4.837   3.658  1.0593  0.2260  0.2785
 7978WAT     H232633   2.861   4.794   3.763  2.2979  1.0703  1.5791
 7978WAT    EPW32634   2.902   4.780   3.698  0.7172  0.6585  0.6065
 7979WAT      O32635   1.900   4.100   1.517  0.3010 -0.3853 -0.2278
 7979WAT     H132636   1.916   4.186   1.524  0.2654 -0.4536  0.7872
 7979WAT     H232637   1.866   4.079   1.594 -1.3889 -0.9647 -1.0666
 7979WAT    EPW32638   1.897   4.110   1.529  0.0461 -0.4810 -0.2018
 7980WAT      O32639   3.088   4.242   4.070 -0.3093 -0.1860  0.0793
 7980WAT     H132640   3.065   4.169   4.028  0.3521 -1.0287  1.1397
 7980WAT     H232641   3.019   4.257   4.121 -0.3234 -0.2323  0.0748
 7980WAT    EPW32642   3.074   4.233   4.071 -0.2137 -0.3173  0.2353
 7981WAT      O32643   3.443   3.909   1.459  0.3055  0.4730 -0.0835
 7981WAT     H132644   3.366   3.893   1.497 -0.7176 -1.8545 -2.7823
 7981WAT     H232645   3.479   3.829   1.453  0.8247  0.8217 -2.8977
 7981WAT    EPW32646   3.437   3.895   1.464  0.2311  0.1807 -0.8979
 7982WAT      O32647   3.296   3.452   2.728 -0.1457  0.0551 -0.0397
 7982WAT     H132648   3.213   3.476   2.739  0.2234  1.2198  0.4035
 7982WAT     H232649   3.337   3.527   2.710  1.1029 -0.1736  1.5669
 7982WAT    EPW32650   3.290   3.467   2.727  0.0932  0.1933  0.2631
 7983WAT      O32651   4.825   5.964   2.027  0.2170  0.4397  0.0970
 7983WAT     H132652   4.823   5.982   1.941 -2.7360 -0.6801 -0.1973
 7983WAT     H232653   4.833   6.043   2.064  1.8881  0.9122 -1.1715
 7983WAT    EPW32654   4.826   5.978   2.020  0.0276  0.3441 -0.1338
 7984WAT      O32655   2.149   4.260   2.430  0.0734 -0.0068  0.6677
 7984WAT     H132656   2.227   4.280   2.396 -0.2337  0.5125  0.2596
 7984WAT     H232657   2.169   4.206   2.496  0.6355 -1.8815 -0.9428
 7984WAT    EPW32658   2.164   4.255   2.435  0.1111 -0.2070  0.3695
 7985WAT      O32659   3.051   3.290   3.293 -0.0741  0.0713  0.0624
 7985WAT     H132660   2.996   3.303   3.227 -0.0926 -0.7447 -0.0972
 7985WAT     H232661   3.124   3.330   3.267  0.3293 -1.3006 -1.0354
 7985WAT    EPW32662   3.054   3.298   3.280 -0.0173 -0.2519 -0.1233
 7986WAT      O32663   1.815   4.896   0.942 -0.5739  0.4933 -0.0204
 7986WAT     H132664   1.897   4.866   0.951 -1.5323 -2.4062 -0.1321
 7986WAT     H232665   1.793   4.921   1.023  0.1071  0.4821  0.1751
 7986WAT    EPW32666   1.824   4.895   0.956 -0.6149  0.0633 -0.0080
 7987WAT      O32667   2.854   3.698   2.712  0.1578 -0.3751  0.2826
 7987WAT     H132668   2.872   3.736   2.635  2.1723 -1.2885  0.2562
 7987WAT     H232669   2.779   3.656   2.696 -0.9049  1.5989 -0.3526
 7987WAT    EPW32670   2.845   3.697   2.698  0.2984 -0.2184  0.1848
 7988WAT      O32671   3.251   5.746   3.406 -0.2788  0.1128 -0.6596
 7988WAT     H132672   3.230   5.800   3.471 -1.3071  0.5446 -1.3239
 7988WAT     H232673   3.192   5.765   3.344  0.4334 -0.5575 -1.5669
 7988WAT    EPW32674   3.239   5.757   3.406 -0.3255  0.0775 -0.8918
 7989WAT      O32675   3.631   2.884   1.028  0.1353  0.0546 -0.5288
 7989WAT     H132676   3.682   2.952   1.051  2.4685 -1.0104 -2.1263
 7989WAT     H232677   3.650   2.823   1.087 -1.0786  0.3721  0.2159
 7989WAT    EPW32678   3.641   2.885   1.040  0.3006 -0.0558 -0.6548
 7990WAT      O32679   2.923   4.352   2.374 -0.0581 -0.5793 -0.6027
 7990WAT     H132680   2.961   4.291   2.423  0.0073  1.1634  1.6955
 7990WAT     H232681   2.990   4.395   2.338  0.0513  0.1441  0.4260
 7990WAT    EPW32682   2.938   4.349   2.376 -0.0323 -0.2150 -0.1113
 7991WAT      O32683   1.867   4.560   7.719  0.0872  0.4542 -0.0102
 7991WAT     H132684   1.882   4.474   7.725  1.3091  0.7084  1.0952
 7991WAT     H232685   1.790   4.565   7.678  0.1935 -1.1492 -0.4560
 7991WAT    EPW32686   1.858   4.548   7.714  0.2834  0.2549  0.0872
 7992WAT      O32687   4.557   3.642   7.539  0.5262  0.2406  0.3484
 7992WAT     H132688   4.551   3.585   7.474  0.4743 -0.0510  0.6061
 7992WAT     H232689   4.640   3.633   7.567  1.6602  2.7471 -1.8322
 7992WAT    EPW32690   4.569   3.632   7.534  0.6861  0.5678  0.0643
 7993WAT      O32691   2.554   3.931   0.649 -0.6250 -0.3897 -0.0339
 7993WAT     H132692   2.628   3.959   0.613 -1.7738  1.7612 -0.9273
 7993WAT     H232693   2.562   3.956   0.733 -0.4568  0.1308 -0.2000
 7993WAT    EPW32694   2.566   3.939   0.656 -0.7699  0.0049 -0.1904
 7994WAT      O32695   3.718   2.982   0.019  0.0123 -0.6397 -0.2017
 7994WAT     H132696   3.639   3.015   0.033  0.2043 -0.9487  1.9685
 7994WAT     H232697   3.738   2.943   0.095  2.3818 -0.2654 -0.5535
 7994WAT    EPW32698   3.710   2.981   0.032  0.3907 -0.6301  0.0669
 7995WAT      O32699   3.358   3.173   7.253  0.4934  0.4544  0.7345
 7995WAT     H132700   3.340   3.101   7.298 -1.4706  1.9473  2.5335
 7995WAT     H232701   3.287   3.184   7.203  0.8770  1.0007  0.2964
 7995WAT    EPW32702   3.345   3.164   7.252  0.2599  0.7556  0.9355
 7996WAT      O32703   2.023   5.271   7.487 -0.2294 -0.5780 -0.2514
 7996WAT     H132704   2.056   5.350   7.505  1.1459 -0.6797 -2.0272
 7996WAT     H232705   1.940   5.277   7.514 -0.3275  1.6655 -0.8146
 7996WAT    EPW32706   2.015   5.283   7.494 -0.0407 -0.2616 -0.5969
 7997WAT      O32707   0.682   5.192   1.751 -0.2956  0.0807  0.6973
 7997WAT     H132708   0.599   5.186   1.725  0.2503 -0.5692 -1.0790
 7997WAT     H232709   0.686   5.139   1.821 -1.3440  0.0375  0.7368
 7997WAT    EPW32710   0.670   5.183   1.757 -0.3698 -0.0217  0.4407
 7998WAT      O32711   2.884   3.797   0.311 -0.1256  0.5403  0.5143
 7998WAT     H132712   2.930   3.776   0.383  1.2269  0.8829 -0.2225
 7998WAT     H232713   2.801   3.800   0.340  0.2216 -0.7190  1.7431
 7998WAT    EPW32714   2.878   3.795   0.326  0.1255  0.4049  0.5870
 7999WAT      O32715   2.470   3.290   0.263 -0.2865  0.5045  0.2398
 7999WAT     H132716   2.438   3.299   0.182 -0.3672 -0.1865  0.1909
 7999WAT     H232717   2.399   3.287   0.313 -0.2275  1.2887  0.3794
 7999WAT    EPW32718   2.455   3.291   0.258 -0.2897  0.5183  0.2532
 8000WAT      O32719   3.332   3.585   0.888  0.1709 -0.3501 -0.0893
 8000WAT     H132720   3.331   3.565   0.803  0.3051 -0.6931 -0.0111
 8000WAT     H232721   3.284   3.522   0.925 -0.0972 -0.0601  0.0594
 8000WAT    EPW32722   3.325   3.573   0.881  0.1511 -0.3579 -0.0558
 8001WAT      O32723   3.639   2.479   7.741 -0.3547 -0.8552  0.3191
 8001WAT     H132724   3.592   2.529   7.794  1.1420  2.4959 -1.2277
 8001WAT     H232725   3.720   2.483   7.774  0.6703  1.5582 -2.1680
 8001WAT    EPW32726   3.644   2.487   7.754  0.0178 -0.0037 -0.2768
 8002WAT      O32727   1.738   4.186   1.961 -0.2988  0.2023  0.3777
 8002WAT     H132728   1.764   4.262   1.930  2.2278 -0.6507  0.1698
 8002WAT     H232729   1.788   4.175   2.032  0.8802 -2.0717 -0.6931
 8002WAT    EPW32730   1.749   4.195   1.967  0.2486 -0.2597  0.1888
 8003WAT      O32731   3.141   3.893   2.456 -0.3695  0.3998 -0.0889
 8003WAT     H132732   3.083   3.938   2.502  0.1049  1.2735 -0.3089
 8003WAT     H232733   3.149   3.818   2.500 -0.9215  0.6710  0.4871
 8003WAT    EPW32734   3.134   3.889   2.469 -0.3810  0.5689 -0.0363
 8004WAT      O32735   3.411   3.212   0.939 -0.0126 -0.4901 -0.2145
 8004WAT     H132736   3.342   3.261   0.957 -0.0482  0.0119 -1.5681
 8004WAT     H232737   3.472   3.270   0.918  0.2321 -0.9864 -0.9051
 8004WAT    EPW32738   3.410   3.227   0.938  0.0183 -0.4893 -0.5165
 8005WAT      O32739   2.983   2.484   0.546 -0.1463  0.5096 -0.4065
 8005WAT     H132740   3.057   2.510   0.583 -0.0149 -1.3639  0.7550
 8005WAT     H232741   2.961   2.413   0.591 -1.1255 -0.6689 -2.5875
 8005WAT    EPW32742   2.990   2.477   0.558 -0.2716  0.0588 -0.5571
 8006WAT      O32743   2.327   3.584   1.823  0.4865  0.5845 -0.1923
 8006WAT     H132744   2.310   3.540   1.896 -2.9486  0.1318 -1.1132
 8006WAT     H232745   2.341   3.666   1.851  0.1910  0.2227  1.0464
 8006WAT    EPW32746   2.327   3.590   1.838 -0.0646  0.4642 -0.1454
 8007WAT      O32747   1.609   3.303   3.274  0.6918 -0.3146 -0.1832
 8007WAT     H132748   1.675   3.246   3.270  0.2312 -0.9322  0.5469
 8007WAT     H232749   1.548   3.267   3.224  0.7601  0.0440 -0.5234
 8007WAT    EPW32750   1.610   3.289   3.266  0.6338 -0.3529 -0.1256
 8008WAT      O32751   2.947   3.112   0.399  0.3242  0.0611 -0.7622
 8008WAT     H132752   2.961   3.184   0.351  1.2036 -1.4534 -2.9690
 8008WAT     H232753   2.883   3.071   0.357 -2.0851  0.7033  1.9851
 8008WAT    EPW32754   2.940   3.116   0.385  0.0982 -0.0678 -0.6824
 8009WAT      O32755   1.610   3.257   1.087  0.3263 -0.1956  0.5730
 8009WAT     H132756   1.689   3.267   1.052  0.2570  1.6337  0.8331
 8009WAT     H232757   1.600   3.330   1.135 -0.7134 -1.2947  2.1271
 8009WAT    EPW32758   1.620   3.269   1.089  0.1625 -0.0877  0.8410
 8010WAT      O32759   2.267   3.090   0.301 -0.4557 -0.4146 -0.1337
 8010WAT     H132760   2.227   3.056   0.231  0.3939 -2.9174  0.4710
 8010WAT     H232761   2.210   3.077   0.366 -0.9239  1.2069 -0.1734
 8010WAT    EPW32762   2.253   3.083   0.300 -0.3993 -0.5448 -0.0502
 8011WAT      O32763   3.646   5.081   1.099  0.3282 -0.5410  0.2381
 8011WAT     H132764   3.632   5.167   1.095  2.5776 -0.1061  0.4929
 8011WAT     H232765   3.661   5.066   1.184 -0.1747 -1.2421  0.2212
 8011WAT    EPW32766   3.646   5.091   1.111  0.5862 -0.5803  0.2732
 8012WAT      O32767   1.353   4.230   0.175  0.0252 -0.2283  0.5448
 8012WAT     H132768   1.416   4.222   0.115 -0.6480 -0.1051 -0.1969
 8012WAT     H232769   1.305   4.158   0.165 -0.8455  0.4121  0.0261
 8012WAT    EPW32770   1.355   4.218   0.165 -0.2029 -0.1155  0.3587
 8013WAT      O32771   4.745   4.809   0.012 -0.4613 -0.0379  0.3094
 8013WAT     H132772   4.706   4.886   0.009 -1.3530 -0.4470  1.0027
 8013WAT     H232773   4.747   4.783  -0.071 -0.1811  0.7018  0.0774
 8013WAT    EPW32774   4.740   4.816  -0.001 -0.5516  0.0109  0.3775
 8014WAT      O32775   3.009   5.446   0.364  0.6077  0.3120  0.2285
 8014WAT     H132776   3.036   5.387   0.422  1.0518 -0.1601 -0.4469
 8014WAT     H232777   2.992   5.399   0.293  0.2698  0.9099 -0.0981
 8014WAT    EPW32778   3.011   5.430   0.362  0.6234  0.3306  0.0805
 8015WAT      O32779   1.233   4.534   0.709 -0.3213 -0.8477 -0.0805
 8015WAT     H132780   1.145   4.534   0.711 -0.3149 -1.1195  0.2783
 8015WAT     H232781   1.254   4.463   0.754  0.1376  0.6791  2.2634
 8015WAT    EPW32782   1.223   4.524   0.716 -0.2526 -0.6623  0.3188
 8016WAT      O32783   2.631   4.401   1.618  0.4948  0.2758  0.3311
 8016WAT     H132784   2.617   4.453   1.686  1.1502  0.2717  0.4738
 8016WAT     H232785   2.646   4.323   1.654 -0.6952 -0.0725  0.1119
 8016WAT    EPW32786   2.631   4.397   1.633  0.4158  0.2238  0.3198
 8017WAT      O32787   2.907   6.053   7.368 -0.0433  0.0489  0.0892
 8017WAT     H132788   2.826   6.067   7.396 -0.3945 -0.0270 -0.8729
 8017WAT     H232789   2.906   5.971   7.340  0.3271  0.0929 -0.0634
 8017WAT    EPW32790   2.895   6.043   7.368 -0.0405  0.0442 -0.0755
 8018WAT      O32791   3.798   3.227   0.209  0.5546  0.2483 -0.1771
 8018WAT     H132792   3.850   3.290   0.179 -0.5045  0.8528 -0.7962
 8018WAT     H232793   3.795   3.170   0.143 -0.8371  1.0083 -0.8085
 8018WAT    EPW32794   3.806   3.228   0.195  0.1925  0.4499 -0.3619
 8019WAT      O32795   3.093   3.341   1.489  0.2657  0.0196  0.0178
 8019WAT     H132796   3.012   3.365   1.469 -0.2196 -1.0896  0.5447
 8019WAT     H232797   3.087   3.318   1.573  1.3437  0.8237  0.3354
 8019WAT    EPW32798   3.080   3.341   1.499  0.3533 -0.0255  0.1425
 8020WAT      O32799   3.446   2.159   3.059 -0.4890  0.3501 -0.0928
 8020WAT     H132800   3.404   2.228   3.093 -0.2449  0.8395 -0.7548
 8020WAT     H232801   3.517   2.152   3.109 -0.8764  0.1079  0.4404
 8020WAT    EPW32802   3.450   2.168   3.072 -0.5102  0.3866 -0.1118
 8021WAT      O32803   4.967   3.704   0.342 -0.7371  0.1250  0.3853
 8021WAT     H132804   4.927   3.684   0.417  0.8067 -1.2395  0.8912
 8021WAT     H232805   4.901   3.715   0.286 -1.8959  0.4439  1.7481
 8021WAT    EPW32806   4.951   3.703   0.344 -0.6802 -0.0295  0.6614
 8022WAT      O32807   1.743   3.961   1.351 -0.1440 -0.0982  0.0182
 8022WAT     H132808   1.778   3.922   1.281  0.6353  0.5939  0.0080
 8022WAT     H232809   1.812   3.999   1.390 -0.2350 -1.8042  2.0604
 8022WAT    EPW32810   1.758   3.961   1.346 -0.0423 -0.2480  0.3183
 8023WAT      O32811   3.125   3.338   1.776 -0.2729 -0.1976 -0.0207
 8023WAT     H132812   3.150   3.325   1.859 -0.1503 -1.1614 -0.1949
 8023WAT     H232813   3.087   3.417   1.778 -0.6498 -0.3882  1.0468
 8023WAT    EPW32814   3.123   3.348   1.789 -0.3105 -0.3682  0.1113
 8024WAT      O32815   2.113   3.075   1.024  0.1585 -0.8971 -0.4079
 8024WAT     H132816   2.131   3.093   0.940  0.3864 -0.5549 -0.2883
 8024WAT     H232817   2.161   3.005   1.041  1.5531  0.1105 -0.0384
 8024WAT    EPW32818   2.123   3.067   1.014  0.3982 -0.6977 -0.3357
 8025WAT      O32819   4.081   2.324   7.714  0.0824  0.1594 -0.1325
 8025WAT     H132820   4.082   2.258   7.656 -1.6488  0.8454 -1.0151
 8025WAT     H232821   4.136   2.382   7.679  0.4455 -0.1819 -0.1356
 8025WAT    EPW32822   4.089   2.323   7.700 -0.1197  0.2103 -0.2633
 8026WAT      O32823   3.003   4.329   7.543 -0.4986 -0.0285  0.3620
 8026WAT     H132824   2.997   4.404   7.586  0.7525  0.4862 -0.3140
 8026WAT     H232825   3.048   4.350   7.471 -2.1030 -0.9675 -0.9697
 8026WAT    EPW32826   3.009   4.343   7.539 -0.5508 -0.0912  0.0654
 8027WAT      O32827   2.179   4.577   0.832  0.0992 -0.4768 -0.2278
 8027WAT     H132828   2.155   4.659   0.851 -0.3170 -0.7990  0.6651
 8027WAT     H232829   2.142   4.563   0.754  1.5682  0.7523 -1.2009
 8027WAT    EPW32830   2.170   4.587   0.823  0.2547 -0.3428 -0.2397
 8028WAT      O32831   2.720   4.815   0.822 -0.2372  0.4408 -0.0145
 8028WAT     H132832   2.778   4.801   0.886  0.6604  2.1154 -0.3945
 8028WAT     H232833   2.643   4.802   0.860  0.3105  0.6499  1.2012
 8028WAT    EPW32834   2.718   4.811   0.837 -0.0237  0.7191  0.1090
 8029WAT      O32835   3.230   4.269   2.550  0.4272  0.0253 -0.3491
 8029WAT     H132836   3.243   4.214   2.616  1.3009  0.2787 -0.3002
 8029WAT     H232837   3.264   4.227   2.481  1.9856  0.8637 -0.1470
 8029WAT    EPW32838   3.237   4.255   2.550  0.7864  0.1866 -0.3120
 8030WAT      O32839   3.064   3.464   2.468  0.0408  0.3008  0.0146
 8030WAT     H132840   3.034   3.499   2.543 -1.5292 -0.1944 -0.3448
 8030WAT     H232841   3.095   3.387   2.494  1.0584  0.8200  0.3959
 8030WAT    EPW32842   3.064   3.458   2.483 -0.0408  0.3044  0.0178
 8031WAT      O32843   3.892   2.209   0.251 -0.0183  0.1678  0.3261
 8031WAT     H132844   3.929   2.284   0.225 -0.3034 -0.0990 -0.9157
 8031WAT     H232845   3.888   2.217   0.338  1.5283  0.8565  0.3639
 8031WAT    EPW32846   3.897   2.221   0.260  0.1681  0.2301  0.1482
 8032WAT      O32847   3.719   1.742   0.731  0.6603 -0.2657  0.1121
 8032WAT     H132848   3.715   1.656   0.743 -2.2344 -0.3436 -0.7235
 8032WAT     H232849   3.773   1.751   0.663 -0.4296 -1.6269 -0.9812
 8032WAT    EPW32850   3.727   1.731   0.723  0.0717 -0.4783 -0.1728
 8033WAT      O32851   3.425   5.436   7.230  0.2884 -0.5088  0.1787
 8033WAT     H132852   3.442   5.393   7.156 -1.1162 -0.8901  0.0655
 8033WAT     H232853   3.447   5.518   7.211  1.9405 -0.9405  0.0465
 8033WAT    EPW32854   3.431   5.442   7.216  0.3250 -0.6289  0.1424
 8034WAT      O32855   2.450   4.599   7.710 -0.0336 -0.4960  0.2057
 8034WAT     H132856   2.407   4.585   7.784  0.0828 -1.3452  0.1228
 8034WAT     H232857   2.401   4.561   7.649 -0.5107  0.8286 -0.2927
 8034WAT    EPW32858   2.437   4.592   7.712 -0.0869 -0.4258  0.1198
 8035WAT      O32859   3.635   3.877   0.327  0.1328 -0.3970  0.3015
 8035WAT     H132860   3.583   3.942   0.302 -1.2366 -2.0733 -1.5793
 8035WAT     H232861   3.617   3.813   0.270  1.4955 -2.3813  1.9305
 8035WAT    EPW32862   3.625   3.877   0.315  0.1318 -0.9378  0.2643
 8036WAT      O32863   4.001   5.147   0.465  0.0642  0.0885  0.0688
 8036WAT     H132864   3.976   5.082   0.412 -0.2247  1.0159 -0.9735
 8036WAT     H232865   4.069   5.113   0.508  0.1977 -0.7529 -0.7658
 8036WAT    EPW32866   4.008   5.132   0.463  0.0413  0.1012 -0.2085
 8037WAT      O32867   2.374   4.093   7.780 -0.8945 -0.1936 -0.2054
 8037WAT     H132868   2.438   4.149   7.799 -1.5765  0.6942 -0.4753
 8037WAT     H232869   2.402   4.054   7.707 -0.6616  0.1784 -0.3163
 8037WAT    EPW32870   2.388   4.095   7.772 -0.9608 -0.0075 -0.2617
 8038WAT      O32871   4.357   4.807   1.047  0.4377  0.1563 -0.4392
 8038WAT     H132872   4.354   4.797   0.961 -1.0145 -0.8002 -0.3275
 8038WAT     H232873   4.282   4.849   1.065  1.3485  1.5809  0.2463
 8038WAT    EPW32874   4.345   4.812   1.037  0.3577  0.2255 -0.3214
 8039WAT      O32875   1.762   2.410   0.917  0.0619 -0.2264  0.2488
 8039WAT     H132876   1.718   2.341   0.947 -0.6216  0.9374  2.1527
 8039WAT     H232877   1.775   2.392   0.833 -0.3767 -2.4940  0.6138
 8039WAT    EPW32878   1.757   2.397   0.909 -0.1039 -0.3895  0.5840
 8040WAT      O32879   3.755   4.341   7.826  0.4054 -0.2471  0.0131
 8040WAT     H132880   3.680   4.381   7.845  0.9410  1.7494 -1.6192
 8040WAT     H232881   3.801   4.403   7.785  1.6051 -2.3381 -2.0768
 8040WAT    EPW32882   3.751   4.356   7.822  0.6617 -0.2611 -0.5367
 8041WAT      O32883   3.148   3.817   0.935 -0.3072  0.4836  0.0850
 8041WAT     H132884   3.166   3.733   0.918 -0.6237 -0.6578  4.2847
 8041WAT     H232885   3.225   3.851   0.957 -0.5429  0.5444  0.8500
 8041WAT    EPW32886   3.162   3.809   0.936 -0.3887  0.3240  0.8184
 8042WAT      O32887   2.429   1.294   0.014  0.1916 -0.0745 -0.3029
 8042WAT     H132888   2.484   1.338  -0.039  0.0435 -0.9840 -1.2471
 8042WAT     H232889   2.356   1.340   0.010  0.1394 -0.2076 -1.0194
 8042WAT    EPW32890   2.427   1.307   0.006  0.1620 -0.2285 -0.5482
 8043WAT      O32891   4.470   2.731   7.660 -0.3643 -0.1878 -0.1094
 8043WAT     H132892   4.423   2.665   7.691 -0.7703 -1.5481 -3.2072
 8043WAT     H232893   4.519   2.694   7.598 -0.0217  2.2683 -1.4342
 8043WAT    EPW32894   4.470   2.716   7.655 -0.3737 -0.0259 -0.7627
 8044WAT      O32895   1.969   3.461   0.762 -0.1046 -0.6038 -0.1798
 8044WAT     H132896   2.044   3.416   0.765  0.3974  0.2500  1.8626
 8044WAT     H232897   1.994   3.544   0.769 -1.0668  0.0382 -3.0689
 8044WAT    EPW32898   1.984   3.467   0.764 -0.1726 -0.3828 -0.3049
 8045WAT      O32899   2.926   3.686   1.337  0.4090  0.0577  0.2694
 8045WAT     H132900   2.987   3.699   1.399  0.4806 -1.3433  0.5142
 8045WAT     H232901   2.899   3.605   1.352 -0.0780 -0.0477 -1.1186
 8045WAT    EPW32902   2.931   3.676   1.349  0.3476 -0.1649  0.1006
 8046WAT      O32903   2.461   4.750   1.299 -0.1829 -0.3869 -0.1230
 8046WAT     H132904   2.419   4.679   1.327 -1.1151  0.9454  2.2035
 8046WAT     H232905   2.541   4.740   1.332 -0.1940 -0.5541 -0.1448
 8046WAT    EPW32906   2.466   4.738   1.308 -0.3222 -0.2148  0.2175
 8047WAT      O32907   3.413   1.894   7.840  0.3065 -0.0133 -0.4555
 8047WAT     H132908   3.497   1.877   7.856  0.2774 -1.0011 -1.2498
 8047WAT     H232909   3.377   1.815   7.834 -0.3262  0.3519 -1.8558
 8047WAT    EPW32910   3.420   1.880   7.841  0.2087 -0.1052 -0.7797
 8048WAT      O32911   2.630   4.313   2.572  0.1274  0.4879  0.3485
 8048WAT     H132912   2.652   4.248   2.519  1.5273  1.0244  0.2337
 8048WAT     H232913   2.543   4.315   2.567  0.0056 -1.6266  0.6851
 8048WAT    EPW32914   2.620   4.304   2.564  0.3162  0.2548  0.3813
 8049WAT      O32915   3.856   2.510   0.890  0.1459 -0.4593 -0.5617
 8049WAT     H132916   3.820   2.451   0.837  0.6069 -0.1156 -1.2742
 8049WAT     H232917   3.823   2.586   0.863  1.1815 -0.1697 -1.0629
 8049WAT    EPW32918   3.846   2.512   0.878  0.3670 -0.3658 -0.7410
 8050WAT      O32919   1.603   2.801   7.728  0.5419  0.4265 -0.5336
 8050WAT     H132920   1.634   2.760   7.798  0.8629  0.0911 -0.8632
 8050WAT     H232921   1.638   2.757   7.661 -0.0547  0.5075 -0.9109
 8050WAT    EPW32922   1.613   2.789   7.728  0.5012  0.3889 -0.6380
 8051WAT      O32923   3.867   3.655   0.255 -0.3781  0.1132  0.6291
 8051WAT     H132924   3.953   3.641   0.243  0.3384  3.9916 -0.0302
 8051WAT     H232925   3.864   3.729   0.301 -3.3765  0.4932  0.0382
 8051WAT    EPW32926   3.879   3.664   0.260 -0.7151  0.7422  0.4444
 8052WAT      O32927   3.655   3.663   6.930 -0.4270  0.2072 -0.0785
 8052WAT     H132928   3.682   3.604   6.988 -1.1241 -0.4183 -0.3571
 8052WAT     H232929   3.578   3.689   6.961  0.1929  1.5145  0.4021
 8052WAT    EPW32930   3.647   3.658   6.943 -0.4384  0.3079 -0.0486
 8053WAT      O32931   2.004   4.598   0.616 -0.3551 -0.4889 -0.3958
 8053WAT     H132932   1.973   4.522   0.587 -1.7698  0.6755 -2.0960
 8053WAT     H232933   2.022   4.643   0.544 -0.9796  1.3402  0.5083
 8053WAT    EPW32934   2.002   4.593   0.601 -0.6563 -0.0467 -0.5134
 8054WAT      O32935   2.125   4.590   0.209 -0.0947  0.4456 -0.5190
 8054WAT     H132936   2.083   4.515   0.225  0.3287  0.4825  0.9212
 8054WAT     H232937   2.069   4.634   0.158 -1.3729  0.0747  0.4919
 8054WAT    EPW32938   2.110   4.586   0.204 -0.2209  0.3962 -0.1569
 8055WAT      O32939   2.192   4.751   3.160 -0.0765 -0.0474  0.1644
 8055WAT     H132940   2.137   4.809   3.196 -0.1263  0.7301 -1.0990
 8055WAT     H232941   2.164   4.674   3.192 -2.4656  0.2097 -1.0183
 8055WAT    EPW32942   2.179   4.748   3.170 -0.4368  0.1054 -0.1969
 8056WAT      O32943   4.092   4.510   6.921  0.4071  0.2858  0.5816
 8056WAT     H132944   4.122   4.431   6.898  0.7017  1.1820 -2.5693
 8056WAT     H232945   4.010   4.510   6.891 -0.1063  0.6931  1.9228
 8056WAT    EPW32946   4.084   4.498   6.914  0.3747  0.4784  0.3142
 8057WAT      O32947   3.405   2.747   7.720  0.0763  0.4408  0.0932
 8057WAT     H132948   3.386   2.828   7.695 -4.0046 -0.4319 -0.3798
 8057WAT     H232949   3.377   2.698   7.653  1.5750 -1.4577  0.7489
 8057WAT    EPW32950   3.398   2.752   7.706 -0.3051  0.0314  0.1202
 8058WAT      O32951   5.727   2.914   6.848  0.4249  0.4631  0.4748
 8058WAT     H132952   5.722   3.001   6.843 -5.0685  0.5568  1.4232
 8058WAT     H232953   5.710   2.889   6.766 -2.5810  0.5333  0.9761
 8058WAT    EPW32954   5.724   2.923   6.835 -0.8306  0.4873  0.6889
 8059WAT      O32955   3.953   4.079   7.406 -0.4458 -0.7291 -0.2043
 8059WAT     H132956   3.991   4.146   7.446  0.9101 -1.4066 -0.2742
 8059WAT     H232957   4.020   4.039   7.367 -0.8161 -3.3228  1.5705
 8059WAT    EPW32958   3.969   4.083   7.406 -0.3002 -1.2123  0.0476
 8060WAT      O32959   2.926   2.169   1.504  0.3380  0.0743 -0.1719
 8060WAT     H132960   2.983   2.127   1.556 -0.5718 -1.9634 -0.7051
 8060WAT     H232961   2.849   2.152   1.542 -0.0197  2.9519  0.6616
 8060WAT    EPW32962   2.923   2.160   1.517  0.1508  0.1984 -0.1275
 8061WAT      O32963   3.700   3.468   0.598  0.2688 -0.0253 -0.0764
 8061WAT     H132964   3.667   3.424   0.531 -1.4846 -0.5704  1.0676
 8061WAT     H232965   3.650   3.539   0.603 -1.1272 -1.0571  1.9372
 8061WAT    EPW32966   3.688   3.472   0.589 -0.1965 -0.2582  0.3900
 8062WAT      O32967   2.703   4.418   7.798 -0.1452  0.1066 -0.2477
 8062WAT     H132968   2.707   4.392   7.715  0.5055 -2.5091  0.5171
 8062WAT     H232969   2.685   4.504   7.792  0.0001  0.0235 -3.0483
 8062WAT    EPW32970   2.701   4.427   7.785 -0.0276 -0.2921 -0.5484
 8063WAT      O32971   4.661   3.850   7.277 -0.4935 -0.3255 -0.4059
 8063WAT     H132972   4.654   3.897   7.204 -1.2401  0.8736  0.4048
 8063WAT     H232973   4.672   3.768   7.248 -0.9120  0.1039 -1.8488
 8063WAT    EPW32974   4.662   3.845   7.262 -0.6656 -0.0850 -0.4993
 8064WAT      O32975   3.224   4.989   0.355  0.4811  0.0340 -0.5820
 8064WAT     H132976   3.288   4.940   0.324  0.6935 -0.9552  1.3278
 8064WAT     H232977   3.155   4.965   0.307  1.2009  0.0533 -1.6548
 8064WAT    EPW32978   3.223   4.979   0.343  0.6188 -0.1093 -0.4583
 8065WAT      O32979   2.475   5.005   0.088 -0.0911 -0.1869  0.2495
 8065WAT     H132980   2.418   5.005   0.154  0.1532  2.0576  0.5199
 8065WAT     H232981   2.549   4.979   0.125 -0.0102  0.8429  0.8413
 8065WAT    EPW32982   2.477   5.001   0.103 -0.0431  0.2967  0.3769
 8066WAT      O32983   0.696   3.623   7.810 -0.2147  0.1976 -0.3120
 8066WAT     H132984   0.739   3.598   7.738  1.4182 -0.0250  0.6958
 8066WAT     H232985   0.643   3.556   7.825  0.3332 -0.3222 -0.6182
 8066WAT    EPW32986   0.695   3.609   7.801  0.1075  0.0879 -0.2084
 8067WAT      O32987   3.701   3.384   1.167 -0.0353  0.0807 -0.1053
 8067WAT     H132988   3.620   3.406   1.192  0.6226  2.4374  0.1534
 8067WAT     H232989   3.695   3.382   1.080 -0.5313 -0.5631 -0.0693
 8067WAT    EPW32990   3.688   3.387   1.158 -0.0114  0.3337 -0.0617
 8068WAT      O32991   2.768   5.119   1.162  0.0366 -0.1995 -0.3323
 8068WAT     H132992   2.788   5.192   1.204 -0.4826  0.4032 -1.1162
 8068WAT     H232993   2.710   5.144   1.102 -0.4244 -1.3118 -0.3798
 8068WAT    EPW32994   2.763   5.133   1.159 -0.1082 -0.2748 -0.4551
 8069WAT      O32995   3.219   3.838   0.297  0.0630 -0.0322  0.6634
 8069WAT     H132996   3.160   3.860   0.358  1.0211  0.5527  1.4247
 8069WAT     H232997   3.171   3.817   0.228 -1.0261  1.1261  1.0258
 8069WAT    EPW32998   3.203   3.838   0.296  0.0436  0.2253  0.8294
 8070WAT      O32999   5.213   3.785   0.052 -0.6153 -0.2970 -0.7713
 8070WAT     H133000   5.184   3.835   0.117 -1.1796  1.7697 -2.4870
 8070WAT     H233001   5.150   3.727   0.040  0.1241 -1.6300  1.3848
 8070WAT    EPW33002   5.200   3.784   0.060 -0.5894 -0.1886 -0.7062
 8071WAT      O33003   3.166   4.663   0.283  0.1561 -0.2337 -0.1802
 8071WAT     H133004   3.198   4.617   0.350  0.5866 -0.4503 -0.5330
 8071WAT     H233005   3.226   4.652   0.220  0.6700  1.4301 -0.0309
 8071WAT    EPW33006   3.180   4.654   0.284  0.2956 -0.0199 -0.2103
 8072WAT      O33007   3.285   6.131   6.091 -0.2717 -0.5609  0.5981
 8072WAT     H133008   3.240   6.206   6.086  3.1348  1.6957  0.3810
 8072WAT     H233009   3.343   6.146   6.155  1.1778 -2.6303 -0.1159
 8072WAT    EPW33010   3.287   6.144   6.100  0.4456 -0.5333  0.4605
 8073WAT      O33011   3.823   4.806   1.590 -0.4921  0.2540  0.3164
 8073WAT     H133012   3.906   4.779   1.595 -0.5351 -0.0146 -0.3704
 8073WAT     H233013   3.827   4.877   1.541 -1.0362 -1.5605 -2.5908
 8073WAT    EPW33014   3.836   4.812   1.584 -0.5788 -0.0537 -0.2145
 8074WAT      O33015   3.479   5.014   7.617  0.0417  0.0667 -0.3939
 8074WAT     H133016   3.491   5.074   7.679 -1.4157  1.5557 -1.4676
 8074WAT     H233017   3.401   4.979   7.636  0.8554 -1.5510  0.2085
 8074WAT    EPW33018   3.469   5.017   7.629 -0.0534  0.0477 -0.4635
 8075WAT      O33019   1.219   3.633   1.818 -0.8020 -0.4357  0.3806
 8075WAT     H133020   1.134   3.619   1.807 -0.5494 -0.9977 -0.9389
 8075WAT     H233021   1.240   3.689   1.755 -0.2954  0.2096  1.0863
 8075WAT    EPW33022   1.209   3.639   1.807 -0.6899 -0.4234  0.2900
 8076WAT      O33023   3.397   3.614   0.346  0.2381  0.4058  0.4474
 8076WAT     H133024   3.343   3.682   0.338 -0.3225  0.0055  0.7005
 8076WAT     H233025   3.350   3.547   0.315  0.9756  0.2141 -0.2983
 8076WAT    EPW33026   3.382   3.614   0.340  0.2643  0.3184  0.3747
 8077WAT      O33027   3.275   3.986   1.954 -0.4453  0.1743  0.0189
 8077WAT     H133028   3.246   4.057   1.995  0.4369 -0.4221  1.7829
 8077WAT     H233029   3.270   3.924   2.015 -1.1758 -1.2961 -1.4732
 8077WAT    EPW33030   3.270   3.987   1.969 -0.4228 -0.1310  0.0590
 8078WAT      O33031   2.270   5.582   0.515 -0.0364 -0.3709 -0.0592
 8078WAT     H133032   2.343   5.600   0.560  1.0499 -0.9883 -1.5063
 8078WAT     H233033   2.269   5.644   0.453  0.4867 -1.6222 -1.3832
 8078WAT    EPW33034   2.281   5.594   0.512  0.2013 -0.6470 -0.4685
 8079WAT      O33035   3.175   3.489   1.236  0.0714  0.1306 -0.4773
 8079WAT     H133036   3.168   3.462   1.319  0.7076 -1.3049 -0.8479
 8079WAT     H233037   3.191   3.574   1.243 -2.9549  0.7197  0.7559
 8079WAT    EPW33038   3.176   3.498   1.250 -0.2816  0.0056 -0.3499
 8080WAT      O33039   3.771   2.416   0.467  0.0444 -0.0923 -0.0904
 8080WAT     H133040   3.833   2.450   0.416 -0.2677 -0.8479 -0.9852
 8080WAT     H233041   3.722   2.370   0.412 -0.6064 -0.4947  0.8111
 8080WAT    EPW33042   3.773   2.414   0.452 -0.0978 -0.2634 -0.0894
 8081WAT      O33043   2.376   4.576   0.116 -0.2876  0.5199 -0.0276
 8081WAT     H133044   2.411   4.588   0.195  0.1449 -0.4122 -0.0621
 8081WAT     H233045   2.291   4.585   0.130 -0.4806 -2.2226  1.1199
 8081WAT    EPW33046   2.369   4.579   0.129 -0.2522 -0.0229  0.1368
 8082WAT      O33047   2.749   4.061   2.125  0.1055 -0.0848  0.5875
 8082WAT     H133048   2.812   4.006   2.103 -1.9804 -2.1742 -0.6717
 8082WAT     H233049   2.687   4.009   2.158 -0.2357  2.0678  3.8581
 8082WAT    EPW33050   2.749   4.046   2.127 -0.2531 -0.0754  0.8846
 8083WAT      O33051   1.557   4.244   2.532  0.4009 -0.2631  0.5533
 8083WAT     H133052   1.615   4.281   2.586 -1.2009  3.4636 -0.0087
 8083WAT     H233053   1.485   4.236   2.581 -0.0705 -0.0651 -0.0964
 8083WAT    EPW33054   1.555   4.248   2.547  0.0946  0.3167  0.3743
 8084WAT      O33055   2.655   2.783   1.644 -0.3157  0.1325  0.0709
 8084WAT     H133056   2.724   2.828   1.615 -0.1078 -1.0082 -1.2828
 8084WAT     H233057   2.690   2.725   1.698 -0.1856 -0.5099 -0.6908
 8084WAT    EPW33058   2.670   2.781   1.648 -0.2657 -0.1309 -0.2416
 8085WAT      O33059   3.478   1.965   0.315 -0.0822 -0.7021  0.0180
 8085WAT     H133060   3.537   1.954   0.252  1.5108  1.8783  0.8876
 8085WAT     H233061   3.451   1.883   0.332  1.9787 -1.8271 -1.5950
 8085WAT    EPW33062   3.483   1.951   0.308  0.4576 -0.4871 -0.0918
 8086WAT      O33063   4.636   3.287   7.524  0.2633  0.2421 -0.0728
 8086WAT     H133064   4.696   3.229   7.550 -0.7995 -0.7910  0.1410
 8086WAT     H233065   4.562   3.241   7.522 -0.6317  1.6168  0.1714
 8086WAT    EPW33066   4.634   3.271   7.527 -0.0259  0.2925 -0.0051
 8087WAT      O33067   3.007   4.643   2.537 -0.4282  0.3172  0.4005
 8087WAT     H133068   3.070   4.607   2.489 -2.1145 -0.0694 -1.6287
 8087WAT     H233069   3.018   4.607   2.616  1.3787 -0.3237 -0.1048
 8087WAT    EPW33070   3.018   4.633   2.542 -0.4104  0.1654  0.0261
 8088WAT      O33071   4.073   4.694   1.360  0.6293  0.3063  0.2624
 8088WAT     H133072   4.074   4.776   1.331 -0.0686  0.9934  2.0055
 8088WAT     H233073   4.151   4.684   1.398  1.2139 -0.3038 -1.0400
 8088WAT    EPW33074   4.085   4.704   1.361  0.6126  0.3177  0.3275
 8089WAT      O33075   2.467   5.628   0.707  0.7187 -0.1885  0.0675
 8089WAT     H133076   2.551   5.648   0.723  0.6028 -0.0911  0.5691
 8089WAT     H233077   2.449   5.568   0.768  0.3474 -0.0269  0.1176
 8089WAT    EPW33078   2.477   5.622   0.719  0.6467 -0.1503  0.1490
 8090WAT      O33079   2.503   1.310   0.699 -0.0589  0.0599  0.1427
 8090WAT     H133080   2.589   1.320   0.688  0.6269 -4.3083 -0.1213
 8090WAT     H233081   2.469   1.363   0.639  2.4042  1.5430 -0.1199
 8090WAT    EPW33082   2.511   1.319   0.689  0.4063 -0.3663  0.0649
 8091WAT      O33083   3.368   5.145   0.561 -0.3168 -0.0701 -0.0002
 8091WAT     H133084   3.363   5.078   0.506 -0.6898  0.0050 -0.0588
 8091WAT     H233085   3.433   5.193   0.529 -1.4917  0.7688 -1.2700
 8091WAT    EPW33086   3.377   5.142   0.548 -0.5454  0.0649 -0.1965
 8092WAT      O33087   4.712   4.283   0.793 -0.0671  0.2452 -0.5047
 8092WAT     H133088   4.686   4.292   0.711  0.3072 -1.3594 -0.8256
 8092WAT     H233089   4.648   4.237   0.830 -0.8038  1.9552  0.4360
 8092WAT    EPW33090   4.699   4.277   0.787 -0.1206  0.2608 -0.4131
 8093WAT      O33091   4.614   5.392   2.026 -0.6324  0.4000 -0.1926
 8093WAT     H133092   4.538   5.428   2.005 -0.7912  0.7933  0.9903
 8093WAT     H233093   4.654   5.383   1.949 -1.5664  0.8582 -0.7571
 8093WAT    EPW33094   4.609   5.396   2.011 -0.7938  0.5258 -0.1012
 8094WAT      O33095   3.550   2.174   2.440  0.2564  0.3931 -0.7023
 8094WAT     H133096   3.592   2.193   2.366 -0.7834  2.4890 -0.8034
 8094WAT     H233097   3.470   2.151   2.413 -0.3123  1.7435 -0.2428
 8094WAT    EPW33098   3.544   2.173   2.425  0.0188  0.9022 -0.6493
 8095WAT      O33099   2.819   3.700   0.594  0.9769  0.6381 -0.1515
 8095WAT     H133100   2.777   3.698   0.670 -0.1440  0.7033 -0.7586
 8095WAT     H233101   2.850   3.618   0.585  0.6421  0.4833  0.1099
 8095WAT    EPW33102   2.817   3.687   0.604  0.7619  0.6248 -0.2026
 8096WAT      O33103   3.496   4.579   1.121 -0.0798  0.8121  0.1689
 8096WAT     H133104   3.445   4.516   1.153 -0.0864  0.3843 -0.6621
 8096WAT     H233105   3.482   4.646   1.175 -0.1173  0.1279  1.0317
 8096WAT    EPW33106   3.486   4.579   1.133 -0.0863  0.6478  0.1736
 8097WAT      O33107   3.877   1.721   0.057  0.4499  0.4554  0.2378
 8097WAT     H133108   3.861   1.732  -0.028  1.3817  0.8034  0.0996
 8097WAT     H233109   3.956   1.754   0.068  1.0758 -1.1252  0.8943
 8097WAT    EPW33110   3.886   1.727   0.046  0.6800  0.2733  0.3144
 8098WAT      O33111   2.882   4.522   7.169 -0.1055 -0.6545  0.0353
 8098WAT     H133112   2.947   4.475   7.202 -1.3994 -1.5738  1.3958
 8098WAT     H233113   2.913   4.604   7.170  1.8734 -1.2955 -1.6201
 8098WAT    EPW33114   2.896   4.527   7.174 -0.0043 -0.8850 -0.0083
 8099WAT      O33115   4.160   3.770   0.039 -0.1257 -0.8485  0.0412
 8099WAT     H133116   4.081   3.754   0.006  0.1208  0.0311 -1.0501
 8099WAT     H233117   4.145   3.828   0.103 -0.3221 -0.3178 -0.4808
 8099WAT    EPW33118   4.146   3.777   0.044 -0.1183 -0.6402 -0.1971
 8100WAT      O33119   4.748   4.072   7.751 -0.2087 -0.2598  0.1252
 8100WAT     H133120   4.699   4.038   7.815  1.0168 -0.2037  1.1370
 8100WAT     H233121   4.694   4.074   7.683 -1.9704  0.8502  1.4616
 8100WAT    EPW33122   4.733   4.067   7.751 -0.2879 -0.0876  0.4721
 8101WAT      O33123   3.337   3.460   1.589 -0.5328 -0.3455  0.5239
 8101WAT     H133124   3.347   3.529   1.641 -0.5467  0.3813 -0.4027
 8101WAT     H233125   3.262   3.424   1.616 -0.5600  0.0382  0.9696
 8101WAT    EPW33126   3.327   3.465   1.600 -0.5389 -0.1815  0.4529
 8102WAT      O33127   1.133   6.352   7.766 -0.3320  0.3532  0.0015
 8102WAT     H133128   1.184   6.415   7.797  3.3554 -1.1487 -2.3910
 8102WAT     H233129   1.145   6.286   7.822  2.2772 -0.6897 -1.6272
 8102WAT    EPW33130   1.142   6.351   7.779  0.5982 -0.0227 -0.5925
 8103WAT      O33131   3.815   3.087   7.120  0.3783 -0.1223  0.1067
 8103WAT     H133132   3.780   3.009   7.138  0.4250  0.1075  1.2344
 8103WAT     H233133   3.893   3.084   7.158  0.3902  0.4688  0.1356
 8103WAT    EPW33134   3.821   3.075   7.128  0.3870 -0.0010  0.2775
 8104WAT      O33135   3.572   5.554   6.889  0.0420  0.0016 -0.4418
 8104WAT     H133136   3.592   5.584   6.810  1.5110 -1.0312 -0.4881
 8104WAT     H233137   3.648   5.553   6.931 -0.5322 -0.5188  0.6222
 8104WAT    EPW33138   3.586   5.558   6.884  0.1742 -0.2278 -0.2914
 8105WAT      O33139   2.174   4.302   1.481 -0.2197 -0.3402 -0.2941
 8105WAT     H133140   2.225   4.269   1.544 -0.1900 -0.7389 -0.5200
 8105WAT     H233141   2.111   4.343   1.525  0.5633  0.5859 -0.0194
 8105WAT    EPW33142   2.172   4.303   1.497 -0.0996 -0.2623 -0.2869
 8106WAT      O33143   2.858   3.424   1.358 -0.2129  0.5709  0.1295
 8106WAT     H133144   2.874   3.370   1.292  1.5238 -0.0236  0.9965
 8106WAT     H233145   2.771   3.417   1.369 -0.3953 -0.0391 -1.4183
 8106WAT    EPW33146   2.847   3.415   1.350  0.0167  0.3930  0.0289
 8107WAT      O33147   2.480   2.303   0.335  0.1814  0.1484  1.2482
 8107WAT     H133148   2.536   2.237   0.343  1.5217  1.2328  1.2756
 8107WAT     H233149   2.521   2.358   0.280 -1.2173  0.6216  0.6345
 8107WAT    EPW33150   2.494   2.302   0.328  0.1728  0.3785  1.1616
 8108WAT      O33151   3.702   3.794   1.040  0.4403  0.5620 -0.0793
 8108WAT     H133152   3.663   3.738   0.986 -0.4220 -0.7831  1.8211
 8108WAT     H233153   3.769   3.823   0.993 -0.5133 -0.1401 -2.0308
 8108WAT    EPW33154   3.706   3.790   1.025  0.1721  0.2596 -0.0868
 8109WAT      O33155   2.898   2.181   0.298 -0.3251 -0.3477 -0.6342
 8109WAT     H133156   2.856   2.147   0.367  0.3328 -2.6165 -1.2880
 8109WAT     H233157   2.964   2.225   0.334 -1.0016 -0.0023  0.2322
 8109WAT    EPW33158   2.901   2.183   0.314 -0.3279 -0.6318 -0.6028
 8110WAT      O33159   3.275   3.295   2.030 -0.2415 -0.2827 -0.3323
 8110WAT     H133160   3.358   3.290   2.004 -0.1110  2.4267 -0.7058
 8110WAT     H233161   3.274   3.364   2.084 -2.1096 -0.7412  0.3125
 8110WAT    EPW33162   3.287   3.305   2.034 -0.4982  0.0498 -0.2922
 8111WAT      O33163   2.822   3.538   0.248 -0.3337  0.7767 -0.5626
 8111WAT     H133164   2.887   3.484   0.271 -1.3169 -0.0167  0.4670
 8111WAT     H233165   2.859   3.617   0.253  0.2894  0.4272  1.1650
 8111WAT    EPW33166   2.837   3.542   0.252 -0.3869  0.6079 -0.1553
 8112WAT      O33167   3.480   5.163   1.655 -0.3814 -0.2733 -0.6139
 8112WAT     H133168   3.536   5.210   1.701  0.4991 -0.6752 -1.2383
 8112WAT     H233169   3.495   5.189   1.573 -2.2788  0.8158 -0.6772
 8112WAT    EPW33170   3.490   5.174   1.649 -0.5316 -0.1718 -0.7155
 8113WAT      O33171   2.503   3.912   2.222  0.1808 -0.2765 -0.2811
 8113WAT     H133172   2.527   3.831   2.200  0.2428 -0.2207 -0.4197
 8113WAT     H233173   2.479   3.904   2.306  0.0922 -0.4590 -0.3231
 8113WAT    EPW33174   2.503   3.899   2.231  0.1769 -0.2952 -0.3078
 8114WAT      O33175   3.293   4.281   2.094 -0.1269  0.3033 -0.1818
 8114WAT     H133176   3.221   4.327   2.112  0.3524  0.8426  0.3712
 8114WAT     H233177   3.314   4.309   2.014 -0.6236  0.0171 -0.4198
 8114WAT    EPW33178   3.285   4.292   2.085 -0.1295  0.3407 -0.1352
 8115WAT      O33179   3.477   5.256   7.025  0.2807 -0.1018 -0.1818
 8115WAT     H133180   3.457   5.280   6.944 -1.0162  0.9780  0.4302
 8115WAT     H233181   3.564   5.265   7.028  0.1290  2.1562 -0.7561
 8115WAT    EPW33182   3.487   5.261   7.013  0.0667  0.3913 -0.1762
 8116WAT      O33183   4.301   2.859   6.978  0.4163  0.5645  0.3071
 8116WAT     H133184   4.313   2.825   6.899 -0.7578  2.4316 -0.7285
 8116WAT     H233185   4.254   2.798   7.019 -0.4740  0.3034 -1.0318
 8116WAT    EPW33186   4.296   2.845   6.973  0.1113  0.8018 -0.0436
 8117WAT      O33187   3.550   4.150   0.821 -0.0366 -0.3406 -0.0788
 8117WAT     H133188   3.497   4.219   0.825  0.5863  0.0978  2.4420
 8117WAT     H233189   3.627   4.182   0.846  1.0716 -1.3104 -2.0605
 8117WAT    EPW33190   3.554   4.165   0.825  0.2191 -0.4191  0.0008
 8118WAT      O33191   3.100   4.357   0.876  0.1694  0.8638  0.2493
 8118WAT     H133192   3.063   4.283   0.850  1.1484  0.3969  0.1280
 8118WAT     H233193   3.034   4.402   0.911 -0.5840  0.2499 -0.3379
 8118WAT    EPW33194   3.085   4.353   0.877  0.2027  0.7041  0.1447
 8119WAT      O33195   2.663   3.392   1.721 -0.6617 -0.3242 -0.0180
 8119WAT     H133196   2.702   3.322   1.686 -0.4996 -0.8466  1.1738
 8119WAT     H233197   2.604   3.358   1.776 -1.4283  0.4751 -0.3080
 8119WAT    EPW33198   2.660   3.377   1.724 -0.7510 -0.2833  0.1152
 8120WAT      O33199   1.859   3.284   0.962 -0.4056  0.3078 -0.3985
 8120WAT     H133200   1.893   3.344   0.910 -0.1772  0.7041  0.2003
 8120WAT     H233201   1.928   3.254   1.007 -0.4552 -0.6639 -0.9444
 8120WAT    EPW33202   1.874   3.288   0.961 -0.3792  0.2228 -0.3907
 8121WAT      O33203   3.418   3.089   0.681  0.6226 -0.0853  0.8892
 8121WAT     H133204   3.422   3.002   0.674 -0.6856 -0.1114  0.1445
 8121WAT     H233205   3.427   3.103   0.767  0.7521 -0.9653  1.0252
 8121WAT    EPW33206   3.420   3.079   0.693  0.4485 -0.2191  0.7993
 8122WAT      O33207   3.598   3.653   0.156  0.0426  0.2387 -0.7718
 8122WAT     H133208   3.673   3.630   0.194  0.5284 -1.5572 -2.6553
 8122WAT     H233209   3.538   3.607   0.201  0.3584 -0.2448 -0.8437
 8122WAT    EPW33210   3.600   3.643   0.169  0.1610 -0.0980 -1.0606
 8123WAT      O33211   1.674   4.010   2.397 -0.5438 -0.3405  0.3970
 8123WAT     H133212   1.611   3.973   2.350  0.6713 -1.0286 -0.7907
 8123WAT     H233213   1.633   4.069   2.446 -1.8944  0.4596 -1.5791
 8123WAT    EPW33214   1.659   4.013   2.397 -0.5638 -0.3239 -0.0704
 8124WAT      O33215   3.246   5.812   7.452  0.0062 -0.1675 -0.0403
 8124WAT     H133216   3.266   5.742   7.499  1.3881 -0.3418 -0.8292
 8124WAT     H233217   3.315   5.823   7.400 -1.6644 -0.3504 -2.4882
 8124WAT    EPW33218   3.259   5.803   7.451 -0.0365 -0.2202 -0.5184
 8125WAT      O33219   2.761   2.166   1.883 -0.3708  0.2688  0.0086
 8125WAT     H133220   2.755   2.084   1.913 -1.2837  0.7602  1.2388
 8125WAT     H233221   2.719   2.163   1.806 -0.6043 -0.3568  0.1547
 8125WAT    EPW33222   2.754   2.154   1.876 -0.5401  0.2489  0.2119
 8126WAT      O33223   2.207   3.980   3.178  0.5277 -0.1914  0.0208
 8126WAT     H133224   2.262   3.994   3.112 -0.2721 -1.4589 -0.9669
 8126WAT     H233225   2.259   3.956   3.243  1.3026  0.6545 -0.2710
 8126WAT    EPW33226   2.223   3.978   3.178  0.5241 -0.2537 -0.1682
 8127WAT      O33227   4.336   3.902   2.380 -0.0179 -0.6998 -0.5001
 8127WAT     H133228   4.252   3.924   2.382  0.5911  1.8435 -0.1751
 8127WAT     H233229   4.341   3.832   2.432 -1.9848 -1.2281 -0.9626
 8127WAT    EPW33230   4.325   3.895   2.388 -0.2185 -0.4022 -0.5204
 8128WAT      O33231   2.717   3.637   1.799  0.0993  0.8081 -0.4242
 8128WAT     H133232   2.802   3.628   1.785 -0.1502 -2.0428 -0.7553
 8128WAT     H233233   2.685   3.557   1.782 -2.1733  0.7665  3.0721
 8128WAT    EPW33234   2.724   3.624   1.794 -0.2733  0.3808  0.0434
 8129WAT      O33235   4.232   3.977   0.217 -0.1376  0.3026 -0.4152
 8129WAT     H133236   4.196   4.012   0.289  0.1083  1.7394 -0.9500
 8129WAT     H233237   4.316   3.998   0.225 -0.2514  1.2584 -1.5291
 8129WAT    EPW33238   4.239   3.986   0.229 -0.1181  0.6561 -0.6588
 8130WAT      O33239   3.382   4.545   0.448  0.0920 -0.2601 -0.3319
 8130WAT     H133240   3.429   4.489   0.400 -0.4661  1.8758 -3.7145
 8130WAT     H233241   3.348   4.494   0.510  0.3872 -3.5038 -2.5508
 8130WAT    EPW33242   3.384   4.529   0.450  0.0531 -0.4238 -1.1593
 8131WAT      O33243   3.301   5.895   2.938  0.0243 -0.0027  0.0700
 8131WAT     H133244   3.230   5.914   2.890  1.7274  1.4145 -2.1099
 8131WAT     H233245   3.336   5.972   2.955  0.9600 -0.6624  1.3073
 8131WAT    EPW33246   3.296   5.909   2.933  0.4141  0.1092 -0.0692
 8132WAT      O33247   3.272   3.745   1.215 -0.4050 -0.0957 -0.0285
 8132WAT     H133248   3.204   3.774   1.168 -0.6726  0.3938  0.6518
 8132WAT     H233249   3.260   3.781   1.293 -1.7159 -3.3738  1.4483
 8132WAT    EPW33250   3.261   3.754   1.219 -0.6382 -0.5076  0.2901
 8133WAT      O33251   4.677   3.460   0.459  0.2246 -0.2576  0.2353
 8133WAT     H133252   4.655   3.402   0.398  2.2762  0.3912 -1.2538
 8133WAT     H233253   4.626   3.529   0.441 -0.4101 -0.6876  0.3732
 8133WAT    EPW33254   4.666   3.462   0.447  0.4339 -0.2253  0.0357
 8134WAT      O33255   3.615   2.264   0.288 -0.1270  0.0266  0.1445
 8134WAT     H133256   3.692   2.238   0.255 -0.0392 -0.9672  1.1020
 8134WAT     H233257   3.559   2.251   0.222  0.3855  0.0276 -0.2986
 8134WAT    EPW33258   3.618   2.258   0.273 -0.0383 -0.1200  0.2205
 8135WAT      O33259   4.652   3.614   0.857 -0.3692  1.0002  0.5202
 8135WAT     H133260   4.621   3.606   0.939 -2.1416  2.4418  0.0718
 8135WAT     H233261   4.738   3.616   0.868 -0.4919 -0.2280  2.1990
 8135WAT    EPW33262   4.660   3.613   0.871 -0.6492  1.0317  0.7019
 8136WAT      O33263   2.020   3.862   6.071 -0.2260  0.3358  0.1816
 8136WAT     H133264   2.072   3.931   6.087  0.8500 -0.5553  0.6789
 8136WAT     H233265   2.066   3.795   6.102 -0.4472 -0.8547 -1.8953
 8136WAT    EPW33266   2.035   3.862   6.078 -0.0997  0.0283 -0.0517
 8137WAT      O33267   3.485   4.603   7.265  0.1605 -0.0153  0.4356
 8137WAT     H133268   3.425   4.563   7.216 -0.6992  1.2101  0.4420
 8137WAT     H233269   3.560   4.568   7.238 -0.3688 -0.0468 -1.1049
 8137WAT    EPW33270   3.487   4.592   7.254 -0.0447  0.1611  0.2090
 8138WAT      O33271   1.992   2.425   1.037  0.3104  0.5477 -0.1020
 8138WAT     H133272   2.050   2.377   0.992  0.4401  0.4742  0.1395
 8138WAT     H233273   1.917   2.412   0.995  0.2339 -0.3029  0.2716
 8138WAT    EPW33274   1.990   2.416   1.024  0.3183  0.4112 -0.0111
 8139WAT      O33275   2.833   4.524   1.477 -0.2984 -0.1210  0.2202
 8139WAT     H133276   2.877   4.461   1.436  0.9256  0.0476  1.2266
 8139WAT     H233277   2.769   4.481   1.517 -0.5104 -0.4953 -0.4957
 8139WAT    EPW33278   2.830   4.508   1.477 -0.1489 -0.1514  0.2631
 8140WAT      O33279   4.473   3.057   7.485 -0.2678 -0.5751  1.0451
 8140WAT     H133280   4.457   3.037   7.402 -1.5091  0.2950  1.0488
 8140WAT     H233281   4.414   3.012   7.529 -1.3064  0.9128  1.2413
 8140WAT    EPW33282   4.462   3.048   7.479 -0.6046 -0.2268  1.0746
 8141WAT      O33283   3.058   3.860   0.519 -0.4365  0.0824 -0.3210
 8141WAT     H133284   2.984   3.856   0.565 -0.0049 -0.2242  0.3732
 8141WAT     H233285   3.115   3.892   0.576  0.0616 -0.0814 -0.7207
 8141WAT    EPW33286   3.055   3.864   0.534 -0.2991  0.0129 -0.2775
 8142WAT      O33287   1.973   5.206   0.483 -0.3761 -0.3537 -0.1339
 8142WAT     H133288   2.008   5.228   0.407  0.9073  2.2664  1.0477
 8142WAT     H233289   2.005   5.127   0.500 -0.4967 -0.8678 -2.1658
 8142WAT    EPW33290   1.983   5.198   0.474 -0.2043 -0.0426 -0.2595
 8143WAT      O33291   3.364   3.662   1.818 -0.4935  0.2457  0.1570
 8143WAT     H133292   3.278   3.676   1.810 -0.1806  1.5387 -1.4705
 8143WAT     H233293   3.398   3.742   1.819  0.8017 -0.2662 -0.4945
 8143WAT    EPW33294   3.356   3.676   1.817 -0.2560  0.3611 -0.1797
 8144WAT      O33295   3.427   3.383   2.382 -0.1742 -0.3305 -0.2037
 8144WAT     H133296   3.451   3.307   2.347 -0.8514 -1.1931  1.1678
 8144WAT     H233297   3.362   3.362   2.436 -0.2229  1.1912  0.3775
 8144WAT    EPW33298   3.421   3.369   2.385 -0.2814 -0.2332  0.0847
 8145WAT      O33299   3.562   2.659   2.189  0.6033  0.3296  0.0895
 8145WAT     H133300   3.531   2.581   2.167 -0.1787  0.7063 -0.2163
 8145WAT     H233301   3.586   2.649   2.272  0.6046 -0.2616  0.0215
 8145WAT    EPW33302   3.561   2.646   2.198  0.4880  0.2979  0.0343
 8146WAT      O33303   3.054   4.500   2.794 -0.4794 -0.4461 -0.5126
 8146WAT     H133304   3.062   4.418   2.824 -1.7730 -0.1818  0.6451
 8146WAT     H233305   3.125   4.540   2.826 -1.8125 -0.1741  2.4282
 8146WAT    EPW33306   3.066   4.494   2.803 -0.8674 -0.3669  0.0929
 8147WAT      O33307   4.575   4.258   7.544 -0.0045  0.3025  0.2194
 8147WAT     H133308   4.553   4.184   7.504 -0.9190  1.5207 -1.6608
 8147WAT     H233309   4.502   4.280   7.588  0.1316  0.2922  0.4515
 8147WAT    EPW33310   4.561   4.251   7.545 -0.1195  0.4809 -0.0241
 8148WAT      O33311   2.658   4.254   0.334  0.1174  0.1577 -0.0176
 8148WAT     H133312   2.608   4.216   0.394 -0.3007 -1.3845 -1.2725
 8148WAT     H233313   2.604   4.264   0.266  0.5751  1.8539 -0.1920
 8148WAT    EPW33314   2.642   4.250   0.333  0.1233  0.1805 -0.2287
 8149WAT      O33315   4.624   3.990   7.514 -0.4635 -0.0923 -0.3250
 8149WAT     H133316   4.653   3.942   7.448 -0.6484 -1.7178  0.7131
 8149WAT     H233317   4.553   3.947   7.541 -0.6567  0.7845  0.6522
 8149WAT    EPW33318   4.618   3.977   7.508 -0.5194 -0.2029 -0.0273
 8150WAT      O33319   2.497   4.795   1.009 -0.2861 -0.1984  0.0363
 8150WAT     H133320   2.483   4.785   1.095 -1.7072 -1.2966 -0.2849
 8150WAT     H233321   2.462   4.723   0.974  1.6679 -0.5608 -1.3564
 8150WAT    EPW33322   2.490   4.783   1.017 -0.2074 -0.4141 -0.2169
 8151WAT      O33323   1.447   2.984   2.028 -0.2788 -0.0510 -0.2603
 8151WAT     H133324   1.427   2.927   1.965  0.1925  1.0248 -1.4424
 8151WAT     H233325   1.387   3.047   2.018  1.6120  1.6288 -1.7124
 8151WAT    EPW33326   1.435   2.985   2.017  0.0701  0.3561 -0.6494
 8152WAT      O33327   3.466   3.661   7.776  0.0403  0.0786  0.3519
 8152WAT     H133328   3.429   3.583   7.763 -1.0710  0.7136 -0.5396
 8152WAT     H233329   3.495   3.657   7.858  0.6146 -1.4984  0.1035
 8152WAT    EPW33330   3.465   3.649   7.786 -0.0390 -0.0606  0.1835
 8153WAT      O33331   0.814   1.427   1.871 -0.0609 -0.7303  0.2713
 8153WAT     H133332   0.840   1.416   1.789  2.1629  1.0378  0.6418
 8153WAT     H233333   0.847   1.357   1.912 -1.0228 -1.5238 -0.2613
 8153WAT    EPW33334   0.823   1.415   1.865  0.1255 -0.5863  0.2473
 8154WAT      O33335   2.703   4.695   0.022 -0.7820 -0.1501  0.6324
 8154WAT     H133336   2.619   4.718   0.026 -0.4545  1.9093 -1.7430
 8154WAT     H233337   2.727   4.692   0.106 -2.2481  3.4154  1.3675
 8154WAT    EPW33338   2.694   4.698   0.035 -0.9502  0.6808  0.3901
 8155WAT      O33339   3.424   3.933   0.956  0.0526  0.4789 -0.1017
 8155WAT     H133340   3.477   3.992   0.920 -0.0243  1.8068  1.8461
 8155WAT     H233341   3.479   3.877   0.995  0.1487  2.0045  2.1506
 8155WAT    EPW33342   3.440   3.933   0.956  0.0554  0.9004  0.5187
 8156WAT      O33343   2.708   3.668   0.872 -0.4284 -0.2420  0.4281
 8156WAT     H133344   2.660   3.626   0.931  0.1871  0.1412  1.2304
 8156WAT     H233345   2.751   3.728   0.919  0.4197 -0.2146 -0.3326
 8156WAT    EPW33346   2.707   3.671   0.888 -0.2122 -0.1814  0.4342
 8157WAT      O33347   3.157   4.135   1.296 -0.2374  0.0143 -0.4105
 8157WAT     H133348   3.224   4.098   1.338 -0.4374 -2.2993 -1.9129
 8157WAT     H233349   3.181   4.131   1.212 -2.8189 -2.5298 -1.2093
 8157WAT    EPW33350   3.170   4.129   1.290 -0.6483 -0.7033 -0.7504
 8158WAT      O33351   1.623   3.046   1.702  0.2452 -0.5462 -0.3694
 8158WAT     H133352   1.596   3.106   1.759  1.1583  0.0943 -0.5780
 8158WAT     H233353   1.550   3.003   1.680 -0.1955 -0.4817  0.8920
 8158WAT    EPW33354   1.609   3.048   1.707  0.3150 -0.4421 -0.2139
 8159WAT      O33355   2.019   3.685   0.916  0.1041 -0.1984  0.4887
 8159WAT     H133356   2.067   3.748   0.877 -0.3582 -1.0140 -1.5160
 8159WAT     H233357   2.076   3.646   0.968  0.6445  1.2668  1.0516
 8159WAT    EPW33358   2.035   3.689   0.918  0.1156 -0.1024  0.2758
 8160WAT      O33359   3.794   3.396   1.515 -0.1081  0.0471 -0.3724
 8160WAT     H133360   3.771   3.312   1.511  1.9792 -0.5663 -0.6893
 8160WAT     H233361   3.730   3.433   1.562 -1.7790 -1.4290 -1.3773
 8160WAT    EPW33362   3.781   3.389   1.521 -0.0466 -0.2616 -0.5677
 8161WAT      O33363   3.749   3.938   2.100  0.1132 -0.2292  0.0285
 8161WAT     H133364   3.739   3.905   2.180 -0.4919 -2.0133 -0.7255
 8161WAT     H233365   3.813   3.890   2.066 -0.3107 -0.1772 -0.8718
 8161WAT    EPW33366   3.757   3.926   2.107 -0.0388 -0.4851 -0.2159
 8162WAT      O33367   4.376   3.645   0.164 -0.5574 -0.2467 -0.5250
 8162WAT     H133368   4.420   3.629   0.090  0.0507 -0.5146 -0.1131
 8162WAT     H233369   4.339   3.723   0.150  0.2562  0.0956 -0.7901
 8162WAT    EPW33370   4.377   3.655   0.151 -0.3474 -0.2357 -0.5033
 8163WAT      O33371   4.267   5.184   7.326  0.6657 -0.0886  0.1178
 8163WAT     H133372   4.300   5.264   7.339  0.4294 -0.0936  0.7923
 8163WAT     H233373   4.337   5.131   7.335  0.9610  0.0868 -1.0466
 8163WAT    EPW33374   4.283   5.188   7.330  0.6744 -0.0634  0.0454
 8164WAT      O33375   1.879   3.593   7.684 -0.0475  0.4897  0.3271
 8164WAT     H133376   1.924   3.617   7.754 -0.4454  1.9259  0.1214
 8164WAT     H233377   1.839   3.667   7.658  0.2656  0.0608 -1.5353
 8164WAT    EPW33378   1.879   3.608   7.691 -0.0600  0.6385  0.0216
 8165WAT      O33379   3.036   1.872   7.713  0.1209 -0.0976 -0.2652
 8165WAT     H133380   3.043   1.919   7.786  0.7683  1.3176 -1.2011
 8165WAT     H233381   3.033   1.790   7.742 -0.3514  0.4590  1.3856
 8165WAT    EPW33382   3.036   1.867   7.728  0.1467  0.1937 -0.1596
 8166WAT      O33383   2.417   3.206   1.298 -0.2162 -0.3552 -0.6458
 8166WAT     H133384   2.358   3.227   1.238 -0.8894 -0.5238 -0.0523
 8166WAT     H233385   2.381   3.139   1.340 -0.3328  0.5579  0.7737
 8166WAT    EPW33386   2.403   3.200   1.295 -0.3328 -0.2452 -0.3484
 8167WAT      O33387   3.743   3.363   1.887  0.4070  0.5344 -0.2403
 8167WAT     H133388   3.726   3.399   1.810  2.7418  1.9570 -0.2032
 8167WAT     H233389   3.828   3.342   1.882  0.3805 -0.2677  1.5958
 8167WAT    EPW33390   3.753   3.365   1.875  0.7480  0.6260  0.0364
 8168WAT      O33391   3.599   2.685   1.249 -0.3943  0.2697 -0.3345
 8168WAT     H133392   3.674   2.694   1.293  1.0256 -0.1868 -2.5341
 8168WAT     H233393   3.597   2.600   1.229 -0.9683  0.4648 -1.1631
 8168WAT    EPW33394   3.610   2.674   1.253 -0.2693  0.2311 -0.7818
 8169WAT      O33395   2.678   4.469   7.337  0.0249 -0.2228 -0.4507
 8169WAT     H133396   2.754   4.479   7.296  0.2431 -1.6243 -0.4109
 8169WAT     H233397   2.671   4.542   7.385  0.2183  1.0265 -2.1897
 8169WAT    EPW33398   2.688   4.481   7.338  0.0857 -0.2453 -0.7017
 8170WAT      O33399   3.572   3.674   1.390 -0.1266 -0.0597 -0.1741
 8170WAT     H133400   3.567   3.599   1.346 -0.5129  1.0407 -2.1236
 8170WAT     H233401   3.644   3.711   1.358 -0.0244  0.4662  0.6550
 8170WAT    EPW33402   3.582   3.668   1.379 -0.1685  0.1805 -0.3396
 8171WAT      O33403   1.587   3.991   0.834  0.1320  0.1674  0.2627
 8171WAT     H133404   1.614   4.071   0.813  0.3824 -0.1797 -0.7596
 8171WAT     H233405   1.519   3.977   0.781  0.0234 -0.2671  0.5075
 8171WAT    EPW33406   1.581   4.001   0.823  0.1530  0.0520  0.1479
 8172WAT      O33407   2.613   3.752   1.344 -0.2751  0.3334 -0.1321
 8172WAT     H133408   2.606   3.783   1.425 -0.9190  1.5934 -0.6504
 8172WAT     H233409   2.698   3.733   1.337 -0.1283  0.6349  0.6696
 8172WAT    EPW33410   2.624   3.754   1.355 -0.3485  0.5640 -0.0903
 8173WAT      O33411   2.176   4.112   2.700  0.3359 -0.2233 -0.4207
 8173WAT     H133412   2.109   4.118   2.755  1.4154  0.4139  0.8951
 8173WAT     H233413   2.229   4.056   2.739  0.0680 -1.7078 -2.0488
 8173WAT    EPW33414   2.174   4.105   2.714  0.4558 -0.3484 -0.4668
 8174WAT      O33415   4.073   4.287   1.578 -0.3657  0.2634  0.4425
 8174WAT     H133416   4.073   4.231   1.645  2.1284  0.7175  0.9484
 8174WAT     H233417   4.061   4.236   1.509 -0.3070 -0.6155  1.0550
 8174WAT    EPW33418   4.071   4.271   1.578  0.0114  0.2007  0.6077
 8175WAT      O33419   1.885   3.296   1.281  0.1103  0.3830  0.2043
 8175WAT     H133420   1.816   3.286   1.332  0.4986 -2.2040  0.3369
 8175WAT     H233421   1.936   3.227   1.300  0.6030 -0.3544 -3.1011
 8175WAT    EPW33422   1.882   3.284   1.291  0.2404 -0.1081 -0.2644
 8176WAT      O33423   1.207   3.428   1.094  0.1385  0.3221  0.1824
 8176WAT     H133424   1.278   3.476   1.078  0.3395 -0.0763 -0.1393
 8176WAT     H233425   1.229   3.380   1.163  1.2426 -1.8485 -1.5501
 8176WAT    EPW33426   1.220   3.428   1.102  0.3313 -0.0574 -0.1211
 8177WAT      O33427   2.421   5.250   1.700  0.0866 -0.7259  0.0027
 8177WAT     H133428   2.352   5.196   1.694 -0.7438  0.3984 -1.2780
 8177WAT     H233429   2.480   5.213   1.647 -0.6324 -0.2021 -1.2038
 8177WAT    EPW33430   2.419   5.237   1.691 -0.1423 -0.4825 -0.3647
 8178WAT      O33431   3.940   2.502   0.253 -0.2514  0.2802  0.5474
 8178WAT     H133432   4.014   2.465   0.224 -0.2046  0.2194  0.7405
 8178WAT     H233433   3.897   2.521   0.180  0.2659  0.9677  0.4157
 8178WAT    EPW33434   3.945   2.499   0.238 -0.1681  0.3728  0.5565
 8179WAT      O33435   2.173   3.365   0.040  0.6185  0.6445  0.4820
 8179WAT     H133436   2.150   3.445   0.011 -1.2249 -0.4986 -1.5808
 8179WAT     H233437   2.138   3.361   0.119 -3.5040  0.3845 -1.1033
 8179WAT    EPW33438   2.164   3.376   0.047 -0.2628  0.4372 -0.0569
 8180WAT      O33439   0.977   5.919   7.662 -0.3011 -0.1399  0.4425
 8180WAT     H133440   0.935   5.953   7.731  0.1511  0.7220  0.2997
 8180WAT     H233441   0.958   5.834   7.667 -0.5285 -0.0446  1.4630
 8180WAT    EPW33442   0.968   5.911   7.673 -0.2679  0.0015  0.5722
 8181WAT      O33443   2.446   4.721   0.721 -0.1323 -0.2138 -0.0549
 8181WAT     H133444   2.508   4.739   0.662 -0.0463 -0.5995 -0.0868
 8181WAT     H233445   2.374   4.757   0.688  0.0205  0.0104 -0.1463
 8181WAT    EPW33446   2.445   4.729   0.707 -0.0971 -0.2376 -0.0731
 8182WAT      O33447   3.155   4.164   7.792  1.0966 -0.1324  0.2957
 8182WAT     H133448   3.200   4.096   7.824 -1.1202 -1.5542  0.5738
 8182WAT     H233449   3.098   4.128   7.737  0.7928  1.6795 -0.6703
 8182WAT    EPW33450   3.154   4.149   7.789  0.7242 -0.0748  0.1941
 8183WAT      O33451   3.875   4.696   0.145  0.2390  0.0110 -0.3230
 8183WAT     H133452   3.790   4.684   0.162 -0.3260 -0.8582 -3.3009
 8183WAT     H233453   3.914   4.634   0.192 -0.6082  0.8907  1.6963
 8183WAT    EPW33454   3.868   4.685   0.155  0.0304  0.0125 -0.4646
 8184WAT      O33455   4.065   4.312   7.505  0.1703 -0.0125  0.2286
 8184WAT     H133456   4.123   4.286   7.565  0.3421  2.6240  1.3116
 8184WAT     H233457   4.114   4.355   7.447 -0.3888  0.0036 -0.2376
 8184WAT    EPW33458   4.081   4.314   7.505  0.1131  0.3793  0.3197
 8185WAT      O33459   3.675   3.879   2.364 -0.1924  0.4144 -0.1401
 8185WAT     H133460   3.591   3.903   2.360 -0.2725  0.5871  1.6698
 8185WAT     H233461   3.671   3.794   2.385  0.0770  0.5065  0.2933
 8185WAT    EPW33462   3.662   3.870   2.367 -0.1645  0.4535  0.1913
 8186WAT      O33463   4.441   4.262   0.351  0.0763 -0.0222 -0.6472
 8186WAT     H133464   4.492   4.199   0.320  1.8308  0.7499  0.4964
 8186WAT     H233465   4.497   4.318   0.388 -1.6535  0.3672  1.6188
 8186WAT    EPW33466   4.457   4.261   0.352  0.0799  0.1494 -0.1435
 8187WAT      O33467   2.788   3.278   1.082  0.0547  0.4654 -0.5550
 8187WAT     H133468   2.727   3.341   1.086 -0.5350 -0.1137 -0.1223
 8187WAT     H233469   2.747   3.214   1.040  0.5996  0.3080 -0.8489
 8187WAT    EPW33470   2.773   3.278   1.076  0.0481  0.3566 -0.5345
 8188WAT      O33471   1.338   2.062   1.344 -0.1651  0.4577  0.2245
 8188WAT     H133472   1.411   2.106   1.363 -0.2108  0.6587 -0.0616
 8188WAT     H233473   1.278   2.098   1.395  0.3438 -1.1339  2.1153
 8188WAT    EPW33474   1.340   2.074   1.354 -0.0967  0.2523  0.4615
 8189WAT      O33475   2.462   3.588   2.320 -0.1278  0.2230  0.2025
 8189WAT     H133476   2.485   3.572   2.403 -0.2965 -0.4751  0.1152
 8189WAT     H233477   2.509   3.531   2.274 -1.0722 -0.3456 -0.0751
 8189WAT    EPW33478   2.472   3.577   2.326 -0.2922  0.0359  0.1486
 8190WAT      O33479   3.309   5.264   0.221 -0.5393 -0.3415 -0.4132
 8190WAT     H133480   3.279   5.189   0.254  1.7307 -1.6243 -1.0032
 8190WAT     H233481   3.393   5.247   0.205  0.3782  2.6841  0.4360
 8190WAT    EPW33482   3.317   5.250   0.224 -0.0684 -0.0840 -0.3749
 8191WAT      O33483   2.560   4.352   1.357 -0.0421  0.6481 -0.0604
 8191WAT     H133484   2.546   4.266   1.354 -0.5383  0.7249 -0.0146
 8191WAT     H233485   2.581   4.366   1.440 -4.4074  1.2021  1.2041
 8191WAT    EPW33486   2.561   4.341   1.369 -0.7602  0.7412  0.1332
 8192WAT      O33487   3.545   5.110   0.189  0.0128 -0.6714  0.0215
 8192WAT     H133488   3.585   5.126   0.113 -2.1839  0.5009 -0.9768
 8192WAT     H233489   3.511   5.030   0.177 -0.9563 -0.1936 -0.5758
 8192WAT    EPW33490   3.545   5.100   0.176 -0.4548 -0.4276 -0.2142
 8193WAT      O33491   2.979   1.497   5.632  0.0817  0.7939  0.1270
 8193WAT     H133492   3.053   1.462   5.601 -1.0019  1.2662 -3.5282
 8193WAT     H233493   2.998   1.582   5.641  0.4863  0.6084  1.1320
 8193WAT    EPW33494   2.993   1.504   5.629 -0.0186  0.8363 -0.2645
 8194WAT      O33495   2.704   1.980   5.942  0.1487  0.5694 -0.6879
 8194WAT     H133496   2.670   1.912   5.899 -0.5832  1.7840 -2.1339
 8194WAT     H233497   2.634   2.018   5.979  0.6930 -0.1010  1.1596
 8194WAT    EPW33498   2.689   1.976   5.941  0.1210  0.6498 -0.6286
 8195WAT      O33499   1.299   1.869   6.354 -0.5285 -0.2464 -0.7482
 8195WAT     H133500   1.295   1.783   6.341  0.4546 -0.2611 -1.0103
 8195WAT     H233501   1.280   1.902   6.276  1.4136 -0.2802 -1.2846
 8195WAT    EPW33502   1.296   1.861   6.340 -0.0964 -0.2536 -0.8662
 8196WAT      O33503   4.234   1.218   6.441 -0.2521  0.7238 -0.2430
 8196WAT     H133504   4.271   1.243   6.366  0.2624 -0.3664 -0.3847
 8196WAT     H233505   4.170   1.275   6.453 -0.7088  0.5798 -1.8121
 8196WAT    EPW33506   4.230   1.230   6.432 -0.2436  0.5415 -0.4957
 8197WAT      O33507   2.448   0.930   7.082 -0.0441  0.2620  0.2719
 8197WAT     H133508   2.381   0.984   7.087  0.1327  0.5122 -0.0028
 8197WAT     H233509   2.515   0.977   7.113  0.3600  0.6446 -1.1086
 8197WAT    EPW33510   2.448   0.945   7.087  0.0417  0.3555  0.0274
 8198WAT      O33511   3.163   2.105   6.672  0.0201 -0.6995  0.2663
 8198WAT     H133512   3.133   2.071   6.747 -0.5678  1.4801  1.0979
 8198WAT     H233513   3.208   2.175   6.698  1.7057 -1.1429 -1.3091
 8198WAT    EPW33514   3.165   2.111   6.687  0.1822 -0.4431  0.1564
 8199WAT      O33515   4.404   1.387   0.431  0.2284 -0.0882  0.6327
 8199WAT     H133516   4.430   1.357   0.508  1.8871  0.1411  0.2164
 8199WAT     H233517   4.350   1.453   0.451 -0.2615 -0.7567  1.5638
 8199WAT    EPW33518   4.400   1.392   0.445  0.4011 -0.1531  0.7088
 8200WAT      O33519   3.450   1.983   6.815  0.1233 -0.1239 -0.6896
 8200WAT     H133520   3.399   1.941   6.758 -0.9741 -0.8981  0.8221
 8200WAT     H233521   3.479   2.052   6.769 -2.0856  0.2300 -1.6818
 8200WAT    EPW33522   3.447   1.987   6.800 -0.3651 -0.1860 -0.6128
 8201WAT      O33523   3.344   1.876   5.212  0.1839 -0.1709 -0.2160
 8201WAT     H133524   3.269   1.831   5.212  0.3700 -0.4945 -0.4844
 8201WAT     H233525   3.391   1.837   5.274 -0.1147  0.4579  0.4031
 8201WAT    EPW33526   3.340   1.863   5.221  0.1673 -0.1258 -0.1642
 8202WAT      O33527   2.730   2.981   7.026  0.2802  0.2152  0.3552
 8202WAT     H133528   2.649   2.950   7.025 -0.9712  2.8031  3.5995
 8202WAT     H233529   2.772   2.926   7.080 -0.9592  1.8532  3.1888
 8202WAT    EPW33530   2.724   2.968   7.034 -0.0877  0.8394  1.2530
 8203WAT      O33531   2.435   2.132   6.606 -0.2107 -0.1561  0.5164
 8203WAT     H133532   2.405   2.055   6.635  2.2615 -1.5131 -0.2494
 8203WAT     H233533   2.494   2.155   6.665 -1.5985  1.7747  1.2787
 8203WAT    EPW33534   2.439   2.124   6.619 -0.0505 -0.0713  0.5159
 8204WAT      O33535   2.737   1.573   0.207 -0.5121 -0.0250 -0.1009
 8204WAT     H133536   2.669   1.542   0.253 -0.7979  2.4067  1.2625
 8204WAT     H233537   2.787   1.610   0.268  0.9543  0.1702 -1.3744
 8204WAT    EPW33538   2.734   1.574   0.223 -0.3377  0.3631 -0.0876
 8205WAT      O33539   2.465   1.456   6.821  0.0914 -0.0728  0.0065
 8205WAT     H133540   2.431   1.383   6.787 -2.2745  0.9840 -0.1037
 8205WAT     H233541   2.477   1.507   6.751 -0.1475  0.3266  0.2482
 8205WAT    EPW33542   2.462   1.453   6.805 -0.2934  0.1423  0.0259
 8206WAT      O33543   1.905   1.696   6.987  0.0746 -0.2637 -0.1873
 8206WAT     H133544   1.925   1.612   6.974  0.0382  0.0284 -2.6653
 8206WAT     H233545   1.976   1.729   7.026  0.4952 -1.2258 -0.1186
 8206WAT    EPW33546   1.918   1.688   6.991  0.1314 -0.3627 -0.5432
 8207WAT      O33547   4.198   2.608   6.531 -0.1014 -0.0384 -0.4802
 8207WAT     H133548   4.209   2.691   6.507  1.2170 -0.2594 -0.7077
 8207WAT     H233549   4.118   2.589   6.503  1.0529 -0.1227 -4.3937
 8207WAT    EPW33550   4.188   2.617   6.523  0.2639 -0.0835 -1.0919
 8208WAT      O33551   3.116   2.910   6.952 -0.7863 -0.3688 -0.2878
 8208WAT     H133552   3.195   2.873   6.961 -1.3160 -1.2922  0.8884
 8208WAT     H233553   3.067   2.869   7.012 -2.1849  0.1440 -1.0330
 8208WAT    EPW33554   3.121   2.899   6.962 -1.0711 -0.4295 -0.2241
 8209WAT      O33555   4.450   2.419   6.787 -0.3580 -0.5817 -0.0028
 8209WAT     H133556   4.517   2.372   6.817 -0.3086 -0.3310  0.2802
 8209WAT     H233557   4.442   2.393   6.704  1.3819  0.8116 -0.6714
 8209WAT    EPW33558   4.459   2.408   6.779 -0.0937 -0.3388 -0.0597
 8210WAT      O33559   3.937   0.739   6.898 -0.2336  0.0324  0.3161
 8210WAT     H133560   3.869   0.690   6.923 -1.1939  1.5990  0.9450
 8210WAT     H233561   3.900   0.810   6.864  1.1133  0.0788 -1.1341
 8210WAT    EPW33562   3.922   0.742   6.897 -0.1765  0.2707  0.1948
 8211WAT      O33563   3.525   2.636   0.077 -0.0400 -0.2668 -1.0803
 8211WAT     H133564   3.477   2.687   0.025  0.4228  0.9947 -0.3073
 8211WAT     H233565   3.464   2.592   0.123 -0.4409 -0.6530 -1.9574
 8211WAT    EPW33566   3.509   2.637   0.076 -0.0308 -0.1375 -1.0957
 8212WAT      O33567   3.020   2.001   5.373  0.2885  0.3788  0.6517
 8212WAT     H133568   3.000   1.989   5.457  1.6047 -0.4991  0.8653
 8212WAT     H233569   3.057   2.081   5.372  1.3952 -0.0975  1.1568
 8212WAT    EPW33570   3.023   2.011   5.386  0.6464  0.1788  0.7579
 8213WAT      O33571   2.232   1.428   7.620  0.1487  0.1778  0.1319
 8213WAT     H133572   2.318   1.442   7.614  0.2852 -0.5233  0.4615
 8213WAT     H233573   2.210   1.403   7.539  0.9699 -3.4713  0.8604
 8213WAT    EPW33574   2.241   1.426   7.607  0.2901 -0.4648  0.2882
 8214WAT      O33575   2.852   0.047   6.453  0.7521  0.4871 -0.1422
 8214WAT     H133576   2.779   0.004   6.477  0.2581  1.8297  0.8922
 8214WAT     H233577   2.875   0.008   6.378 -1.4155  0.4606 -0.8566
 8214WAT    EPW33578   2.844   0.035   6.446  0.3589  0.6815 -0.0949
 8215WAT      O33579   2.822   1.991   4.989 -0.1458  0.4375  0.2493
 8215WAT     H133580   2.757   2.033   4.948 -0.4738 -0.4864 -0.2082
 8215WAT     H233581   2.780   1.939   5.045  0.0343 -1.7213 -1.4955
 8215WAT    EPW33582   2.806   1.990   4.991 -0.1676 -0.0179 -0.0761
 8216WAT      O33583   1.891   1.981   6.762  0.3773 -0.3272  0.0404
 8216WAT     H133584   1.971   1.997   6.793 -0.1170 -0.8221  1.6905
 8216WAT     H233585   1.901   1.909   6.713  0.8646 -0.6788  0.6504
 8216WAT    EPW33586   1.904   1.973   6.760  0.3762 -0.4523  0.3743
 8217WAT      O33587   2.888   1.439   6.973  0.9339 -0.2124  0.1668
 8217WAT     H133588   2.953   1.409   7.023 -0.6515 -0.8445  2.0210
 8217WAT     H233589   2.914   1.519   6.950  2.6362 -0.7104  0.2480
 8217WAT    EPW33590   2.901   1.447   6.977  0.9511 -0.3793  0.4527
 8218WAT      O33591   3.088   3.053   7.606  0.2763  0.5241 -0.0092
 8218WAT     H133592   3.051   2.975   7.618 -0.3877  0.9623  1.0512
 8218WAT     H233593   3.027   3.109   7.636 -0.5905  1.7167 -3.5237
 8218WAT    EPW33594   3.073   3.050   7.612  0.0502  0.7650 -0.3717
 8219WAT      O33595   3.615   2.919   5.985  0.2593  0.0623  0.3107
 8219WAT     H133596   3.691   2.878   5.969  0.5170  0.6226  0.0946
 8219WAT     H233597   3.556   2.854   5.978  0.7563 -0.4749  0.9598
 8219WAT    EPW33598   3.617   2.903   5.981  0.3708  0.0657  0.3747
 8220WAT      O33599   4.192   2.880   6.019 -0.1886 -0.6860  0.2282
 8220WAT     H133600   4.259   2.830   6.042  0.1614 -0.1685  0.3360
 8220WAT     H233601   4.209   2.957   6.056 -0.6820 -0.4606 -0.0010
 8220WAT    EPW33602   4.204   2.884   6.028 -0.2098 -0.5763  0.2102
 8221WAT      O33603   2.487   0.893   7.508 -0.8213 -0.2462 -0.4389
 8221WAT     H133604   2.531   0.949   7.458 -0.3179 -0.2014  0.0441
 8221WAT     H233605   2.429   0.944   7.550 -1.6485 -0.3680 -1.3989
 8221WAT    EPW33606   2.485   0.909   7.507 -0.8692 -0.2576 -0.5094
 8222WAT      O33607   2.038   1.868   5.828 -0.0666  0.0173  0.2953
 8222WAT     H133608   2.060   1.910   5.901 -1.5802 -0.9848  1.3983
 8222WAT     H233609   1.953   1.887   5.819  0.0967  0.1185 -1.2156
 8222WAT    EPW33610   2.029   1.877   5.838 -0.2661 -0.1158  0.2350
 8223WAT      O33611   3.636   0.316   6.766  0.1148 -0.4896  0.1233
 8223WAT     H133612   3.551   0.335   6.776  0.4360  0.5108  1.3182
 8223WAT     H233613   3.654   0.267   6.836  0.4279 -1.0583 -0.3556
 8223WAT    EPW33614   3.626   0.312   6.778  0.2085 -0.4258  0.2291
 8224WAT      O33615   5.809   3.190   6.884  0.3125  0.0255  0.7755
 8224WAT     H133616   5.820   3.270   6.851 -1.8516 -0.3079 -1.0058
 8224WAT     H233617   5.890   3.160   6.895  1.1448  1.9220  0.0874
 8224WAT    EPW33618   5.822   3.197   6.881  0.1158  0.2564  0.4107
 8225WAT      O33619   2.886   0.438   5.927 -0.0463  0.6640  0.1029
 8225WAT     H133620   2.825   0.499   5.941 -0.4897  0.1862  0.2968
 8225WAT     H233621   2.904   0.447   5.842  0.2912  1.4159  0.2386
 8225WAT    EPW33622   2.879   0.449   5.916 -0.0619  0.7045  0.1516
 8226WAT      O33623   2.273   2.386   6.650  0.5174  0.1959 -0.1999
 8226WAT     H133624   2.313   2.315   6.619 -0.2502 -0.7774  0.9317
 8226WAT     H233625   2.335   2.425   6.698  0.7384 -0.1006 -0.2385
 8226WAT    EPW33626   2.288   2.381   6.653  0.4367  0.0083 -0.0385
 8227WAT      O33627   2.740   1.761   6.929  0.3594 -0.0174 -0.4268
 8227WAT     H133628   2.815   1.717   6.922 -0.1412 -1.0863  0.5674
 8227WAT     H233629   2.762   1.843   6.913  1.5955 -0.4284 -0.9134
 8227WAT    EPW33630   2.754   1.767   6.925  0.4681 -0.2360 -0.3518
 8228WAT      O33631   3.228   1.647   0.146 -0.4327  0.1249 -0.0504
 8228WAT     H133632   3.274   1.603   0.086 -1.2559 -0.1541 -0.4815
 8228WAT     H233633   3.282   1.650   0.215 -0.1169 -0.9886 -0.2344
 8228WAT    EPW33634   3.243   1.641   0.148 -0.5076 -0.0808 -0.1413
 8229WAT      O33635   4.769   0.769   6.227  0.6852 -0.7877 -0.3910
 8229WAT     H133636   4.772   0.854   6.205  0.0450  0.4364  3.5254
 8229WAT     H233637   4.693   0.743   6.193  0.3212  0.5614 -0.6895
 8229WAT    EPW33638   4.758   0.778   6.219  0.5369 -0.4076  0.1435
 8230WAT      O33639   3.236   1.470   5.962  0.7225 -0.2630  0.1650
 8230WAT     H133640   3.260   1.422   6.031  1.0926  1.8384  1.5670
 8230WAT     H233641   3.169   1.425   5.928  1.5884 -2.1954  0.8631
 8230WAT    EPW33642   3.230   1.456   5.967  0.9051 -0.2380  0.4752
 8231WAT      O33643   2.920   2.803   5.773 -0.4828  0.4450 -0.3929
 8231WAT     H133644   2.983   2.743   5.763 -0.6738  0.3247 -0.8964
 8231WAT     H233645   2.852   2.756   5.802 -0.0951  0.7081  1.0039
 8231WAT    EPW33646   2.919   2.787   5.776 -0.4538  0.4661 -0.2609
 8232WAT      O33647   3.706   2.825   7.185  0.3186  0.4500  0.3059
 8232WAT     H133648   3.758   2.797   7.249 -0.0376  0.6504  0.6847
 8232WAT     H233649   3.695   2.755   7.134  2.2032  0.7806 -0.6347
 8232WAT    EPW33650   3.712   2.811   7.187  0.5443  0.5284  0.2229
 8233WAT      O33651   4.748   0.812   6.718 -0.2683 -0.0902 -0.3424
 8233WAT     H133652   4.687   0.869   6.692  0.7236  1.5865  0.8473
 8233WAT     H233653   4.817   0.831   6.668 -0.4325 -1.4412 -1.1279
 8233WAT    EPW33654   4.749   0.823   6.707 -0.1461 -0.0421 -0.2827
 8234WAT      O33655   1.716   1.426   7.627  0.6327  1.0863  0.0667
 8234WAT     H133656   1.739   1.497   7.672 -0.7521  1.5871  0.0290
 8234WAT     H233657   1.778   1.419   7.567  1.9558  1.0124  1.3678
 8234WAT    EPW33658   1.728   1.436   7.625  0.6236  1.1494  0.2533
 8235WAT      O33659   3.386   3.399   7.726 -0.2275 -0.0862  0.0089
 8235WAT     H133660   3.365   3.360   7.651  0.9378 -0.7390 -0.0025
 8235WAT     H233661   3.459   3.358   7.750  0.3659  1.2882  0.6210
 8235WAT    EPW33662   3.394   3.387   7.718  0.0323  0.0204  0.0977
 8236WAT      O33663   1.823   1.667   5.198 -0.1687  0.3795 -0.5214
 8236WAT     H133664   1.822   1.585   5.169 -0.1558  1.1129 -2.7964
 8236WAT     H233665   1.908   1.688   5.199 -0.2637  0.8386 -1.4573
 8236WAT    EPW33666   1.836   1.658   5.194 -0.1808  0.5557 -0.9957
 8237WAT      O33667   1.867   0.200   5.206 -0.0319 -0.0456 -0.2026
 8237WAT     H133668   1.786   0.172   5.194  0.8802 -3.5966  0.8850
 8237WAT     H233669   1.871   0.216   5.292  0.8048 -1.4400  0.0387
 8237WAT    EPW33670   1.856   0.198   5.217  0.2265 -0.7762 -0.0063
 8238WAT      O33671   3.060   2.133   7.149  0.2444  0.0354 -0.5328
 8238WAT     H133672   3.050   2.080   7.217  1.6518 -1.4384 -1.3787
 8238WAT     H233673   3.136   2.174   7.166 -0.4403  1.2244 -0.2577
 8238WAT    EPW33674   3.070   2.131   7.162  0.3512 -0.0067 -0.6171
 8239WAT      O33675   3.188   1.742   7.201 -0.2148  0.0953 -0.3263
 8239WAT     H133676   3.232   1.747   7.125  0.6562 -0.6207  0.1068
 8239WAT     H233677   3.221   1.670   7.239  1.6710  2.0466  2.1153
 8239WAT    EPW33678   3.200   1.732   7.195  0.1924  0.2778  0.0984
 8240WAT      O33679   2.140   0.650   7.009 -0.3855  0.6253  0.6817
 8240WAT     H133680   2.120   0.574   7.046 -2.0777 -0.5624 -2.3400
 8240WAT     H233681   2.226   0.659   7.024 -0.2859 -1.4911  1.7098
 8240WAT    EPW33682   2.150   0.640   7.017 -0.6207  0.1372  0.3872
 8241WAT      O33683   2.529   1.615   6.339  0.2255 -0.0237  0.3173
 8241WAT     H133684   2.538   1.694   6.303 -1.3627  1.0915  2.1640
 8241WAT     H233685   2.603   1.605   6.385  0.9548 -0.1581 -0.8622
 8241WAT    EPW33686   2.541   1.625   6.341  0.0986  0.1212  0.4158
 8242WAT      O33687   1.590   1.743   5.666  0.3819 -0.4471  0.2530
 8242WAT     H133688   1.632   1.725   5.592 -0.1734 -1.2503  0.1250
 8242WAT     H233689   1.515   1.779   5.639  1.1821  1.5716  0.4878
 8242WAT    EPW33690   1.585   1.746   5.652  0.4181 -0.2675  0.2688
 8243WAT      O33691   3.296   2.169   6.982 -0.1703 -0.0462 -0.3295
 8243WAT     H133692   3.358   2.125   6.939  0.7314  0.0454  0.8428
 8243WAT     H233693   3.338   2.200   7.052 -0.7730  2.7028 -1.1035
 8243WAT    EPW33694   3.311   2.167   6.986 -0.1261  0.3734 -0.2706
 8244WAT      O33695   2.988   0.925   7.656 -0.2501  1.0932 -0.5474
 8244WAT     H133696   3.022   0.851   7.687  2.9146  0.7815 -4.1053
 8244WAT     H233697   2.910   0.901   7.624 -0.5979  0.0739  0.9723
 8244WAT    EPW33698   2.981   0.911   7.656  0.1660  0.8966 -0.8485
 8245WAT      O33699   4.612   4.176   6.173  0.5208  0.0454 -0.4103
 8245WAT     H133700   4.626   4.107   6.224 -0.6161  0.9738  1.2789
 8245WAT     H233701   4.680   4.175   6.118  1.6898 -1.1916  0.9574
 8245WAT    EPW33702   4.624   4.166   6.173  0.5255 -0.0002  0.0413
 8246WAT      O33703   2.811   2.886   7.397 -0.2228  0.7379 -0.2192
 8246WAT     H133704   2.778   2.932   7.464 -1.0246 -0.4568  0.2460
 8246WAT     H233705   2.742   2.876   7.344 -0.1819 -0.2846 -0.0922
 8246WAT    EPW33706   2.796   2.891   7.399 -0.3352  0.4103 -0.1317
 8247WAT      O33707   2.590   7.322   6.872  0.8918  0.3520  0.1466
 8247WAT     H133708   2.605   7.408   6.864  2.6188  0.3692  2.6900
 8247WAT     H233709   2.595   7.308   6.958  0.8675 -2.3665 -0.2207
 8247WAT    EPW33710   2.593   7.333   6.883  1.1433 -0.0471  0.4680
 8248WAT      O33711   3.386   2.288   6.399  0.5272  0.7123  0.1041
 8248WAT     H133712   3.342   2.344   6.448 -0.8885 -1.5482  1.6463
 8248WAT     H233713   3.446   2.337   6.359 -1.3907  3.4404  0.3167
 8248WAT    EPW33714   3.389   2.303   6.400  0.0348  0.7814  0.3633
 8249WAT      O33715   2.995   0.860   7.204 -0.6257  0.0241  0.0115
 8249WAT     H133716   3.072   0.853   7.245  0.8804 -1.0365 -2.7188
 8249WAT     H233717   2.946   0.799   7.242  0.6485 -0.8497  0.3119
 8249WAT    EPW33718   2.999   0.850   7.215 -0.2150 -0.2616 -0.3474
 8250WAT      O33719   2.754   1.881   0.137 -0.3301  0.2420 -0.1774
 8250WAT     H133720   2.754   1.795   0.147  0.6968  0.3271  0.7696
 8250WAT     H233721   2.824   1.907   0.183 -1.3302  1.6924  0.6089
 8250WAT    EPW33722   2.764   1.872   0.145 -0.3261  0.4688  0.0787
 8251WAT      O33723   3.467   1.057   6.293 -0.1686  0.0744  0.6038
 8251WAT     H133724   3.495   1.098   6.365 -1.0421 -0.3231  1.2037
 8251WAT     H233725   3.424   0.988   6.326 -0.0181 -0.4718 -0.3306
 8251WAT    EPW33726   3.465   1.053   6.309 -0.2754 -0.0650  0.5544
 8252WAT      O33727   2.796   0.256   5.223  0.2889  0.3676 -0.3146
 8252WAT     H133728   2.809   0.342   5.222 -0.5473  0.5154  0.2269
 8252WAT     H233729   2.718   0.247   5.262  1.2098 -0.7292  1.4371
 8252WAT    EPW33730   2.786   0.267   5.229  0.3014  0.2274  0.0242
 8253WAT      O33731   5.021   0.109   6.757 -0.2469 -0.5828  0.0753
 8253WAT     H133732   4.988   0.091   6.836  0.9459 -3.1329  0.1048
 8253WAT     H233733   5.095   0.063   6.755  0.6163  0.7542 -1.9438
 8253WAT    EPW33734   5.027   0.099   6.768  0.0568 -0.7620 -0.2186
 8254WAT      O33735   2.171   1.114   6.017  0.4707  0.2595  0.5220
 8254WAT     H133736   2.149   1.139   5.937  2.2108  1.2571  0.3099
 8254WAT     H233737   2.140   1.178   6.068  1.2536  0.7528  0.3997
 8254WAT    EPW33738   2.163   1.127   6.013  0.8434  0.4798  0.4726
 8255WAT      O33739   3.081   1.573   6.411 -0.5052  0.0336 -0.4033
 8255WAT     H133740   3.002   1.610   6.408  0.0595  1.2095 -2.5496
 8255WAT     H233741   3.076   1.511   6.350 -0.3530 -1.2719  0.8461
 8255WAT    EPW33742   3.068   1.569   6.402 -0.3993  0.0145 -0.5358
 8256WAT      O33743   2.611   2.097   6.325 -0.0556  0.1478 -0.6555
 8256WAT     H133744   2.690   2.133   6.323 -1.0154  2.3989 -1.7323
 8256WAT     H233745   2.561   2.160   6.357 -1.4142 -1.3080  0.2258
 8256WAT    EPW33746   2.615   2.111   6.329 -0.3981  0.2653 -0.6843
 8257WAT      O33747   1.436   3.557   6.384  0.4626 -0.1346  0.0903
 8257WAT     H133748   1.415   3.624   6.333  3.0517  2.2612  1.9227
 8257WAT     H233749   1.368   3.551   6.438  0.4066  1.4115  0.2332
 8257WAT    EPW33750   1.423   3.566   6.385  0.8368  0.4477  0.3821
 8258WAT      O33751   2.470   2.113   6.032 -0.0920 -0.3419 -0.2315
 8258WAT     H133752   2.418   2.154   6.089  1.3495  1.3146 -0.0003
 8258WAT     H233753   2.435   2.134   5.955 -0.9566 -1.0164 -0.0404
 8258WAT    EPW33754   2.457   2.122   6.029 -0.0067 -0.1968 -0.1691
 8259WAT      O33755   4.293   3.329   7.692  0.4535 -0.1997  0.4262
 8259WAT     H133756   4.331   3.272   7.746  0.9380 -1.5971 -1.2898
 8259WAT     H233757   4.333   3.314   7.616 -1.4133  0.4474 -0.7433
 8259WAT    EPW33758   4.305   3.318   7.689  0.2493 -0.3105 -0.0000
 8260WAT      O33759   2.652   2.157   5.611 -0.4637 -0.1345 -0.3606
 8260WAT     H133760   2.684   2.108   5.676 -1.8781 -0.8305 -0.1536
 8260WAT     H233761   2.657   2.104   5.542 -0.4577  0.0288 -0.4848
 8260WAT    EPW33762   2.657   2.142   5.611 -0.6718 -0.2132 -0.3483
 8261WAT      O33763   2.685   0.091   6.876  0.0475 -0.6659 -0.5799
 8261WAT     H133764   2.660   0.132   6.803  0.2093  0.0086 -0.2588
 8261WAT     H233765   2.771   0.081   6.866 -0.0450 -1.2734 -0.8245
 8261WAT    EPW33766   2.694   0.095   6.864  0.0578 -0.6560 -0.5686
 8262WAT      O33767   5.093   1.406   4.419 -0.1096 -0.4166  0.4018
 8262WAT     H133768   5.084   1.444   4.497 -1.0630  0.0459  0.0838
 8262WAT     H233769   5.163   1.446   4.384  1.4999 -1.9194  1.7257
 8262WAT    EPW33770   5.102   1.418   4.425 -0.0127 -0.5703  0.5504
 8263WAT      O33771   2.052   2.693   7.344  0.4278  0.3763 -0.3838
 8263WAT     H133772   1.976   2.653   7.328 -0.1030  1.0339  0.4465
 8263WAT     H233773   2.066   2.678   7.429  1.1486  0.4196 -0.4850
 8263WAT    EPW33774   2.043   2.685   7.354  0.4558  0.4799 -0.2761
 8264WAT      O33775   3.768   1.748   6.372 -0.2299  0.1763 -0.1227
 8264WAT     H133776   3.790   1.743   6.456 -1.1162  0.7699  0.1567
 8264WAT     H233777   3.844   1.765   6.332  0.1826 -0.0272  0.5560
 8264WAT    EPW33778   3.783   1.750   6.378 -0.2999  0.2340  0.0188
 8265WAT      O33779   0.932   2.547   7.825  0.2366  0.2164  0.1322
 8265WAT     H133780   0.949   2.464   7.804 -0.1079  0.2614 -0.3475
 8265WAT     H233781   0.882   2.575   7.759  1.6264  1.2672 -0.5324
 8265WAT    EPW33782   0.927   2.539   7.812  0.3910  0.3783 -0.0368
 8266WAT      O33783   4.157   7.567   7.565  0.4009  0.0589 -0.4744
 8266WAT     H133784   4.222   7.511   7.550  1.3374  0.4611  1.6883
 8266WAT     H233785   4.102   7.521   7.614 -0.1076  0.2481 -0.8640
 8266WAT    EPW33786   4.159   7.552   7.570  0.4641  0.1463 -0.2125
 8267WAT      O33787   3.924   3.121   6.602  0.1203 -0.2677  0.1335
 8267WAT     H133788   3.967   3.122   6.526  0.0440 -1.2097  0.0698
 8267WAT     H233789   3.858   3.178   6.589  1.0689  0.8490  0.0852
 8267WAT    EPW33790   3.920   3.129   6.589  0.2492 -0.2419  0.1169
 8268WAT      O33791   4.469   2.603   7.073  0.1146  0.0224  0.1319
 8268WAT     H133792   4.405   2.661   7.084 -0.7244 -0.4221 -1.9705
 8268WAT     H233793   4.437   2.530   7.107 -0.0347  0.0540  0.0575
 8268WAT    EPW33794   4.455   2.601   7.080 -0.0314 -0.0386 -0.1896
 8269WAT      O33795   2.209   0.883   1.247 -1.1149  0.3672  0.2793
 8269WAT     H133796   2.234   0.852   1.170 -0.0375  1.6126  0.1005
 8269WAT     H233797   2.122   0.888   1.239 -1.0429  0.2448 -0.7534
 8269WAT    EPW33798   2.200   0.879   1.234 -0.9451  0.5331  0.1003
 8270WAT      O33799   2.714   0.782   7.590 -0.2208  0.8689 -0.2515
 8270WAT     H133800   2.638   0.818   7.568 -0.9400  0.1006  0.8778
 8270WAT     H233801   2.727   0.722   7.529 -0.3182  1.2601 -0.6644
 8270WAT    EPW33802   2.705   0.779   7.578 -0.3414  0.8132 -0.1457
 8271WAT      O33803   2.057   2.974   5.683 -0.4904  0.3064  0.1547
 8271WAT     H133804   2.045   2.896   5.645 -1.5883 -0.1138  1.2669
 8271WAT     H233805   2.074   2.953   5.766  2.1799  1.1830 -0.1013
 8271WAT    EPW33806   2.058   2.959   5.690 -0.2581  0.3738  0.2812
 8272WAT      O33807   2.452   2.586   7.112  0.2360  0.3978 -0.7318
 8272WAT     H133808   2.511   2.521   7.110 -0.5047 -0.3060 -0.2789
 8272WAT     H233809   2.427   2.588   7.196 -1.2328 -0.0893 -1.1407
 8272WAT    EPW33810   2.457   2.577   7.124 -0.0904  0.2219 -0.7253
 8273WAT      O33811   2.520   0.234   7.048 -0.9467  0.3799 -0.1689
 8273WAT     H133812   2.474   0.290   6.999 -1.1385 -1.1171 -1.8098
 8273WAT     H233813   2.586   0.212   6.996 -0.7793 -0.7531  0.5085
 8273WAT    EPW33814   2.523   0.239   7.033 -0.9503 -0.0086 -0.3112
 8274WAT      O33815   3.343   2.158   0.141 -0.3317  0.4663 -0.3288
 8274WAT     H133816   3.399   2.166   0.075 -1.2654  0.9987 -1.0894
 8274WAT     H233817   3.379   2.096   0.191  0.6167  0.3637 -1.1048
 8274WAT    EPW33818   3.356   2.150   0.139 -0.3295  0.5298 -0.5558
 8275WAT      O33819   0.907   1.751   7.042  0.1128  0.5221 -0.2349
 8275WAT     H133820   0.878   1.811   6.986 -0.5812  1.4587  1.0524
 8275WAT     H233821   0.990   1.775   7.056 -0.3805  1.7183  0.8645
 8275WAT    EPW33822   0.915   1.764   7.036 -0.0626  0.8372  0.1177
 8276WAT      O33823   2.444   1.844   0.195  0.1596 -0.8437  0.5461
 8276WAT     H133824   2.513   1.827   0.145  0.9816 -0.7512  1.6032
 8276WAT     H233825   2.444   1.931   0.201  0.0937 -0.8541  0.7170
 8276WAT    EPW33826   2.454   1.854   0.189  0.2713 -0.8316  0.7275
 8277WAT      O33827   2.209   1.197   6.781 -0.1957 -0.1861 -0.1166
 8277WAT     H133828   2.215   1.180   6.866 -0.2972 -2.6130 -0.5207
 8277WAT     H233829   2.292   1.207   6.756 -0.1155 -0.1907  0.1471
 8277WAT    EPW33830   2.222   1.196   6.790 -0.1989 -0.5453 -0.1373
 8278WAT      O33831   2.397   2.323   0.599 -0.0823 -0.1727  0.0405
 8278WAT     H133832   2.424   2.324   0.516  0.6493 -0.5797  0.2639
 8278WAT     H233833   2.329   2.269   0.598  0.6522 -1.1167 -0.0902
 8278WAT    EPW33834   2.391   2.315   0.586  0.1343 -0.3723  0.0542
 8279WAT      O33835   1.970   0.776   7.671 -0.5970  0.3353  0.1639
 8279WAT     H133836   2.052   0.793   7.648 -0.4440 -0.0130  0.4475
 8279WAT     H233837   1.933   0.855   7.674 -0.2451  0.5023  0.1526
 8279WAT    EPW33838   1.977   0.790   7.668 -0.5224  0.3085  0.2041
 8280WAT      O33839   1.794   1.284   7.839 -0.6301 -0.6841  0.1768
 8280WAT     H133840   1.766   1.330   7.771 -1.0488 -1.0818  0.0758
 8280WAT     H233841   1.773   1.334   7.907  2.4445  1.1566 -0.0474
 8280WAT    EPW33842   1.787   1.298   7.839 -0.2378 -0.4709  0.1288
 8281WAT      O33843   4.567   2.904   6.796  0.2933  0.5318 -0.0779
 8281WAT     H133844   4.522   2.830   6.806  0.7894  0.3568  1.1170
 8281WAT     H233845   4.507   2.960   6.766 -0.4513  0.0094  0.3764
 8281WAT    EPW33846   4.551   2.901   6.793  0.2566  0.4288  0.1657
 8282WAT      O33847   2.678   1.103   6.736  0.3288 -0.5093  0.3714
 8282WAT     H133848   2.679   1.163   6.800  0.1431 -0.7749  0.6273
 8282WAT     H233849   2.760   1.104   6.706 -0.1803  1.4989 -1.1746
 8282WAT    EPW33850   2.690   1.112   6.741  0.2261 -0.2519  0.1808
 8283WAT      O33851   3.080   0.004   7.423  0.0165  0.1896 -0.9259
 8283WAT     H133852   3.035  -0.070   7.438  1.0581 -0.2501  0.2812
 8283WAT     H233853   3.021   0.067   7.434 -0.0153 -0.2439  2.7054
 8283WAT    EPW33854   3.065   0.002   7.427  0.1657  0.0606 -0.2112
 8284WAT      O33855   2.363   3.341   7.144  0.4579 -0.4411 -0.7773
 8284WAT     H133856   2.376   3.417   7.185 -1.6987 -0.2155 -0.4234
 8284WAT     H233857   2.440   3.326   7.105  1.4204  1.1438  0.3765
 8284WAT    EPW33858   2.376   3.350   7.144  0.2815 -0.1736 -0.5545
 8285WAT      O33859   3.924   2.787   6.051  0.0239  0.1834 -0.8474
 8285WAT     H133860   4.002   2.787   6.090 -0.6518  2.3963  0.7275
 8285WAT     H233861   3.943   2.807   5.968  1.1109  2.1732 -0.2009
 8285WAT    EPW33862   3.939   2.790   6.044  0.0847  0.8042 -0.5192
 8286WAT      O33863   2.440   2.309   1.203  0.2346  0.0260  0.1256
 8286WAT     H133864   2.443   2.268   1.126 -1.8041 -0.7599  0.3826
 8286WAT     H233865   2.355   2.303   1.225  0.3777  2.1249  1.4294
 8286WAT    EPW33866   2.428   2.302   1.195 -0.0454  0.2200  0.3561
 8287WAT      O33867   3.047   1.585   7.797  0.2025  0.3627  0.0500
 8287WAT     H133868   3.095   1.589   7.869  1.1051  0.7950 -0.5563
 8287WAT     H233869   2.981   1.533   7.819  0.9159 -0.1947  0.9171
 8287WAT    EPW33870   3.044   1.578   7.811  0.4412  0.3442  0.0886
 8288WAT      O33871   3.371   1.840   4.767  0.7827 -0.2901  0.3405
 8288WAT     H133872   3.374   1.901   4.705  0.8988  0.6397  1.2274
 8288WAT     H233873   3.367   1.886   4.841  0.3136 -1.3673  1.0161
 8288WAT    EPW33874   3.371   1.856   4.769  0.7306 -0.3119  0.5713
 8289WAT      O33875   2.411   0.818   6.531 -0.1599 -0.1485  0.2347
 8289WAT     H133876   2.362   0.816   6.603 -0.1449 -0.8947  0.2387
 8289WAT     H233877   2.485   0.778   6.556  0.1818  0.3498  0.0382
 8289WAT    EPW33878   2.415   0.811   6.546 -0.1072 -0.1851  0.2063
 8290WAT      O33879   2.998   2.630   5.413  0.3836  0.1922 -0.1761
 8290WAT     H133880   3.025   2.606   5.493  0.7445  1.4752  0.1029
 8290WAT     H233881   2.935   2.687   5.429 -1.7475 -1.8228 -0.8335
 8290WAT    EPW33882   2.993   2.635   5.427  0.1221  0.0840 -0.2320
 8291WAT      O33883   3.438   2.942   7.042 -0.3735 -0.0937  0.0801
 8291WAT     H133884   3.483   2.893   7.098 -0.9844  1.3105  1.8847
 8291WAT     H233885   3.444   3.022   7.074  0.4683  1.0721 -2.7114
 8291WAT    EPW33886   3.445   2.946   7.055 -0.3394  0.2860 -0.0657
 8292WAT      O33887   4.206   1.768   6.000 -0.2840 -0.0359  0.3272
 8292WAT     H133888   4.206   1.688   5.966  1.5901  0.7863 -1.8464
 8292WAT     H233889   4.257   1.761   6.071  0.7130 -0.5805 -0.4269
 8292WAT    EPW33890   4.214   1.755   6.006  0.1401  0.0051 -0.1053
 8293WAT      O33891   2.375   2.826   5.522  0.2173 -0.0923 -0.8243
 8293WAT     H133892   2.384   2.855   5.603 -0.1988  1.0798 -1.1694
 8293WAT     H233893   2.382   2.899   5.473 -1.8890 -0.3680 -1.6626
 8293WAT    EPW33894   2.377   2.841   5.526 -0.1553  0.0401 -0.9991
 8294WAT      O33895   3.594   2.423   5.553  0.1731  0.3109  0.2047
 8294WAT     H133896   3.668   2.406   5.595 -1.2116 -2.6218  1.7782
 8294WAT     H233897   3.541   2.357   5.577 -3.7558  3.4190  1.1005
 8294WAT    EPW33898   3.597   2.410   5.563 -0.6118  0.3368  0.5695
 8295WAT      O33899   4.071   0.717   6.494  0.0552  0.0942 -0.5983
 8295WAT     H133900   4.095   0.799   6.478 -0.1190  0.1749 -0.4537
 8295WAT     H233901   4.111   0.698   6.569 -1.0990  0.5712  0.1811
 8295WAT    EPW33902   4.080   0.726   6.503 -0.1411  0.1766 -0.4618
 8296WAT      O33903   3.536   0.370   0.238 -0.3344 -0.1425 -0.3167
 8296WAT     H133904   3.534   0.284   0.254  0.3229 -0.4274 -1.5711
 8296WAT     H233905   3.597   0.377   0.176 -0.5920  1.1989 -0.4433
 8296WAT    EPW33906   3.545   0.358   0.231 -0.2753  0.0135 -0.5207
 8297WAT      O33907   2.423   1.507   6.076 -0.4671 -0.2412 -0.0380
 8297WAT     H133908   2.472   1.441   6.048  0.9535  0.3091  1.0730
 8297WAT     H233909   2.479   1.558   6.120 -1.2166  2.3165 -1.7930
 8297WAT    EPW33910   2.438   1.505   6.078 -0.3680  0.2179 -0.1332
 8298WAT      O33911   1.973   1.184   0.332 -0.1651  0.3476  0.2468
 8298WAT     H133912   1.943   1.104   0.351 -1.3263  0.8938  0.8409
 8298WAT     H233913   2.059   1.172   0.322 -0.4725 -1.2103 -0.9769
 8298WAT    EPW33914   1.981   1.170   0.333 -0.3820  0.1982  0.1538
 8299WAT      O33915   2.603   7.597   6.491  0.4289  0.3347 -0.4608
 8299WAT     H133916   2.550   7.528   6.495  0.4256  0.1724 -2.6089
 8299WAT     H233917   2.574   7.649   6.556  0.3806 -1.5811  1.1346
 8299WAT    EPW33918   2.591   7.595   6.501  0.4213  0.0277 -0.5424
 8300WAT      O33919   2.552   1.409   7.238  0.5149  0.0588 -0.0227
 8300WAT     H133920   2.601   1.357   7.188  0.0781  0.5081 -0.9326
 8300WAT     H233921   2.481   1.423   7.190 -0.4323 -0.3978  1.1793
 8300WAT    EPW33922   2.549   1.403   7.223  0.3105  0.0577  0.0204
 8301WAT      O33923   2.892   0.977   6.370 -0.0526  1.0954  0.3663
 8301WAT     H133924   2.964   1.006   6.331  1.1185  1.5067  2.6520
 8301WAT     H233925   2.923   0.928   6.435 -1.9080 -1.8481 -0.7478
 8301WAT    EPW33926   2.908   0.974   6.374 -0.1537  0.7213  0.5394
 8302WAT      O33927   3.447   1.089   0.379  0.0216  0.4033 -0.1794
 8302WAT     H133928   3.464   1.099   0.294 -0.5985 -1.6061 -0.6114
 8302WAT     H233929   3.376   1.137   0.392 -0.1489  0.3587 -0.9114
 8302WAT    EPW33930   3.439   1.097   0.368 -0.0952  0.0999 -0.3513
 8303WAT      O33931   2.515   1.754   7.704  0.7140 -0.1434  0.2169
 8303WAT     H133932   2.486   1.721   7.628  1.5206  0.3293 -0.3063
 8303WAT     H233933   2.547   1.684   7.746  0.2277 -0.4135  0.1515
 8303WAT    EPW33934   2.515   1.739   7.699  0.7613 -0.1134  0.1299
 8304WAT      O33935   2.720   2.670   5.540 -0.2510  0.5650 -0.0465
 8304WAT     H133936   2.758   2.629   5.607  0.3719  1.2337  0.0181
 8304WAT     H233937   2.685   2.605   5.493  2.3179 -0.2523 -0.9781
 8304WAT    EPW33938   2.720   2.654   5.543  0.2205  0.5431 -0.1746
 8305WAT      O33939   1.895   7.659   0.077  0.4262 -0.1474  0.2191
 8305WAT     H133940   1.881   7.690   0.157  2.3556 -0.5544  0.7549
 8305WAT     H233941   1.828   7.604   0.065 -1.2953  1.7436  0.4874
 8305WAT    EPW33942   1.883   7.655   0.087  0.4569  0.0718  0.3378
 8306WAT      O33943   2.993   2.560   0.214  0.6186 -0.5143  0.1676
 8306WAT     H133944   3.079   2.556   0.201  0.9448 -0.4709  2.0970
 8306WAT     H233945   2.979   2.502   0.278 -0.2322  1.8956  2.3220
 8306WAT    EPW33946   3.004   2.551   0.222  0.5411 -0.1519  0.7709
 8307WAT      O33947   3.738   3.236   5.770 -0.2463 -0.4243  0.1356
 8307WAT     H133948   3.712   3.287   5.704  1.0419 -0.4195 -0.3992
 8307WAT     H233949   3.820   3.214   5.748  0.1632 -0.5403  1.6632
 8307WAT    EPW33950   3.746   3.240   5.757  0.0045 -0.4407  0.2823
 8308WAT      O33951   1.718   1.822   6.126  0.0888 -0.1919  0.4980
 8308WAT     H133952   1.645   1.783   6.153  0.0263  0.1108  0.7797
 8308WAT     H233953   1.743   1.774   6.058  0.4418 -1.1859  1.3080
 8308WAT    EPW33954   1.711   1.810   6.120  0.1317 -0.2940  0.6593
 8309WAT      O33955   4.489   2.514   7.482  0.2969 -0.2942  0.2438
 8309WAT     H133956   4.524   2.462   7.421 -1.5237 -1.3289  0.0044
 8309WAT     H233957   4.409   2.481   7.493 -0.3435  1.4968  1.2935
 8309WAT    EPW33958   4.483   2.501   7.475 -0.0666 -0.1825  0.3635
 8310WAT      O33959   3.282   1.909   5.730 -0.3129  0.3091  0.2463
 8310WAT     H133960   3.208   1.904   5.684 -1.3156 -2.7735  1.8730
 8310WAT     H233961   3.264   1.968   5.792 -1.0105  0.4218 -0.0550
 8310WAT    EPW33962   3.269   1.917   5.732 -0.5641 -0.1296  0.4421
 8311WAT      O33963   2.885   2.190   6.358 -0.4370 -0.0436 -0.7145
 8311WAT     H133964   2.923   2.234   6.292 -0.1714 -0.2847 -0.7257
 8311WAT     H233965   2.942   2.127   6.375  0.5852  1.2848  1.2156
 8311WAT    EPW33966   2.899   2.187   6.350 -0.2468  0.1170 -0.4311
 8312WAT      O33967   6.005   1.540   6.589 -0.2909  0.3252 -0.6318
 8312WAT     H133968   6.072   1.572   6.545 -0.3646 -0.1178 -1.0633
 8312WAT     H233969   6.041   1.510   6.663 -0.0570  0.3243 -0.7471
 8312WAT    EPW33970   6.020   1.540   6.594 -0.2673  0.2596 -0.7126
 8313WAT      O33971   2.157   1.879   6.847 -0.1152  0.3104  0.2865
 8313WAT     H133972   2.226   1.908   6.802 -0.7728  0.1241 -0.8899
 8313WAT     H233973   2.135   1.806   6.805 -1.6711  0.9273 -0.0235
 8313WAT    EPW33974   2.164   1.873   6.834 -0.4422  0.3740  0.0669
 8314WAT      O33975   4.003   7.417   7.763 -0.2894 -0.2705  0.6451
 8314WAT     H133976   3.945   7.354   7.749  0.7044 -1.9194  3.1853
 8314WAT     H233977   3.959   7.477   7.808 -0.1845 -1.4361  2.4145
 8314WAT    EPW33978   3.988   7.417   7.767 -0.1271 -0.6863  1.2817
 8315WAT      O33979   1.837   7.507   7.122  0.4044 -0.7912  0.7076
 8315WAT     H133980   1.855   7.564   7.186 -1.2250 -0.1987  0.6935
 8315WAT     H233981   1.757   7.478   7.144 -1.8435  1.9573 -2.6933
 8315WAT    EPW33982   1.828   7.511   7.135 -0.1684 -0.2977  0.2032
 8316WAT      O33983   5.392   2.613   5.550 -0.0341 -0.0889  0.2661
 8316WAT     H133984   5.405   2.529   5.568 -0.0412 -0.2519 -0.4720
 8316WAT     H233985   5.309   2.627   5.571 -0.5077 -0.6767 -1.0895
 8316WAT    EPW33986   5.382   2.603   5.556 -0.1051 -0.1998 -0.0432
 8317WAT      O33987   3.048   2.468   7.383  0.2213  0.0319 -0.6201
 8317WAT     H133988   3.031   2.509   7.458  2.9370 -1.5407  1.0208
 8317WAT     H233989   3.006   2.392   7.391  0.8896 -0.3279 -0.4461
 8317WAT    EPW33990   3.039   2.462   7.395  0.7212 -0.2535 -0.3520
 8318WAT      O33991   5.236   2.207   0.141 -0.1528  0.4466  0.2810
 8318WAT     H133992   5.160   2.247   0.158 -0.3491  0.0246  0.3901
 8318WAT     H233993   5.250   2.159   0.212  0.5056  0.9623  0.5086
 8318WAT    EPW33994   5.227   2.206   0.154 -0.0846  0.4604  0.3307
 8319WAT      O33995   2.687   1.752   5.428 -0.3555  0.7082  0.0305
 8319WAT     H133996   2.668   1.672   5.456  0.0790  0.7355  0.4084
 8319WAT     H233997   2.722   1.791   5.498  1.2021  0.6162 -0.6667
 8319WAT    EPW33998   2.689   1.746   5.442 -0.0613  0.6987 -0.0167
 8320WAT      O33999   4.125   1.515   7.039 -1.0483  0.5482  0.1099
 8320WAT     H134000   4.123   1.468   6.965  0.2906  1.2132 -0.3977
 8320WAT     H234001   4.211   1.529   7.051 -1.3157  1.2735  1.2531
 8320WAT    EPW34002   4.138   1.510   7.030 -0.8900  0.7536  0.2038
 8321WAT      O34003   3.910   3.036   6.188  0.3758  0.1185  0.1774
 8321WAT     H134004   3.912   2.969   6.132 -0.5203 -0.4328  0.7841
 8321WAT     H234005   3.972   3.016   6.246 -0.8627 -0.9705  1.1907
 8321WAT    EPW34006   3.920   3.023   6.188  0.0605 -0.1238  0.4167
 8322WAT      O34007   3.998   2.130   5.887  0.5446  0.3602 -0.3871
 8322WAT     H134008   3.947   2.143   5.818  0.8640  0.9898 -0.5128
 8322WAT     H234009   4.064   2.082   5.855 -0.1452 -0.8030 -0.1364
 8322WAT    EPW34010   4.001   2.125   5.872  0.4899  0.2814 -0.3687
 8323WAT      O34011   3.796   1.732   6.647  0.1422  0.2488 -0.1034
 8323WAT     H134012   3.761   1.728   6.727 -0.4323 -0.3435 -0.3709
 8323WAT     H234013   3.864   1.786   6.657  0.6325 -0.5271  0.9909
 8323WAT    EPW34014   3.801   1.740   6.660  0.1297  0.0467  0.0188
 8324WAT      O34015   2.087   1.133   7.833  0.3959 -1.1840  0.1420
 8324WAT     H134016   2.069   1.216   7.854  0.4333 -0.9771 -0.6155
 8324WAT     H234017   2.020   1.109   7.783 -0.8331 -2.3927  2.1845
 8324WAT    EPW34018   2.075   1.142   7.829  0.2199 -1.3320  0.3318
 8325WAT      O34019   2.924   0.839   6.631  0.7477  0.2043  0.4300
 8325WAT     H134020   2.942   0.917   6.667  0.3152  0.1563  0.7641
 8325WAT     H234021   2.959   0.782   6.687 -3.9214 -0.1559  3.6081
 8325WAT    EPW34022   2.932   0.842   6.645 -0.0059  0.1440  0.9488
 8326WAT      O34023   2.695   1.136   7.534 -0.0470 -0.0894  0.2220
 8326WAT     H134024   2.696   1.120   7.619 -0.2328  0.4808  0.3384
 8326WAT     H234025   2.713   1.221   7.529  0.3439 -0.1984 -0.3283
 8326WAT    EPW34026   2.698   1.146   7.546 -0.0167 -0.0213  0.1579
 8327WAT      O34027   3.512   1.741   7.590  0.1290  0.3477 -0.2870
 8327WAT     H134028   3.440   1.701   7.620  0.3539 -0.1364 -0.3840
 8327WAT     H234029   3.490   1.825   7.590  0.5198  0.5276  2.3572
 8327WAT    EPW34030   3.498   1.747   7.595  0.2200  0.3028  0.0893
 8328WAT      O34031   1.454   0.844   6.911 -0.2616  0.9946 -0.4196
 8328WAT     H134032   1.441   0.863   6.827 -0.2045  0.8574 -0.4610
 8328WAT     H234033   1.474   0.920   6.947  3.0863  0.6234 -1.1594
 8328WAT    EPW34034   1.455   0.858   6.904  0.2414  0.9195 -0.5350
 8329WAT      O34035   2.367   0.560   0.359  0.4049 -0.0914 -0.0363
 8329WAT     H134036   2.288   0.589   0.339  0.6052  0.5742  0.1089
 8329WAT     H234037   2.419   0.600   0.300  1.2424  3.2780  2.6513
 8329WAT    EPW34038   2.363   0.570   0.347  0.5582  0.5046  0.3822
 8330WAT      O34039   1.467   2.013   7.627 -0.7172  0.0107 -0.3134
 8330WAT     H134040   1.426   2.089   7.625 -0.3194  0.2128 -1.2438
 8330WAT     H234041   1.403   1.954   7.629 -1.0324  0.3539 -0.3425
 8330WAT    EPW34042   1.452   2.015   7.627 -0.7050  0.0913 -0.4551
 8331WAT      O34043   3.004   1.701   6.899 -0.1264  0.0377  0.1021
 8331WAT     H134044   3.037   1.780   6.917  0.8168 -0.3079 -0.0667
 8331WAT     H234045   3.029   1.687   6.817  0.6896 -0.9050  0.4966
 8331WAT    EPW34046   3.013   1.711   6.890  0.1335 -0.1526  0.1355
 8332WAT      O34047   2.857   0.997   0.164 -0.0747  0.6860  0.1742
 8332WAT     H134048   2.928   1.044   0.182  0.1272  0.4930 -0.1032
 8332WAT     H234049   2.889   0.919   0.140 -0.2410  1.1469 -1.7776
 8332WAT    EPW34050   2.872   0.993   0.163 -0.0694  0.7256 -0.1551
 8333WAT      O34051   3.147   4.427   7.312 -0.6985  0.0486  0.3514
 8333WAT     H134052   3.199   4.439   7.243 -1.5831  2.3102 -0.0286
 8333WAT     H234053   3.160   4.499   7.360 -0.6829 -1.1108  2.1886
 8333WAT    EPW34054   3.157   4.439   7.309 -0.8269  0.2114  0.5666
 8334WAT      O34055   4.255   1.502   7.415 -0.2308  0.4804 -0.2036
 8334WAT     H134056   4.268   1.490   7.501  0.4233 -1.9791 -0.5513
 8334WAT     H234057   4.177   1.465   7.401 -0.8563  1.8652 -0.5286
 8334WAT    EPW34058   4.245   1.495   7.426 -0.2266  0.3216 -0.3030
 8335WAT      O34059   2.612   3.020   5.950  0.3305  0.8850 -0.1147
 8335WAT     H134060   2.643   2.939   5.965 -0.6630  0.3301 -0.8915
 8335WAT     H234061   2.683   3.064   5.926  0.7829  0.0424 -0.3999
 8335WAT    EPW34062   2.627   3.014   5.948  0.2506  0.6786 -0.2716
 8336WAT      O34063   2.154   2.305   6.899 -0.0689 -0.0047 -0.2169
 8336WAT     H134064   2.125   2.385   6.915  0.0727  0.5592 -2.5459
 8336WAT     H234065   2.194   2.311   6.822  0.6617 -2.1473 -0.1003
 8336WAT    EPW34066   2.156   2.318   6.890  0.0599 -0.2379 -0.5437
 8337WAT      O34067   3.180   1.057   7.497 -0.2844 -0.0252 -0.5081
 8337WAT     H134068   3.120   1.016   7.544  0.4678 -0.8124 -0.2139
 8337WAT     H234069   3.244   1.074   7.554 -1.1929  3.0543 -0.1901
 8337WAT    EPW34070   3.181   1.054   7.512 -0.3075  0.3134 -0.4177
 8338WAT      O34071   2.225   0.769   7.473 -0.2880  0.5427  0.1827
 8338WAT     H134072   2.165   0.780   7.410 -0.0286 -2.0648 -0.6520
 8338WAT     H234073   2.297   0.807   7.440 -0.5890  0.6519 -0.3582
 8338WAT    EPW34074   2.227   0.776   7.459 -0.2942  0.1736 -0.0205
 8339WAT      O34075   2.587   3.244   0.688  0.0262 -0.6583 -0.3296
 8339WAT     H134076   2.674   3.237   0.685  0.3132  1.7163  0.6051
 8339WAT     H234077   2.564   3.251   0.604  1.1827  2.1540 -0.5373
 8339WAT    EPW34078   2.596   3.244   0.675  0.2394  0.1079 -0.2222
 8340WAT      O34079   2.482   1.599   0.359 -0.3871 -0.4781  0.2946
 8340WAT     H134080   2.443   1.654   0.303  2.3057 -1.8812 -3.4370
 8340WAT     H234081   2.531   1.652   0.409 -1.4148  0.7565  0.0438
 8340WAT    EPW34082   2.484   1.615   0.358 -0.1411 -0.5030 -0.2937
 8341WAT      O34083   1.863   0.212   7.842  0.9626  0.2877  0.0556
 8341WAT     H134084   1.776   0.202   7.838  1.0543 -0.2514 -2.6194
 8341WAT     H234085   1.891   0.133   7.867  0.7123  0.2313  0.1628
 8341WAT    EPW34086   1.854   0.199   7.845  0.9392  0.1997 -0.3237
 8342WAT      O34087   4.054   0.138   7.220  0.6293 -0.1894 -0.3838
 8342WAT     H134088   4.021   0.195   7.164 -1.6588  0.3007  1.2846
 8342WAT     H234089   4.029   0.060   7.187 -2.0076  0.1428  0.5412
 8342WAT    EPW34090   4.045   0.135   7.207 -0.0983 -0.0679 -0.0007
 8343WAT      O34091   3.876   1.814   0.956  0.9417  0.2075 -0.1227
 8343WAT     H134092   3.815   1.778   0.906  0.4134  1.9936 -0.8345
 8343WAT     H234093   3.856   1.898   0.956  3.0349  0.7623  0.1678
 8343WAT    EPW34094   3.864   1.821   0.949  1.1729  0.5533 -0.1849
 8344WAT      O34095   3.649   2.376   7.120  0.0292 -0.2855 -0.0204
 8344WAT     H134096   3.654   2.350   7.037  0.8282  0.4802 -0.2394
 8344WAT     H234097   3.596   2.318   7.157 -0.6726 -0.4101 -1.1557
 8344WAT    EPW34098   3.642   2.364   7.113  0.0435 -0.1908 -0.2205
 8345WAT      O34099   1.597   7.364   0.722 -0.0541 -0.5709 -0.4828
 8345WAT     H134100   1.674   7.324   0.732  0.1163 -0.5242 -1.5858
 8345WAT     H234101   1.616   7.438   0.681 -0.6973 -0.5817 -0.8206
 8345WAT    EPW34102   1.611   7.369   0.718 -0.1239 -0.5656 -0.6956
 8346WAT      O34103   2.685   3.192   7.374 -0.2857 -0.2484 -0.3866
 8346WAT     H134104   2.652   3.125   7.329  1.1266  0.4401 -2.5879
 8346WAT     H234105   2.771   3.182   7.366  0.1619 -0.5946  3.0790
 8346WAT    EPW34106   2.693   3.180   7.366 -0.0109 -0.1978 -0.1998
 8347WAT      O34107   2.279   1.662   5.789  0.1684 -0.7807  0.0242
 8347WAT     H134108   2.312   1.676   5.869 -0.5499 -0.2892  0.2438
 8347WAT     H234109   2.213   1.720   5.783 -0.5896 -1.6542 -0.4321
 8347WAT    EPW34110   2.274   1.673   5.800 -0.0497 -0.8371 -0.0108
 8348WAT      O34111   2.726   1.973   7.172 -0.1470  0.1630 -0.0873
 8348WAT     H134112   2.701   2.049   7.208 -0.0722 -0.4331  1.3028
 8348WAT     H234113   2.809   1.965   7.197  0.2588  0.2416 -1.3535
 8348WAT    EPW34114   2.734   1.983   7.181 -0.0760  0.0865 -0.0690
 8349WAT      O34115   3.619   2.573   7.466 -0.2955 -0.3056 -0.2683
 8349WAT     H134116   3.639   2.546   7.546  1.1859  1.5089  0.0477
 8349WAT     H234117   3.686   2.545   7.418 -1.0264 -1.1140 -0.8419
 8349WAT    EPW34118   3.632   2.565   7.471 -0.1846 -0.1570 -0.3063
 8350WAT      O34119   4.602   3.611   6.898 -0.0181 -0.3503 -0.1905
 8350WAT     H134120   4.574   3.560   6.963  2.3193 -3.8209 -1.5842
 8350WAT     H234121   4.557   3.583   6.829 -1.9585  2.7989 -0.4264
 8350WAT    EPW34122   4.591   3.599   6.898  0.0405 -0.3978 -0.4312
 8351WAT      O34123   4.403   0.960   7.817  0.0104  0.3649  0.3802
 8351WAT     H134124   4.386   0.942   7.734 -0.6057  0.3714  0.5060
 8351WAT     H234125   4.422   1.045   7.817 -0.8799  0.5707  0.3815
 8351WAT    EPW34126   4.404   0.970   7.805 -0.2121  0.3963  0.3989
 8352WAT      O34127   4.642   3.370   6.130  0.1196  0.3727  0.2004
 8352WAT     H134128   4.558   3.368   6.109  0.0064 -1.5748  0.6377
 8352WAT     H234129   4.680   3.404   6.059 -1.0506  1.8472  0.2372
 8352WAT    EPW34130   4.635   3.375   6.116 -0.0700  0.3029  0.2704
 8353WAT      O34131   2.660   2.189   7.304 -0.0456 -0.6202  0.3020
 8353WAT     H134132   2.574   2.202   7.314 -0.2507 -1.1165 -0.6289
 8353WAT     H234133   2.682   2.246   7.242  0.4368 -0.0633  0.9714
 8353WAT    EPW34134   2.651   2.199   7.296 -0.0046 -0.6112  0.2634
 8354WAT      O34135   3.848   2.160   7.348  0.0426  0.2493  0.2930
 8354WAT     H134136   3.776   2.119   7.375  0.8665  0.6356  3.5779
 8354WAT     H234137   3.859   2.133   7.266 -1.4310 -3.2221  1.0958
 8354WAT    EPW34138   3.839   2.150   7.340 -0.0534 -0.2064  0.8968
 8355WAT      O34139   4.312   2.318   5.757  0.1894 -0.8517 -0.3223
 8355WAT     H134140   4.230   2.296   5.773  0.0675 -0.4490 -0.3800
 8355WAT     H234141   4.337   2.360   5.830  0.2023 -0.5905 -0.4748
 8355WAT    EPW34142   4.304   2.321   5.770  0.1733 -0.7536 -0.3533
 8356WAT      O34143   5.711   2.797   7.663  0.6310  0.5449 -0.0649
 8356WAT     H134144   5.639   2.796   7.613  1.4405 -1.0547 -1.2728
 8356WAT     H234145   5.709   2.721   7.704  0.4181  1.5016  1.8014
 8356WAT    EPW34146   5.700   2.786   7.661  0.7192  0.4499  0.0324
 8357WAT      O34147   1.828   1.122   6.975  0.2131  0.0719  0.1791
 8357WAT     H134148   1.895   1.066   6.979  0.6475  0.4733 -1.0726
 8357WAT     H234149   1.779   1.090   6.910 -0.6837 -0.0483  0.8832
 8357WAT    EPW34150   1.831   1.109   6.966  0.1448  0.1135  0.0982
 8358WAT      O34151   3.366   0.257   7.186  0.3628 -1.0128  0.4962
 8358WAT     H134152   3.399   0.330   7.151 -2.2505  0.0474 -0.0028
 8358WAT     H234153   3.332   0.215   7.118  3.0431 -3.5419  0.5425
 8358WAT    EPW34154   3.366   0.261   7.171  0.3727 -1.2298  0.4294
 8359WAT      O34155   3.686   2.023   7.041 -0.3018  0.2138 -0.2895
 8359WAT     H134156   3.741   2.088   7.024 -1.5429  1.2534 -0.4400
 8359WAT     H234157   3.670   1.987   6.963  1.0270 -0.8506 -0.1116
 8359WAT    EPW34158   3.692   2.027   7.027 -0.2888  0.2101 -0.2854
 8360WAT      O34159   2.279   0.808   0.716 -0.3736 -0.1250 -0.4183
 8360WAT     H134160   2.332   0.744   0.693  2.2906  1.9267 -0.4500
 8360WAT     H234161   2.272   0.799   0.803  1.0068  0.2247 -0.2562
 8360WAT    EPW34162   2.286   0.797   0.726  0.2239  0.2298 -0.3990
 8361WAT      O34163   3.046   1.443   0.286  0.1628  0.3830  0.3467
 8361WAT     H134164   3.079   1.486   0.217 -0.5646 -0.7230 -0.7391
 8361WAT     H234165   3.002   1.504   0.329 -0.2214  0.9077 -0.7428
 8361WAT    EPW34166   3.044   1.458   0.282 -0.0014  0.2971  0.0254
 8362WAT      O34167   4.972   2.144   7.228 -0.1224 -0.1216  0.0169
 8362WAT     H134168   4.975   2.230   7.244 -1.2475 -0.1214  0.2921
 8362WAT     H234169   5.049   2.128   7.191  1.1600  0.5422  2.2226
 8362WAT    EPW34170   4.984   2.154   7.225 -0.0992 -0.0235  0.3834
 8363WAT      O34171   3.135   0.669   0.393 -0.0324  0.2772  0.0520
 8363WAT     H134172   3.160   0.753   0.393 -0.1275  0.3058  0.0004
 8363WAT     H234173   3.192   0.631   0.340 -0.5572  0.4827 -0.6906
 8363WAT    EPW34174   3.147   0.676   0.385 -0.1240  0.3117 -0.0653
 8364WAT      O34175   2.551   1.498   4.797  0.1767  0.2657 -0.5811
 8364WAT     H134176   2.574   1.541   4.725  0.1667  0.1405 -0.6596
 8364WAT     H234177   2.466   1.516   4.806  0.2558  0.5551 -0.4109
 8364WAT    EPW34178   2.542   1.507   4.788  0.1869  0.2899 -0.5676
 8365WAT      O34179   3.158   0.968   0.035  0.4826  0.2066  0.0350
 8365WAT     H134180   3.243   0.949   0.038  0.3097 -1.0294 -1.6526
 8365WAT     H234181   3.119   0.890   0.033 -0.6981  0.7586  0.4504
 8365WAT    EPW34182   3.165   0.954   0.035  0.2826  0.1056 -0.1529
 8366WAT      O34183   1.907   1.716   6.366  0.2350  0.0985 -0.2254
 8366WAT     H134184   1.857   1.784   6.345  0.1863 -0.8357 -3.7099
 8366WAT     H234185   1.976   1.724   6.313  1.1878 -1.5488  0.6764
 8366WAT    EPW34186   1.910   1.728   6.355  0.3685 -0.2829 -0.6069
 8367WAT      O34187   2.491   2.883   6.995  0.8198  0.0541 -0.2405
 8367WAT     H134188   2.483   2.806   7.036  1.6442 -0.6162 -1.3064
 8367WAT     H234189   2.516   2.862   6.915 -0.6422  1.3564 -1.0995
 8367WAT    EPW34190   2.494   2.869   6.989  0.7256  0.1475 -0.5248
 8368WAT      O34191   2.020   0.760   7.280  0.2041 -0.4085 -0.5903
 8368WAT     H134192   2.012   0.675   7.260 -1.6272 -0.4889  0.3316
 8368WAT     H234193   1.938   0.788   7.283  0.7071  1.0096  0.7404
 8368WAT    EPW34194   2.007   0.751   7.278  0.0079 -0.2109 -0.2575
 8369WAT      O34195   3.550   2.188   6.603  0.0315 -0.0354 -0.2625
 8369WAT     H134196   3.619   2.147   6.568 -0.8978 -2.1213  0.1719
 8369WAT     H234197   3.501   2.208   6.534  0.8497  1.1252 -0.5424
 8369WAT    EPW34198   3.553   2.185   6.587  0.0151 -0.1721 -0.2397
 8370WAT      O34199   3.624   1.750   6.880 -0.0997 -0.7306  0.6293
 8370WAT     H134200   3.589   1.677   6.847  0.3573 -0.4444 -0.5181
 8370WAT     H234201   3.581   1.814   6.839  2.0211 -0.3650 -1.1727
 8370WAT    EPW34202   3.612   1.748   6.869  0.2811 -0.6343  0.1936
 8371WAT      O34203   4.023   1.995   5.547 -0.6071  0.9187 -0.0050
 8371WAT     H134204   3.942   2.028   5.555 -0.6480  1.3007 -1.6544
 8371WAT     H234205   4.066   2.056   5.503 -0.6066 -0.9363 -2.9249
 8371WAT    EPW34206   4.017   2.009   5.541 -0.6130  0.7011 -0.6800
 8372WAT      O34207   2.497   2.935   0.373 -0.2488  0.2500 -0.7388
 8372WAT     H134208   2.488   2.864   0.322 -1.3587  0.7548 -1.2818
 8372WAT     H234209   2.438   2.991   0.341 -2.1960  0.0206  2.1051
 8372WAT    EPW34210   2.487   2.933   0.360 -0.7004  0.2907 -0.3989
 8373WAT      O34211   4.848   2.464   6.176 -0.5042  0.0518 -0.2948
 8373WAT     H134212   4.777   2.463   6.228 -0.2151 -0.8883  0.1010
 8373WAT     H234213   4.825   2.414   6.109 -0.2509 -0.1836 -0.2085
 8373WAT    EPW34214   4.834   2.457   6.174 -0.4241 -0.1219 -0.2236
 8374WAT      O34215   2.200   0.918   0.072  0.4246  0.2546  0.2808
 8374WAT     H134216   2.176   0.863   0.009 -1.5114  0.1603  1.0211
 8374WAT     H234217   2.166   0.995   0.047  1.1565  0.6123  0.3610
 8374WAT    EPW34218   2.191   0.921   0.059  0.2468  0.2935  0.4020
 8375WAT      O34219   3.495   1.438   7.104  0.1997 -0.2625  0.1125
 8375WAT     H134220   3.466   1.520   7.099  1.7069  0.4782  2.0499
 8375WAT     H234221   3.491   1.420   7.189  1.1729 -1.7240 -0.1096
 8375WAT    EPW34222   3.490   1.447   7.116  0.5661 -0.3690  0.3659
 8376WAT      O34223   2.301   1.546   6.510 -0.1256  0.5828  0.4108
 8376WAT     H134224   2.336   1.617   6.473  1.3177  0.2474  1.0559
 8376WAT     H234225   2.249   1.579   6.572  1.2288  1.0982  1.3103
 8376WAT    EPW34226   2.298   1.562   6.514  0.2877  0.6094  0.6390
 8377WAT      O34227   1.666   1.919   7.806 -0.1432  0.0816  0.2057
 8377WAT     H134228   1.599   1.940   7.754 -0.8243 -0.9563  0.6322
 8377WAT     H234229   1.627   1.893   7.879  0.6318 -2.2065 -0.1207
 8377WAT    EPW34230   1.650   1.918   7.809 -0.1294 -0.4097  0.2205
 8378WAT      O34231   3.798   4.182   7.195 -0.1213  0.2636 -0.4639
 8378WAT     H134232   3.848   4.143   7.134  0.2104  2.0560 -1.4129
 8378WAT     H234233   3.810   4.133   7.266  0.5450 -1.1321 -1.4913
 8378WAT    EPW34234   3.807   4.169   7.196  0.0261  0.3222 -0.7558
 8379WAT      O34235   3.829   2.059   0.697  0.3636  0.3458 -0.2489
 8379WAT     H134236   3.783   2.034   0.627 -0.5093  1.8101 -0.2502
 8379WAT     H234237   3.897   2.102   0.663  2.1540 -2.2519 -0.2665
 8379WAT    EPW34238   3.832   2.062   0.682  0.4991  0.1783 -0.2517
 8380WAT      O34239   3.578   0.342   4.711 -0.5133 -0.8324 -0.2846
 8380WAT     H134240   3.639   0.355   4.651  0.4456  1.0701  1.0056
 8380WAT     H234241   3.504   0.342   4.665  0.1597  0.9250 -1.4792
 8380WAT    EPW34242   3.576   0.344   4.695 -0.2722 -0.2917 -0.2705
 8381WAT      O34243   4.950   1.145   6.373  0.5256  0.0663  0.0500
 8381WAT     H134244   4.891   1.192   6.417 -0.2874 -0.3168 -0.5919
 8381WAT     H234245   5.008   1.204   6.346  0.3950  0.4620  0.6191
 8381WAT    EPW34246   4.950   1.161   6.376  0.3862  0.0681  0.0392
 8382WAT      O34247   1.952   2.531   7.716 -0.2080  0.1416 -0.2093
 8382WAT     H134248   1.925   2.539   7.798  2.0501  1.3675  0.5202
 8382WAT     H234249   1.962   2.445   7.706 -4.6453 -0.5507 -0.8179
 8382WAT    EPW34250   1.950   2.520   7.726 -0.5299  0.2204 -0.1915
 8383WAT      O34251   4.110   2.775   6.307  0.0161 -0.6634 -0.0062
 8383WAT     H134252   4.104   2.688   6.299  2.5314 -0.8743 -0.4623
 8383WAT     H234253   4.165   2.797   6.243 -1.4141  1.4496 -0.6019
 8383WAT    EPW34254   4.117   2.765   6.296  0.1764 -0.3824 -0.1616
 8384WAT      O34255   2.565   2.249   0.945 -0.1262 -0.3964  0.7629
 8384WAT     H134256   2.629   2.265   1.002  1.1851  0.8268 -0.9644
 8384WAT     H234257   2.575   2.311   0.885 -1.8105 -1.2872 -0.5068
 8384WAT    EPW34258   2.576   2.260   0.945 -0.1813 -0.3473  0.3202
 8385WAT      O34259   2.513   1.302   0.266  0.3678  0.2918 -0.0847
 8385WAT     H134260   2.488   1.308   0.183 -0.6098  1.5757  0.2776
 8385WAT     H234261   2.474   1.370   0.305  1.6246  0.3297  1.2189
 8385WAT    EPW34262   2.504   1.313   0.259  0.4091  0.4871  0.1614
 8386WAT      O34263   1.474   2.043   7.214  0.1040  0.3936  0.0957
 8386WAT     H134264   1.398   2.037   7.256  0.7473  0.6128  1.3353
 8386WAT     H234265   1.532   2.050   7.278  1.0567  1.5973 -0.8628
 8386WAT    EPW34266   1.471   2.043   7.229  0.3397  0.6038  0.1372
 8387WAT      O34267   2.808   2.831   6.332 -0.0266  0.6995  0.2571
 8387WAT     H134268   2.783   2.865   6.408  1.4239  0.9413  0.6605
 8387WAT     H234269   2.858   2.893   6.297 -0.3156  0.4125 -0.6959
 8387WAT    EPW34270   2.812   2.845   6.338  0.1450  0.6928  0.1759
 8388WAT      O34271   2.491   1.684   7.005 -0.2486 -0.2796  0.3500
 8388WAT     H134272   2.578   1.686   6.996 -0.3028  0.2312 -0.1092
 8388WAT     H234273   2.469   1.605   6.974 -0.1605  0.4481 -1.7721
 8388WAT    EPW34274   2.500   1.673   6.999 -0.2435 -0.0966 -0.0313
 8389WAT      O34275   2.076   2.761   0.301  1.2472 -0.1302  0.3501
 8389WAT     H134276   2.147   2.749   0.252  0.9908 -1.6014  0.3189
 8389WAT     H234277   2.022   2.698   0.277  0.9027 -0.5935  2.1525
 8389WAT    EPW34278   2.078   2.750   0.290  1.1584 -0.4160  0.6117
 8390WAT      O34279   3.222   2.258   7.574 -0.0333 -0.7283 -0.1759
 8390WAT     H134280   3.141   2.252   7.542 -0.2761 -0.8756  0.4500
 8390WAT     H234281   3.243   2.175   7.592  0.3292 -0.7115 -0.5045
 8390WAT    EPW34282   3.213   2.245   7.572 -0.0156 -0.7476 -0.1320
 8391WAT      O34283   3.046   2.630   6.858  0.2696  0.0011 -0.0008
 8391WAT     H134284   3.057   2.545   6.876 -0.5134  0.1577  1.3768
 8391WAT     H234285   3.127   2.663   6.864  0.1656  0.0140  3.5107
 8391WAT    EPW34286   3.060   2.622   6.861  0.1386  0.0261  0.7214
 8392WAT      O34287   1.544   1.557   7.346 -0.3426  0.0892  0.1884
 8392WAT     H134288   1.611   1.612   7.332  0.5363 -1.2602 -1.2734
 8392WAT     H234289   1.583   1.481   7.365 -1.4665 -0.5958 -0.1221
 8392WAT    EPW34290   1.560   1.554   7.346 -0.3788 -0.2113 -0.0734
 8393WAT      O34291   3.060   1.970   6.896  1.0332  0.2530 -0.0848
 8393WAT     H134292   2.979   2.002   6.889  1.7792  2.0373 -1.8491
 8393WAT     H234293   3.094   2.013   6.963  0.8114  0.2347  0.0377
 8393WAT    EPW34294   3.053   1.981   6.905  1.1106  0.5139 -0.3273
 8394WAT      O34295   4.737   3.310   7.096 -0.4211  0.3707  0.2411
 8394WAT     H134296   4.708   3.228   7.097  1.6850 -0.5373 -2.0182
 8394WAT     H234297   4.668   3.356   7.071 -1.4859 -0.7820  0.9842
 8394WAT    EPW34298   4.723   3.304   7.092 -0.2673  0.0663  0.0172
 8395WAT      O34299   2.254   2.327   7.595 -0.5187 -0.1698  0.0131
 8395WAT     H134300   2.247   2.355   7.512 -0.3883 -0.5002 -0.1115
 8395WAT     H234301   2.287   2.247   7.587 -1.0514 -0.4323  0.3548
 8395WAT    EPW34302   2.258   2.320   7.581 -0.5781 -0.2574  0.0452
 8396WAT      O34303   4.321   1.527   6.687 -0.5212 -0.2878  0.0613
 8396WAT     H134304   4.248   1.502   6.728  0.0721 -2.1585  0.0615
 8396WAT     H234305   4.321   1.613   6.697 -2.5613 -0.2653  0.3446
 8396WAT    EPW34306   4.310   1.536   6.695 -0.7349 -0.5608  0.1032
 8397WAT      O34307   3.191   0.869   6.950  0.3027  0.4731  0.5000
 8397WAT     H134308   3.149   0.945   6.944  1.8406  1.2955 -0.3787
 8397WAT     H234309   3.229   0.860   6.873 -0.1796 -1.4402  0.4173
 8397WAT    EPW34310   3.190   0.879   6.938  0.4586  0.3119  0.3579
 8398WAT      O34311   2.885   0.581   0.303  0.1043 -0.3074  0.0262
 8398WAT     H134312   2.958   0.618   0.334  1.1124 -1.7333 -0.5437
 8398WAT     H234313   2.823   0.611   0.356  1.4708 -1.0770  2.2042
 8398WAT    EPW34314   2.887   0.591   0.315  0.4551 -0.6317  0.2638
 8399WAT      O34315   3.988   2.179   0.524  0.4246  0.5454 -0.2938
 8399WAT     H134316   4.051   2.121   0.507  0.6020  0.4787  0.5432
 8399WAT     H234317   4.033   2.250   0.550  0.1524  0.3435  0.7684
 8399WAT    EPW34318   4.004   2.181   0.526  0.4106  0.5057 -0.0133
 8400WAT      O34319   1.252   2.034   7.407  0.1708 -0.4906 -0.0548
 8400WAT     H134320   1.177   2.018   7.365 -0.4381  0.1875  0.7438
 8400WAT     H234321   1.236   2.107   7.450  1.0263 -0.7815  0.7837
 8400WAT    EPW34322   1.238   2.042   7.407  0.2072 -0.4334  0.1871
 8401WAT      O34323   2.087   1.782   6.164 -0.2957  0.1164  0.5673
 8401WAT     H134324   2.146   1.840   6.136 -1.5564  0.5276 -1.4677
 8401WAT     H234325   2.089   1.719   6.104  0.1648 -1.3874  2.0904
 8401WAT    EPW34326   2.096   1.781   6.151 -0.4139 -0.0450  0.4917
 8402WAT      O34327   2.632   3.475   0.458 -0.0824  0.0687 -0.7657
 8402WAT     H134328   2.701   3.477   0.406 -0.1280  2.1234 -0.8454
 8402WAT     H234329   2.570   3.437   0.409  0.8726 -1.5651 -0.7691
 8402WAT    EPW34330   2.633   3.470   0.443  0.0519  0.1308 -0.7780
 8403WAT      O34331   3.927   1.512   4.805 -0.0147 -0.0602  0.5145
 8403WAT     H134332   3.937   1.579   4.750 -2.1925 -0.0952 -0.0457
 8403WAT     H234333   3.932   1.442   4.754  1.9276 -0.3580  1.0469
 8403WAT    EPW34334   3.929   1.512   4.790 -0.0495 -0.1093  0.5104
 8404WAT      O34335   4.895   1.357   5.414 -0.2584 -0.7146  0.0072
 8404WAT     H134336   4.842   1.289   5.429 -1.5481  0.2256 -0.1566
 8404WAT     H234337   4.860   1.421   5.461  2.0364 -0.5950  1.7342
 8404WAT    EPW34338   4.882   1.356   5.423 -0.1099 -0.5581  0.2381
 8405WAT      O34339   4.391   2.927   4.778  0.0781  0.2966  0.4764
 8405WAT     H134340   4.477   2.922   4.759 -0.2505 -0.4653 -0.9735
 8405WAT     H234341   4.386   2.996   4.831  1.6642  0.0189  1.0488
 8405WAT    EPW34342   4.403   2.937   4.783  0.2639  0.1430  0.3468
 8406WAT      O34343   3.176   1.256   3.581  0.0169  0.2496 -0.7036
 8406WAT     H134344   3.216   1.226   3.509  2.6091  1.9352 -0.1107
 8406WAT     H234345   3.227   1.323   3.605 -1.6936  0.7505  1.7952
 8406WAT    EPW34346   3.190   1.261   3.574  0.1472  0.5726 -0.2469
 8407WAT      O34347   1.422   1.698   3.403 -0.1257  0.0097 -0.0202
 8407WAT     H134348   1.492   1.744   3.428  1.4031 -1.1537 -1.9097
 8407WAT     H234349   1.355   1.746   3.434  1.4225  2.0764  0.3937
 8407WAT    EPW34350   1.423   1.712   3.411  0.3289  0.1432 -0.2382
 8408WAT      O34351   4.859   0.542   4.459  0.1693  0.3179  0.5563
 8408WAT     H134352   4.845   0.504   4.536  0.0575 -1.0826 -0.1089
 8408WAT     H234353   4.935   0.583   4.469 -0.3670  1.0782  1.7193
 8408WAT    EPW34354   4.868   0.542   4.472  0.0735  0.2233  0.6298
 8409WAT      O34355   2.034   1.654   4.431 -0.0838  0.1564 -0.5356
 8409WAT     H134356   2.105   1.690   4.396  0.7088 -0.9297 -0.1009
 8409WAT     H234357   2.004   1.602   4.367 -1.8436  2.2935 -1.5582
 8409WAT    EPW34358   2.040   1.651   4.416 -0.2267  0.3116 -0.6224
 8410WAT      O34359   2.575   0.824   3.869 -0.2861  0.7782 -0.2819
 8410WAT     H134360   2.491   0.830   3.892 -0.6609 -1.3640 -0.8938
 8410WAT     H234361   2.618   0.847   3.942 -1.4357 -0.8739  0.9963
 8410WAT    EPW34362   2.569   0.828   3.883 -0.5113  0.2177 -0.1835
 8411WAT      O34363   2.807   2.764   4.018 -0.0694  0.6255  0.3493
 8411WAT     H134364   2.854   2.787   3.948  0.7820 -1.3865  0.2055
 8411WAT     H234365   2.822   2.829   4.075  2.1218  0.5559 -0.0521
 8411WAT    EPW34366   2.816   2.777   4.016  0.3801  0.3180  0.2688
 8412WAT      O34367   2.857   0.860   6.098  0.5468 -0.9195 -0.0097
 8412WAT     H134368   2.893   0.872   6.177 -3.1099 -0.8886  1.8789
 8412WAT     H234369   2.807   0.931   6.088 -2.3833 -2.8629 -0.2201
 8412WAT    EPW34370   2.855   0.873   6.108 -0.4262 -1.2020  0.2382
 8413WAT      O34371   2.664   2.977   5.461 -0.4615  0.1889 -0.6344
 8413WAT     H134372   2.608   2.972   5.394 -1.0023  0.3390 -0.2058
 8413WAT     H234373   2.673   2.894   5.486 -1.4811  0.2780  0.0793
 8413WAT    EPW34374   2.657   2.964   5.455 -0.6920  0.2242 -0.4657
 8414WAT      O34375   3.915   1.800   5.420 -0.2260 -0.1817  0.2142
 8414WAT     H134376   3.955   1.867   5.458 -0.9215 -0.5563  1.6705
 8414WAT     H234377   3.888   1.833   5.343 -2.4906  1.9128  1.7688
 8414WAT    EPW34378   3.917   1.815   5.414 -0.6632  0.0724  0.6590
 8415WAT      O34379   3.097   2.007   4.942  0.4402  0.0443  0.2390
 8415WAT     H134380   3.009   2.004   4.940  0.4226  0.7076 -0.8091
 8415WAT     H234381   3.119   1.927   4.968 -0.4565 -0.7721 -1.3389
 8415WAT    EPW34382   3.087   1.994   4.945  0.3052  0.0217 -0.1489
 8416WAT      O34383   0.923   2.167   6.661  0.1873 -0.0797  0.4240
 8416WAT     H134384   0.875   2.182   6.590 -0.5061 -1.2531  0.6297
 8416WAT     H234385   0.998   2.209   6.644 -0.4599  0.7905 -0.3967
 8416WAT    EPW34386   0.927   2.176   6.648 -0.0108 -0.1245  0.3331
 8417WAT      O34387   3.105   1.090   5.731  0.0810 -0.2016  0.3288
 8417WAT     H134388   3.167   1.046   5.688  1.2115  0.9590  0.7081
 8417WAT     H234389   3.069   1.140   5.670  1.7606  1.5290  0.6545
 8417WAT    EPW34390   3.109   1.090   5.716  0.4961  0.2255  0.4330
 8418WAT      O34391   3.788   1.611   4.393  0.4293  0.5853  0.1117
 8418WAT     H134392   3.713   1.653   4.407 -0.6754 -0.8852 -1.0905
 8418WAT     H234393   3.772   1.531   4.422  2.2318  0.7191  1.6468
 8418WAT    EPW34394   3.774   1.606   4.400  0.5324  0.3878  0.1609
 8419WAT      O34395   2.782   0.993   4.451 -0.0259 -0.0842  0.3469
 8419WAT     H134396   2.776   1.079   4.438  0.0141 -0.2058 -0.6053
 8419WAT     H234397   2.859   0.972   4.417  0.4317 -0.3551  1.5117
 8419WAT    EPW34398   2.792   1.002   4.444  0.0476 -0.1422  0.3783
 8420WAT      O34399   3.359   3.490   6.682  0.5281  0.4872 -0.0210
 8420WAT     H134400   3.382   3.453   6.607 -1.7537  1.0431 -1.0818
 8420WAT     H234401   3.371   3.427   6.741 -0.0491 -0.8407 -1.2529
 8420WAT    EPW34402   3.364   3.475   6.680  0.1057  0.3732 -0.3597
 8421WAT      O34403   4.435   1.238   4.632  0.4801 -0.5558  0.1542
 8421WAT     H134404   4.463   1.163   4.668 -2.4113 -1.6295  0.4314
 8421WAT     H234405   4.403   1.282   4.700 -0.6796 -0.4826 -0.4216
 8421WAT    EPW34406   4.434   1.233   4.648 -0.1183 -0.7036  0.1101
 8422WAT      O34407   2.731   1.078   5.585  0.3149  0.5731  0.5045
 8422WAT     H134408   2.807   1.094   5.546  0.2833  0.1465  0.2659
 8422WAT     H234409   2.748   1.089   5.670  0.3385  1.7058  0.3705
 8422WAT    EPW34410   2.744   1.082   5.592  0.3137  0.6774  0.4495
 8423WAT      O34411   2.612   1.622   4.577 -0.3483 -0.8725 -0.2435
 8423WAT     H134412   2.609   1.708   4.593 -0.3760 -1.0397  0.6598
 8423WAT     H234413   2.626   1.618   4.491  1.1376  0.0433 -0.0781
 8423WAT    EPW34414   2.614   1.634   4.566 -0.1329 -0.7619 -0.0856
 8424WAT      O34415   4.044   1.917   3.591 -0.1533  0.4755 -0.1905
 8424WAT     H134416   3.957   1.915   3.597 -0.2583 -2.2162 -1.3769
 8424WAT     H234417   4.062   1.858   3.529  2.6112 -0.6338  1.4760
 8424WAT    EPW34418   4.033   1.908   3.582  0.2395 -0.0860 -0.1196
 8425WAT      O34419   1.628   2.355   5.300  0.2657 -0.5625 -0.5541
 8425WAT     H134420   1.668   2.355   5.378  2.1477 -1.4722 -1.4379
 8425WAT     H234421   1.673   2.295   5.255 -0.6551  0.0644 -2.3965
 8425WAT    EPW34422   1.641   2.346   5.305  0.4077 -0.6043 -0.9568
 8426WAT      O34423   2.387   3.159   6.059 -0.2185 -0.4278 -0.1567
 8426WAT     H134424   2.337   3.089   6.070 -3.1334  1.4478 -0.4305
 8426WAT     H234425   2.457   3.128   6.017 -1.8315 -2.9887 -1.1959
 8426WAT    EPW34426   2.390   3.144   6.054 -0.8873 -0.5290 -0.3506
 8427WAT      O34427   2.925   2.783   4.679  0.2937 -0.5656 -0.2940
 8427WAT     H134428   2.846   2.763   4.649 -0.6136  0.1950  1.4056
 8427WAT     H234429   2.971   2.799   4.607 -0.2900 -3.6479 -1.4919
 8427WAT    EPW34430   2.920   2.782   4.664  0.0735 -0.9086 -0.2199
 8428WAT      O34431   3.062   0.771   4.828  0.7792 -0.6657  0.6510
 8428WAT     H134432   3.022   0.849   4.825 -2.1145 -2.0058  1.2901
 8428WAT     H234433   3.136   0.787   4.872  0.9807  1.9389 -0.4576
 8428WAT    EPW34434   3.067   0.785   4.834  0.3815 -0.4789  0.5816
 8429WAT      O34435   3.334   1.173   5.438  0.6221  0.1172  0.6416
 8429WAT     H134436   3.296   1.189   5.361  0.5693  0.4038  0.7250
 8429WAT     H234437   3.334   1.086   5.444 -0.5998  0.1241  0.9312
 8429WAT    EPW34438   3.329   1.163   5.428  0.4338  0.1605  0.6967
 8430WAT      O34439   1.769   3.174   4.235 -0.2576 -0.1646  0.8406
 8430WAT     H134440   1.762   3.100   4.281  1.8528 -0.3263  0.9853
 8430WAT     H234441   1.693   3.178   4.191 -1.3415 -1.2433  2.4831
 8430WAT    EPW34442   1.756   3.163   4.235 -0.1060 -0.3478  1.1046
 8431WAT      O34443   4.987   1.204   4.239 -0.6510 -0.4638  0.1710
 8431WAT     H134444   5.018   1.282   4.265  0.8920 -0.7088 -0.8186
 8431WAT     H234445   4.985   1.158   4.313  1.0992 -0.3234  0.3542
 8431WAT    EPW34446   4.991   1.209   4.254 -0.1646 -0.4792  0.0519
 8432WAT      O34447   2.455   0.911   6.817 -0.3881 -0.6285 -0.4575
 8432WAT     H134448   2.480   0.914   6.900 -1.2352 -0.0084 -0.2116
 8432WAT     H234449   2.522   0.947   6.774 -0.1187 -0.5770 -0.0004
 8432WAT    EPW34450   2.469   0.917   6.823 -0.4734 -0.5293 -0.3537
 8433WAT      O34451   2.813   3.202   6.502 -0.1111 -0.3170 -0.4203
 8433WAT     H134452   2.889   3.237   6.527  0.0999 -0.9403 -0.1761
 8433WAT     H234453   2.779   3.262   6.449  0.0466  0.4512  0.3263
 8433WAT    EPW34454   2.819   3.216   6.498 -0.0567 -0.2956 -0.2740
 8434WAT      O34455   2.916   3.071   4.613  0.0282 -0.5208 -0.4111
 8434WAT     H134456   2.887   3.151   4.596  0.1213 -0.7056 -1.5123
 8434WAT     H234457   2.974   3.083   4.678  0.7346  0.4451 -1.1934
 8434WAT    EPW34458   2.920   3.084   4.620  0.1463 -0.4054 -0.6894
 8435WAT      O34459   2.945   1.613   5.018 -0.0908  1.2705  0.7236
 8435WAT     H134460   2.876   1.647   5.059  0.2850  1.5112  1.1756
 8435WAT     H234461   2.928   1.527   5.018  0.1779  1.1914  1.9594
 8435WAT    EPW34462   2.933   1.605   5.024  0.0044  1.2944  0.9729
 8436WAT      O34463   3.454   2.031   4.582 -0.0220 -0.0382 -0.9806
 8436WAT     H134464   3.378   2.048   4.542  0.5969  2.0901 -1.3550
 8436WAT     H234465   3.488   2.110   4.595  0.9918 -0.7895  1.4662
 8436WAT    EPW34466   3.448   2.045   4.578  0.2192  0.1652 -0.6744
 8437WAT      O34467   4.235   1.689   4.600 -0.2273  0.1968 -0.7008
 8437WAT     H134468   4.149   1.683   4.588 -0.0510 -0.7409 -1.6661
 8437WAT     H234469   4.252   1.773   4.583 -0.7948  0.1234 -1.6936
 8437WAT    EPW34470   4.225   1.700   4.596 -0.2851  0.0474 -0.9901
 8438WAT      O34471   2.945   2.358   6.120  0.1564 -0.4204 -0.1148
 8438WAT     H134472   3.009   2.383   6.067  0.7006 -1.2930  0.1116
 8438WAT     H234473   2.924   2.431   6.164  0.2652  0.1115 -0.9201
 8438WAT    EPW34474   2.951   2.373   6.118  0.2529 -0.4707 -0.2003
 8439WAT      O34475   4.854   0.796   5.603  0.0904 -0.2414 -0.0267
 8439WAT     H134476   4.905   0.767   5.539  0.1581  0.4709 -0.3073
 8439WAT     H234477   4.820   0.870   5.571 -0.1408 -0.0552  0.6235
 8439WAT    EPW34478   4.857   0.803   5.589  0.0663 -0.1086  0.0279
 8440WAT      O34479   2.976   0.863   5.837  0.0176  0.3338 -0.5319
 8440WAT     H134480   2.999   0.929   5.786  1.8451  0.6681  0.6374
 8440WAT     H234481   2.952   0.902   5.911 -0.5701 -0.2510 -0.4046
 8440WAT    EPW34482   2.976   0.878   5.840  0.2007  0.2968 -0.3404
 8441WAT      O34483   4.511   3.078   6.073  0.3603  0.3843  0.4968
 8441WAT     H134484   4.555   3.042   6.006  0.8573 -1.5906  1.7862
 8441WAT     H234485   4.541   3.159   6.076  2.7157 -0.3865  0.2368
 8441WAT    EPW34486   4.522   3.084   6.063  0.7817 -0.0213  0.6488
 8442WAT      O34487   3.037   1.862   3.937 -0.4163  0.3519  0.1754
 8442WAT     H134488   2.973   1.813   3.903  0.5459 -0.7464 -0.1027
 8442WAT     H234489   3.100   1.859   3.877  0.7239 -0.3624  1.3559
 8442WAT    EPW34490   3.037   1.854   3.923 -0.1057  0.0841  0.3087
 8443WAT      O34491   3.707   1.810   4.899  0.4860  0.3750  0.0537
 8443WAT     H134492   3.724   1.725   4.901  1.0965  0.4909 -0.0810
 8443WAT     H234493   3.743   1.837   4.825  1.0192  0.9007  0.4964
 8443WAT    EPW34494   3.715   1.802   4.888  0.6550  0.4698  0.0992
 8444WAT      O34495   2.802   2.030   6.915 -0.1476  0.0206  0.2885
 8444WAT     H134496   2.749   2.086   6.874 -0.7508 -1.3172 -0.8380
 8444WAT     H234497   2.768   2.024   6.995 -0.5957  0.5908  0.1454
 8444WAT    EPW34498   2.789   2.037   6.920 -0.3029 -0.0928  0.1009
 8445WAT      O34499   2.269   2.851   5.089  0.4654 -0.2792 -0.8213
 8445WAT     H134500   2.236   2.814   5.017  0.1834  0.0440 -0.8577
 8445WAT     H234501   2.257   2.791   5.151 -3.6050  1.1496  0.0543
 8445WAT    EPW34502   2.262   2.837   5.087 -0.1775 -0.0204 -0.6973
 8446WAT      O34503   3.250   3.973   5.684  0.0923  0.1719 -0.2997
 8446WAT     H134504   3.309   3.914   5.711 -0.8471 -0.7647 -0.2216
 8446WAT     H234505   3.234   3.951   5.602  1.5195  1.8459 -1.0796
 8446WAT    EPW34506   3.256   3.961   5.676  0.1644  0.2808 -0.4034
 8447WAT      O34507   3.914   0.887   5.774  0.4367  0.1948 -0.3007
 8447WAT     H134508   3.878   0.872   5.696  0.7660 -2.3968 -0.0502
 8447WAT     H234509   3.912   0.974   5.781 -2.2951  0.4018 -1.9154
 8447WAT    EPW34510   3.908   0.898   5.764  0.0818 -0.1574 -0.5022
 8448WAT      O34511   1.867   2.967   4.901  0.2624  0.4313 -0.1315
 8448WAT     H134512   1.918   2.967   4.831  0.1113  0.0377 -0.2463
 8448WAT     H234513   1.922   2.976   4.968  0.8696 -2.9258 -0.0058
 8448WAT    EPW34514   1.883   2.968   4.901  0.3298 -0.1227 -0.1299
 8449WAT      O34515   1.732   2.114   5.147 -0.4607 -0.1118  0.2721
 8449WAT     H134516   1.685   2.043   5.128 -0.2965 -0.1709  0.0860
 8449WAT     H234517   1.813   2.092   5.124 -0.4909  0.3139 -0.2505
 8449WAT    EPW34518   1.737   2.101   5.141 -0.4409 -0.0577  0.1674
 8450WAT      O34519   4.207   2.478   4.589  0.3812  0.3835  0.0915
 8450WAT     H134520   4.222   2.522   4.663  0.5938 -1.4516  1.2087
 8450WAT     H234521   4.264   2.513   4.532  1.1743  0.9093  1.1787
 8450WAT    EPW34522   4.218   2.490   4.591  0.5297  0.1901  0.4171
 8451WAT      O34523   4.116   0.700   5.019 -0.4217  1.1451  0.1577
 8451WAT     H134524   4.195   0.723   4.990 -0.4385  0.2824 -0.6046
 8451WAT     H234525   4.089   0.640   4.962 -2.1745  2.3026 -0.3280
 8451WAT    EPW34526   4.123   0.694   5.006 -0.6831  1.1886 -0.0267
 8452WAT      O34527   3.131   2.503   4.955 -0.1982 -0.0673  0.0256
 8452WAT     H134528   3.119   2.423   4.987 -0.6256  0.8513  2.3922
 8452WAT     H234529   3.068   2.511   4.895 -0.9458 -1.0858  0.6391
 8452WAT    EPW34530   3.120   2.493   4.951 -0.3718 -0.0821  0.4658
 8453WAT      O34531   3.632   2.271   4.567  0.1795 -0.0388  0.9368
 8453WAT     H134532   3.692   2.323   4.602  0.7036  0.5971 -0.7803
 8453WAT     H234533   3.565   2.324   4.549  0.6642  0.0849 -0.6992
 8453WAT    EPW34534   3.631   2.286   4.569  0.3285  0.0734  0.4415
 8454WAT      O34535   4.739   0.841   3.402 -0.2304  0.6483 -0.0032
 8454WAT     H134536   4.731   0.840   3.489 -1.1360  0.9338 -0.0724
 8454WAT     H234537   4.695   0.770   3.376 -0.3801  0.8302 -0.2544
 8454WAT    EPW34538   4.731   0.831   3.411 -0.3863  0.7174 -0.0505
 8455WAT      O34539   2.416   2.475   5.129  0.5085 -0.3209  0.3399
 8455WAT     H134540   2.461   2.411   5.169 -2.2227 -0.9136  2.8621
 8455WAT     H234541   2.332   2.452   5.142 -0.6499  3.5624  1.1390
 8455WAT    EPW34542   2.410   2.462   5.137 -0.0661  0.1652  0.8305
 8456WAT      O34543   3.065   0.630   5.716 -0.1058  0.2740 -0.1942
 8456WAT     H134544   3.002   0.584   5.678  0.1424 -1.4749  1.3276
 8456WAT     H234545   3.022   0.692   5.760 -0.9012 -1.3300  1.4052
 8456WAT    EPW34546   3.049   0.632   5.717 -0.1866 -0.2213  0.2669
 8457WAT      O34547   3.573   2.376   4.116 -0.4487 -0.0872  0.3823
 8457WAT     H134548   3.535   2.394   4.040 -1.6663 -0.1403  0.9615
 8457WAT     H234549   3.589   2.454   4.151  1.3904 -0.0017 -0.4857
 8457WAT    EPW34550   3.570   2.390   4.110 -0.3569 -0.0824  0.3397
 8458WAT      O34551   1.694   3.249   5.071  0.2268  0.3175 -0.1431
 8458WAT     H134552   1.740   3.294   5.013 -1.4998  0.4417 -1.5137
 8458WAT     H234553   1.699   3.298   5.143 -0.2198  1.8986 -1.1282
 8458WAT    EPW34554   1.701   3.263   5.073 -0.0943  0.5694 -0.4911
 8459WAT      O34555   3.255   1.445   4.600 -0.7133 -0.4822 -0.6016
 8459WAT     H134556   3.189   1.403   4.638 -1.5815  1.3991  0.1186
 8459WAT     H234557   3.245   1.527   4.628  1.1430  0.1265 -1.5698
 8459WAT    EPW34558   3.244   1.451   4.610 -0.5673 -0.1144 -0.6382
 8460WAT      O34559   3.245   0.671   3.963 -0.5777  0.3213 -0.1316
 8460WAT     H134560   3.165   0.704   3.978 -0.8119 -0.4352  0.3552
 8460WAT     H234561   3.292   0.698   4.032 -0.9736 -0.9709  0.6818
 8460WAT    EPW34562   3.240   0.680   3.976 -0.6708  0.0187  0.0604
 8461WAT      O34563   4.207   1.982   4.584  0.3877  0.0588  0.4747
 8461WAT     H134564   4.203   1.985   4.497 -0.4890 -1.3763  0.4469
 8461WAT     H234565   4.140   2.033   4.609  1.2093  1.2419  0.3483
 8461WAT    EPW34566   4.197   1.990   4.575  0.3795  0.0216  0.4519
 8462WAT      O34567   2.784   1.304   3.844 -0.1988 -0.0779  0.1568
 8462WAT     H134568   2.764   1.257   3.914  2.0909 -0.5334  0.6078
 8462WAT     H234569   2.843   1.362   3.875 -0.9528  1.3365 -0.9171
 8462WAT    EPW34570   2.790   1.306   3.859  0.0281  0.0637  0.0648
 8463WAT      O34571   2.359   0.305   4.513 -0.2843 -0.0897 -0.3060
 8463WAT     H134572   2.429   0.257   4.533 -0.5433  0.2960  1.7308
 8463WAT     H234573   2.334   0.338   4.590 -2.5927 -0.0451 -1.0089
 8463WAT    EPW34574   2.366   0.303   4.527 -0.6636 -0.0261 -0.1090
 8464WAT      O34575   4.396   1.092   5.350  0.4209  0.4240 -0.0911
 8464WAT     H134576   4.332   1.138   5.387 -0.2195 -0.4060 -0.1280
 8464WAT     H234577   4.358   1.058   5.279  0.5242 -1.0895  0.5374
 8464WAT    EPW34578   4.381   1.094   5.345  0.3415  0.0778 -0.0037
 8465WAT      O34579   3.068   3.088   5.868 -0.0051  0.2259 -0.3630
 8465WAT     H134580   3.124   3.052   5.812  0.7527 -2.2941  1.7759
 8465WAT     H234581   3.042   3.020   5.917 -2.4885  1.8541  0.7631
 8465WAT    EPW34582   3.072   3.072   5.867 -0.2600  0.0942  0.1193
 8466WAT      O34583   2.529   1.637   5.647  0.6175  0.6996 -0.3765
 8466WAT     H134584   2.453   1.624   5.689 -0.7145  1.8437 -2.2572
 8466WAT     H234585   2.549   1.720   5.668 -0.1589  1.3461 -2.0363
 8466WAT    EPW34586   2.521   1.647   5.656  0.3061  0.9641 -0.8995
 8467WAT      O34587   4.099   1.566   5.614 -0.0119 -0.3721 -0.4952
 8467WAT     H134588   4.102   1.503   5.554 -0.7860 -0.2537 -0.6618
 8467WAT     H234589   4.016   1.592   5.613  0.4590  1.2790 -1.0988
 8467WAT    EPW34590   4.087   1.561   5.605 -0.0567 -0.1107 -0.6090
 8468WAT      O34591   1.029   2.396   6.185  0.6552  0.2100  0.0171
 8468WAT     H134592   1.079   2.395   6.114 -1.9362 -0.3919 -1.9767
 8468WAT     H234593   1.014   2.480   6.199  1.5832  0.3542  0.1829
 8468WAT    EPW34594   1.034   2.408   6.176  0.4095  0.1424 -0.2529
 8469WAT      O34595   2.241   2.706   3.419  0.6542  0.4873 -0.1742
 8469WAT     H134596   2.266   2.623   3.423  0.5181  0.4851  0.7069
 8469WAT     H234597   2.291   2.746   3.478  0.2636  0.9131 -0.1222
 8469WAT    EPW34598   2.252   2.700   3.428  0.5764  0.5498 -0.0363
 8470WAT      O34599   1.822   1.848   3.209 -0.2721  0.2125  1.0528
 8470WAT     H134600   1.748   1.859   3.164 -1.0324  0.1525  2.2441
 8470WAT     H234601   1.874   1.806   3.153 -0.2891  2.2385 -0.6219
 8470WAT    EPW34602   1.819   1.844   3.194 -0.3869  0.5029  0.9814
 8471WAT      O34603   4.022   2.401   5.995 -0.2635  0.0346  0.9528
 8471WAT     H134604   4.011   2.447   5.922 -4.0774 -1.3795  0.4210
 8471WAT     H234605   4.012   2.318   5.969  0.0603 -0.6435  2.8446
 8471WAT    EPW34606   4.019   2.395   5.980 -0.7791 -0.2745  1.1537
 8472WAT      O34607   2.948   1.369   5.298 -0.1434  0.4560  0.1221
 8472WAT     H134608   3.007   1.434   5.293 -1.1125  1.2862 -2.0173
 8472WAT     H234609   2.884   1.404   5.345 -0.0798  0.5390  0.1489
 8472WAT    EPW34610   2.947   1.384   5.304 -0.2771  0.5909 -0.1900
 8473WAT      O34611   2.045   3.327   5.150 -0.1186 -0.9321 -1.0072
 8473WAT     H134612   2.106   3.313   5.210 -0.7872 -1.8107 -0.5067
 8473WAT     H234613   2.058   3.264   5.091 -0.5869 -1.1912 -0.8456
 8473WAT    EPW34614   2.056   3.315   5.150 -0.2865 -1.1002 -0.9094
 8474WAT      O34615   1.905   0.938   5.307 -0.2573 -0.3154 -0.0091
 8474WAT     H134616   1.990   0.951   5.317 -0.2738  0.8203 -1.1085
 8474WAT     H234617   1.891   0.955   5.222 -1.6230 -0.1270  0.2274
 8474WAT    EPW34618   1.915   0.942   5.296 -0.4614 -0.1198 -0.1366
 8475WAT      O34619   1.658   0.539   3.996  0.2206  0.0921  0.2480
 8475WAT     H134620   1.685   0.600   3.941 -0.8285  0.4426  0.0935
 8475WAT     H234621   1.671   0.574   4.074  0.9939 -0.0912  0.2029
 8475WAT    EPW34622   1.664   0.553   3.999  0.1799  0.1168  0.2185
 8476WAT      O34623   4.827   1.618   6.095  0.8711 -0.1242 -0.3258
 8476WAT     H134624   4.744   1.593   6.091  0.8460  0.0310 -0.8904
 8476WAT     H234625   4.851   1.599   6.176 -0.2970  1.6238  0.4953
 8476WAT    EPW34626   4.818   1.612   6.106  0.6948  0.1569 -0.2879
 8477WAT      O34627   2.961   2.504   4.716 -0.2442 -0.0360  0.4818
 8477WAT     H134628   2.964   2.469   4.637 -4.1531 -0.7446  0.4124
 8477WAT     H234629   2.956   2.589   4.701 -0.3835 -0.1344 -0.0448
 8477WAT    EPW34630   2.961   2.511   4.702 -0.8422 -0.1552  0.3938
 8478WAT      O34631   3.527   1.763   5.398 -0.2736 -0.0575  0.1118
 8478WAT     H134632   3.512   1.737   5.480 -0.4763 -0.0763  0.0700
 8478WAT     H234633   3.565   1.841   5.408 -0.2834 -0.0664  0.2240
 8478WAT    EPW34634   3.530   1.771   5.412 -0.3050 -0.0616  0.1222
 8479WAT      O34635   2.354   2.527   5.520  0.2104  1.2907  0.3867
 8479WAT     H134636   2.379   2.603   5.554  0.3459  0.4825  2.2058
 8479WAT     H234637   2.428   2.491   5.491  0.4917  0.9963  1.4043
 8479WAT    EPW34638   2.369   2.533   5.521  0.2719  1.1278  0.8057
 8480WAT      O34639   2.506   2.275   3.568 -0.6489  0.4134  0.8119
 8480WAT     H134640   2.561   2.335   3.600 -0.1476  1.1826 -1.2959
 8480WAT     H234641   2.534   2.200   3.603  0.8547  0.9916  0.9249
 8480WAT    EPW34642   2.518   2.273   3.578 -0.3527  0.6125  0.5173
 8481WAT      O34643   2.563   1.891   4.613 -0.1082 -0.1314 -0.3382
 8481WAT     H134644   2.503   1.893   4.676  0.6214  1.1923  0.3514
 8481WAT     H234645   2.625   1.945   4.641 -0.1357  1.2001 -2.5633
 8481WAT    EPW34646   2.564   1.899   4.626 -0.0045  0.2608 -0.5650
 8482WAT      O34647   5.529   1.225   5.121 -0.2423  0.8429  0.3207
 8482WAT     H134648   5.570   1.197   5.193 -0.3638 -1.3439 -0.4002
 8482WAT     H234649   5.445   1.230   5.146 -0.0666  1.6562  0.7625
 8482WAT    EPW34650   5.522   1.222   5.136 -0.2343  0.6400  0.2795
 8483WAT      O34651   2.881   2.956   4.895 -0.3395  0.1617  0.6275
 8483WAT     H134652   2.888   2.903   4.825 -0.3636  0.5592  0.3190
 8483WAT     H234653   2.948   3.011   4.885 -1.6705  1.7078 -0.3649
 8483WAT    EPW34654   2.892   2.956   4.883 -0.5397  0.4488  0.4353
 8484WAT      O34655   5.649   1.935   6.262  0.4962 -0.3445 -0.3287
 8484WAT     H134656   5.665   1.854   6.290  2.1898 -0.6693 -1.9808
 8484WAT     H234657   5.619   1.922   6.181 -0.4263  0.6581 -0.1638
 8484WAT    EPW34658   5.647   1.921   6.254  0.6101 -0.2444 -0.5484
 8485WAT      O34659   3.951   1.667   3.900 -0.2407 -0.4568 -0.3211
 8485WAT     H134660   3.946   1.687   3.815  0.1894  1.6783  0.1098
 8485WAT     H234661   4.037   1.666   3.916 -0.3254  1.2803  0.4929
 8485WAT    EPW34662   3.963   1.670   3.890 -0.1897  0.1152 -0.1372
 8486WAT      O34663   2.724   1.532   6.018  0.6232  0.0709 -0.0077
 8486WAT     H134664   2.682   1.475   5.967  0.3095  1.1182 -0.9694
 8486WAT     H234665   2.796   1.551   5.973  1.9756 -1.3667  1.4255
 8486WAT    EPW34666   2.728   1.526   6.004  0.7767  0.0133  0.0620
 8487WAT      O34667   3.568   3.017   5.506 -0.2222  0.3707  0.2856
 8487WAT     H134668   3.585   3.101   5.490  0.2428  0.0562 -1.0253
 8487WAT     H234669   3.630   2.975   5.461  0.5624 -0.6818  2.1983
 8487WAT    EPW34670   3.580   3.023   5.497 -0.0376  0.1687  0.3745
 8488WAT      O34671   2.663   1.067   6.074  0.1709 -0.2722  0.3726
 8488WAT     H134672   2.577   1.064   6.058  0.3728  0.7909 -1.1381
 8488WAT     H234673   2.678   1.152   6.090  1.1008 -0.2616 -0.4631
 8488WAT    EPW34674   2.653   1.079   6.074  0.3381 -0.1136  0.0260
 8489WAT      O34675   2.646   2.216   6.776 -0.7255  0.2197 -0.2967
 8489WAT     H134676   2.672   2.260   6.705  0.6884  0.6167  0.4233
 8489WAT     H234677   2.603   2.276   6.822 -1.1632  0.1066 -0.5489
 8489WAT    EPW34678   2.644   2.232   6.772 -0.5813  0.2616 -0.2276
 8490WAT      O34679   4.456   1.541   4.569  0.0544 -0.7522 -0.3488
 8490WAT     H134680   4.491   1.547   4.649 -1.1388 -1.1602  0.2330
 8490WAT     H234681   4.379   1.581   4.578  0.0727 -0.4510 -1.4194
 8490WAT    EPW34682   4.450   1.548   4.582 -0.1192 -0.7680 -0.4210
 8491WAT      O34683   3.698   2.666   4.645  0.5618  0.9310 -0.1937
 8491WAT     H134684   3.642   2.714   4.691 -1.3576 -0.2033 -1.1735
 8491WAT     H234685   3.651   2.642   4.575  1.8522 -1.1550 -0.4323
 8491WAT    EPW34686   3.683   2.669   4.642  0.4689  0.4553 -0.3737
 8492WAT      O34687   2.072   3.768   5.138  0.3975 -0.0824  0.4834
 8492WAT     H134688   2.114   3.693   5.123  1.7153  0.7559 -0.2303
 8492WAT     H234689   2.078   3.810   5.062 -0.6883  0.5866  0.7440
 8492WAT    EPW34690   2.079   3.763   5.124  0.4318  0.1403  0.4165
 8493WAT      O34691   3.857   1.877   5.761 -0.5065 -0.1604 -0.3108
 8493WAT     H134692   3.935   1.840   5.748  0.5919  1.4042  1.2821
 8493WAT     H234693   3.801   1.815   5.738  1.2128 -1.7486 -0.4847
 8493WAT    EPW34694   3.860   1.862   5.756 -0.0903 -0.1639 -0.1012
 8494WAT      O34695   3.965   1.707   4.592  0.3487  0.1524  1.1043
 8494WAT     H134696   3.936   1.788   4.607 -0.6109  0.3376 -1.3268
 8494WAT     H234697   3.914   1.678   4.528  2.2881 -1.4498  0.1704
 8494WAT    EPW34698   3.953   1.714   4.585  0.4934 -0.0569  0.6072
 8495WAT      O34699   4.789   1.289   6.542  0.3305 -0.9983 -0.6579
 8495WAT     H134700   4.842   1.277   6.610 -3.8131  0.3173  3.2492
 8495WAT     H234701   4.776   1.376   6.540  0.1307 -0.9978 -3.1141
 8495WAT    EPW34702   4.795   1.300   6.552 -0.3111 -0.8039 -0.4436
 8496WAT      O34703   2.503   1.883   5.737 -0.0504  0.1500  0.3128
 8496WAT     H134704   2.444   1.865   5.799 -1.1398  2.4810  0.0723
 8496WAT     H234705   2.457   1.928   5.678  1.3583 -0.4849 -1.3587
 8496WAT    EPW34706   2.487   1.887   5.737 -0.0032  0.4005  0.0303
 8497WAT      O34707   4.369   3.252   5.433  0.3843  0.1977  0.1802
 8497WAT     H134708   4.339   3.319   5.386  1.0424  1.0503  0.9462
 8497WAT     H234709   4.313   3.187   5.415 -0.0963  0.8687 -0.7834
 8497WAT    EPW34710   4.356   3.252   5.424  0.4105  0.4227  0.1510
 8498WAT      O34711   1.892   1.814   4.778 -0.2088 -0.2510 -0.2178
 8498WAT     H134712   1.904   1.838   4.695 -0.2248  0.4578 -0.0212
 8498WAT     H234713   1.876   1.889   4.819  0.3478 -0.5328  0.5324
 8498WAT    EPW34714   1.891   1.828   4.772 -0.1289 -0.1879 -0.0779
 8499WAT      O34715   4.238   1.819   5.550  0.5207  0.4066  0.2077
 8499WAT     H134716   4.163   1.864   5.543  1.1261  1.3015 -0.7851
 8499WAT     H234717   4.211   1.738   5.566 -0.6682  0.7221 -0.0814
 8499WAT    EPW34718   4.223   1.814   5.551  0.4345  0.5854  0.0183
 8500WAT      O34719   3.496   1.315   4.710 -0.4154  0.5710 -0.2266
 8500WAT     H134720   3.558   1.335   4.652  1.4133 -0.7077  1.1589
 8500WAT     H234721   3.425   1.355   4.679  0.8243  1.1921 -2.4906
 8500WAT    EPW34722   3.495   1.324   4.697  0.0379  0.4739 -0.3563
 8501WAT      O34723   2.585   2.038   2.399 -0.8299 -0.3482 -0.4012
 8501WAT     H134724   2.559   1.955   2.412  1.2809 -0.9959  0.0303
 8501WAT     H234725   2.656   2.045   2.448  0.4548  0.9623 -2.3270
 8501WAT    EPW34726   2.591   2.027   2.408 -0.3283 -0.2502 -0.6220
 8502WAT      O34727   1.799   3.098   3.289 -0.0790 -0.6559  0.3145
 8502WAT     H134728   1.822   3.081   3.372 -0.7003 -0.0003  0.6282
 8502WAT     H234729   1.832   3.030   3.245  4.1795  0.9955  0.4178
 8502WAT    EPW34730   1.808   3.085   3.295  0.4583 -0.3151  0.3761
 8503WAT      O34731   3.033   3.398   7.227  0.8164  0.1308  0.3572
 8503WAT     H134732   3.037   3.388   7.314 -0.3968  2.4754  0.7684
 8503WAT     H234733   2.947   3.410   7.213  1.0308  0.0202 -1.1557
 8503WAT    EPW34734   3.021   3.398   7.238  0.6688  0.4608  0.1945
 8504WAT      O34735   1.359   1.800   4.217 -0.1837 -0.6534  0.7832
 8504WAT     H134736   1.426   1.778   4.166 -0.3384  1.6445 -0.5605
 8504WAT     H234737   1.395   1.853   4.276 -0.7865  0.8061 -0.1026
 8504WAT    EPW34738   1.374   1.804   4.218 -0.2956 -0.0984  0.4539
 8505WAT      O34739   2.111   0.575   6.501 -0.1233  0.3971 -0.8177
 8505WAT     H134740   2.079   0.614   6.573  0.6186  0.4352 -0.4988
 8505WAT     H234741   2.123   0.642   6.446 -1.2741  0.2971 -1.2207
 8505WAT    EPW34742   2.108   0.591   6.503 -0.1837  0.3880 -0.8301
 8506WAT      O34743   4.388   2.003   4.333 -0.1200 -0.2474  0.3513
 8506WAT     H134744   4.417   2.004   4.415  0.6469  0.6158  0.0836
 8506WAT     H234745   4.373   2.087   4.316  1.8279 -0.1269 -1.1062
 8506WAT    EPW34746   4.390   2.016   4.343  0.2811 -0.1021  0.0965
 8507WAT      O34747   2.982   2.082   4.501 -0.4801  0.6038 -0.1560
 8507WAT     H134748   3.044   2.095   4.561 -2.0423  0.9411  1.4651
 8507WAT     H234749   3.022   2.101   4.426  1.1398  1.5719  0.8925
 8507WAT    EPW34750   2.997   2.087   4.499 -0.4716  0.7966  0.2384
 8508WAT      O34751   2.691   2.706   4.953  0.4038 -0.1637 -0.5136
 8508WAT     H134752   2.732   2.783   4.961 -0.9139  0.4783  0.4680
 8508WAT     H234753   2.645   2.700   5.027 -2.3370 -0.1645 -2.1163
 8508WAT    EPW34754   2.691   2.717   4.965 -0.1958 -0.0690 -0.6054
 8509WAT      O34755   3.665   1.373   5.700 -0.5478 -0.3756 -0.2017
 8509WAT     H134756   3.702   1.445   5.667 -1.1800 -0.8010 -1.9560
 8509WAT     H234757   3.592   1.403   5.738  0.0939  0.0995  0.6942
 8509WAT    EPW34758   3.660   1.388   5.701 -0.5464 -0.3683 -0.3285
 8510WAT      O34759   3.526   1.385   6.410  0.6226 -0.2629  0.5308
 8510WAT     H134760   3.606   1.352   6.399  0.3472 -1.1543  1.1369
 8510WAT     H234761   3.541   1.460   6.452  1.1002 -0.7172  1.1938
 8510WAT    EPW34762   3.540   1.392   6.414  0.6524 -0.4617  0.7183
 8511WAT      O34763   2.325   0.829   3.670 -0.5704  0.3166  0.0779
 8511WAT     H134764   2.332   0.750   3.706 -0.2766  0.1649 -0.3007
 8511WAT     H234765   2.384   0.827   3.605 -2.5718 -0.2431 -1.8700
 8511WAT    EPW34766   2.335   0.817   3.666 -0.8226  0.2115 -0.2658
 8512WAT      O34767   3.019   2.828   6.037  0.0978 -0.1255 -0.3030
 8512WAT     H134768   3.005   2.885   6.101 -1.0444 -0.0874 -0.5624
 8512WAT     H234769   2.951   2.841   5.983  0.2818 -1.1220 -0.7959
 8512WAT    EPW34770   3.007   2.838   6.038 -0.0437 -0.2671 -0.4141
 8513WAT      O34771   4.043   1.163   5.441 -0.4739 -0.1860  0.4044
 8513WAT     H134772   3.962   1.178   5.413  0.5485  1.0033 -2.2401
 8513WAT     H234773   4.061   1.083   5.412 -0.4594 -0.1627  0.3487
 8513WAT    EPW34774   4.034   1.153   5.432 -0.3207 -0.0068  0.0056
 8514WAT      O34775   3.744   2.034   4.410 -0.4236 -0.3856  0.5412
 8514WAT     H134776   3.705   2.105   4.442  0.4574  0.3219  0.0744
 8514WAT     H234777   3.820   2.064   4.380 -0.0686 -1.5157  0.2694
 8514WAT    EPW34778   3.749   2.049   4.411 -0.2410 -0.4480  0.4321
 8515WAT      O34779   3.695   1.110   6.505  0.3517 -0.1874  0.0377
 8515WAT     H134780   3.704   1.166   6.571 -1.3801 -1.5155  1.4985
 8515WAT     H234781   3.769   1.064   6.506  1.0319  0.8930 -0.0319
 8515WAT    EPW34782   3.707   1.111   6.515  0.1964 -0.2240  0.2432
 8516WAT      O34783   3.562   2.425   4.897 -0.1464  0.2868 -0.3632
 8516WAT     H134784   3.567   2.505   4.932  0.9269  0.7415 -1.5078
 8516WAT     H234785   3.477   2.418   4.875 -0.1957  1.2204 -0.5183
 8516WAT    EPW34786   3.550   2.436   4.899  0.0049  0.4919 -0.5552
 8517WAT      O34787   2.861   2.350   5.552 -0.3032  0.2084 -0.5276
 8517WAT     H134788   2.851   2.314   5.631 -0.0159 -0.9895 -1.0151
 8517WAT     H234789   2.780   2.351   5.520 -0.1948 -1.0334 -0.9147
 8517WAT    EPW34790   2.847   2.344   5.559 -0.2448 -0.1520 -0.6568
 8518WAT      O34791   2.713   2.024   5.367  0.2077 -0.0014  0.8862
 8518WAT     H134792   2.778   2.030   5.310 -1.1026  1.0520 -0.5732
 8518WAT     H234793   2.687   1.941   5.361  0.8338 -0.1993  0.8531
 8518WAT    EPW34794   2.719   2.013   5.358  0.1066  0.1250  0.6657
 8519WAT      O34795   4.379   1.130   6.706 -0.2847  0.0806 -0.3746
 8519WAT     H134796   4.328   1.181   6.657  0.7623  1.2291 -0.2978
 8519WAT     H234797   4.395   1.179   6.777 -0.0207 -0.7290  0.1458
 8519WAT    EPW34798   4.374   1.144   6.709 -0.0910  0.1306 -0.2864
 8520WAT      O34799   3.798   1.320   6.368 -0.2569 -0.3179 -0.5835
 8520WAT     H134800   3.769   1.238   6.377  0.9632 -0.6269  0.8112
 8520WAT     H234801   3.827   1.322   6.286 -0.0431 -1.3694 -0.5468
 8520WAT    EPW34802   3.798   1.308   6.357 -0.0451 -0.5189 -0.3720
 8521WAT      O34803   3.592   2.685   5.467 -0.0999  0.0014  0.3566
 8521WAT     H134804   3.651   2.675   5.404  0.4952  0.6879  0.7959
 8521WAT     H234805   3.597   2.610   5.512  0.7512  0.2375  0.6544
 8521WAT    EPW34806   3.601   2.673   5.464  0.1137  0.1377  0.4655
 8522WAT      O34807   3.370   1.187   6.586 -0.6617  0.3542 -0.3987
 8522WAT     H134808   3.390   1.211   6.667 -0.8256  1.6293 -0.7146
 8522WAT     H234809   3.383   1.259   6.539 -2.4270  0.2050 -1.1950
 8522WAT    EPW34810   3.375   1.201   6.591 -0.9467  0.5205 -0.5630
 8523WAT      O34811   3.611   2.623   7.021 -0.2397 -0.1772 -0.1232
 8523WAT     H134812   3.615   2.544   7.057  1.8629  1.1160  2.8871
 8523WAT     H234813   3.650   2.612   6.943 -1.1189 -2.2758 -0.3310
 8523WAT    EPW34814   3.618   2.610   7.015 -0.0590 -0.2962  0.2908
 8524WAT      O34815   3.225   1.793   6.310 -0.6821 -0.1002  0.1991
 8524WAT     H134816   3.210   1.715   6.345  2.0588 -0.8053  0.0257
 8524WAT     H234817   3.227   1.778   6.224  0.7099 -0.0574  0.2044
 8524WAT    EPW34818   3.223   1.779   6.303 -0.0716 -0.1980  0.1743
 8525WAT      O34819   5.185   2.318   4.340  0.2912 -0.0341 -0.0625
 8525WAT     H134820   5.229   2.378   4.294  1.8492 -0.2475  1.0685
 8525WAT     H234821   5.202   2.340   4.423 -1.6936 -0.1954  0.4524
 8525WAT    EPW34822   5.194   2.330   4.346  0.2282 -0.0894  0.1807
 8526WAT      O34823   3.761   1.899   3.663 -0.2188  0.1043 -0.4082
 8526WAT     H134824   3.699   1.845   3.633  0.3465 -1.4927  1.0861
 8526WAT     H234825   3.718   1.949   3.720 -0.3019 -0.4142 -0.0089
 8526WAT    EPW34826   3.745   1.898   3.667 -0.1476 -0.2082 -0.1285
 8527WAT      O34827   1.998   1.984   5.530 -0.3883 -0.0713  0.2129
 8527WAT     H134828   1.927   1.937   5.511  0.3680 -2.0891  1.9060
 8527WAT     H234829   1.990   1.998   5.616  1.8027 -1.4542  0.7049
 8527WAT    EPW34830   1.986   1.979   5.540  0.0471 -0.5737  0.5357
 8528WAT      O34831   1.207   2.641   3.703 -0.0689  0.5891 -0.7429
 8528WAT     H134832   1.251   2.672   3.771 -0.6557 -0.9048  0.3759
 8528WAT     H234833   1.137   2.604   3.739  0.0832 -1.1159 -2.0503
 8528WAT    EPW34834   1.203   2.640   3.718 -0.1331  0.1165 -0.7707
 8529WAT      O34835   1.966   3.185   6.040 -0.1422 -0.1955 -0.3192
 8529WAT     H134836   1.925   3.111   6.016  1.2391 -0.3825 -2.4158
 8529WAT     H234837   1.910   3.248   6.017 -0.5376 -0.5288 -0.2860
 8529WAT    EPW34838   1.952   3.183   6.033  0.0034 -0.2724 -0.6240
 8530WAT      O34839   2.394   1.870   6.661  0.2987  0.3018  0.0899
 8530WAT     H134840   2.446   1.806   6.687  0.2114 -0.0077 -0.5011
 8530WAT     H234841   2.353   1.838   6.591 -0.7916  0.4805  0.6116
 8530WAT    EPW34842   2.396   1.856   6.655  0.1248  0.2824  0.0796
 8531WAT      O34843   4.424   2.524   5.102  0.1247  0.5015 -0.6098
 8531WAT     H134844   4.344   2.508   5.133  0.9015  1.5575  2.3076
 8531WAT     H234845   4.468   2.450   5.119 -0.2026 -0.1180 -2.3059
 8531WAT    EPW34846   4.419   2.511   5.109  0.1911  0.5660 -0.4294
 8532WAT      O34847   2.671   2.185   4.181 -0.5746  0.1957 -0.4680
 8532WAT     H134848   2.748   2.177   4.141 -1.8443  1.0898 -3.2988
 8532WAT     H234849   2.619   2.217   4.120 -2.6639  1.9866  2.0317
 8532WAT    EPW34850   2.675   2.188   4.166 -1.0708  0.5924 -0.5169
 8533WAT      O34851   2.390   1.935   4.864  0.1307 -0.2791  0.5039
 8533WAT     H134852   2.426   1.894   4.932 -0.3000 -1.7439 -0.1189
 8533WAT     H234853   2.309   1.904   4.862 -0.6900  1.6536  0.8103
 8533WAT    EPW34854   2.383   1.925   4.874 -0.0541 -0.2100  0.4572
 8534WAT      O34855   5.603   1.895   5.988  0.2667  0.0363  0.2707
 8534WAT     H134856   5.581   1.971   5.951 -1.2064 -0.4816  0.0161
 8534WAT     H234857   5.639   1.850   5.922 -0.4193 -0.1024 -0.0189
 8534WAT    EPW34858   5.605   1.899   5.972 -0.0523 -0.0607  0.1903
 8535WAT      O34859   3.634   2.664   4.241 -0.1175  0.2933  0.1462
 8535WAT     H134860   3.666   2.742   4.264 -0.1702  0.0191  1.1715
 8535WAT     H234861   3.585   2.640   4.309  0.3814 -0.9128  0.1146
 8535WAT    EPW34862   3.631   2.672   4.254 -0.0516  0.0746  0.2930
 8536WAT      O34863   4.791   2.165   6.595 -0.1853 -0.0136 -0.2082
 8536WAT     H134864   4.781   2.155   6.509  2.8228  2.4018 -1.0236
 8536WAT     H234865   4.847   2.101   6.616 -0.0781  0.0568 -0.2781
 8536WAT    EPW34866   4.798   2.154   6.585  0.2749  0.3536 -0.3389
 8537WAT      O34867   2.341   2.058   5.248  0.9402  0.5228 -0.1205
 8537WAT     H134868   2.336   2.045   5.334  0.9706  0.5781 -0.1106
 8537WAT     H234869   2.258   2.069   5.223  0.9769  1.0450 -0.0196
 8537WAT    EPW34870   2.328   2.057   5.257  0.9501  0.6081 -0.1041
 8538WAT      O34871   2.639   3.400   5.184  0.7253 -0.0534 -0.2485
 8538WAT     H134872   2.698   3.347   5.221  1.7931  0.3436 -1.3128
 8538WAT     H234873   2.601   3.349   5.124 -0.0548 -0.3181  0.4601
 8538WAT    EPW34874   2.642   3.384   5.181  0.7678 -0.0338 -0.3010
 8539WAT      O34875   1.830   2.147   4.497 -0.0200 -0.5377 -0.0774
 8539WAT     H134876   1.748   2.158   4.525 -0.4358 -1.0127 -1.0489
 8539WAT     H234877   1.847   2.064   4.516  0.7409 -0.0711  1.3493
 8539WAT    EPW34878   1.820   2.136   4.504  0.0310 -0.5389 -0.0102
 8540WAT      O34879   4.177   2.552   5.384  0.1529  0.1815 -0.0741
 8540WAT     H134880   4.129   2.500   5.436 -0.0918 -0.2140 -0.6687
 8540WAT     H234881   4.256   2.552   5.421 -0.4527  1.3824  1.2972
 8540WAT    EPW34882   4.181   2.544   5.397  0.0272  0.3004  0.0406
 8541WAT      O34883   3.346   2.672   5.667 -0.5583  0.0575  0.1596
 8541WAT     H134884   3.407   2.647   5.724 -0.3718 -0.6769 -0.3360
 8541WAT     H234885   3.393   2.708   5.602 -0.5384 -1.3816 -0.6700
 8541WAT    EPW34886   3.362   2.673   5.666 -0.5278 -0.2635 -0.0361
 8542WAT      O34887   4.820   2.822   6.251 -0.0332 -0.2584  0.1510
 8542WAT     H134888   4.891   2.795   6.207  0.0419 -0.0747  0.1587
 8542WAT     H234889   4.823   2.909   6.244  0.4989 -0.1621  1.3040
 8542WAT    EPW34890   4.831   2.831   6.243  0.0565 -0.2171  0.3224
 8543WAT      O34891   3.101   3.786   7.025 -0.1802 -0.0671  0.5935
 8543WAT     H134892   3.121   3.706   7.054  0.5587  0.2497  0.9968
 8543WAT     H234893   3.156   3.797   6.958 -0.0875  0.1955  0.7087
 8543WAT    EPW34894   3.112   3.776   7.020 -0.0574  0.0185  0.6701
 8544WAT      O34895   2.202   3.368   6.437 -0.2487  0.0754 -0.5336
 8544WAT     H134896   2.213   3.354   6.523 -0.6575  1.7843 -0.1623
 8544WAT     H234897   2.269   3.325   6.401 -1.3270 -2.5930  0.4112
 8544WAT    EPW34898   2.214   3.359   6.444 -0.4684 -0.0663 -0.3392
 8545WAT      O34899   3.202   1.396   4.961  0.0473 -0.3251 -0.2633
 8545WAT     H134900   3.152   1.389   4.890  1.9590 -1.1350 -1.6243
 8545WAT     H234901   3.258   1.459   4.940 -0.9137  1.2729  1.6214
 8545WAT    EPW34902   3.203   1.404   4.948  0.1877 -0.2087 -0.1860
 8546WAT      O34903   2.846   2.252   5.212 -0.0404  0.4400  0.0877
 8546WAT     H134904   2.893   2.253   5.139 -1.9977  0.1742 -1.2364
 8546WAT     H234905   2.907   2.253   5.275  1.6934  1.0929 -1.5025
 8546WAT    EPW34906   2.862   2.252   5.211 -0.0734  0.4972 -0.3428
 8547WAT      O34907   3.127   1.192   6.906 -0.2713 -0.0356  0.2526
 8547WAT     H134908   3.214   1.190   6.894 -0.4488 -2.9712 -1.5590
 8547WAT     H234909   3.119   1.223   6.987  2.4095  0.7370  0.3519
 8547WAT    EPW34910   3.139   1.196   6.916  0.0985 -0.3552 -0.0004
 8548WAT      O34911   3.199   1.719   4.596 -0.2487  0.3404 -0.0591
 8548WAT     H134912   3.240   1.756   4.664 -0.1712  0.7130 -0.3050
 8548WAT     H234913   3.123   1.762   4.593 -0.5253 -0.1310  0.1979
 8548WAT    EPW34914   3.194   1.731   4.606 -0.2781  0.3258 -0.0575
 8549WAT      O34915   3.306   2.362   4.798  0.1674 -1.1029 -0.3222
 8549WAT     H134916   3.301   2.379   4.713 -0.9461 -2.5939 -0.6029
 8549WAT     H234917   3.247   2.416   4.833 -0.0355 -1.1261 -0.6208
 8549WAT    EPW34918   3.297   2.372   4.790 -0.0271 -1.3266 -0.4078
 8550WAT      O34919   3.451   2.229   4.305  0.3699 -0.0780 -0.5236
 8550WAT     H134920   3.497   2.281   4.252 -2.1776  1.3652 -1.5103
 8550WAT     H234921   3.423   2.283   4.367 -1.5128 -0.4304 -1.0107
 8550WAT    EPW34922   3.454   2.244   4.306 -0.2845  0.0832 -0.7413
 8551WAT      O34923   2.723   0.765   5.372 -0.1441  0.0304 -0.2117
 8551WAT     H134924   2.687   0.771   5.452  2.0625 -0.8905  0.9153
 8551WAT     H234925   2.673   0.819   5.324 -1.0579  1.2520  1.9496
 8551WAT    EPW34926   2.710   0.774   5.377  0.0469  0.0748  0.2741
 8552WAT      O34927   4.437   2.037   4.001  0.7445 -0.2370  0.8228
 8552WAT     H134928   4.464   2.115   4.030  1.5530  0.0997 -0.7141
 8552WAT     H234929   4.417   2.052   3.918 -2.6688 -0.8910  1.4072
 8552WAT    EPW34930   4.438   2.051   3.993  0.3597 -0.2839  0.6821
 8553WAT      O34931   2.236   1.827   6.422 -0.3638  0.7904  0.0048
 8553WAT     H134932   2.225   1.789   6.345  0.9127 -0.5710  0.4485
 8553WAT     H234933   2.241   1.912   6.403 -5.1185  1.1763 -0.8573
 8553WAT    EPW34934   2.235   1.834   6.408 -0.8776  0.6463 -0.0570
 8554WAT      O34935   0.927   0.796   3.830 -0.3307 -0.0485 -0.3246
 8554WAT     H134936   0.928   0.739   3.763  0.2069  1.3336 -1.5620
 8554WAT     H234937   0.981   0.761   3.888 -2.9500 -2.7412  0.7428
 8554WAT    EPW34938   0.935   0.783   3.828 -0.6382 -0.2421 -0.3497
 8555WAT      O34939   3.712   0.078   6.970 -0.2467 -0.2410 -0.4165
 8555WAT     H134940   3.643   0.033   6.941 -0.5545 -0.9446  1.2988
 8555WAT     H234941   3.688   0.103   7.050  1.2375  0.0830 -0.0470
 8555WAT    EPW34942   3.698   0.075   6.977 -0.0729 -0.2971 -0.1085
 8556WAT      O34943   3.535   0.660   3.153  0.3773 -0.2231  0.3040
 8556WAT     H134944   3.563   0.603   3.214 -0.2584 -1.8209 -0.8397
 8556WAT     H234945   3.490   0.718   3.200 -2.1355 -2.6961  1.2102
 8556WAT    EPW34946   3.533   0.660   3.169 -0.0878 -0.8245  0.2689
 8557WAT      O34947   3.349   2.180   5.228 -0.3567 -0.0260 -0.0099
 8557WAT     H134948   3.432   2.193   5.201 -0.0577 -0.6260  0.6011
 8557WAT     H234949   3.329   2.102   5.196 -0.7643  0.1961 -0.3098
 8557WAT    EPW34950   3.359   2.171   5.219 -0.3728 -0.0818  0.0361
 8558WAT      O34951   2.340   0.874   5.988  0.4884 -0.4701 -0.8157
 8558WAT     H134952   2.368   0.856   6.068  1.0602  1.2720 -0.5812
 8558WAT     H234953   2.271   0.926   6.002 -0.0465 -0.9869 -1.4546
 8558WAT    EPW34954   2.334   0.879   6.002  0.4939 -0.2891 -0.8754
 8559WAT      O34955   1.920   2.705   4.758 -0.1145  0.4561  0.0560
 8559WAT     H134956   1.945   2.657   4.689  1.3121 -1.5575  1.8511
 8559WAT     H234957   1.992   2.748   4.781 -0.2852  0.3175  0.8809
 8559WAT    EPW34958   1.934   2.704   4.751  0.0711  0.1382  0.4430
 8560WAT      O34959   3.987   1.529   5.220  0.6292 -0.1385 -0.4386
 8560WAT     H134960   3.986   1.616   5.229 -0.0822 -0.1917  0.0760
 8560WAT     H234961   3.905   1.509   5.198  0.7357 -0.6957 -0.3542
 8560WAT    EPW34962   3.975   1.539   5.218  0.5398 -0.2286 -0.3501
 8561WAT      O34963   3.090   2.557   5.681  0.0986  0.5503  0.5451
 8561WAT     H134964   3.110   2.476   5.703 -0.0533  0.4585  0.3491
 8561WAT     H234965   3.163   2.602   5.698 -0.6843  0.9274  3.3792
 8561WAT    EPW34966   3.104   2.552   5.687 -0.0395  0.5924  0.9348
 8562WAT      O34967   1.542   1.388   4.204 -0.5311  0.2138  0.0551
 8562WAT     H134968   1.530   1.325   4.263 -3.0550 -0.2551 -0.8294
 8562WAT     H234969   1.578   1.452   4.251 -0.5520 -0.8565  1.6388
 8562WAT    EPW34970   1.545   1.388   4.220 -0.9070 -0.0136  0.1584
 8563WAT      O34971   4.359   0.764   4.896  0.2161  0.1052  0.3636
 8563WAT     H134972   4.432   0.742   4.853 -1.1395 -0.1124 -2.0034
 8563WAT     H234973   4.342   0.845   4.867 -0.0501  0.5100  1.5809
 8563WAT    EPW34974   4.367   0.773   4.885 -0.0235  0.1329  0.1938
 8564WAT      O34975   4.515   1.019   4.253 -0.4318  0.1510 -0.6619
 8564WAT     H134976   4.549   1.043   4.176  0.1044 -0.7174 -0.7086
 8564WAT     H234977   4.577   1.040   4.310  1.0712 -3.0324 -0.9174
 8564WAT    EPW34978   4.529   1.026   4.250 -0.1306 -0.4476 -0.7066
 8565WAT      O34979   3.569   2.142   5.745 -0.5144  0.4429  0.5791
 8565WAT     H134980   3.558   2.132   5.831  0.5935 -4.2314  0.4755
 8565WAT     H234981   3.496   2.108   5.711  0.1528 -0.2281 -0.2371
 8565WAT    EPW34982   3.556   2.136   5.753 -0.2522 -0.3467  0.4432
 8566WAT      O34983   4.375   1.728   6.197  0.8672 -0.1150 -0.5320
 8566WAT     H134984   4.403   1.798   6.241  1.0318  0.0937 -0.9683
 8566WAT     H234985   4.367   1.667   6.259 -1.1367  0.7999  0.2116
 8566WAT    EPW34986   4.378   1.729   6.213  0.5955  0.0510 -0.4866
 8567WAT      O34987   3.360   2.894   5.373  0.5900  0.0335 -0.8913
 8567WAT     H134988   3.331   2.944   5.307 -0.2120  0.0908 -0.4968
 8567WAT     H234989   3.436   2.932   5.395  1.1807 -0.3360 -2.1660
 8567WAT    EPW34990   3.367   2.907   5.366  0.5588 -0.0126 -1.0213
 8568WAT      O34991   3.631   0.919   5.251  0.3797  0.5784 -0.2232
 8568WAT     H134992   3.631   0.998   5.216 -0.5459 -0.3060 -2.4455
 8568WAT     H234993   3.547   0.895   5.247  0.8820 -1.1852 -1.3393
 8568WAT    EPW34994   3.618   0.927   5.245  0.3172  0.1873 -0.7163
 8569WAT      O34995   0.997   1.704   4.975 -0.6908 -0.0180  0.0121
 8569WAT     H134996   0.953   1.738   4.908 -0.6891  1.0046  0.5089
 8569WAT     H234997   1.060   1.658   4.937 -0.6732  0.5661 -0.6969
 8569WAT    EPW34998   1.000   1.702   4.959 -0.6880  0.2193 -0.0192
 8570WAT      O34999   5.675   4.626   4.804  0.4863 -0.0655 -0.2962
 8570WAT     H135000   5.605   4.579   4.826  0.4813 -1.1611 -2.3728
 8570WAT     H235001   5.740   4.568   4.805  0.4013 -0.3901 -3.3432
 8570WAT    EPW35002   5.674   4.610   4.807  0.4730 -0.2753 -1.0531
 8571WAT      O35003   3.104   2.143   4.253 -0.1016  0.3157  0.0538
 8571WAT     H135004   3.182   2.177   4.234  0.3600 -1.2686 -1.0057
 8571WAT     H235005   3.106   2.064   4.218 -1.3428 -0.6583  2.0142
 8571WAT    EPW35006   3.116   2.137   4.245 -0.2168 -0.0622  0.1869
 8572WAT      O35007   1.996   2.298   5.002 -0.4953  0.2035 -0.0322
 8572WAT     H135008   1.920   2.340   4.989 -0.5745 -0.2281 -1.0960
 8572WAT     H235009   2.047   2.330   4.939  0.1634  0.3651  0.5751
 8572WAT    EPW35010   1.992   2.309   4.990 -0.4097  0.1636 -0.0996
 8573WAT      O35011   4.646   2.131   6.033 -0.0285 -0.1468  0.0621
 8573WAT     H135012   4.581   2.096   5.987 -0.5016 -1.4536  1.6578
 8573WAT     H235013   4.708   2.068   6.032  0.1359 -0.0089  0.7940
 8573WAT    EPW35014   4.646   2.116   6.026 -0.0741 -0.3195  0.4059
 8574WAT      O35015   2.022   2.138   4.691 -0.0332  0.3193  0.2585
 8574WAT     H135016   2.055   2.217   4.707  0.5184  0.2712 -0.5552
 8574WAT     H235017   1.970   2.152   4.622 -0.7750  0.1620  0.7681
 8574WAT    EPW35018   2.019   2.152   4.683 -0.0613  0.2889  0.2136
 8575WAT      O35019   1.974   2.725   3.545 -0.0247  0.0517  0.1393
 8575WAT     H135020   1.975   2.808   3.572 -1.2884 -0.2861  1.3475
 8575WAT     H235021   2.041   2.721   3.489  2.4087  0.9720  2.7764
 8575WAT    EPW35022   1.984   2.737   3.541  0.1481  0.1378  0.7074
 8576WAT      O35023   1.282   0.510   6.416  0.3742  0.0021  0.6868
 8576WAT     H135024   1.323   0.503   6.493  1.6633  1.6651  0.2205
 8576WAT     H235025   1.287   0.430   6.383 -0.0716 -0.7063  2.2492
 8576WAT    EPW35026   1.289   0.497   6.423  0.4988  0.1431  0.8487
 8577WAT      O35027   2.056   3.166   4.207  0.3256 -0.1047  0.3088
 8577WAT     H135028   1.971   3.181   4.195  0.3728 -0.7953 -1.0959
 8577WAT     H235029   2.084   3.239   4.247 -0.2606  1.8080 -2.4528
 8577WAT    EPW35030   2.048   3.179   4.211  0.2460  0.0758 -0.3066
 8578WAT      O35031   4.551   2.290   4.024  0.0063 -0.3895  0.1823
 8578WAT     H135032   4.490   2.353   4.031  0.8331  0.5479 -0.7588
 8578WAT     H235033   4.580   2.299   3.942  2.0031 -0.2419  0.8605
 8578WAT    EPW35034   4.546   2.301   4.013  0.4234 -0.2292  0.1434
 8579WAT      O35035   3.163   3.118   5.421  0.2003  0.1709 -0.6831
 8579WAT     H135036   3.096   3.126   5.477  1.3440  0.0315  0.7583
 8579WAT     H235037   3.204   3.195   5.427  2.2668 -0.9639  1.3336
 8579WAT    EPW35038   3.159   3.131   5.430  0.6745 -0.0173 -0.1722
 8580WAT      O35039   2.173   2.356   4.796  0.6206  0.0232 -0.1300
 8580WAT     H135040   2.219   2.313   4.857 -1.8170 -0.4633  1.5224
 8580WAT     H235041   2.212   2.434   4.793  0.9990 -0.0201  1.9392
 8580WAT    EPW35042   2.186   2.362   4.805  0.3164 -0.0551  0.4198
 8581WAT      O35043   5.580   0.960   5.747 -0.0861  0.0479 -0.2919
 8581WAT     H135044   5.624   0.928   5.679  0.1150 -1.4854  0.5318
 8581WAT     H235045   5.496   0.944   5.727 -0.2765  1.9458 -1.3270
 8581WAT    EPW35046   5.574   0.953   5.734 -0.0845  0.1018 -0.3231
 8582WAT      O35047   3.313   1.875   6.595 -0.6362 -0.2418  0.0538
 8582WAT     H135048   3.278   1.954   6.595 -0.3674 -0.1165 -0.4668
 8582WAT     H235049   3.305   1.849   6.512  1.9149  0.4358 -0.4895
 8582WAT    EPW35050   3.306   1.883   6.583 -0.2197 -0.1232 -0.1034
 8583WAT      O35051   4.179   2.902   5.098 -0.0480  0.3375  0.2272
 8583WAT     H135052   4.252   2.860   5.120  0.5777  1.8317  1.1477
 8583WAT     H235053   4.207   2.963   5.043 -0.9498 -0.3975 -1.1125
 8583WAT    EPW35054   4.194   2.905   5.093 -0.0888  0.4496  0.1653
 8584WAT      O35055   1.496   1.628   6.119 -0.0237 -0.0677  0.1052
 8584WAT     H135056   1.416   1.663   6.109  0.0064 -0.6641 -3.3506
 8584WAT     H235057   1.506   1.578   6.048  2.3389 -2.3359  1.8339
 8584WAT    EPW35058   1.485   1.626   6.107  0.3298 -0.4908 -0.1499
 8585WAT      O35059   5.547   3.489   6.024 -0.0179 -0.0591  0.6091
 8585WAT     H135060   5.549   3.570   6.059  0.9323  0.0675  0.3039
 8585WAT     H235061   5.565   3.503   5.940  0.7364 -0.6375  0.6648
 8585WAT    EPW35062   5.550   3.503   6.017  0.2339 -0.1258  0.5722
 8586WAT      O35063   2.683   3.112   4.758  0.3143 -0.2850 -0.2033
 8586WAT     H135064   2.624   3.064   4.717  0.7917 -1.3065  0.2563
 8586WAT     H235065   2.751   3.058   4.766  0.3151 -0.0756  1.6994
 8586WAT    EPW35066   2.684   3.097   4.753  0.3849 -0.4050  0.1457
 8587WAT      O35067   3.758   2.688   5.240  0.0399  0.2277 -0.1846
 8587WAT     H135068   3.722   2.676   5.161  1.4601  0.0159 -0.8372
 8587WAT     H235069   3.836   2.722   5.222  2.5691 -4.2886  0.7110
 8587WAT    EPW35070   3.764   2.691   5.226  0.6233 -0.4707 -0.1487
 8588WAT      O35071   3.342   0.546   0.605  0.2067 -0.0345  0.0868
 8588WAT     H135072   3.408   0.537   0.549 -0.6037  0.3199 -0.9492
 8588WAT     H235073   3.288   0.602   0.565  0.2358  1.3284  1.8166
 8588WAT    EPW35074   3.343   0.553   0.591  0.0913  0.2192  0.1893
 8589WAT      O35075   3.730   1.305   2.789 -0.3840  0.4760  0.1266
 8589WAT     H135076   3.800   1.264   2.758 -0.5941 -0.6093  1.0038
 8589WAT     H235077   3.666   1.280   2.735 -0.8952 -1.9930  1.7040
 8589WAT    EPW35078   3.731   1.295   2.776 -0.4905 -0.0490  0.4892
 8590WAT      O35079   2.310   2.831   3.170  0.2163  0.5124 -0.0715
 8590WAT     H135080   2.291   2.802   3.250  1.2405 -1.2489 -0.4282
 8590WAT     H235081   2.387   2.871   3.180  2.3480 -3.0015 -0.7162
 8590WAT    EPW35082   2.318   2.833   3.183  0.6825 -0.2668 -0.2194
 8591WAT      O35083   4.050   2.987   2.564  0.3159 -0.0451 -0.5405
 8591WAT     H135084   3.987   3.018   2.512 -0.0763 -2.0456 -1.3414
 8591WAT     H235085   4.123   3.007   2.522  0.0908 -0.0098 -0.9205
 8591WAT    EPW35086   4.051   2.994   2.550  0.2247 -0.3354 -0.7149
 8592WAT      O35087   2.566   2.379   2.015  0.0100  0.7042 -0.4976
 8592WAT     H135088   2.633   2.326   1.997  0.5843  0.5091  1.8634
 8592WAT     H235089   2.505   2.325   2.046 -0.3594  1.1548 -0.4201
 8592WAT    EPW35090   2.566   2.363   2.017  0.0403  0.7420 -0.1374
 8593WAT      O35091   2.975   2.206   3.322  0.3229 -0.0442  0.3228
 8593WAT     H135092   3.062   2.197   3.323  0.4639  0.9651  2.3845
 8593WAT     H235093   2.956   2.228   3.404 -1.6816  1.5523 -0.4952
 8593WAT    EPW35094   2.985   2.208   3.334  0.0476  0.3408  0.5065
 8594WAT      O35095   4.007   1.417   3.106  0.7045  0.5918 -0.0344
 8594WAT     H135096   4.043   1.422   3.026 -2.1859 -0.1371 -1.5195
 8594WAT     H235097   3.988   1.500   3.125  1.5344  0.7867  0.0099
 8594WAT    EPW35098   4.010   1.430   3.097  0.4001  0.5129 -0.2472
 8595WAT      O35099   2.976   3.034   2.409 -0.4320 -0.5711  0.5303
 8595WAT     H135100   3.049   2.999   2.440  0.0871 -1.0032 -1.0684
 8595WAT     H235101   2.989   3.035   2.323 -1.3025  1.5830  0.3547
 8595WAT    EPW35102   2.989   3.029   2.401 -0.4839 -0.3167  0.2682
 8596WAT      O35103   4.553   0.297   1.318 -0.2566  0.5747 -0.0906
 8596WAT     H135104   4.511   0.372   1.302 -1.9466 -0.6222 -1.6354
 8596WAT     H235105   4.561   0.261   1.239  0.6872 -0.7916  0.5939
 8596WAT    EPW35106   4.548   0.303   1.304 -0.3668  0.1960 -0.2177
 8597WAT      O35107   2.886   3.774   1.067  0.0409 -0.0321 -0.3995
 8597WAT     H135108   2.903   3.716   1.130 -0.1578 -1.9178 -1.9949
 8597WAT     H235109   2.963   3.783   1.026 -0.1744  0.0312 -0.7932
 8597WAT    EPW35110   2.900   3.767   1.071 -0.0202 -0.3013 -0.6933
 8598WAT      O35111   2.207   1.735   3.188  0.2722 -0.4713 -0.4226
 8598WAT     H135112   2.207   1.655   3.222  1.2597  0.0773  0.9927
 8598WAT     H235113   2.167   1.783   3.249 -0.3873  0.1199 -1.2906
 8598WAT    EPW35114   2.201   1.731   3.202  0.3207 -0.3029 -0.3418
 8599WAT      O35115   1.901   1.466   4.257  0.1237 -0.3124  0.0727
 8599WAT     H135116   1.828   1.486   4.299  1.0744  0.9513  1.2144
 8599WAT     H235117   1.875   1.455   4.175 -1.1698  1.4043  0.2000
 8599WAT    EPW35118   1.887   1.467   4.251  0.0731  0.1279  0.2602
 8600WAT      O35119   2.853   2.289   2.298 -0.2373  0.0457  0.7385
 8600WAT     H135120   2.931   2.328   2.302  0.1962 -0.7707  0.2774
 8600WAT     H235121   2.839   2.280   2.212 -1.3290  1.1443  0.7734
 8600WAT    EPW35122   2.863   2.294   2.286 -0.3345  0.0874  0.6756
 8601WAT      O35123   3.135   1.928   2.937 -0.1682 -0.4270  0.0320
 8601WAT     H135124   3.176   1.996   2.902 -0.9458  0.2570  0.4136
 8601WAT     H235125   3.051   1.947   2.926 -0.4083 -0.9182  0.8978
 8601WAT    EPW35126   3.129   1.941   2.930 -0.3185 -0.3985  0.2163
 8602WAT      O35127   3.280   2.418   2.862  0.1058  0.0933  0.1136
 8602WAT     H135128   3.239   2.351   2.824  0.6740  0.2708 -0.8418
 8602WAT     H235129   3.265   2.406   2.947 -0.7529 -0.6067 -0.1290
 8602WAT    EPW35130   3.272   2.406   2.869  0.0629  0.0161 -0.0634
 8603WAT      O35131   2.613   2.733   3.045  0.3282 -0.8608  0.5891
 8603WAT     H135132   2.597   2.803   3.095 -1.0052 -2.1432  2.0701
 8603WAT     H235133   2.613   2.667   3.102  3.2756 -1.9641 -0.4899
 8603WAT    EPW35134   2.611   2.734   3.061  0.5667 -1.2133  0.6485
 8604WAT      O35135   3.161   1.717   2.445 -0.1238 -0.5692 -0.5951
 8604WAT     H135136   3.202   1.728   2.521 -0.4610 -0.5793 -0.4091
 8604WAT     H235137   3.103   1.653   2.462  0.6424 -1.4427 -1.1964
 8604WAT    EPW35138   3.158   1.709   2.459 -0.0604 -0.6998 -0.6564
 8605WAT      O35139   3.973   1.549   2.331  0.2154  0.0348  0.0298
 8605WAT     H135140   4.059   1.539   2.322  0.6736  2.0723  1.2481
 8605WAT     H235141   3.951   1.487   2.389  0.9392 -0.2563  0.0071
 8605WAT    EPW35142   3.983   1.539   2.339  0.3900  0.2928  0.2064
 8606WAT      O35143   3.273   0.762   3.705 -0.0992  0.2416  0.2018
 8606WAT     H135144   3.268   0.702   3.769  0.0789 -0.1195 -0.1185
 8606WAT     H235145   3.230   0.830   3.738  0.6418  0.3385  1.0318
 8606WAT    EPW35146   3.266   0.763   3.719  0.0366  0.2026  0.2771
 8607WAT      O35147   3.487   1.708   1.929 -0.0407  0.0564 -0.3165
 8607WAT     H135148   3.524   1.630   1.911  0.4538  0.2316 -0.0754
 8607WAT     H235149   3.533   1.763   1.880 -0.5922  0.1610 -0.7196
 8607WAT    EPW35150   3.499   1.704   1.919 -0.0491  0.0978 -0.3404
 8608WAT      O35151   2.394   1.805   2.446 -0.3008  0.1004  0.0235
 8608WAT     H135152   2.406   1.791   2.532 -0.5364  0.9615  0.2115
 8608WAT     H235153   2.396   1.725   2.412  0.2605 -0.2284  0.7735
 8608WAT    EPW35154   2.396   1.791   2.454 -0.2527  0.1790  0.1620
 8609WAT      O35155   1.786   2.907   4.324 -0.2213 -0.2339 -0.0598
 8609WAT     H135156   1.773   2.900   4.410  0.5700  0.9211  0.1737
 8609WAT     H235157   1.856   2.857   4.309  0.6881  0.8921  0.2824
 8609WAT    EPW35158   1.794   2.899   4.335  0.0299  0.1030  0.0252
 8610WAT      O35159   2.147   1.446   1.107  0.1912 -0.3978 -0.4020
 8610WAT     H135160   2.071   1.461   1.149  0.1095  0.2231 -0.7712
 8610WAT     H235161   2.175   1.525   1.087  0.9290 -0.6316 -0.3061
 8610WAT    EPW35162   2.140   1.460   1.110  0.2881 -0.3406 -0.4424
 8611WAT      O35163   3.181   1.106   1.692  0.0752  0.0738 -0.2562
 8611WAT     H135164   3.110   1.098   1.642  0.3306  0.8818 -0.7530
 8611WAT     H235165   3.158   1.165   1.752 -0.1179 -0.6508  0.4057
 8611WAT    EPW35166   3.167   1.113   1.694  0.0844  0.0861 -0.2318
 8612WAT      O35167   3.007   2.272   2.800 -0.9243  0.2152  0.1344
 8612WAT     H135168   3.023   2.232   2.876 -0.5849  1.5204  0.7801
 8612WAT     H235169   2.933   2.316   2.816 -2.0297 -1.1474 -0.9815
 8612WAT    EPW35170   2.998   2.273   2.813 -1.0375  0.2068  0.0649
 8613WAT      O35171   2.201   2.086   3.298 -0.2992  0.1013  0.0265
 8613WAT     H135172   2.278   2.063   3.332 -0.1284 -0.8768 -0.9601
 8613WAT     H235173   2.179   2.158   3.343  2.5765  2.2390 -1.6580
 8613WAT    EPW35174   2.209   2.093   3.310  0.1508  0.2726 -0.3681
 8614WAT      O35175   3.098   0.043   4.012 -0.0686 -0.2640  0.7089
 8614WAT     H135176   3.171   0.089   4.000 -0.6393  1.4268  3.1154
 8614WAT     H235177   3.102  -0.019   3.950  0.7061  2.9833 -2.8281
 8614WAT    EPW35178   3.109   0.040   4.001 -0.0385  0.4654  0.5419
 8615WAT      O35179   1.561   1.879   3.040 -0.1558 -0.5984  0.4382
 8615WAT     H135180   1.528   1.949   3.081  1.4995  0.6753 -0.2520
 8615WAT     H235181   1.610   1.914   2.976 -0.7654 -2.4531 -1.1451
 8615WAT    EPW35182   1.563   1.895   3.037 -0.0013 -0.6843  0.1023
 8616WAT      O35183   4.372   1.879   3.128  0.5464  0.1377 -0.4167
 8616WAT     H135184   4.391   1.914   3.205  0.0200 -0.1012 -0.1729
 8616WAT     H235185   4.422   1.924   3.072  1.8396 -0.5042  0.1980
 8616WAT    EPW35186   4.382   1.891   3.131  0.6597  0.0076 -0.2899
 8617WAT      O35187   2.937   1.811   4.559 -0.0770 -0.0940 -0.0562
 8617WAT     H135188   2.886   1.786   4.625 -1.0169  0.1617 -0.6661
 8617WAT     H235189   2.936   1.898   4.565 -1.3947  0.0058 -1.2759
 8617WAT    EPW35190   2.929   1.820   4.570 -0.4105 -0.0415 -0.3265
 8618WAT      O35191   3.009   2.132   3.808 -0.5955  0.0466 -0.2800
 8618WAT     H135192   3.093   2.156   3.797 -0.5489  0.1244  0.2140
 8618WAT     H235193   3.015   2.050   3.835 -0.6659  0.1409  0.0233
 8618WAT    EPW35194   3.023   2.123   3.811 -0.5990  0.0720 -0.1622
 8619WAT      O35195   2.740   2.750   3.407  0.3367  0.2479  0.4756
 8619WAT     H135196   2.705   2.693   3.351  0.4813 -1.0040  1.6033
 8619WAT     H235197   2.795   2.796   3.358 -0.3087 -0.0993 -0.6091
 8619WAT    EPW35198   2.743   2.748   3.391  0.2627  0.0117  0.4820
 8620WAT      O35199   3.637   1.932   2.930 -0.4070  0.1880  0.7899
 8620WAT     H135200   3.666   1.976   2.999 -0.2657 -1.2495  1.6787
 8620WAT     H235201   3.559   1.901   2.955 -0.3728 -0.3216  0.3125
 8620WAT    EPW35202   3.630   1.934   2.944 -0.3810 -0.0996  0.8506
 8621WAT      O35203   4.824   0.725   2.022 -0.0396 -0.3215  0.1639
 8621WAT     H135204   4.764   0.762   2.074  0.6324  0.3962  0.4590
 8621WAT     H235205   4.829   0.780   1.954 -0.8674 -1.2240 -0.6469
 8621WAT    EPW35206   4.816   0.739   2.020 -0.0626 -0.3488  0.0877
 8622WAT      O35207   3.760   1.354   1.044  0.1162 -0.1655 -0.5219
 8622WAT     H135208   3.791   1.427   1.080 -0.0784 -0.3442  0.0138
 8622WAT     H235209   3.827   1.324   0.996  0.1960  0.3603 -0.7441
 8622WAT    EPW35210   3.774   1.360   1.042  0.0992 -0.1142 -0.4756
 8623WAT      O35211   1.867   1.598   3.541 -0.0111 -0.6284  0.1617
 8623WAT     H135212   1.948   1.625   3.525  0.4896 -1.3827  1.3259
 8623WAT     H235213   1.877   1.513   3.560 -1.1366 -0.8415 -0.1260
 8623WAT    EPW35214   1.880   1.589   3.541 -0.1034 -0.7713  0.2912
 8624WAT      O35215   3.492   1.184   3.490 -0.0231 -0.6334  0.1182
 8624WAT     H135216   3.549   1.206   3.552 -0.2955  2.4054 -0.5821
 8624WAT     H235217   3.542   1.175   3.419 -0.1014 -0.7779  0.0804
 8624WAT    EPW35218   3.508   1.186   3.489 -0.0749 -0.2058  0.0091
 8625WAT      O35219   1.101   2.341   5.389 -0.1888  0.2335  0.3310
 8625WAT     H135220   1.186   2.337   5.411 -0.4357 -0.8720  1.1873
 8625WAT     H235221   1.083   2.259   5.364 -0.5590  0.8813 -1.6866
 8625WAT    EPW35222   1.111   2.328   5.389 -0.2800  0.1659  0.1595
 8626WAT      O35223   2.861   2.650   2.104  0.5225  0.7283  0.2685
 8626WAT     H135224   2.799   2.695   2.062  0.1827 -0.1434 -0.2016
 8626WAT     H235225   2.824   2.632   2.181 -0.1672 -0.4943 -0.3139
 8626WAT    EPW35226   2.846   2.654   2.109  0.3704  0.4189  0.1130
 8627WAT      O35227   3.045   2.003   1.684 -0.0768  0.2300 -0.2962
 8627WAT     H135228   3.110   1.944   1.677  1.4817  1.6762  1.0230
 8627WAT     H235229   2.975   1.954   1.700  0.4922 -1.4720 -2.4773
 8627WAT    EPW35230   3.044   1.987   1.685  0.2375  0.1922 -0.4235
 8628WAT      O35231   0.953   1.695   3.301  0.2162  0.1101 -0.4916
 8628WAT     H135232   1.001   1.687   3.373  0.6268  2.0903 -0.5014
 8628WAT     H235233   0.933   1.613   3.280 -0.5123 -0.5034  2.2631
 8628WAT    EPW35234   0.957   1.682   3.308  0.1692  0.3120 -0.0861
 8629WAT      O35235   2.712   3.791   3.098  0.9891  0.1097  0.2088
 8629WAT     H135236   2.725   3.813   3.182  1.6115  0.1915  0.0901
 8629WAT     H235237   2.766   3.724   3.086 -0.3058 -0.9929  0.3346
 8629WAT    EPW35238   2.722   3.784   3.109  0.8898 -0.0411  0.2099
 8630WAT      O35239   4.046   2.100   1.148  0.0789 -0.1180 -0.0930
 8630WAT     H135240   3.987   2.075   1.089  0.4284 -0.0584 -0.4746
 8630WAT     H235241   4.108   2.139   1.100 -0.2319  1.0874  0.4355
 8630WAT    EPW35242   4.046   2.102   1.132  0.0846  0.0688 -0.0713
 8631WAT      O35243   3.480   0.084   0.315  0.4212  0.2888 -0.2183
 8631WAT     H135244   3.430   0.106   0.383  0.2450  1.9294 -0.8355
 8631WAT     H235245   3.432   0.025   0.272  0.0448  0.0953  0.4575
 8631WAT    EPW35246   3.466   0.079   0.319  0.3396  0.5026 -0.2097
 8632WAT      O35247   2.775   1.200   2.318 -0.7895 -0.0079 -0.9853
 8632WAT     H135248   2.716   1.136   2.317 -2.2963  1.2699  0.3819
 8632WAT     H235249   2.727   1.273   2.324  0.8635  0.9944  2.6026
 8632WAT    EPW35250   2.759   1.201   2.319 -0.7679  0.3289 -0.2534
 8633WAT      O35251   3.794   2.750   2.902 -0.0928  0.2634 -0.0382
 8633WAT     H135252   3.803   2.751   2.989 -1.1438  1.3091  0.0887
 8633WAT     H235253   3.708   2.758   2.891 -0.0338 -0.4497 -1.1888
 8633WAT    EPW35254   3.782   2.751   2.914 -0.2393  0.3125 -0.1894
 8634WAT      O35255   2.520   2.283   3.296  0.0715  0.0323 -0.1034
 8634WAT     H135256   2.512   2.203   3.261 -0.3643  0.0789 -0.1216
 8634WAT     H235257   2.528   2.267   3.381  3.1185 -0.1965 -0.3271
 8634WAT    EPW35258   2.520   2.269   3.303  0.4573  0.0054 -0.1391
 8635WAT      O35259   2.850   1.684   2.763  0.1478  0.1992 -0.3398
 8635WAT     H135260   2.771   1.661   2.794  0.9676 -0.2306  1.5578
 8635WAT     H235261   2.869   1.757   2.807  1.3093 -0.3494  0.1041
 8635WAT    EPW35262   2.841   1.691   2.774  0.4404  0.0547  0.0061
 8636WAT      O35263   2.719   0.798   4.643 -0.0258  0.1476 -0.6698
 8636WAT     H135264   2.742   0.845   4.573  0.9095  1.6796  0.6096
 8636WAT     H235265   2.783   0.812   4.700  1.5883 -4.5377 -0.9048
 8636WAT    EPW35266   2.732   0.807   4.641  0.3508 -0.3182 -0.5155
 8637WAT      O35267   4.175   0.793   0.664 -0.6191  0.6781 -0.3287
 8637WAT     H135268   4.259   0.783   0.644 -0.8249 -0.2584 -0.8034
 8637WAT     H235269   4.143   0.712   0.657 -1.3887  0.8775  0.6621
 8637WAT    EPW35270   4.183   0.779   0.660 -0.7632  0.5692 -0.2524
 8638WAT      O35271   2.992   2.456   2.598 -0.4015  0.6735  0.3335
 8638WAT     H135272   3.032   2.522   2.637  1.3149 -0.7081  1.0477
 8638WAT     H235273   3.005   2.389   2.652 -0.9176 -0.5435 -0.9850
 8638WAT    EPW35274   2.999   2.456   2.612 -0.2242  0.2896  0.2442
 8639WAT      O35275   6.098   0.206   1.229  0.5645 -0.1940  0.1641
 8639WAT     H135276   6.110   0.180   1.147  0.6412  2.1267 -0.6470
 8639WAT     H235277   6.178   0.218   1.259  0.6924  3.2992 -1.0617
 8639WAT    EPW35278   6.111   0.204   1.221  0.5948  0.6648 -0.1368
 8640WAT      O35279   0.958   2.732   5.142  0.0477  0.7543 -0.0095
 8640WAT     H135280   0.966   2.669   5.082 -0.2973  0.4294  0.2837
 8640WAT     H235281   1.018   2.790   5.118 -0.7761  1.1263 -1.3029
 8640WAT    EPW35282   0.968   2.731   5.129 -0.1249  0.7612 -0.1573
 8641WAT      O35283   4.360   1.937   3.634 -0.2160 -0.0101 -0.2878
 8641WAT     H135284   4.283   1.948   3.593 -0.8953 -0.7325  0.7393
 8641WAT     H235285   4.374   2.014   3.672  0.0931  0.4546 -1.3201
 8641WAT    EPW35286   4.350   1.950   3.634 -0.2707 -0.0482 -0.2885
 8642WAT      O35287   2.488   2.371   4.342 -0.1031  0.2921 -0.1180
 8642WAT     H135288   2.559   2.422   4.340 -0.2674  0.4952 -1.0051
 8642WAT     H235289   2.517   2.294   4.312 -0.3373  0.4793 -0.8276
 8642WAT    EPW35290   2.503   2.367   4.338 -0.1619  0.3498 -0.3539
 8643WAT      O35291   3.657   2.272   2.871  0.4470 -0.1256 -0.4776
 8643WAT     H135292   3.646   2.358   2.869  1.3221 -0.0173 -1.5043
 8643WAT     H235293   3.592   2.244   2.922 -1.4996  0.8833 -2.2425
 8643WAT    EPW35294   3.646   2.280   2.878  0.2887  0.0394 -0.8900
 8644WAT      O35295   2.756   1.887   1.979  0.5984 -0.0916  0.1638
 8644WAT     H135296   2.748   1.806   1.949 -0.0417 -0.5339  1.4434
 8644WAT     H235297   2.790   1.877   2.059  0.0851  0.8615  0.5261
 8644WAT    EPW35298   2.760   1.874   1.986  0.4280 -0.0162  0.4063
 8645WAT      O35299   3.036   3.491   2.745 -0.1364 -0.3563 -0.0239
 8645WAT     H135300   3.003   3.418   2.777 -0.1130 -0.6607 -0.6748
 8645WAT     H235301   2.974   3.551   2.761  0.1575 -0.3472  1.1677
 8645WAT    EPW35302   3.022   3.489   2.752 -0.0895 -0.3999  0.0560
 8646WAT      O35303   3.064   2.224   3.065  0.1048  0.1698 -0.0516
 8646WAT     H135304   3.131   2.274   3.091  0.3421 -0.4814  0.5975
 8646WAT     H235305   3.013   2.219   3.135 -0.6622  0.6963 -0.5535
 8646WAT    EPW35306   3.067   2.231   3.079  0.0266  0.1514 -0.0299
 8647WAT      O35307   3.753   1.655   2.511 -0.5095 -0.0123 -0.5107
 8647WAT     H135308   3.725   1.674   2.592 -1.0614 -1.2768 -0.3791
 8647WAT     H235309   3.679   1.635   2.468 -0.3878  1.9480 -1.7377
 8647WAT    EPW35310   3.738   1.655   2.517 -0.5730  0.0905 -0.6725
 8648WAT      O35311   3.684   2.116   3.175 -0.4203  0.4387 -0.1964
 8648WAT     H135312   3.693   2.117   3.262  1.4019  1.6935 -0.3229
 8648WAT     H235313   3.747   2.171   3.148 -1.3376  0.5582 -2.2768
 8648WAT    EPW35314   3.695   2.124   3.184 -0.2866  0.6417 -0.5224
 8649WAT      O35315   4.773   1.253   1.879 -0.1503 -0.2183 -0.2734
 8649WAT     H135316   4.714   1.317   1.874 -0.8413 -0.4670  2.9151
 8649WAT     H235317   4.725   1.181   1.890  0.7169 -0.9355 -0.9274
 8649WAT    EPW35318   4.757   1.252   1.880 -0.1243 -0.3610  0.1010
 8650WAT      O35319   3.401   0.799   4.164 -0.1102  0.5774  0.2162
 8650WAT     H135320   3.436   0.785   4.243  0.5903 -0.6819 -0.2848
 8650WAT     H235321   3.464   0.839   4.120  0.3549 -0.7421 -0.3653
 8650WAT    EPW35322   3.416   0.803   4.169  0.0620  0.1965  0.0563
 8651WAT      O35323   3.806   2.459   4.765  0.2866  0.7795  0.2770
 8651WAT     H135324   3.739   2.418   4.803 -0.3718  0.0186 -1.5900
 8651WAT     H235325   3.769   2.528   4.727  0.0975 -0.7531 -2.5357
 8651WAT    EPW35326   3.791   2.463   4.765  0.1614  0.4407 -0.4143
 8652WAT      O35327   3.416   1.550   3.279 -0.0328  0.3532 -0.0560
 8652WAT     H135328   3.367   1.481   3.303  0.1443  0.3526  0.3130
 8652WAT     H235329   3.411   1.603   3.348 -1.3498  1.3741 -0.8888
 8652WAT    EPW35330   3.408   1.547   3.293 -0.2012  0.5039 -0.1245
 8653WAT      O35331   1.011   1.406   4.318  0.3047 -0.3028  0.5415
 8653WAT     H135332   0.947   1.371   4.366  0.3093  1.1777  1.7051
 8653WAT     H235333   1.084   1.380   4.359  0.3637 -0.3507  0.4054
 8653WAT    EPW35334   1.012   1.397   4.331  0.3141 -0.0912  0.6932
 8654WAT      O35335   2.289   0.935   0.484  0.0326 -0.2535  0.0301
 8654WAT     H135336   2.234   0.882   0.441 -0.9938  0.1594  0.7882
 8654WAT     H235337   2.288   0.904   0.565  0.3135  0.2299  0.2185
 8654WAT    EPW35338   2.280   0.922   0.490 -0.0775 -0.1211  0.1699
 8655WAT      O35339   3.502   1.984   2.677 -0.5206 -0.5929 -0.6313
 8655WAT     H135340   3.555   1.966   2.744 -1.6611  0.6050  0.6765
 8655WAT     H235341   3.556   2.011   2.615  0.5246 -1.0622  0.0304
 8655WAT    EPW35342   3.518   1.985   2.678 -0.5347 -0.4853 -0.3404
 8656WAT      O35343   3.719   2.149   3.464  0.1151  0.3464 -0.1008
 8656WAT     H135344   3.727   2.087   3.526 -0.5617  2.2128  1.9972
 8656WAT     H235345   3.633   2.161   3.458  0.0292 -0.8591 -2.6642
 8656WAT    EPW35346   3.707   2.142   3.472  0.0024  0.4440 -0.1696
 8657WAT      O35347   2.858   1.922   2.876  0.5684 -0.1689  0.2467
 8657WAT     H135348   2.810   1.939   2.948 -0.0727 -1.8085  0.2619
 8657WAT     H235349   2.824   1.975   2.816  1.8220  2.0275  1.3624
 8657WAT    EPW35350   2.846   1.932   2.878  0.6588 -0.0866  0.4138
 8658WAT      O35351   1.808   2.142   1.054  0.5334  0.0201  0.0787
 8658WAT     H135352   1.738   2.091   1.067 -0.2248  0.9270 -0.3313
 8658WAT     H235353   1.874   2.093   1.080 -0.2903 -0.7553  0.7698
 8658WAT    EPW35354   1.807   2.127   1.060  0.2997  0.0395  0.1202
 8659WAT      O35355   2.307   2.120   3.022 -0.3744  0.5522 -0.0317
 8659WAT     H135356   2.291   2.120   3.108  1.3057  0.9480  0.3097
 8659WAT     H235357   2.324   2.036   3.005 -0.4696  0.5119  0.0635
 8659WAT    EPW35358   2.307   2.108   3.032 -0.1403  0.6047  0.0328
 8660WAT      O35359   4.399   0.522   1.277  0.0110  0.5530 -0.1584
 8660WAT     H135360   4.421   0.536   1.194  2.7848 -0.0760  0.3810
 8660WAT     H235361   4.376   0.601   1.306  2.0491  1.4277 -0.7553
 8660WAT    EPW35362   4.399   0.536   1.269  0.7219  0.5893 -0.1669
 8661WAT      O35363   4.081   1.167   1.620  0.2101 -0.5934  0.1742
 8661WAT     H135364   4.133   1.237   1.610  1.2172 -0.7379  3.3634
 8661WAT     H235365   4.131   1.101   1.595  0.7671 -0.5194  1.0671
 8661WAT    EPW35366   4.096   1.168   1.615  0.4412 -0.6038  0.7772
 8662WAT      O35367   2.742   1.482   5.446  0.0065  0.1588 -0.6054
 8662WAT     H135368   2.784   1.499   5.521 -1.9067  1.7376  0.2006
 8662WAT     H235369   2.685   1.420   5.470 -0.6721  0.7345 -0.7109
 8662WAT    EPW35370   2.740   1.475   5.461 -0.3764  0.4771 -0.5019
 8663WAT      O35371   4.243   1.565   2.276 -0.4492  1.3533  0.4527
 8663WAT     H135372   4.259   1.650   2.288 -1.2692  1.3891  1.4689
 8663WAT     H235373   4.282   1.547   2.201  1.8842  2.0556  1.3963
 8663WAT    EPW35374   4.251   1.575   2.267 -0.2257  1.4623  0.7422
 8664WAT      O35375   3.899   0.366   3.429 -0.0921 -0.8197 -0.5337
 8664WAT     H135376   3.913   0.418   3.497  1.1695  0.0132 -1.3835
 8664WAT     H235377   3.949   0.296   3.446  1.1105 -0.1272 -1.0884
 8664WAT    EPW35378   3.909   0.363   3.441  0.2719 -0.5944 -0.7412
 8665WAT      O35379   1.807   1.583   2.538  0.3670 -0.8897 -0.2020
 8665WAT     H135380   1.731   1.540   2.545  0.5533 -1.0379  1.3107
 8665WAT     H235381   1.814   1.624   2.615  0.2267  1.8454 -1.5091
 8665WAT    EPW35382   1.797   1.583   2.550  0.3738 -0.5076 -0.1716
 8666WAT      O35383   3.678   2.273   2.207 -0.3329 -0.1062 -0.1061
 8666WAT     H135384   3.735   2.334   2.183 -1.0558  0.2966 -0.7972
 8666WAT     H235385   3.604   2.295   2.167 -1.0785 -0.4481  1.0211
 8666WAT    EPW35386   3.676   2.285   2.198 -0.5499 -0.0972 -0.0417
 8667WAT      O35387   4.187   0.896   3.138  0.4976  0.0142 -0.1998
 8667WAT     H135388   4.166   0.978   3.116 -0.3396 -0.1192  0.0675
 8667WAT     H235389   4.210   0.860   3.062  2.2988  0.8885 -0.1035
 8667WAT    EPW35390   4.187   0.903   3.123  0.6400  0.1236 -0.1461
 8668WAT      O35391   2.963   1.557   2.559  0.4621  0.0136  0.3523
 8668WAT     H135392   2.999   1.490   2.600 -1.0563 -1.6905 -0.9596
 8668WAT     H235393   2.923   1.601   2.623  0.2522 -1.1470  1.0390
 8668WAT    EPW35394   2.963   1.554   2.575  0.2068 -0.4096  0.2600
 8669WAT      O35395   4.020   1.264   4.675 -0.1674  0.7693 -0.5999
 8669WAT     H135396   4.035   1.197   4.729  2.7328  2.1408  0.5617
 8669WAT     H235397   4.080   1.254   4.613 -0.1177  1.8839 -0.7602
 8669WAT    EPW35398   4.031   1.253   4.674  0.2684  1.1365 -0.4520
 8670WAT      O35399   3.537   2.445   5.289 -0.0046 -0.0182  0.3504
 8670WAT     H135400   3.604   2.429   5.235 -0.2876 -1.6043  0.4316
 8670WAT     H235401   3.569   2.424   5.368 -0.1679  0.5499  0.5703
 8670WAT    EPW35402   3.552   2.440   5.293 -0.0705 -0.1686  0.3949
 8671WAT      O35403   3.736   1.908   2.228  0.0905  0.6028 -0.2033
 8671WAT     H135404   3.651   1.921   2.238 -0.4756 -0.9972 -2.2360
 8671WAT     H235405   3.760   1.970   2.171  0.2211  0.7920  0.0518
 8671WAT    EPW35406   3.727   1.919   2.221  0.0262  0.3944 -0.4659
 8672WAT      O35407   4.084   1.956   1.914  0.1938 -0.1352 -0.2325
 8672WAT     H135408   4.094   2.003   1.841 -0.1552 -2.2843 -1.7515
 8672WAT     H235409   4.166   1.941   1.940  0.3908 -0.7187 -1.1376
 8672WAT    EPW35410   4.097   1.961   1.907  0.1714 -0.5389 -0.5906
 8673WAT      O35411   2.311   2.804   1.802  0.2617  0.3328  0.1035
 8673WAT     H135412   2.381   2.772   1.841  1.1242 -0.1745 -1.7508
 8673WAT     H235413   2.295   2.878   1.845  2.4059  0.8545  0.0994
 8673WAT    EPW35414   2.319   2.810   1.814  0.7059  0.3349 -0.1710
 8674WAT      O35415   3.483   0.304   2.467  0.2530  0.0046  0.2104
 8674WAT     H135416   3.459   0.230   2.507 -0.6169 -0.1026 -0.5031
 8674WAT     H235417   3.446   0.366   2.515 -2.5222 -0.1807 -1.4700
 8674WAT    EPW35418   3.474   0.302   2.480 -0.2855 -0.0386 -0.1432
 8675WAT      O35419   0.992   3.408   1.530 -0.2495  0.2395  0.0780
 8675WAT     H135420   0.973   3.491   1.551 -1.0174 -0.0951  0.7166
 8675WAT     H235421   0.922   3.381   1.486 -0.2556 -0.2722  0.4038
 8675WAT    EPW35422   0.979   3.416   1.526 -0.3638  0.1145  0.2205
 8676WAT      O35423   3.578   2.531   3.719  0.0563  0.0125 -0.6153
 8676WAT     H135424   3.533   2.477   3.770 -1.4800 -0.2527 -2.1633
 8676WAT     H235425   3.583   2.604   3.766 -0.6870 -0.4568  0.2160
 8676WAT    EPW35426   3.572   2.534   3.733 -0.2804 -0.0960 -0.7212
 8677WAT      O35427   3.350   0.128   3.737 -0.2145  0.1955 -0.3881
 8677WAT     H135428   3.276   0.159   3.705 -1.3136 -2.0020 -0.1407
 8677WAT     H235429   3.353   0.159   3.819 -1.9219 -1.2468  0.2794
 8677WAT    EPW35430   3.340   0.137   3.745 -0.6291 -0.3422 -0.2530
 8678WAT      O35431   2.309   2.356   2.311 -0.0078  0.0065  0.3163
 8678WAT     H135432   2.328   2.292   2.254 -0.6759  0.5782 -0.5940
 8678WAT     H235433   2.352   2.425   2.279  0.6062  0.0466  1.2174
 8678WAT    EPW35434   2.318   2.357   2.298 -0.0158  0.0969  0.3150
 8679WAT      O35435   4.002   2.309   2.393 -0.1311  0.3002 -0.3811
 8679WAT     H135436   3.936   2.367   2.399 -0.8707 -0.6817  2.2441
 8679WAT     H235437   4.072   2.356   2.412  0.0854  1.3755 -3.2636
 8679WAT    EPW35438   4.002   2.325   2.397 -0.2084  0.3140 -0.4191
 8680WAT      O35439   2.210   0.355   2.238  0.0968  0.2396  0.3202
 8680WAT     H135440   2.261   0.344   2.308 -0.1178  1.8375  0.7759
 8680WAT     H235441   2.263   0.335   2.171  0.0839 -2.0032  0.9352
 8680WAT    EPW35442   2.225   0.351   2.238  0.0632  0.1444  0.4783
 8681WAT      O35443   3.187   2.372   2.206  0.0040 -0.3076 -0.2001
 8681WAT     H135444   3.120   2.379   2.151 -1.1197 -0.9860  1.0281
 8681WAT     H235445   3.195   2.452   2.240 -1.1706 -0.5673  0.7324
 8681WAT    EPW35446   3.178   2.385   2.202 -0.3355 -0.4462  0.1191
 8682WAT      O35447   2.177   1.947   2.325 -0.0240  0.5045 -0.2977
 8682WAT     H135448   2.246   1.902   2.355 -0.3725  0.3049  0.2148
 8682WAT     H235449   2.163   1.912   2.246 -0.8010 -0.8752  0.4176
 8682WAT    EPW35450   2.185   1.935   2.318 -0.1903  0.2712 -0.1163
 8683WAT      O35451   4.448   1.499   2.505  0.7492 -0.0104 -0.4011
 8683WAT     H135452   4.452   1.421   2.544  1.2893 -0.1758 -0.7779
 8683WAT     H235453   4.376   1.494   2.456  0.5574 -0.1217 -0.1108
 8683WAT    EPW35454   4.438   1.487   2.503  0.8007 -0.0512 -0.4139
 8684WAT      O35455   2.740   3.246   2.434  0.2242  0.0021  0.0125
 8684WAT     H135456   2.710   3.222   2.512 -4.4059 -0.5542 -1.5910
 8684WAT     H235457   2.811   3.197   2.423  0.5204 -0.5479  3.4602
 8684WAT    EPW35458   2.746   3.235   2.444 -0.4160 -0.1613  0.2849
 8685WAT      O35459   2.730   2.027   3.436  0.2396 -0.1670 -0.0013
 8685WAT     H135460   2.770   2.029   3.358  0.3526  1.5479  0.0564
 8685WAT     H235461   2.650   1.998   3.417  0.5111 -0.5320 -0.6298
 8685WAT    EPW35462   2.724   2.023   3.421  0.2964  0.0324 -0.0856
 8686WAT      O35463   2.575   1.073   2.916 -0.4522  0.6345 -0.2741
 8686WAT     H135464   2.600   1.068   2.833 -1.5381  1.6961 -0.7015
 8686WAT     H235465   2.488   1.066   2.911 -0.4668 -0.2863  0.8782
 8686WAT    EPW35466   2.566   1.071   2.903 -0.6148  0.6553 -0.1670
 8687WAT      O35467   2.771   2.561   2.360 -0.3334 -0.6063 -0.1377
 8687WAT     H135468   2.773   2.477   2.336 -0.5014 -0.5294 -0.4144
 8687WAT     H235469   2.688   2.584   2.350 -0.0322  0.0054 -1.4637
 8687WAT    EPW35470   2.759   2.552   2.355 -0.3137 -0.5046 -0.3745
 8688WAT      O35471   2.482   1.885   2.735  0.1872 -0.4613 -0.7659
 8688WAT     H135472   2.541   1.948   2.751  1.0486 -1.4362  0.0754
 8688WAT     H235473   2.430   1.888   2.805  2.7555 -3.3918  1.5638
 8688WAT    EPW35474   2.483   1.895   2.748  0.6938 -1.0382 -0.2975
 8689WAT      O35475   3.661   2.502   3.442  0.5292 -0.2540  0.5297
 8689WAT     H135476   3.626   2.509   3.521 -0.9153 -2.2030  0.1711
 8689WAT     H235477   3.591   2.487   3.391  0.8736  4.3425 -1.8155
 8689WAT    EPW35478   3.645   2.500   3.446  0.3667  0.1371  0.1303
 8690WAT      O35479   2.244   2.638   2.484  0.1720  0.0089 -0.7364
 8690WAT     H135480   2.299   2.622   2.550  0.1124  0.3944 -0.5898
 8690WAT     H235481   2.289   2.694   2.434 -0.4839  1.2007 -0.0520
 8690WAT    EPW35482   2.259   2.644   2.487  0.0663  0.2419 -0.6137
 8691WAT      O35483   2.508   2.597   4.773 -0.2903 -0.8077 -0.6000
 8691WAT     H135484   2.563   2.619   4.837 -0.6486 -1.8434  0.0813
 8691WAT     H235485   2.520   2.660   4.714 -1.1451  1.1513  1.1688
 8691WAT    EPW35486   2.517   2.610   4.774 -0.4695 -0.6713 -0.2381
 8692WAT      O35487   4.134   1.403   2.878  0.3043  0.3003  0.2936
 8692WAT     H135488   4.221   1.402   2.882  0.3197  0.1045 -0.0014
 8692WAT     H235489   4.114   1.321   2.853 -0.0020  0.1525  0.9995
 8692WAT    EPW35490   4.144   1.390   2.875  0.2613  0.2495  0.3543
 8693WAT      O35491   2.499   2.293   2.503  0.4492 -0.1296  0.4530
 8693WAT     H135492   2.520   2.212   2.479  0.2578 -0.1553  0.3738
 8693WAT     H235493   2.430   2.312   2.453  1.0671  0.4256 -0.2074
 8693WAT    EPW35494   2.492   2.284   2.492  0.5122 -0.0514  0.3437
 8694WAT      O35495   4.493   1.770   4.230  0.5211  0.2156 -0.2362
 8694WAT     H135496   4.529   1.727   4.297 -0.7513 -1.4693 -0.5617
 8694WAT     H235497   4.453   1.838   4.268  0.9287  0.0272  0.5429
 8694WAT    EPW35498   4.493   1.774   4.246  0.3934 -0.0612 -0.1692
 8695WAT      O35499   2.819   1.730   3.862  0.0808  0.0518 -0.2280
 8695WAT     H135500   2.771   1.740   3.934  0.6987 -1.0508  0.3605
 8695WAT     H235501   2.767   1.758   3.799 -1.6832 -1.8593  0.2907
 8695WAT    EPW35502   2.804   1.736   3.864 -0.0885 -0.3934 -0.0645
 8696WAT      O35503   4.023   2.157   4.686  0.5694 -0.4936 -0.0234
 8696WAT     H135504   4.008   2.233   4.646  1.4400 -0.8275 -1.0406
 8696WAT     H235505   4.029   2.179   4.770  3.4497  1.0644 -0.4852
 8696WAT    EPW35506   4.022   2.171   4.693  1.1235 -0.3128 -0.2419
 8697WAT      O35507   3.682   1.524   3.281  0.2408  0.5712 -0.1489
 8697WAT     H135508   3.695   1.457   3.227  0.0442  2.4257 -2.6635
 8697WAT     H235509   3.596   1.523   3.294  0.3201 -0.0350  0.4212
 8697WAT    EPW35510   3.671   1.514   3.275  0.2235  0.7556 -0.4361
 8698WAT      O35511   3.256   1.163   2.924  0.4797  0.2182 -0.3883
 8698WAT     H135512   3.227   1.245   2.921  1.5796  0.6501  0.1770
 8698WAT     H235513   3.286   1.155   3.005  2.3918 -0.0197 -1.0761
 8698WAT    EPW35514   3.256   1.174   2.936  0.9246  0.2468 -0.4064
 8699WAT      O35515   3.975   2.575   3.385  0.8927  0.0796  0.6840
 8699WAT     H135516   4.055   2.608   3.392  1.2106 -0.6652  0.6178
 8699WAT     H235517   3.936   2.626   3.326  0.0215  2.9232  3.4402
 8699WAT    EPW35518   3.981   2.587   3.377  0.8110  0.3896  1.0814
 8700WAT      O35519   4.432   2.309   4.548 -0.0637 -0.5195  0.1536
 8700WAT     H135520   4.345   2.303   4.549 -0.2805  1.5717 -0.7194
 8700WAT     H235521   4.451   2.351   4.622 -0.0898  1.2343 -0.7724
 8700WAT    EPW35522   4.422   2.314   4.559 -0.0996  0.0484 -0.1121
 8701WAT      O35523   4.013   2.015   3.215  0.2794 -0.3229 -0.5802
 8701WAT     H135524   3.952   1.980   3.266 -0.2321  1.5689  0.1955
 8701WAT     H235525   4.070   2.049   3.271  0.6798  0.1758 -1.2784
 8701WAT    EPW35526   4.012   2.015   3.231  0.2630  0.0302 -0.5687
 8702WAT      O35527   2.049   2.122   1.723  0.8180  0.0122  0.1899
 8702WAT     H135528   2.022   2.040   1.732  2.4263 -0.5205  0.3278
 8702WAT     H235529   1.995   2.167   1.776 -0.1568 -0.9088  0.0083
 8702WAT    EPW35530   2.037   2.117   1.733  0.9116 -0.2026  0.1834
 8703WAT      O35531   2.961   1.505   3.892 -0.2379  0.1137  0.7050
 8703WAT     H135532   2.920   1.582   3.895  1.1145  0.8331  1.5961
 8703WAT     H235533   3.017   1.513   3.826 -2.5019 -1.4558 -1.6089
 8703WAT    EPW35534   2.963   1.518   3.883 -0.3726 -0.0119  0.4948
 8704WAT      O35535   2.614   3.425   4.377 -0.6318  0.0191 -0.1565
 8704WAT     H135536   2.647   3.503   4.399  0.7856 -0.9380  1.3774
 8704WAT     H235537   2.543   3.418   4.426 -0.5216  0.1609  0.0257
 8704WAT    EPW35538   2.609   3.436   4.387 -0.4061 -0.1013  0.0970
 8705WAT      O35539   3.378   1.583   4.283 -0.3506 -0.3949 -0.1159
 8705WAT     H135540   3.306   1.534   4.282 -0.9184  0.4265 -0.6688
 8705WAT     H235541   3.432   1.542   4.228 -0.5957 -0.7287 -0.1086
 8705WAT    EPW35542   3.375   1.570   4.275 -0.4707 -0.3228 -0.1965
 8706WAT      O35543   3.536   1.738   4.456  0.0717 -0.4199 -0.2235
 8706WAT     H135544   3.490   1.740   4.530 -0.9334  1.1432 -0.8320
 8706WAT     H235545   3.488   1.688   4.404 -0.6585  0.6671 -0.6417
 8706WAT    EPW35546   3.522   1.731   4.459 -0.1846 -0.0284 -0.3752
 8707WAT      O35547   2.474   2.434   2.993  0.6127 -0.1197  0.3027
 8707WAT     H135548   2.560   2.438   3.009  0.6109 -1.0808  0.6147
 8707WAT     H235549   2.468   2.372   2.932  0.2441  0.7932 -0.6178
 8707WAT    EPW35550   2.486   2.425   2.986  0.5580 -0.1268  0.2128
 8708WAT      O35551   3.160   3.076   2.738 -0.0579 -1.0578  0.2390
 8708WAT     H135552   3.212   3.053   2.804  1.1444  0.2934 -0.1815
 8708WAT     H235553   3.168   3.011   2.681  1.9053 -0.4933 -0.1909
 8708WAT    EPW35554   3.169   3.063   2.739  0.4097 -0.7748  0.1134
 8709WAT      O35555   3.320   0.234   2.732 -0.1488  0.3723 -0.2918
 8709WAT     H135556   3.393   0.280   2.745 -0.3124  1.0131 -1.5222
 8709WAT     H235557   3.283   0.231   2.812  1.0420  0.3250  0.2744
 8709WAT    EPW35558   3.325   0.240   2.746  0.0029  0.4600 -0.3899
 8710WAT      O35559   2.865   1.929   2.248 -0.3473  0.7924 -0.3400
 8710WAT     H135560   2.951   1.919   2.243 -0.5335 -1.2615 -0.1433
 8710WAT     H235561   2.853   1.973   2.323  0.3948 -1.8448  1.4478
 8710WAT    EPW35562   2.876   1.934   2.258 -0.2651  0.0994 -0.0469
 8711WAT      O35563   1.463   2.438   2.442  0.1817 -0.2020 -0.1130
 8711WAT     H135564   1.532   2.470   2.486  0.8524 -0.8884 -0.6397
 8711WAT     H235565   1.423   2.388   2.501 -0.4079  0.9318  0.4721
 8711WAT    EPW35566   1.467   2.436   2.458  0.1936 -0.1359 -0.1044
 8712WAT      O35567   3.953   2.352   1.273  0.0471  0.3108  0.2965
 8712WAT     H135568   4.020   2.360   1.329  0.4384  0.6855 -0.2159
 8712WAT     H235569   3.959   2.269   1.247  1.0279  0.6491 -0.6147
 8712WAT    EPW35570   3.964   2.341   1.277  0.2498  0.4161  0.0862
 8713WAT      O35571   2.719   2.435   2.632  0.2022 -0.0675 -0.1089
 8713WAT     H135572   2.790   2.406   2.590  1.1089 -1.8225  2.4375
 8713WAT     H235573   2.653   2.393   2.593  0.7610 -0.0733 -1.0785
 8713WAT    EPW35574   2.720   2.425   2.620  0.4187 -0.3276  0.1240
 8714WAT      O35575   1.976   1.348   3.242  0.0121 -0.2065  0.4201
 8714WAT     H135576   1.943   1.302   3.176  2.8407 -0.1320 -1.1803
 8714WAT     H235577   1.907   1.393   3.271 -1.3968 -0.2870 -2.4284
 8714WAT    EPW35578   1.961   1.348   3.236  0.2218 -0.2074 -0.2371
 8715WAT      O35579   3.503   1.972   4.998 -0.3995  0.1649  0.4769
 8715WAT     H135580   3.559   1.912   4.970 -0.9189 -0.4726  0.7641
 8715WAT     H235581   3.459   1.931   5.062 -2.0776  0.1952 -0.6067
 8715WAT    EPW35582   3.505   1.957   5.004 -0.7241  0.0752  0.3593
 8716WAT      O35583   1.785   1.727   2.778 -0.0729 -0.6735  0.3469
 8716WAT     H135584   1.778   1.813   2.763 -0.7766 -1.0354 -1.7035
 8716WAT     H235585   1.811   1.723   2.861 -1.4039  1.4986  0.9634
 8716WAT    EPW35586   1.788   1.739   2.788 -0.3734 -0.4061  0.1351
 8717WAT      O35587   1.958   0.851   2.794 -0.1339  0.0567  0.2264
 8717WAT     H135588   2.019   0.881   2.739 -1.3392  2.1844 -0.0327
 8717WAT     H235589   1.889   0.837   2.743 -0.1918 -1.4226  0.6690
 8717WAT    EPW35590   1.957   0.854   2.778 -0.3205  0.1525  0.2535
 8718WAT      O35591   4.154   1.549   0.764 -0.2868  0.6524  0.0426
 8718WAT     H135592   4.134   1.625   0.802 -0.0573  0.9188 -0.3617
 8718WAT     H235593   4.195   1.573   0.691 -0.5805  0.1424 -0.2937
 8718WAT    EPW35594   4.157   1.564   0.759 -0.2963  0.6165 -0.0668
 8719WAT      O35595   4.882   1.232   1.594 -0.0993  0.7047  0.3099
 8719WAT     H135596   4.867   1.317   1.590  0.4207  0.8367  0.9791
 8719WAT     H235597   4.875   1.214   1.679 -0.4934  0.0192  0.1444
 8719WAT    EPW35598   4.879   1.242   1.606 -0.0807  0.6229  0.3843
 8720WAT      O35599   1.886   2.151   4.059 -0.1779  0.6697  0.1607
 8720WAT     H135600   1.910   2.221   4.107  1.7758  0.6589 -0.7057
 8720WAT     H235601   1.886   2.182   3.978  0.8013 -0.3555 -0.2401
 8720WAT    EPW35602   1.889   2.166   4.054  0.2553  0.5167 -0.0265
 8721WAT      O35603   2.987   3.152   3.527  0.1776  0.1788  0.2069
 8721WAT     H135604   3.002   3.204   3.458  0.3211 -1.0344 -0.7163
 8721WAT     H235605   3.067   3.129   3.552  0.1087  0.2813  0.5244
 8721WAT    EPW35606   3.001   3.156   3.520  0.1886  0.0147  0.1175
 8722WAT      O35607   2.623   1.274   2.016  0.0412  0.3545 -0.6634
 8722WAT     H135608   2.708   1.261   2.002  0.0798 -0.1710  0.0143
 8722WAT     H235609   2.594   1.197   2.044 -0.8187  0.3187 -1.5607
 8722WAT    EPW35610   2.631   1.261   2.018 -0.0801  0.2716 -0.6959
 8723WAT      O35611   3.548   2.516   2.875 -0.3190 -0.5514 -0.5456
 8723WAT     H135612   3.569   2.591   2.835  0.8451 -0.6450 -0.1567
 8723WAT     H235613   3.462   2.511   2.865 -0.4709  1.0179 -0.2523
 8723WAT    EPW35614   3.539   2.526   2.867 -0.1695 -0.3334 -0.4448
 8724WAT      O35615   2.898   0.697   3.715 -0.2192  0.1147 -0.4713
 8724WAT     H135616   2.886   0.750   3.647 -1.1428  1.7901  0.9301
 8724WAT     H235617   2.818   0.666   3.731  0.0912 -0.7008 -0.4655
 8724WAT    EPW35618   2.884   0.700   3.707 -0.3098  0.2417 -0.2634
 8725WAT      O35619   3.762   1.279   4.246 -0.5480  0.3782 -0.4652
 8725WAT     H135620   3.826   1.247   4.196 -0.0609 -1.9063  1.4466
 8725WAT     H235621   3.720   1.208   4.274 -0.8909  1.5341  2.2319
 8725WAT    EPW35622   3.765   1.264   4.243 -0.5267  0.2115  0.2156
 8726WAT      O35623   3.258   1.660   2.875 -0.2003  0.0527 -0.1086
 8726WAT     H135624   3.214   1.720   2.921 -0.3243  0.1160 -0.3097
 8726WAT     H235625   3.325   1.639   2.927 -0.5311 -0.1252  0.2442
 8726WAT    EPW35626   3.261   1.666   2.889 -0.2674  0.0357 -0.0862
 8727WAT      O35627   1.278   2.991   4.711 -0.7259 -0.3536  0.0451
 8727WAT     H135628   1.350   3.039   4.723 -1.1568  0.2782  0.1872
 8727WAT     H235629   1.300   2.912   4.740  0.0990 -0.3253 -0.4783
 8727WAT    EPW35630   1.292   2.986   4.717 -0.6677 -0.2561 -0.0112
 8728WAT      O35631   2.661   0.979   3.598 -0.4996  0.7939 -0.0560
 8728WAT     H135632   2.659   0.977   3.685 -2.7562 -2.0346 -0.0233
 8728WAT     H235633   2.742   1.005   3.580 -0.0577  1.8388  2.8393
 8728WAT    EPW35634   2.673   0.983   3.608 -0.7677  0.5304  0.3765
 8729WAT      O35635   2.864   2.088   2.495 -0.5834  0.2096  0.1940
 8729WAT     H135636   2.872   2.155   2.439 -0.5737 -0.8154 -1.0779
 8729WAT     H235637   2.946   2.075   2.523 -0.2209 -0.5644 -1.1503
 8729WAT    EPW35638   2.878   2.096   2.491 -0.5284 -0.0561 -0.1925
 8730WAT      O35639   4.358   1.043   2.823 -0.2797  0.1313  0.1315
 8730WAT     H135640   4.392   1.015   2.747 -0.5433  0.9346 -0.3038
 8730WAT     H235641   4.282   1.080   2.798  0.0553  1.2189  0.6525
 8730WAT    EPW35642   4.352   1.045   2.808 -0.2692  0.4106  0.1441
 8731WAT      O35643   2.737   2.239   4.609 -0.5532  0.1433 -0.2687
 8731WAT     H135644   2.654   2.261   4.625 -0.8243 -0.9068 -0.1504
 8731WAT     H235645   2.767   2.217   4.688 -0.8153 -1.5538 -0.6070
 8731WAT    EPW35646   2.729   2.239   4.623 -0.6320 -0.2625 -0.3012
 8732WAT      O35647   3.443   2.959   2.299  0.4454 -0.4772 -0.1635
 8732WAT     H135648   3.526   2.985   2.302  0.2724  0.7217 -2.9788
 8732WAT     H235649   3.424   2.942   2.383  2.6264  2.0262  0.9785
 8732WAT    EPW35650   3.453   2.960   2.312  0.7421  0.0697 -0.4107
 8733WAT      O35651   3.441   2.125   3.658  0.4471  0.0243 -0.3024
 8733WAT     H135652   3.429   2.039   3.650 -0.3865  0.1988 -1.0439
 8733WAT     H235653   3.373   2.151   3.706  0.5743  0.3090 -0.2714
 8733WAT    EPW35654   3.429   2.116   3.664  0.3428  0.0921 -0.4073
 8734WAT      O35655   3.042   1.846   4.209 -0.2676 -0.3013 -0.1028
 8734WAT     H135656   2.969   1.890   4.225 -1.3274 -2.2513  0.7870
 8734WAT     H235657   3.044   1.840   4.122 -0.9656  0.0708 -0.1510
 8734WAT    EPW35658   3.032   1.852   4.198 -0.5273 -0.5344  0.0215
 8735WAT      O35659   3.463   2.224   3.391 -0.7923  0.4885  0.5816
 8735WAT     H135660   3.446   2.310   3.391  0.8430  0.8586  0.3788
 8735WAT     H235661   3.446   2.200   3.473 -0.5389  1.1865  0.8514
 8735WAT    EPW35662   3.458   2.233   3.403 -0.5133  0.6462  0.5915
 8736WAT      O35663   3.717   2.010   0.434 -0.3159  0.4486 -1.0548
 8736WAT     H135664   3.732   1.924   0.438  0.6355  0.6411  2.0273
 8736WAT     H235665   3.631   2.014   0.420 -0.9913 -1.1824  1.7196
 8736WAT    EPW35666   3.706   1.998   0.432 -0.2751  0.2361 -0.1897
 8737WAT      O35667   1.777   2.530   3.181  0.2366 -0.5664 -0.0618
 8737WAT     H135668   1.779   2.599   3.235  0.5525  0.5889 -1.4596
 8737WAT     H235669   1.810   2.465   3.228 -0.5016  0.1315  1.4606
 8737WAT    EPW35670   1.782   2.531   3.196  0.1742 -0.2926 -0.0434
 8738WAT      O35671   3.121   1.277   1.936 -0.0230 -0.0652  0.1636
 8738WAT     H135672   3.185   1.328   1.966  0.3028 -0.5801  0.3688
 8738WAT     H235673   3.088   1.241   2.009  1.9797 -2.7631 -0.0991
 8738WAT    EPW35674   3.125   1.279   1.951  0.3210 -0.5398  0.1551
 8739WAT      O35675   3.196   2.112   4.704 -0.5238 -0.2772  0.5254
 8739WAT     H135676   3.243   2.178   4.736 -2.0127  0.6701  0.8591
 8739WAT     H235677   3.161   2.075   4.776  2.2991 -3.1493  0.6326
 8739WAT    EPW35678   3.197   2.117   4.720 -0.3267 -0.5615  0.5905
 8740WAT      O35679   3.869   2.730   3.187 -0.6037 -0.4544  0.5961
 8740WAT     H135680   3.802   2.675   3.182  0.1406 -1.3901  0.5102
 8740WAT     H235681   3.833   2.804   3.215 -1.4839 -1.2834  1.7591
 8740WAT    EPW35682   3.854   2.733   3.191 -0.6238 -0.7151  0.7552
 8741WAT      O35683   3.279   2.150   2.340  0.4830  0.6797 -0.4664
 8741WAT     H135684   3.241   2.219   2.303  1.1013  0.8295 -0.8373
 8741WAT     H235685   3.226   2.130   2.406  1.1294  2.5284  0.6862
 8741WAT    EPW35686   3.265   2.157   2.344  0.6698  0.9750 -0.3509
 8742WAT      O35687   3.870   2.111   2.771  0.0071 -0.1050 -0.0444
 8742WAT     H135688   3.932   2.127   2.831 -0.0253  0.3770 -0.1314
 8742WAT     H235689   3.805   2.164   2.795 -0.4240 -0.7073  0.1225
 8742WAT    EPW35690   3.869   2.121   2.783 -0.0614 -0.1228 -0.0326
 8743WAT      O35691   2.551   0.861   4.283  0.7361  0.1760 -0.5335
 8743WAT     H135692   2.559   0.826   4.363  3.0388 -0.1726 -0.8543
 8743WAT     H235693   2.548   0.947   4.299 -0.9345  0.0630  0.0060
 8743WAT    EPW35694   2.552   0.868   4.297  0.8295  0.1078 -0.5012
 8744WAT      O35695   3.725   1.797   3.213 -0.1355 -0.1325  0.0912
 8744WAT     H135696   3.653   1.842   3.194  0.6712  0.5441 -1.5907
 8744WAT     H235697   3.698   1.714   3.211 -0.6146  0.0133 -2.0065
 8744WAT    EPW35698   3.710   1.791   3.210 -0.0871 -0.0110 -0.4671
 8745WAT      O35699   2.384   1.904   4.151 -0.3641 -0.3073 -0.4223
 8745WAT     H135700   2.385   1.964   4.088 -3.0644  0.4043  0.0776
 8745WAT     H235701   2.418   1.946   4.220  0.3720 -0.3054 -0.7786
 8745WAT    EPW35702   2.389   1.919   4.152 -0.6542 -0.2019 -0.4011
 8746WAT      O35703   2.942   2.491   3.259 -0.7559 -0.4479 -0.1547
 8746WAT     H135704   2.994   2.427   3.289 -1.7592 -0.4549  1.7713
 8746WAT     H235705   2.982   2.564   3.286 -1.4594 -0.4378  0.9261
 8746WAT    EPW35706   2.956   2.492   3.268 -1.0080 -0.4474  0.2894
 8747WAT      O35707   3.654   0.786   1.892  0.0883  0.7077  0.1487
 8747WAT     H135708   3.593   0.728   1.916  0.5959  0.8745  1.9134
 8747WAT     H235709   3.610   0.843   1.843 -0.7964 -0.1325 -0.0683
 8747WAT    EPW35710   3.639   0.786   1.888  0.0326  0.6082  0.3773
 8748WAT      O35711   3.589   2.747   3.918 -0.3955  0.0083 -0.1314
 8748WAT     H135712   3.555   2.795   3.854 -1.3010  0.2815  0.5328
 8748WAT     H235713   3.588   2.800   3.986  1.1549 -0.0712 -0.0231
 8748WAT    EPW35714   3.584   2.762   3.918 -0.3002  0.0369 -0.0173
 8749WAT      O35715   2.794   3.127   3.953 -0.4656  0.3284 -0.1333
 8749WAT     H135716   2.781   3.178   4.023  0.9476  1.3808 -0.5844
 8749WAT     H235717   2.796   3.183   3.886  0.2840 -0.3986 -0.7509
 8749WAT    EPW35718   2.793   3.143   3.954 -0.1461  0.3765 -0.2912
 8750WAT      O35719   2.078   2.094   5.180 -0.2834  0.2570 -0.6641
 8750WAT     H135720   2.061   2.133   5.256 -0.3124 -0.1117 -0.4782
 8750WAT     H235721   2.064   2.156   5.121 -0.9045  0.3567 -0.4178
 8750WAT    EPW35722   2.074   2.109   5.183 -0.3794  0.2172 -0.6003
 8751WAT      O35723   3.386   1.123   3.164 -0.2235 -0.9203  0.0326
 8751WAT     H135724   3.461   1.145   3.203 -0.8005 -1.7867  1.7767
 8751WAT     H235725   3.382   1.036   3.175 -0.9694 -1.0469 -1.0209
 8751WAT    EPW35726   3.396   1.113   3.172 -0.4189 -1.0670  0.1346
 8752WAT      O35727   2.490   3.595   3.648  0.2278 -0.4585 -0.6104
 8752WAT     H135728   2.531   3.625   3.718 -0.6610  0.0452 -0.2957
 8752WAT     H235729   2.530   3.636   3.582 -0.2042  0.5622 -0.2628
 8752WAT    EPW35730   2.502   3.605   3.648  0.0327 -0.2333 -0.5126
 8753WAT      O35731   4.871   1.171   2.887  0.4687  0.5717  0.4297
 8753WAT     H135732   4.924   1.126   2.939  0.5355  0.7455  0.5134
 8753WAT     H235733   4.826   1.110   2.845 -1.1766  0.3732  2.2892
 8753WAT    EPW35734   4.872   1.156   2.889  0.2355  0.5681  0.7167
 8754WAT      O35735   2.866   1.570   3.266 -0.1232 -0.2134  0.3654
 8754WAT     H135736   2.845   1.497   3.223  1.4191 -1.0331  0.9235
 8754WAT     H235737   2.953   1.572   3.262 -0.1569  2.1898 -0.5562
 8754WAT    EPW35738   2.876   1.560   3.259  0.0996  0.0205  0.3117
 8755WAT      O35739   2.328   2.458   3.353  0.1616 -0.2597 -0.3586
 8755WAT     H135740   2.263   2.446   3.296 -1.0684 -1.0734  1.1272
 8755WAT     H235741   2.386   2.396   3.332 -0.1364 -0.3627 -0.8881
 8755WAT    EPW35742   2.327   2.447   3.341 -0.0641 -0.3951 -0.2173
 8756WAT      O35743   3.290   2.106   2.814  0.2368  0.1447  0.7995
 8756WAT     H135744   3.341   2.115   2.884  0.2862  1.1139  0.6480
 8756WAT     H235745   3.346   2.086   2.750  0.1466 -1.1465  1.1016
 8756WAT    EPW35746   3.306   2.104   2.815  0.2307  0.0971  0.8218
 8757WAT      O35747   2.501   3.280   1.911  0.0796  0.1875  0.2048
 8757WAT     H135748   2.502   3.335   1.979 -1.1504 -0.8773  1.1415
 8757WAT     H235749   2.420   3.289   1.879  0.1416 -0.4568 -0.1515
 8757WAT    EPW35750   2.489   3.290   1.916 -0.0929 -0.0649  0.2906
 8758WAT      O35751   3.534   0.642   1.514 -0.4150  0.5005 -0.3903
 8758WAT     H135752   3.508   0.565   1.482 -0.7050 -0.3880  1.7669
 8758WAT     H235753   3.473   0.660   1.575  0.5301  1.6294  0.2621
 8758WAT    EPW35754   3.521   0.633   1.519 -0.3182  0.5360  0.0247
 8759WAT      O35755   3.667   2.163   3.783  0.4480 -0.1828 -0.3118
 8759WAT     H135756   3.588   2.171   3.746  0.9290  0.3943 -1.2160
 8759WAT     H235757   3.710   2.234   3.757  2.0168 -1.5336 -1.6581
 8759WAT    EPW35758   3.661   2.174   3.774  0.7508 -0.2971 -0.6443
 8760WAT      O35759   3.660   2.563   3.119 -0.6905 -0.1158  0.9215
 8760WAT     H135760   3.627   2.544   3.040 -0.3790 -0.3806  0.8521
 8760WAT     H235761   3.600   2.534   3.174 -1.3995  1.0119  0.7669
 8760WAT    EPW35762   3.646   2.556   3.115 -0.7492  0.0117  0.8884
 8761WAT      O35763   4.571   0.538   4.365 -0.2030 -0.1289 -0.3212
 8761WAT     H135764   4.544   0.469   4.320 -0.7223 -0.3889  0.3798
 8761WAT     H235765   4.644   0.510   4.404  0.1240  0.0295 -0.7942
 8761WAT    EPW35766   4.578   0.524   4.364 -0.2314 -0.1439 -0.2875
 8762WAT      O35767   2.818   1.661   2.248  0.2093  0.1788 -0.1119
 8762WAT     H135768   2.825   1.745   2.272 -0.3299  0.4129 -0.7384
 8762WAT     H235769   2.823   1.617   2.323 -0.3817  0.8235  0.3076
 8762WAT    EPW35770   2.820   1.667   2.262  0.0424  0.3086 -0.1425
 8763WAT      O35771   2.818   2.654   3.654 -0.2071  0.0258  0.0342
 8763WAT     H135772   2.830   2.727   3.700  2.0545 -1.4167  2.0084
 8763WAT     H235773   2.798   2.683   3.574  2.2232  2.8561  0.2722
 8763WAT    EPW35774   2.816   2.669   3.649  0.4860  0.2308  0.3610
 8764WAT      O35775   2.226   2.574   3.059 -0.2348  0.6313 -0.7455
 8764WAT     H135776   2.299   2.535   3.034 -0.5199  1.2130 -2.5949
 8764WAT     H235777   2.252   2.654   3.083  0.0292  0.0923  0.9375
 8764WAT    EPW35778   2.241   2.580   3.059 -0.2379  0.6376 -0.7701
 8765WAT      O35779   2.922   2.225   4.059 -0.3837 -0.7659  0.5011
 8765WAT     H135780   2.965   2.219   3.983 -0.9563  0.5655  0.0329
 8765WAT     H235781   2.984   2.221   4.119  0.1907 -0.8312 -0.0878
 8765WAT    EPW35782   2.937   2.223   4.056 -0.3834 -0.5788  0.3449
 8766WAT      O35783   3.362   1.698   0.406 -0.2787  0.1663 -0.3290
 8766WAT     H135784   3.425   1.641   0.427  0.4700  1.6284  1.6374
 8766WAT     H235785   3.308   1.694   0.474 -1.4127  0.2430 -1.1913
 8766WAT    EPW35786   3.363   1.689   0.419 -0.3356  0.3936 -0.1659
 8767WAT      O35787   3.409   1.289   7.829 -0.2122  0.1424 -0.8056
 8767WAT     H135788   3.326   1.285   7.855 -0.4546  0.7687 -1.4647
 8767WAT     H235789   3.452   1.244   7.891 -1.2119 -1.4911 -1.2360
 8767WAT    EPW35790   3.403   1.282   7.842 -0.3957 -0.0064 -0.9665
 8768WAT      O35791   3.746   3.186   6.871 -0.5500  0.5377 -0.2578
 8768WAT     H135792   3.816   3.173   6.822  0.5303 -1.0480  1.5696
 8768WAT     H235793   3.765   3.146   6.946 -2.9095  1.1187  0.7627
 8768WAT    EPW35794   3.759   3.178   6.875 -0.7390  0.3893  0.1629
 8769WAT      O35795   2.224   1.942   7.823 -0.2143 -0.6736  0.2344
 8769WAT     H135796   2.188   2.005   7.871  1.2316 -0.6275  1.3353
 8769WAT     H235797   2.286   1.909   7.876  1.3933 -0.6868 -1.5374
 8769WAT    EPW35798   2.228   1.946   7.838  0.2368 -0.6688  0.1353
 8770WAT      O35799   0.608   7.420   0.959  0.1834 -0.7029 -0.0065
 8770WAT     H135800   0.622   7.364   1.024  1.5668  0.0008  0.3277
 8770WAT     H235801   0.674   7.477   0.965 -2.0003  1.9828  0.7132
 8770WAT    EPW35802   0.620   7.420   0.969  0.0652 -0.2022  0.1492
 8771WAT      O35803   2.489   2.813   7.658 -0.5755  0.2360 -0.0298
 8771WAT     H135804   2.557   2.862   7.636  0.1611  0.1852  1.9545
 8771WAT     H235805   2.420   2.858   7.629  0.1942  1.3421 -0.1658
 8771WAT    EPW35806   2.489   2.827   7.650 -0.3530  0.3919  0.2432
 8772WAT      O35807   2.708   2.906   0.555 -0.9358 -0.3394 -0.3183
 8772WAT     H135808   2.636   2.920   0.509 -0.3632  0.4157 -1.0200
 8772WAT     H235809   2.761   2.866   0.498 -0.5325 -0.1828 -0.0566
 8772WAT    EPW35810   2.706   2.902   0.540 -0.7917 -0.2047 -0.3833
 8773WAT      O35811   3.313   0.860   0.723  0.2344 -0.0479 -0.5032
 8773WAT     H135812   3.361   0.917   0.768 -0.8939 -0.6645  1.5917
 8773WAT     H235813   3.243   0.906   0.699  0.3488  0.0029 -0.7479
 8773WAT    EPW35814   3.310   0.875   0.726  0.0846 -0.1314 -0.2299
 8774WAT      O35815   2.887   0.712   1.063  0.7224  0.4666  0.2430
 8774WAT     H135816   2.898   0.714   0.976  1.1362 -0.0016  0.2799
 8774WAT     H235817   2.801   0.723   1.073  0.7791  1.4150 -0.1837
 8774WAT    EPW35818   2.876   0.714   1.051  0.7919  0.5376  0.1855
 8775WAT      O35819   2.294   2.653   0.194 -0.1195 -0.2175  1.2130
 8775WAT     H135820   2.323   2.641   0.275  1.9387  0.3284  0.6179
 8775WAT     H235821   2.353   2.705   0.158  0.1685 -2.0367 -1.2525
 8775WAT    EPW35822   2.307   2.659   0.201  0.2271 -0.4056  0.7609
 8776WAT      O35823   2.333   3.793   1.608 -0.3158  0.1950  0.1410
 8776WAT     H135824   2.279   3.735   1.646  0.2168  0.1842  0.8984
 8776WAT     H235825   2.278   3.850   1.571 -0.8709  0.4619  1.3310
 8776WAT    EPW35826   2.317   3.793   1.608 -0.3191  0.2328  0.4287
 8777WAT      O35827   2.928   1.416   1.747 -0.3351 -0.5159 -0.0319
 8777WAT     H135828   2.981   1.400   1.814 -1.5876 -1.3129  0.8079
 8777WAT     H235829   2.880   1.483   1.774 -1.0297 -1.0131  0.0127
 8777WAT    EPW35830   2.929   1.423   1.761 -0.6227 -0.7071  0.0988
 8778WAT      O35831   3.754   0.775   7.808  0.2103  0.8840 -0.3202
 8778WAT     H135832   3.687   0.723   7.786  0.9631  0.1063 -0.8456
 8778WAT     H235833   3.817   0.752   7.752  1.7789 -0.2493  1.7381
 8778WAT    EPW35834   3.754   0.764   7.796  0.5532  0.6017 -0.0938
 8779WAT      O35835   3.555   0.105   1.167 -0.0448 -0.0241  0.3716
 8779WAT     H135836   3.534   0.188   1.151  1.6822  0.3780 -0.0097
 8779WAT     H235837   3.526   0.092   1.248 -0.6253  0.8400  0.3177
 8779WAT    EPW35838   3.548   0.116   1.176  0.1246  0.1630  0.3073
 8780WAT      O35839   1.996   3.128   1.615 -0.3737 -0.1539 -0.2315
 8780WAT     H135840   1.952   3.193   1.654  0.6807 -0.2136  1.1346
 8780WAT     H235841   2.041   3.168   1.552 -0.7987  0.2219 -0.2997
 8780WAT    EPW35842   1.996   3.143   1.612 -0.2807 -0.1072 -0.0398
 8781WAT      O35843   2.089   2.760   0.748 -0.3563  0.1709  0.1498
 8781WAT     H135844   2.073   2.739   0.831 -0.1392  0.6483  0.3166
 8781WAT     H235845   2.174   2.743   0.738 -0.2868  0.5003  0.1493
 8781WAT    EPW35846   2.099   2.755   0.759 -0.3140  0.2901  0.1744
 8782WAT      O35847   1.967   0.932   0.675  0.5107 -0.6403 -0.1277
 8782WAT     H135848   2.048   0.917   0.647  1.0549  1.1685  0.3710
 8782WAT     H235849   1.950   1.013   0.647  0.3893  0.5727  3.0332
 8782WAT    EPW35850   1.976   0.942   0.667  0.5731 -0.1939  0.4129
 8783WAT      O35851   4.189   3.096   7.029  0.0174  0.6212 -0.0916
 8783WAT     H135852   4.159   3.131   6.955 -0.3680  1.4183  0.4323
 8783WAT     H235853   4.233   3.025   7.002 -1.7144 -0.1964 -0.9588
 8783WAT    EPW35854   4.191   3.090   7.014 -0.2953  0.6182 -0.1423
 8784WAT      O35855   4.896   1.410   2.320 -0.0916 -0.1707 -0.4940
 8784WAT     H135856   4.841   1.475   2.342 -2.9011 -2.1103 -1.2852
 8784WAT     H235857   4.962   1.420   2.376 -0.4959  3.1653 -0.4005
 8784WAT    EPW35858   4.898   1.421   2.331 -0.5664  0.0356 -0.5971
 8785WAT      O35859   1.921   0.673   0.061 -0.2119 -0.4205 -0.0585
 8785WAT     H135860   1.943   0.702  -0.018 -1.3087  0.7224  0.0376
 8785WAT     H235861   1.913   0.745   0.109 -0.0693 -1.0612  0.9774
 8785WAT    EPW35862   1.923   0.688   0.057 -0.3528 -0.3463  0.1087
 8786WAT      O35863   3.052   0.772   3.128  0.2018 -0.2230 -0.0617
 8786WAT     H135864   3.113   0.719   3.094  1.0743 -0.1758  1.3670
 8786WAT     H235865   3.000   0.718   3.172  0.6307 -0.0084  0.7293
 8786WAT    EPW35866   3.053   0.756   3.129  0.3940 -0.1843  0.2662
 8787WAT      O35867   2.367   3.096   0.805  0.2293 -0.1049  0.1749
 8787WAT     H135868   2.435   3.127   0.761  0.3515 -1.2109 -0.4413
 8787WAT     H235869   2.385   3.011   0.813 -1.3297 -0.5204 -0.4640
 8787WAT    EPW35870   2.380   3.088   0.800  0.0171 -0.3297 -0.0105
 8788WAT      O35871   1.599   2.139   1.397 -0.8457  0.5444 -0.3061
 8788WAT     H135872   1.648   2.201   1.360 -0.4325  0.9958  0.9503
 8788WAT     H235873   1.587   2.168   1.479 -1.5851 -0.4982 -0.0223
 8788WAT    EPW35874   1.604   2.153   1.404 -0.8938  0.4571 -0.0785
 8789WAT      O35875   3.549   2.253   7.504  0.1226  0.5448 -0.5119
 8789WAT     H135876   3.589   2.326   7.476 -0.4483  1.0416 -0.0670
 8789WAT     H235877   3.471   2.282   7.531 -0.3281 -0.3273 -0.8707
 8789WAT    EPW35878   3.544   2.268   7.504 -0.0283  0.4893 -0.4992
 8790WAT      O35879   3.419   1.582   7.804 -0.4795  0.0907  0.1340
 8790WAT     H135880   3.492   1.583   7.852 -0.2947 -0.2730 -0.1386
 8790WAT     H235881   3.394   1.499   7.805 -0.3286  0.0261 -0.6117
 8790WAT    EPW35882   3.426   1.570   7.811 -0.4299  0.0274 -0.0164
 8791WAT      O35883   3.319   3.142   1.726  0.6221 -0.3309 -0.1871
 8791WAT     H135884   3.254   3.197   1.744  0.4397 -0.5664 -0.1165
 8791WAT     H235885   3.278   3.065   1.715  0.8649 -0.4363 -0.3597
 8791WAT    EPW35886   3.303   3.139   1.727  0.6310 -0.3813 -0.2022
 8792WAT      O35887   3.882   3.649   0.825  0.3414  0.2446  0.3078
 8792WAT     H135888   3.795   3.644   0.818  0.4610 -2.1573 -0.7303
 8792WAT     H235889   3.904   3.713   0.771 -0.7951  1.1415  0.8741
 8792WAT    EPW35890   3.873   3.657   0.816  0.1912  0.0223  0.2381
 8793WAT      O35891   3.454   2.192   0.554 -0.1132  0.7582 -0.4614
 8793WAT     H135892   3.501   2.186   0.480 -0.0923  0.7956 -0.4507
 8793WAT     H235893   3.509   2.165   0.616 -0.7625 -1.3494 -0.7094
 8793WAT    EPW35894   3.469   2.187   0.552 -0.2060  0.4524 -0.4964
 8794WAT      O35895   1.963   2.695   1.349  0.3624 -0.1043 -0.1086
 8794WAT     H135896   1.899   2.637   1.357  1.4892 -1.3941 -0.2088
 8794WAT     H235897   1.950   2.729   1.270 -1.0229  0.7338  0.4194
 8794WAT    EPW35898   1.951   2.692   1.339  0.3242 -0.1710 -0.0454
 8795WAT      O35899   2.388   2.235   7.310  0.5513  0.5041  0.1637
 8795WAT     H135900   2.333   2.301   7.297 -0.8591 -0.5484  0.4990
 8795WAT     H235901   2.336   2.165   7.310  2.0686 -0.7166 -1.0319
 8795WAT    EPW35902   2.373   2.234   7.308  0.5671  0.1683  0.0366
 8796WAT      O35903   2.492   2.612   1.880 -0.1686  0.5382  0.1858
 8796WAT     H135904   2.509   2.543   1.931 -2.2156  0.1510  0.4309
 8796WAT     H235905   2.465   2.576   1.805 -0.8201  1.0463  0.1658
 8796WAT    EPW35906   2.490   2.596   1.876 -0.5672  0.5560  0.2191
 8797WAT      O35907   3.000   4.164   2.012 -0.1121 -0.6179  0.3422
 8797WAT     H135908   2.955   4.097   1.979 -2.1691  0.5486  0.6278
 8797WAT     H235909   3.039   4.130   2.082 -0.4895 -1.7002  0.0458
 8797WAT    EPW35910   2.999   4.149   2.017 -0.4717 -0.6055  0.3406
 8798WAT      O35911   3.156   2.912   0.719 -0.4539  0.1872 -0.1103
 8798WAT     H135912   3.211   2.915   0.786 -0.7386 -0.3104  0.1531
 8798WAT     H235913   3.087   2.957   0.748 -1.8003 -2.4310  1.1053
 8798WAT    EPW35914   3.154   2.919   0.734 -0.6948 -0.2730  0.1082
 8799WAT      O35915   1.284   3.832   1.281  0.2599 -0.0536  0.3530
 8799WAT     H135916   1.284   3.768   1.341 -0.2733 -1.1241 -0.7424
 8799WAT     H235917   1.360   3.822   1.240  0.9419  1.1284  1.2762
 8799WAT    EPW35918   1.295   3.821   1.284  0.2819 -0.0371  0.3276
 8800WAT      O35919   4.149   3.206   0.558  0.4565  0.2614 -0.3025
 8800WAT     H135920   4.112   3.265   0.612 -0.4908 -2.0761  1.8051
 8800WAT     H235921   4.081   3.164   0.524  1.1045 -0.7485 -0.3874
 8800WAT    EPW35922   4.133   3.209   0.561  0.4123 -0.2331 -0.0037
 8801WAT      O35923   2.995   0.408   1.708  0.0942 -0.2745 -0.3626
 8801WAT     H135924   2.945   0.411   1.637  0.6282 -0.4282 -0.7469
 8801WAT     H235925   2.992   0.490   1.739 -1.3911 -0.5598  0.3279
 8801WAT    EPW35926   2.987   0.421   1.702 -0.0463 -0.3393 -0.3173
 8802WAT      O35927   3.589   2.230   0.006  0.6148  0.0594  0.5171
 8802WAT     H135928   3.588   2.177  -0.064  0.0480  1.4650 -0.5928
 8802WAT     H235929   3.606   2.309  -0.028 -2.4127  1.2942  1.5375
 8802WAT    EPW35930   3.591   2.234  -0.009  0.0839  0.4494  0.5039
 8803WAT      O35931   2.871   1.651   0.426  0.1431  0.9639 -0.0909
 8803WAT     H135932   2.830   1.631   0.500 -0.2971  0.2892 -0.5008
 8803WAT     H235933   2.922   1.718   0.448 -1.3036  1.9447  0.3945
 8803WAT    EPW35934   2.872   1.658   0.440 -0.1356  1.0091 -0.0798
 8804WAT      O35935   4.051   2.502   6.291 -0.1745  0.5801  0.1485
 8804WAT     H135936   4.052   2.427   6.336 -1.7534  1.1854  1.2847
 8804WAT     H235937   4.042   2.475   6.208 -0.5286 -0.5008  0.5209
 8804WAT    EPW35938   4.050   2.487   6.285 -0.4600  0.5099  0.3714
 8805WAT      O35939   0.770   3.326   1.369  0.1248  0.0409  0.4399
 8805WAT     H135940   0.740   3.245   1.357  0.5482 -0.0449 -0.0576
 8805WAT     H235941   0.820   3.340   1.299 -0.3821  0.9392  0.2517
 8805WAT    EPW35942   0.773   3.316   1.357  0.1125  0.1609  0.3386
 8806WAT      O35943   5.254   1.045   2.534 -0.2799 -0.1681  0.0568
 8806WAT     H135944   5.330   1.006   2.552 -1.0481 -1.4403  0.6443
 8806WAT     H235945   5.234   1.085   2.608  0.6642  1.7182 -0.6377
 8806WAT    EPW35946   5.263   1.045   2.547 -0.2539 -0.0774  0.0410
 8807WAT      O35947   3.140   2.071   2.560 -0.7729  0.1243 -0.0673
 8807WAT     H135948   3.156   1.997   2.603  1.2010  0.3524 -0.3221
 8807WAT     H235949   3.135   2.130   2.625  2.1957  0.4666 -0.0400
 8807WAT    EPW35950   3.141   2.069   2.576 -0.0428  0.2085 -0.1009
 8808WAT      O35951   4.094   1.755   2.686 -0.5019  0.4090 -0.3949
 8808WAT     H135952   4.100   1.669   2.674  1.2693  0.4259  0.0670
 8808WAT     H235953   4.036   1.763   2.750  0.7521 -0.6115  0.9382
 8808WAT    EPW35954   4.086   1.744   2.694 -0.0550  0.2608 -0.1297
 8809WAT      O35955   3.680   2.848   7.646  0.7185 -0.3394 -0.1934
 8809WAT     H135956   3.610   2.799   7.662  0.1206  1.0211  1.7586
 8809WAT     H235957   3.700   2.881   7.724  1.9350  1.3847 -1.1613
 8809WAT    EPW35958   3.672   2.846   7.660  0.8099  0.1163 -0.0480
 8810WAT      O35959   3.927   2.170   7.058 -0.6460 -0.0345 -0.0896
 8810WAT     H135960   3.993   2.116   7.040 -0.9736 -0.6460  0.4867
 8810WAT     H235961   3.937   2.235   7.001  1.7669  1.0361  1.4096
 8810WAT    EPW35962   3.938   2.172   7.047 -0.3380  0.0333  0.2170
 8811WAT      O35963   2.112   0.800   0.312 -0.2515 -0.6624  0.5229
 8811WAT     H135964   2.138   0.838   0.238 -0.5152 -1.2520  0.1133
 8811WAT     H235965   2.025   0.797   0.304 -0.3089 -0.4039  1.0247
 8811WAT    EPW35966   2.103   0.805   0.300 -0.2990 -0.7113  0.5365
 8812WAT      O35967   3.000   1.881   0.902  0.3451  0.1983 -0.5770
 8812WAT     H135968   3.039   1.883   0.980 -0.9432  3.2216  0.1452
 8812WAT     H235969   3.045   1.940   0.855 -1.3378  1.4449 -0.7213
 8812WAT    EPW35970   3.012   1.890   0.906 -0.0938  0.8290 -0.4917
 8813WAT      O35971   1.863   2.028   7.144  0.1993  0.3523 -0.4627
 8813WAT     H135972   1.793   2.007   7.096 -0.3445 -0.7038  0.7422
 8813WAT     H235973   1.876   2.112   7.125 -1.1482  0.4626 -1.0248
 8813WAT    EPW35974   1.855   2.037   7.134 -0.0801  0.2126 -0.3678
 8814WAT      O35975   2.648   4.116   1.668 -0.4458 -0.0594  0.1364
 8814WAT     H135976   2.635   4.120   1.754  0.3719 -0.3880  0.2827
 8814WAT     H235977   2.678   4.035   1.655  2.8735  1.0104  0.0803
 8814WAT    EPW35978   2.650   4.105   1.679  0.1653  0.0501  0.1497
 8815WAT      O35979   1.904   1.527   0.838 -0.1373  0.3048 -0.3934
 8815WAT     H135980   1.866   1.460   0.880  1.4450 -0.9458 -0.8429
 8815WAT     H235981   1.848   1.547   0.775  0.4359 -2.3333 -1.8489
 8815WAT    EPW35982   1.890   1.520   0.835  0.1811 -0.2696 -0.6748
 8816WAT      O35983   2.932   3.999   0.141  0.6932  0.3952  0.0453
 8816WAT     H135984   2.866   4.009   0.085  0.9790 -0.6487 -0.4964
 8816WAT     H235985   2.912   3.927   0.185  0.9726  0.6414  0.5895
 8816WAT    EPW35986   2.919   3.990   0.139  0.7767  0.2773  0.0457
 8817WAT      O35987   1.937   3.557   1.503  0.2696  0.5112  0.3852
 8817WAT     H135988   1.954   3.610   1.436  2.2248  0.8124  1.0608
 8817WAT     H235989   1.975   3.596   1.571 -0.6168 -0.3945  1.4477
 8817WAT    EPW35990   1.945   3.570   1.503  0.4275  0.4219  0.6420
 8818WAT      O35991   3.180   2.103   1.901 -0.7218  0.2471 -0.0311
 8818WAT     H135992   3.203   2.026   1.935 -1.7241  0.0804  0.2919
 8818WAT     H235993   3.133   2.081   1.831 -2.1155  0.5362  0.7943
 8818WAT    EPW35994   3.177   2.088   1.895 -1.0757  0.2652  0.1385
 8819WAT      O35995   1.658   2.667   2.511 -0.1808  0.1312 -0.3886
 8819WAT     H135996   1.692   2.644   2.435  1.1173 -0.4488  0.3448
 8819WAT     H235997   1.727   2.673   2.564 -1.0279  0.7294  0.6927
 8819WAT    EPW35998   1.673   2.665   2.508 -0.1142  0.1339 -0.1205
 8820WAT      O35999   2.971   0.354   1.080  0.0943 -0.3967 -0.5265
 8820WAT     H136000   2.966   0.267   1.091 -0.7680 -0.1549  1.4579
 8820WAT     H236001   2.892   0.376   1.051  0.2515 -0.2506 -0.8456
 8820WAT    EPW36002   2.959   0.344   1.078 -0.0099 -0.3394 -0.2805
 8821WAT      O36003   2.890   2.816   0.318  0.0445 -0.2896 -0.6329
 8821WAT     H136004   2.932   2.739   0.314  0.0687 -0.3218  0.1316
 8821WAT     H236005   2.821   2.803   0.266  1.3873  0.0597 -2.6117
 8821WAT    EPW36006   2.886   2.802   0.309  0.2464 -0.2427 -0.8123
 8822WAT      O36007   2.803   2.556   1.715  0.1666  0.3716 -0.7866
 8822WAT     H136008   2.843   2.533   1.641  0.8198  0.4190 -0.4512
 8822WAT     H236009   2.868   2.566   1.772 -0.3922 -0.7132  0.0922
 8822WAT    EPW36010   2.818   2.554   1.712  0.1805  0.2183 -0.6073
 8823WAT      O36011   2.204   3.281   1.168 -0.3350  0.2979  0.9049
 8823WAT     H136012   2.205   3.355   1.121  3.1356  0.5602  1.1062
 8823WAT     H236013   2.193   3.219   1.108  0.7758  0.8056  0.1315
 8823WAT    EPW36014   2.203   3.283   1.152  0.3418  0.4116  0.8204
 8824WAT      O36015   2.697   3.050   0.959 -0.3850  0.7035  0.0301
 8824WAT     H136016   2.760   2.993   0.941 -0.1379  0.6190  1.1056
 8824WAT     H236017   2.695   3.102   0.888 -0.3278 -0.3631 -0.7743
 8824WAT    EPW36018   2.706   3.049   0.946 -0.3400  0.5334  0.0702
 8825WAT      O36019   3.658   1.177   1.896 -0.7793  0.0453 -0.1392
 8825WAT     H136020   3.624   1.102   1.868  2.7002 -1.4689 -0.8120
 8825WAT     H236021   3.628   1.184   1.977 -1.3986 -1.9792 -0.1409
 8825WAT    EPW36022   3.649   1.167   1.904 -0.3568 -0.4774 -0.2388
 8826WAT      O36023   2.749   3.130   1.634  0.1672  0.2053 -0.2634
 8826WAT     H136024   2.792   3.100   1.565 -0.4055 -0.3284 -0.3972
 8826WAT     H236025   2.779   3.081   1.700 -2.1318 -2.1051 -0.7663
 8826WAT    EPW36026   2.760   3.119   1.634 -0.2570 -0.2149 -0.3574
 8827WAT      O36027   3.322   2.147   1.157 -0.1888 -0.2363 -0.3349
 8827WAT     H136028   3.274   2.076   1.174  2.5487 -1.9586  0.7639
 8827WAT     H236029   3.322   2.190   1.233 -0.0447 -0.1799 -0.3672
 8827WAT    EPW36030   3.315   2.143   1.171  0.2368 -0.4824 -0.1774
 8828WAT      O36031   1.581   0.450   1.285 -0.3016 -0.4236 -0.2874
 8828WAT     H136032   1.563   0.475   1.367 -0.2222  0.6615 -0.5811
 8828WAT     H236033   1.521   0.389   1.269 -1.6945  0.8274 -0.1187
 8828WAT    EPW36034   1.569   0.445   1.295 -0.4956 -0.0785 -0.3059
 8829WAT      O36035   3.212   2.720   7.526  0.0483  0.1286 -0.0187
 8829WAT     H136036   3.220   2.780   7.463  0.5302  2.6474  2.2521
 8829WAT     H236037   3.134   2.738   7.562 -0.4787 -1.6264 -0.2071
 8829WAT    EPW36038   3.202   2.732   7.522  0.0416  0.2414  0.2889
 8830WAT      O36039   2.566   2.367   7.673 -0.2644  0.1185  0.3928
 8830WAT     H136040   2.571   2.307   7.610  0.2564 -1.0331  1.4986
 8830WAT     H236041   2.485   2.399   7.664 -0.7358 -1.1110  0.0939
 8830WAT    EPW36042   2.554   2.363   7.662 -0.2571 -0.2332  0.5120
 8831WAT      O36043   1.208   1.491   0.200  0.1843  0.2027  0.4047
 8831WAT     H136044   1.230   1.567   0.236 -0.2353  1.0821 -1.1302
 8831WAT     H236045   1.280   1.466   0.157 -0.4999  1.1378 -1.3695
 8831WAT    EPW36046   1.222   1.498   0.199  0.0212  0.4707 -0.0841
 8832WAT      O36047   2.627   2.041   0.365 -0.3468  0.7252 -0.7229
 8832WAT     H136048   2.592   1.978   0.414 -1.6825  1.7262 -0.3298
 8832WAT     H236049   2.642   2.000   0.289  1.5485 -0.7845  0.3763
 8832WAT    EPW36050   2.624   2.025   0.361 -0.2641  0.6500 -0.5025
 8833WAT      O36051   3.966   2.152   1.558  0.1138 -0.5004 -0.3822
 8833WAT     H136052   3.924   2.114   1.491  0.1029 -0.0587 -0.6317
 8833WAT     H236053   3.946   2.236   1.549  1.6523 -0.1608 -0.9418
 8833WAT    EPW36054   3.957   2.158   1.547  0.3395 -0.3849 -0.5017
 8834WAT      O36055   3.631   1.011   7.740 -0.3951 -0.4324 -0.1500
 8834WAT     H136056   3.659   0.930   7.753 -1.2403 -0.8360 -0.7608
 8834WAT     H236057   3.684   1.042   7.678 -0.2817 -0.6299 -0.1515
 8834WAT    EPW36058   3.643   1.004   7.733 -0.5032 -0.5212 -0.2404
 8835WAT      O36059   2.402   1.922   7.119  0.3657 -0.3221 -0.2015
 8835WAT     H136060   2.430   1.867   7.057 -0.1375  0.0312 -0.7539
 8835WAT     H236061   2.399   1.999   7.078  1.0955  0.1349  0.5722
 8835WAT    EPW36062   2.406   1.925   7.103  0.3992 -0.2024 -0.1688
 8836WAT      O36063   4.845   2.117   6.985 -0.1596 -0.2715 -0.1105
 8836WAT     H136064   4.857   2.140   7.068 -0.2192 -0.1798 -0.1273
 8836WAT     H236065   4.917   2.145   6.946 -0.6296  0.7099 -0.2987
 8836WAT    EPW36066   4.857   2.124   6.992 -0.2378 -0.1130 -0.1408
 8837WAT      O36067   2.403   3.066   2.752 -0.1215 -0.6067 -0.1220
 8837WAT     H136068   2.343   3.018   2.794 -0.1736  0.5763  1.2549
 8837WAT     H236069   2.427   3.125   2.812  0.8830  0.2636 -1.3232
 8837WAT    EPW36070   2.397   3.068   2.767  0.0192 -0.3034 -0.0960
 8838WAT      O36071   4.515   2.727   2.237  0.2954 -0.6440  0.9080
 8838WAT     H136072   4.428   2.719   2.234  0.2384 -0.2356  1.3176
 8838WAT     H236073   4.537   2.681   2.308  0.2627  0.3668  1.5949
 8838WAT    EPW36074   4.505   2.719   2.247  0.2821 -0.4343  1.0700
 8839WAT      O36075   2.866   1.743   1.450 -0.0711  0.3524 -0.0344
 8839WAT     H136076   2.832   1.669   1.481  1.9885 -0.5406  0.2733
 8839WAT     H236077   2.846   1.802   1.512 -3.7402  0.7185 -1.3470
 8839WAT    EPW36078   2.858   1.741   1.464 -0.3089  0.2746 -0.1828
 8840WAT      O36079   3.175   2.296   0.305  0.1503 -0.0990 -0.3684
 8840WAT     H136080   3.235   2.266   0.249  0.8622  0.9805 -0.1973
 8840WAT     H236081   3.222   2.325   0.372 -0.6633 -0.8104  0.5339
 8840WAT    EPW36082   3.191   2.296   0.306  0.1353 -0.0446 -0.2098
 8841WAT      O36083   4.151   2.355   0.135 -0.3590  0.0028 -0.3670
 8841WAT     H136084   4.183   2.304   0.198 -1.0051  0.5798  0.4370
 8841WAT     H236085   4.153   2.304   0.064  1.2226 -0.3595 -0.0951
 8841WAT    EPW36086   4.156   2.340   0.134 -0.2208  0.0345 -0.2081
 8842WAT      O36087   3.967   3.402   0.667 -0.7591  0.5967 -0.3905
 8842WAT     H136088   3.963   3.461   0.731  0.8947  0.1420  0.1753
 8842WAT     H236089   3.897   3.420   0.618 -0.8544  2.3673  0.3253
 8842WAT    EPW36090   3.956   3.413   0.669 -0.5289  0.7911 -0.2012
 8843WAT      O36091   2.752   2.231   0.070  0.6626 -0.3091  0.2404
 8843WAT     H136092   2.799   2.199   0.136  1.7731  0.9152  0.0690
 8843WAT     H236093   2.793   2.201  -0.001 -0.7142 -1.8931  0.0434
 8843WAT    EPW36094   2.765   2.222   0.069  0.6232 -0.3623  0.1860
 8844WAT      O36095   2.565   4.225   0.061  0.4528 -0.9116 -0.0031
 8844WAT     H136096   2.596   4.287   0.008 -2.9370  0.3244 -0.7478
 8844WAT     H236097   2.606   4.153   0.034  0.0163 -0.0656 -3.3643
 8844WAT    EPW36098   2.576   4.224   0.049 -0.1124 -0.6041 -0.6096
 8845WAT      O36099   3.230   1.622   0.629 -0.2276  0.3463  0.7191
 8845WAT     H136100   3.163   1.566   0.626  0.9954 -1.1540 -0.4648
 8845WAT     H236101   3.266   1.605   0.707  0.4655 -1.0047  0.1465
 8845WAT    EPW36102   3.225   1.611   0.640  0.0555 -0.0749  0.4596
 8846WAT      O36103   2.517   2.113   0.050 -0.0022 -0.5286 -0.4272
 8846WAT     H136104   2.508   2.121  -0.036  0.3156 -0.9797 -0.5011
 8846WAT     H236105   2.591   2.157   0.067 -0.1767 -0.2605 -0.3549
 8846WAT    EPW36106   2.527   2.121   0.040  0.0190 -0.5556 -0.4274
 8847WAT      O36107   2.473   2.070   1.466  0.0383  0.1727  0.2480
 8847WAT     H136108   2.456   2.075   1.381  0.8073  0.2976  0.0939
 8847WAT     H236109   2.490   1.985   1.478 -1.7141 -0.1598  0.6179
 8847WAT    EPW36110   2.473   2.058   1.455 -0.1070  0.1421  0.2798
 8848WAT      O36111   3.824   2.454   7.331  0.4397 -0.3774  0.2617
 8848WAT     H136112   3.860   2.382   7.366  1.8953  0.4044  0.4348
 8848WAT     H236113   3.781   2.423   7.262 -1.5478 -1.8059  1.9980
 8848WAT    EPW36114   3.823   2.439   7.326  0.3611 -0.4729  0.5438
 8849WAT      O36115   3.421   2.997   1.399 -0.0956  0.1037  0.2527
 8849WAT     H136116   3.341   3.031   1.399 -0.7792 -1.4327  0.7574
 8849WAT     H236117   3.410   2.916   1.370  1.6119  0.4801 -1.7126
 8849WAT    EPW36118   3.408   2.990   1.395  0.0557 -0.0677  0.0369
 8850WAT      O36119   2.633   3.028   1.237 -0.1898  0.0496 -0.5008
 8850WAT     H136120   2.639   3.033   1.150 -0.3438  2.1795 -0.4536
 8850WAT     H236121   2.578   3.093   1.257  2.0599  1.5597  1.3594
 8850WAT    EPW36122   2.625   3.039   1.227  0.1198  0.5873 -0.2191
 8851WAT      O36123   2.085   2.189   2.409  0.4807  0.3563 -0.5152
 8851WAT     H136124   2.143   2.244   2.373  2.2114  0.3954  2.0070
 8851WAT     H236125   2.112   2.110   2.382 -0.5694  0.5201 -2.2217
 8851WAT    EPW36126   2.098   2.186   2.400  0.5812  0.3863 -0.3947
 8852WAT      O36127   2.760   1.877   1.681  0.3564  0.4464  0.2247
 8852WAT     H136128   2.786   1.815   1.737 -0.5603 -0.1135  0.0613
 8852WAT     H236129   2.678   1.854   1.662  0.3205  1.1843 -0.5850
 8852WAT    EPW36130   2.752   1.864   1.686  0.2157  0.4727  0.0809
 8853WAT      O36131   2.828   3.141   0.669  0.0066  0.0843 -0.0648
 8853WAT     H136132   2.799   3.060   0.655  0.2096 -0.0703  0.4017
 8853WAT     H236133   2.870   3.160   0.595  1.1443 -0.7572  0.3331
 8853WAT    EPW36134   2.830   3.132   0.656  0.2047 -0.0629  0.0629
 8854WAT      O36135   1.658   2.735   1.692  0.3162  0.3882 -0.5459
 8854WAT     H136136   1.685   2.652   1.692  1.1250  0.6341  0.1249
 8854WAT     H236137   1.728   2.779   1.720 -0.3964  1.1928  0.0244
 8854WAT    EPW36138   1.673   2.729   1.696  0.3304  0.5434 -0.3625
 8855WAT      O36139   2.823   2.967   1.413  0.2469 -0.2030  0.0282
 8855WAT     H136140   2.886   2.929   1.366  0.7539 -0.1579  0.6657
 8855WAT     H236141   2.766   2.994   1.353  0.2575 -1.2782 -0.4927
 8855WAT    EPW36142   2.824   2.965   1.397  0.3234 -0.3552  0.0454
 8856WAT      O36143   2.864   2.989   1.825 -1.0706  0.4844  0.4631
 8856WAT     H136144   2.813   2.934   1.869 -1.1968  1.8609  2.1611
 8856WAT     H236145   2.907   3.032   1.888  2.0940 -0.4507 -0.8424
 8856WAT    EPW36146   2.863   2.987   1.841 -0.6218  0.5496  0.5211
 8857WAT      O36147   3.860   1.001   0.754 -0.1762 -0.4040 -0.0754
 8857WAT     H136148   3.882   1.059   0.815  0.2970 -0.5286 -0.1268
 8857WAT     H236149   3.856   0.925   0.797 -0.3554 -0.4070 -0.0967
 8857WAT    EPW36150   3.862   0.998   0.769 -0.1328 -0.4229 -0.0862
 8858WAT      O36151   2.890   2.059   1.248 -0.2979 -0.8038  0.0562
 8858WAT     H136152   2.901   2.084   1.330  1.2724 -0.6224 -0.1804
 8858WAT     H236153   2.870   2.133   1.206 -1.1024 -0.8973  0.2604
 8858WAT    EPW36154   2.888   2.074   1.254 -0.1848 -0.7908  0.0514
 8859WAT      O36155   2.813   1.286   0.609 -0.8140  0.1853 -0.0855
 8859WAT     H136156   2.807   1.241   0.683  0.4627  0.4466  0.1936
 8859WAT     H236157   2.812   1.224   0.547 -0.3528 -0.1391  0.2271
 8859WAT    EPW36158   2.812   1.270   0.611 -0.5573  0.1760  0.0019
 8860WAT      O36159   3.383   2.616   1.898  0.2852  0.6046  0.2132
 8860WAT     H136160   3.316   2.651   1.855  0.4718  0.9587  0.2138
 8860WAT     H236161   3.452   2.640   1.852  0.5169  1.2909  0.9138
 8860WAT    EPW36162   3.383   2.625   1.885  0.3470  0.7583  0.3168
 8861WAT      O36163   4.560   1.773   2.187  0.0245 -0.3791  0.1220
 8861WAT     H136164   4.493   1.787   2.241  0.4147  2.6258  0.0134
 8861WAT     H236165   4.530   1.713   2.132 -2.4610  0.5496  0.3313
 8861WAT    EPW36166   4.546   1.766   2.187 -0.2850  0.2020  0.1369
 8862WAT      O36167   2.340   2.013   1.948  0.0350  0.0231  0.3802
 8862WAT     H136168   2.367   2.058   1.878  1.7169 -0.4978  0.6611
 8862WAT     H236169   2.380   1.936   1.940 -1.9367 -1.0602  0.4985
 8862WAT    EPW36170   2.350   2.009   1.937 -0.0078 -0.2139  0.4391
 8863WAT      O36171   4.189   0.194   7.793  0.2707  0.0234  0.4225
 8863WAT     H136172   4.169   0.205   7.709 -0.2538 -0.2684  0.5076
 8863WAT     H236173   4.260   0.244   7.804  0.2490  0.1829 -0.1530
 8863WAT    EPW36174   4.197   0.203   7.783  0.1900  0.0039  0.3501
 8864WAT      O36175   3.466   1.877   0.802  0.3882 -0.1066  0.5211
 8864WAT     H136176   3.541   1.842   0.774  0.5070  1.2149 -0.9728
 8864WAT     H236177   3.489   1.927   0.869  0.6951 -0.4259  0.6550
 8864WAT    EPW36178   3.480   1.879   0.808  0.4511  0.0415  0.3202
 8865WAT      O36179   3.865   1.985   1.349  0.0099 -0.5955  0.0994
 8865WAT     H136180   3.906   1.920   1.390  0.9586 -0.1901 -0.1652
 8865WAT     H236181   3.919   2.004   1.283 -0.4436  0.1907 -0.0553
 8865WAT    EPW36182   3.879   1.978   1.346  0.0830 -0.4194  0.0374
 8866WAT      O36183   4.181   3.056   1.400 -0.3539  0.3142 -0.0617
 8866WAT     H136184   4.229   3.013   1.341 -1.2140  1.9590 -2.1053
 8866WAT     H236185   4.099   3.045   1.371 -0.8573  0.7516  1.1409
 8866WAT    EPW36186   4.176   3.048   1.387 -0.5553  0.6218 -0.1859
 8867WAT      O36187   3.195   1.362   1.221 -0.0871 -0.2037 -0.3161
 8867WAT     H136188   3.207   1.441   1.188 -0.0311  0.2627  0.7828
 8867WAT     H236189   3.275   1.327   1.220  0.0609  0.1184  0.0939
 8867WAT    EPW36190   3.208   1.368   1.216 -0.0569 -0.0872 -0.0932
 8868WAT      O36191   3.684   0.873   1.052 -0.7306 -0.3738 -0.2695
 8868WAT     H136192   3.727   0.855   1.126 -2.3732 -0.7010  0.6516
 8868WAT     H236193   3.652   0.953   1.065 -0.2591 -0.0408 -1.0385
 8868WAT    EPW36194   3.686   0.882   1.065 -0.9036 -0.3729 -0.2470
 8869WAT      O36195   2.643   5.225   0.082  0.1970  0.0592  0.0095
 8869WAT     H136196   2.594   5.283   0.040  0.2216  0.3758  0.4082
 8869WAT     H236197   2.586   5.162   0.103  0.1984 -0.1316 -0.5475
 8869WAT    EPW36198   2.627   5.224   0.079  0.2009  0.0778 -0.0139
 8870WAT      O36199   3.615   2.314   1.879  0.2816  0.7748  0.2501
 8870WAT     H136200   3.691   2.273   1.866  0.3413  0.0858  2.3054
 8870WAT     H236201   3.639   2.396   1.894  0.8378  0.3405  2.1160
 8870WAT    EPW36202   3.630   2.320   1.880  0.3726  0.6089  0.8294
 8871WAT      O36203   3.047   4.891   1.793 -0.0214  0.1212 -0.0335
 8871WAT     H136204   3.095   4.947   1.839 -1.4970  0.7100  0.8722
 8871WAT     H236205   3.101   4.825   1.777  0.9758  0.5988  1.2315
 8871WAT    EPW36206   3.062   4.890   1.797 -0.0921  0.2787  0.2871
 8872WAT      O36207   4.316   1.829   2.314  0.2365 -0.3395  0.2326
 8872WAT     H136208   4.250   1.883   2.295  1.9909  1.2675 -1.7256
 8872WAT     H236209   4.344   1.857   2.392  1.2992  1.8912 -0.8688
 8872WAT    EPW36210   4.310   1.841   2.323  0.6526  0.2274 -0.2193
 8873WAT      O36211   1.824   0.862   0.254  0.4172 -0.5451 -0.2697
 8873WAT     H136212   1.773   0.808   0.301 -0.1096  0.5882  0.5117
 8873WAT     H236213   1.791   0.941   0.271  2.6528  0.2821  0.5751
 8873WAT    EPW36214   1.812   0.865   0.264  0.6696 -0.2555 -0.0295
 8874WAT      O36215   3.058   2.475   0.887  0.1903  0.6503  0.0752
 8874WAT     H136216   3.083   2.539   0.832 -0.3205 -0.8812 -2.0778
 8874WAT     H236217   3.119   2.414   0.876 -0.4255 -0.0535  0.5324
 8874WAT    EPW36218   3.070   2.476   0.877  0.0239  0.3201 -0.1753
 8875WAT      O36219   1.213   2.220   7.589  0.0430 -0.9436 -0.7996
 8875WAT     H136220   1.148   2.210   7.647 -0.0195 -1.8874 -1.0037
 8875WAT     H236221   1.254   2.292   7.616 -0.5048 -0.8852 -0.0883
 8875WAT    EPW36222   1.209   2.229   7.602 -0.0472 -1.0744 -0.7247
 8876WAT      O36223   3.124   1.540   7.518 -0.2009 -0.3444 -0.4355
 8876WAT     H136224   3.163   1.545   7.596  1.5688  0.3429 -1.3065
 8876WAT     H236225   3.073   1.610   7.515  1.7830  1.1739 -0.8870
 8876WAT    EPW36226   3.123   1.551   7.529  0.3536 -0.0186 -0.6309
 8877WAT      O36227   3.352   1.969   7.327  0.1524  0.4137 -0.4873
 8877WAT     H136228   3.294   1.905   7.315  0.9592 -0.3150 -0.6168
 8877WAT     H236229   3.341   1.992   7.410  0.2227 -0.2589 -0.2941
 8877WAT    EPW36230   3.342   1.963   7.337  0.2820  0.2067 -0.4779
 8878WAT      O36231   4.441   2.529   0.743 -0.0673  0.4633  0.4381
 8878WAT     H136232   4.387   2.597   0.753  0.3668  0.9443 -0.3500
 8878WAT     H236233   4.413   2.492   0.668  0.3631  0.4034  0.3061
 8878WAT    EPW36234   4.429   2.533   0.733  0.0604  0.5255  0.3022
 8879WAT      O36235   1.243   4.248   1.252 -0.2627  0.3773  0.7009
 8879WAT     H136236   1.288   4.262   1.179  2.2359 -1.0444  1.8305
 8879WAT     H236237   1.195   4.177   1.233 -1.2336  1.2247 -0.1494
 8879WAT    EPW36238   1.242   4.239   1.238 -0.0370  0.2924  0.7422
 8880WAT      O36239   2.293   2.953   1.347  0.7127  0.1590 -0.6146
 8880WAT     H136240   2.284   2.928   1.264  0.5301 -3.0344  0.2309
 8880WAT     H236241   2.216   2.934   1.383  0.8990  1.1656  0.4086
 8880WAT    EPW36242   2.280   2.947   1.340  0.7132 -0.1640 -0.3386
 8881WAT      O36243   1.528   2.646   6.710 -0.0273 -0.0172  0.0640
 8881WAT     H136244   1.544   2.595   6.779 -1.3571 -1.8255 -0.8772
 8881WAT     H236245   1.444   2.631   6.692  0.2962  0.2886 -2.0032
 8881WAT    EPW36246   1.518   2.636   6.717 -0.1759 -0.2391 -0.3804
 8882WAT      O36247   5.135   4.279   7.472 -0.2580 -0.3704  0.2822
 8882WAT     H136248   5.204   4.228   7.457  0.3021  0.2475  0.7111
 8882WAT     H236249   5.068   4.223   7.470  0.2522 -0.9883 -0.0925
 8882WAT    EPW36250   5.135   4.263   7.469 -0.0999 -0.3704  0.2902
 8883WAT      O36251   2.383   2.575   7.790 -0.0783 -0.3699  0.0726
 8883WAT     H136252   2.453   2.627   7.783  0.4391 -0.9827  0.4756
 8883WAT     H236253   2.321   2.617   7.746  0.6170  0.0670 -0.5159
 8883WAT    EPW36254   2.384   2.589   7.783  0.1008 -0.3959  0.0452
 8884WAT      O36255   3.454   2.638   0.824  0.3163 -0.2051  0.2365
 8884WAT     H136256   3.491   2.577   0.875  1.5164 -0.4280 -0.8306
 8884WAT     H236257   3.519   2.660   0.769 -1.4672 -1.5587 -2.6248
 8884WAT    EPW36258   3.469   2.632   0.824  0.2301 -0.4380 -0.3438
 8885WAT      O36259   2.130   3.839   2.454  0.1694  0.8457  0.2714
 8885WAT     H136260   2.045   3.828   2.470  0.1644 -0.3259 -0.4416
 8885WAT     H236261   2.155   3.763   2.419  1.6558  0.9329  1.0386
 8885WAT    EPW36262   2.121   3.826   2.451  0.3882  0.6855  0.2794
 8886WAT      O36263   3.783   2.875   2.097  0.0777 -0.4581  0.7931
 8886WAT     H136264   3.762   2.953   2.128  1.0208  0.1945 -0.1476
 8886WAT     H236265   3.718   2.824   2.125  0.4890  0.1951  3.1923
 8886WAT    EPW36266   3.770   2.879   2.106  0.2778 -0.2652  1.0086
 8887WAT      O36267   3.272   3.011   0.093 -0.1801  0.5471  0.1678
 8887WAT     H136268   3.185   3.005   0.096 -0.0940 -2.6323 -0.1545
 8887WAT     H236269   3.291   3.000   0.009  0.5390  0.0301  0.3851
 8887WAT    EPW36270   3.262   3.008   0.081 -0.0612  0.0011  0.1523
 8888WAT      O36271   3.608   1.137   1.079  0.0253 -0.2605 -0.1980
 8888WAT     H136272   3.543   1.161   1.131 -0.0616 -0.1609 -0.3502
 8888WAT     H236273   3.652   1.211   1.065  0.8598 -0.5443  0.8472
 8888WAT    EPW36274   3.605   1.152   1.084  0.1357 -0.2877 -0.0661
 8889WAT      O36275   3.011   2.518   1.910 -0.4444 -0.0101  0.2445
 8889WAT     H136276   2.981   2.570   1.973  0.7741 -0.1396  0.9652
 8889WAT     H236277   2.992   2.438   1.939 -1.7991 -0.0237 -0.5916
 8889WAT    EPW36278   3.004   2.514   1.924 -0.4645 -0.0312  0.2274
 8890WAT      O36279   2.570   2.106   0.676 -0.7383  0.0969 -0.1859
 8890WAT     H136280   2.526   2.178   0.653 -0.4172 -0.2558 -2.1003
 8890WAT     H236281   2.596   2.123   0.757  0.3164  2.6604 -0.9689
 8890WAT    EPW36282   2.567   2.119   0.685 -0.5351  0.4235 -0.5843
 8891WAT      O36283   4.071   2.524   2.828  0.1083 -0.1439 -0.2582
 8891WAT     H136284   4.067   2.481   2.903  1.6101 -3.2417 -1.7591
 8891WAT     H236285   4.098   2.464   2.771  0.9000  2.4829 -2.9379
 8891WAT    EPW36286   4.075   2.509   2.830  0.4471 -0.2135 -0.8758
 8892WAT      O36287   3.272   1.959   0.622  0.5208 -0.4683 -0.2800
 8892WAT     H136288   3.325   1.997   0.564  1.3391 -0.9475  0.1300
 8892WAT     H236289   3.327   1.931   0.684 -0.3562  0.4086  0.9473
 8892WAT    EPW36290   3.288   1.960   0.623  0.5121 -0.4095 -0.0381
 8893WAT      O36291   3.684   3.088   0.566  0.2741  0.5732  0.3236
 8893WAT     H136292   3.716   3.119   0.641  0.3317 -1.1552  1.0621
 8893WAT     H236293   3.603   3.063   0.586  0.4223 -0.2643 -0.0577
 8893WAT    EPW36294   3.677   3.089   0.580  0.3045  0.1942  0.3763
 8894WAT      O36295   3.317   3.356   0.409 -0.1258  0.3546  0.6099
 8894WAT     H136296   3.293   3.272   0.403 -0.0450  0.3905 -0.2967
 8894WAT     H236297   3.404   3.353   0.415 -0.0897  0.3932  0.1139
 8894WAT    EPW36298   3.326   3.343   0.409 -0.1085  0.3656  0.4027
 8895WAT      O36299   2.984   2.474   1.167 -0.1967 -0.1226 -0.3112
 8895WAT     H136300   3.022   2.473   1.089 -0.3796  3.6377 -0.6359
 8895WAT     H236301   3.051   2.483   1.223 -0.0963 -2.4157  0.0213
 8895WAT    EPW36302   2.999   2.476   1.164 -0.2089  0.0941 -0.3100
 8896WAT      O36303   3.542   1.979   1.050  0.4523  0.3053  0.7963
 8896WAT     H136304   3.504   1.907   1.083  0.2343 -0.6891 -1.4169
 8896WAT     H236305   3.483   2.042   1.066  0.6433  0.0305  2.7642
 8896WAT    EPW36306   3.527   1.978   1.057  0.4483  0.1178  0.7601
 8897WAT      O36307   3.274   1.994   7.622  0.0936 -0.1560  0.3413
 8897WAT     H136308   3.321   1.989   7.696 -0.3082 -0.0363  0.6030
 8897WAT     H236309   3.196   1.964   7.645  0.0821 -0.5048 -0.1364
 8897WAT    EPW36310   3.270   1.989   7.636  0.0325 -0.1898  0.3094
 8898WAT      O36311   1.429   2.807   0.482  0.3496  0.1370  0.2412
 8898WAT     H136312   1.474   2.762   0.542  1.7911 -0.8918 -1.5094
 8898WAT     H236313   1.399   2.876   0.526  1.1814 -0.6671  2.1683
 8898WAT    EPW36314   1.431   2.811   0.498  0.6854 -0.1338  0.2672
 8899WAT      O36315   3.371   1.610   0.875 -0.0947  0.0322  0.5814
 8899WAT     H136316   3.388   1.696   0.866 -0.1777 -0.1373 -1.6499
 8899WAT     H236317   3.448   1.573   0.858 -0.6291 -0.3997 -1.0863
 8899WAT    EPW36318   3.385   1.617   0.871 -0.1859 -0.0566  0.0054
 8900WAT      O36319   4.884   0.504   0.382 -0.1482  0.2210 -0.2623
 8900WAT     H136320   4.839   0.495   0.308 -1.5183 -0.2650  0.5933
 8900WAT     H236321   4.962   0.533   0.356 -1.0806  1.5034 -1.7821
 8900WAT    EPW36322   4.889   0.507   0.367 -0.4884  0.3386 -0.3604
 8901WAT      O36323   3.619   1.923   1.800  0.0300  0.5040  0.7825
 8901WAT     H136324   3.554   1.936   1.742  0.3459 -0.8663  0.0818
 8901WAT     H236325   3.590   1.963   1.872 -0.6821  1.6695 -0.1096
 8901WAT    EPW36326   3.605   1.931   1.802 -0.0285  0.4738  0.5472
 8902WAT      O36327   3.717   1.370   1.714  0.2961  0.1710  0.8360
 8902WAT     H136328   3.769   1.424   1.759  0.0902  0.2802  0.9495
 8902WAT     H236329   3.709   1.301   1.767  0.3289  0.1524  0.8167
 8902WAT    EPW36330   3.723   1.368   1.729  0.2705  0.1844  0.8499
 8903WAT      O36331   2.670   2.830   1.956 -0.4321 -0.0664  0.4699
 8903WAT     H136332   2.634   2.905   1.983 -0.8032  0.0898 -0.4235
 8903WAT     H236333   2.602   2.781   1.934 -0.3262 -1.4974  2.9682
 8903WAT    EPW36334   2.655   2.834   1.957 -0.4713 -0.2547  0.7070
 8904WAT      O36335   3.930   0.279   0.724 -0.2000 -0.2949 -0.8200
 8904WAT     H136336   3.989   0.258   0.785  0.1496 -1.5105 -1.5436
 8904WAT     H236337   3.866   0.221   0.736 -0.9433  0.5642 -0.5028
 8904WAT    EPW36338   3.929   0.268   0.735 -0.2582 -0.3475 -0.8800
 8905WAT      O36339   3.075   0.480   7.806  0.7967  0.6377  0.1535
 8905WAT     H136340   3.105   0.554   7.772 -0.4377  0.3850 -1.6252
 8905WAT     H236341   3.119   0.418   7.762  0.2058  0.3164 -0.0074
 8905WAT    EPW36342   3.086   0.482   7.795  0.5270  0.5529 -0.1330
 8906WAT      O36343   2.197   3.667   0.558 -0.1957  0.5046 -0.1535
 8906WAT     H136344   2.139   3.719   0.597 -0.8620  0.1563 -0.6587
 8906WAT     H236345   2.265   3.666   0.614 -0.3488  1.5398  0.0686
 8906WAT    EPW36346   2.199   3.674   0.572 -0.3167  0.6061 -0.1953
 8907WAT      O36347   2.730   2.889   2.408 -0.3234  0.4224  0.3742
 8907WAT     H136348   2.790   2.952   2.404 -0.3521  0.3738 -1.2396
 8907WAT     H236349   2.654   2.932   2.402 -0.3215  0.2017 -2.3022
 8907WAT    EPW36350   2.727   2.904   2.407 -0.3274  0.3826 -0.2595
 8908WAT      O36351   3.352   0.985   2.610  0.2965  0.4620 -0.1303
 8908WAT     H136352   3.306   0.981   2.684  0.0595  0.3943 -0.2810
 8908WAT     H236353   3.291   0.997   2.549  0.4008 -0.5340 -0.4376
 8908WAT    EPW36354   3.336   0.986   2.612  0.2769  0.3049 -0.1979
 8909WAT      O36355   3.752   2.651   6.221  0.3352 -0.1853  1.1457
 8909WAT     H136356   3.717   2.729   6.242  1.4286 -0.2080  3.2828
 8909WAT     H236357   3.832   2.671   6.193  0.6297 -0.5141  1.7258
 8909WAT    EPW36358   3.758   2.666   6.220  0.5402 -0.2372  1.5471
 8910WAT      O36359   1.742   7.521   1.686  0.0862 -0.0096  0.2908
 8910WAT     H136360   1.771   7.537   1.605 -2.1930  0.2275 -0.5523
 8910WAT     H236361   1.712   7.440   1.682  0.1644 -0.0829  0.9816
 8910WAT    EPW36362   1.742   7.512   1.674 -0.2389  0.0146  0.2683
 8911WAT      O36363   3.628   1.095   0.641  0.4158 -0.1976 -0.0705
 8911WAT     H136364   3.661   1.095   0.560 -1.0531 -1.8755 -0.7311
 8911WAT     H236365   3.682   1.043   0.685  0.1581 -0.8165 -0.4743
 8911WAT    EPW36366   3.641   1.087   0.635  0.1608 -0.5369 -0.2277
 8912WAT      O36367   4.778   1.479   0.882 -0.1048  0.4124 -0.5470
 8912WAT     H136368   4.696   1.458   0.862 -0.1527 -1.0097  0.9361
 8912WAT     H236369   4.825   1.441   0.820 -0.5616  1.4580 -1.5564
 8912WAT    EPW36370   4.773   1.470   0.870 -0.1793  0.3568 -0.4770
 8913WAT      O36371   2.114   1.789   2.679  0.1181 -0.5169 -0.0920
 8913WAT     H136372   2.055   1.854   2.684  0.9694  0.2051  1.2151
 8913WAT     H236373   2.120   1.774   2.594 -1.6131 -0.3073 -0.2992
 8913WAT    EPW36374   2.106   1.797   2.668 -0.0119 -0.3793  0.0705
 8914WAT      O36375   5.121   2.371   1.074  0.2496 -0.1582 -0.5552
 8914WAT     H136376   5.050   2.421   1.082  1.3806  1.4615 -0.0369
 8914WAT     H236377   5.101   2.299   1.118 -1.2626  0.0355 -0.8871
 8914WAT    EPW36378   5.108   2.368   1.081  0.1933  0.1097 -0.5277
 8915WAT      O36379   1.840   1.296   0.954 -0.3894 -0.7390 -0.4893
 8915WAT     H136380   1.891   1.225   0.948 -0.3428 -0.8770  1.0120
 8915WAT     H236381   1.786   1.276   1.019 -1.8845 -0.2776 -1.5433
 8915WAT    EPW36382   1.840   1.283   0.963 -0.6034 -0.6913 -0.4232
 8916WAT      O36383   3.924   1.162   0.152  0.2554  0.2186 -0.6565
 8916WAT     H136384   3.925   1.125   0.073 -0.3941 -2.4457  0.4790
 8916WAT     H236385   3.999   1.134   0.188 -0.5331 -0.5957  0.4447
 8916WAT    EPW36386   3.936   1.152   0.146  0.0429 -0.2953 -0.3261
 8917WAT      O36387   3.505   0.707   7.699  0.5298 -0.5175 -0.1112
 8917WAT     H136388   3.528   0.689   7.617  1.6874 -0.4325  0.1826
 8917WAT     H236389   3.466   0.633   7.725 -0.5210 -0.2838 -0.9614
 8917WAT    EPW36390   3.503   0.693   7.691  0.5456 -0.4704 -0.1934
 8918WAT      O36391   5.082   2.791   3.500  0.1278 -0.3362 -0.5828
 8918WAT     H136392   5.074   2.871   3.533 -0.0597  0.1025 -1.6336
 8918WAT     H236393   5.003   2.774   3.466 -0.5486 -1.9162  1.5773
 8918WAT    EPW36394   5.069   2.800   3.500  0.0002 -0.5048 -0.4190
 8919WAT      O36395   2.527   1.773   2.117 -0.3899  0.0549 -0.2184
 8919WAT     H136396   2.583   1.707   2.131 -0.5801  0.1428  1.0651
 8919WAT     H236397   2.577   1.836   2.086  0.7132  0.8752  2.8709
 8919WAT    EPW36398   2.542   1.772   2.115 -0.2551  0.1890  0.4276
 8920WAT      O36399   3.819   4.146   0.569  0.0519 -0.0831 -0.1254
 8920WAT     H136400   3.850   4.104   0.639 -0.0323  0.4073  0.2102
 8920WAT     H236401   3.796   4.224   0.600  0.8000  0.4481 -0.8574
 8920WAT    EPW36402   3.821   4.151   0.584  0.1500  0.0678 -0.1840
 8921WAT      O36403   2.073   1.354   6.487  0.6337  0.7285  0.8524
 8921WAT     H136404   2.076   1.347   6.574  0.4470  0.5429  0.8460
 8921WAT     H236405   2.150   1.389   6.466 -0.0831  2.6780  1.2700
 8921WAT    EPW36406   2.085   1.358   6.497  0.5002  0.9891  0.9131
 8922WAT      O36407   2.951   2.941   0.929 -0.1310  0.0647 -0.1036
 8922WAT     H136408   2.944   2.857   0.953  0.5511 -0.3796 -1.3386
 8922WAT     H236409   2.990   2.979   0.997 -1.6436 -0.3135  1.0297
 8922WAT    EPW36410   2.955   2.934   0.942 -0.2537 -0.0568 -0.1186
 8923WAT      O36411   3.547   1.490   2.180 -0.0636  0.7987  0.0017
 8923WAT     H136412   3.519   1.545   2.242  0.8103 -0.2549  1.3848
 8923WAT     H236413   3.623   1.525   2.154 -0.0676  0.8378  0.0423
 8923WAT    EPW36414   3.554   1.503   2.185  0.0649  0.6488  0.2120
 8924WAT      O36415   2.724   4.001   7.784 -0.1526  0.2626  0.3841
 8924WAT     H136416   2.756   4.005   7.703 -0.6230 -0.1532  0.1714
 8924WAT     H236417   2.699   3.918   7.792  0.9668 -0.0113  1.3780
 8924WAT    EPW36418   2.725   3.989   7.774 -0.0567  0.1607  0.4995
 8925WAT      O36419   3.347   1.276   1.549  0.4192 -0.1988 -0.4295
 8925WAT     H136420   3.278   1.321   1.520  1.1494 -0.2765 -2.4556
 8925WAT     H236421   3.312   1.210   1.592 -0.7811 -0.0002 -1.0652
 8925WAT    EPW36422   3.332   1.273   1.551  0.3497 -0.1809 -0.8227
 8926WAT      O36423   3.131   2.379   7.812  0.8595 -0.3702 -0.5561
 8926WAT     H136424   3.087   2.316   7.853 -1.1550  0.1835 -1.7166
 8926WAT     H236425   3.167   2.338   7.744  1.4876 -0.6725 -0.0516
 8926WAT    EPW36426   3.130   2.364   7.808  0.6547 -0.3330 -0.6530
 8927WAT      O36427   2.874   2.300   0.769 -0.7906  0.2822  0.1899
 8927WAT     H136428   2.803   2.350   0.775 -1.4488 -0.4720 -0.8255
 8927WAT     H236429   2.937   2.349   0.804 -0.9392  2.7397 -2.5306
 8927WAT    EPW36430   2.873   2.315   0.775 -0.9098  0.5338 -0.3620
 8928WAT      O36431   3.101   1.882   3.185  0.2635  0.2363  0.1580
 8928WAT     H136432   3.108   1.894   3.099  0.5280 -0.0006  0.1461
 8928WAT     H236433   3.132   1.957   3.218  1.1130 -0.0623  0.0639
 8928WAT    EPW36434   3.107   1.895   3.177  0.4281  0.1572  0.1423
 8929WAT      O36435   3.738   2.734   0.791  0.2778 -0.3232 -0.5296
 8929WAT     H136436   3.768   2.788   0.729  1.4320  1.2034  1.2774
 8929WAT     H236437   3.683   2.784   0.836 -0.5250 -1.4105 -0.2758
 8929WAT    EPW36438   3.734   2.749   0.788  0.3297 -0.2583 -0.2251
 8930WAT      O36439   2.732   2.294   1.151 -0.2371  0.0444  0.0397
 8930WAT     H136440   2.673   2.327   1.207  0.4809  1.0222  0.2494
 8930WAT     H236441   2.799   2.350   1.157  1.3283 -1.8267  0.9107
 8930WAT    EPW36442   2.733   2.307   1.160  0.1002 -0.0875  0.1993
 8931WAT      O36443   5.131   1.904   2.024 -0.1261 -0.4511 -0.4426
 8931WAT     H136444   5.180   1.832   2.033 -0.1022 -0.4937 -0.9142
 8931WAT     H236445   5.185   1.969   2.048  1.0139 -0.2296 -3.3039
 8931WAT    EPW36446   5.146   1.903   2.029  0.0459 -0.4247 -0.9350
 8932WAT      O36447   1.120   2.616   1.442  0.2555  0.1696  0.3648
 8932WAT     H136448   1.160   2.684   1.405  1.2473 -0.6027 -0.0184
 8932WAT     H236449   1.040   2.646   1.458  0.9816  1.7802  1.2084
 8932WAT    EPW36450   1.114   2.631   1.439  0.5093  0.2934  0.4328
 8933WAT      O36451   3.075   1.146   0.252 -0.0810 -0.1596 -0.3899
 8933WAT     H136452   3.090   1.137   0.167  1.3492 -0.7404 -0.0961
 8933WAT     H236453   3.081   1.232   0.264  0.3131 -0.1328 -0.7619
 8933WAT    EPW36454   3.078   1.157   0.241  0.1885 -0.2414 -0.4014
 8934WAT      O36455   3.877   2.504   7.844 -0.4076  0.2495 -0.5348
 8934WAT     H136456   3.898   2.585   7.822  0.5310 -0.1385 -1.1254
 8934WAT     H236457   3.944   2.456   7.814  0.0013 -0.5398  1.4785
 8934WAT    EPW36458   3.890   2.509   7.836 -0.2085  0.0756 -0.3247
 8935WAT      O36459   2.179   2.665   7.610  0.6843  0.3236  0.7667
 8935WAT     H136460   2.108   2.641   7.655 -0.9598  1.2756 -1.1343
 8935WAT     H236461   2.180   2.752   7.619  1.5204  0.3336  0.6395
 8935WAT    EPW36462   2.168   2.674   7.618  0.5649  0.4657  0.4671
 8936WAT      O36463   1.850   3.092   0.336  0.3582  0.4537 -0.6512
 8936WAT     H136464   1.869   3.089   0.251 -1.4916 -0.8672 -1.0961
 8936WAT     H236465   1.796   3.024   0.347 -0.8938  1.6430  1.1837
 8936WAT    EPW36466   1.845   3.081   0.325 -0.1000  0.4342 -0.4459
 8937WAT      O36467   3.208   1.772   1.707 -0.1605  0.1597  0.1771
 8937WAT     H136468   3.220   1.749   1.623 -1.9473 -1.0078  0.1798
 8937WAT     H236469   3.287   1.796   1.733  0.4888  0.3344 -1.7900
 8937WAT    EPW36470   3.221   1.772   1.698 -0.3286  0.0130 -0.1130
 8938WAT      O36471   1.508   7.646   1.750 -0.2424  0.5046 -0.1419
 8938WAT     H136472   1.468   7.626   1.676 -0.9735  0.8707  0.1488
 8938WAT     H236473   1.589   7.615   1.739 -0.6213 -0.3042 -0.7060
 8938WAT    EPW36474   1.514   7.638   1.738 -0.4063  0.4392 -0.1823
 8939WAT      O36475   3.437   1.087   0.839 -0.0576  0.4543  0.1898
 8939WAT     H136476   3.497   1.070   0.778 -1.2254 -1.1567 -0.6067
 8939WAT     H236477   3.483   1.098   0.912  1.2099 -1.3807 -0.2535
 8939WAT    EPW36478   3.453   1.086   0.841 -0.0429 -0.0548  0.0067
 8940WAT      O36479   2.149   1.961   0.851 -0.7714  0.1649  0.7543
 8940WAT     H136480   2.100   2.012   0.800 -2.1690 -0.2205  1.6731
 8940WAT     H236481   2.213   2.014   0.878  0.1386  0.3506 -1.4870
 8940WAT    EPW36482   2.151   1.976   0.847 -0.8435  0.1354  0.5590
 8941WAT      O36483   2.173   2.315   0.063  0.2020 -0.0370  0.0874
 8941WAT     H136484   2.212   2.384   0.028  0.8008  0.0123  0.8153
 8941WAT     H236485   2.145   2.269  -0.005  0.5584  0.4928 -0.4176
 8941WAT    EPW36486   2.175   2.318   0.048  0.3431  0.0485  0.1203
 8942WAT      O36487   4.378   0.328   0.889 -0.3151 -0.4411  0.3334
 8942WAT     H136488   4.425   0.400   0.903  2.4299 -1.8604 -0.7227
 8942WAT     H236489   4.378   0.321   0.802  0.0777 -2.0560  0.4378
 8942WAT    EPW36490   4.385   0.338   0.878  0.1484 -0.8893  0.1928
 8943WAT      O36491   3.554   1.212   2.150  0.2317  0.2426 -0.4584
 8943WAT     H136492   3.559   1.295   2.177 -1.0398  0.0422  0.4632
 8943WAT     H236493   3.602   1.169   2.209  1.9534  0.4222 -1.6398
 8943WAT    EPW36494   3.562   1.218   2.163  0.2982  0.2396 -0.4968
 8944WAT      O36495   3.018   2.810   1.331 -0.1911  0.2109  0.0376
 8944WAT     H136496   3.103   2.817   1.312 -0.2883  0.3244 -0.3670
 8944WAT     H236497   3.016   2.755   1.398  0.1485 -0.3882 -0.4316
 8944WAT    EPW36498   3.030   2.803   1.338 -0.1553  0.1391 -0.0915
 8945WAT      O36499   1.805   1.642   0.581  0.2202 -0.3049  0.4517
 8945WAT     H136500   1.809   1.598   0.505 -1.7335 -0.4663  0.4009
 8945WAT     H236501   1.883   1.679   0.587  0.7018 -0.9549 -1.2469
 8945WAT    EPW36502   1.817   1.641   0.571  0.0028 -0.4248  0.1933
 8946WAT      O36503   1.499   3.540   0.687  0.1918  0.2545 -0.1272
 8946WAT     H136504   1.504   3.532   0.601 -0.1475 -1.2684 -0.0263
 8946WAT     H236505   1.580   3.566   0.709  0.7691 -0.8840 -0.7735
 8946WAT    EPW36506   1.512   3.543   0.678  0.2270 -0.1386 -0.2077
 8947WAT      O36507   3.281   2.801   0.272  0.1055 -0.1260  0.0828
 8947WAT     H136508   3.242   2.731   0.239  0.9748  0.1118 -1.5310
 8947WAT     H236509   3.297   2.851   0.203  1.6664  0.5859  0.8935
 8947WAT    EPW36510   3.278   2.798   0.257  0.4645  0.0143 -0.0358
 8948WAT      O36511   2.525   3.171   2.300  0.7831  0.1610 -0.1588
 8948WAT     H136512   2.467   3.162   2.365  1.2554 -1.4237  0.0726
 8948WAT     H236513   2.597   3.201   2.340  0.3452  1.6106 -0.3692
 8948WAT    EPW36514   2.527   3.174   2.315  0.7882  0.1410 -0.1557
 8949WAT      O36515   4.716   1.611   2.360  0.0772 -0.0939 -0.0886
 8949WAT     H136516   4.653   1.561   2.394 -0.2336  0.1720 -0.2651
 8949WAT     H236517   4.675   1.655   2.296  0.3386  0.4061  0.0845
 8949WAT    EPW36518   4.701   1.610   2.355  0.0699  0.0192 -0.0891
 8950WAT      O36519   1.802   2.297   1.286  0.2727 -0.2171  0.8534
 8950WAT     H136520   1.771   2.373   1.257  1.9932  0.4059  0.5310
 8950WAT     H236521   1.825   2.255   1.213  0.4443 -0.5436  1.0903
 8950WAT    EPW36522   1.801   2.302   1.271  0.5522 -0.1733  0.8408
 8951WAT      O36523   3.876   4.001   0.842 -0.3719 -0.5493  0.2806
 8951WAT     H136524   3.953   3.980   0.807  0.8552  2.7722  0.6060
 8951WAT     H236525   3.897   4.049   0.911 -2.7221  0.7712  0.1965
 8951WAT    EPW36526   3.890   4.005   0.847 -0.5378  0.1364  0.3162
 8952WAT      O36527   3.547   2.918   1.950  0.7049  0.3836  0.3254
 8952WAT     H136528   3.629   2.895   1.965  0.4886  0.0037  0.9619
 8952WAT     H236529   3.547   3.004   1.962  1.0807  0.4326 -0.0199
 8952WAT    EPW36530   3.559   2.927   1.954  0.7284  0.3347  0.3684
 8953WAT      O36531   3.867   1.343   2.501 -0.0721  0.5560  0.1115
 8953WAT     H136532   3.844   1.408   2.555 -0.8199  1.6131 -1.3861
 8953WAT     H236533   3.942   1.314   2.535 -0.7468  0.8512  1.9549
 8953WAT    EPW36534   3.875   1.349   2.514 -0.2822  0.7558  0.1626
 8954WAT      O36535   4.249   3.323   1.315 -0.1083  0.3030 -0.3260
 8954WAT     H136536   4.211   3.266   1.369 -0.7817  1.0223 -0.0086
 8954WAT     H236537   4.239   3.286   1.236  1.0454 -0.8428  0.0323
 8954WAT    EPW36538   4.242   3.309   1.311 -0.0373  0.2400 -0.2262
 8955WAT      O36539   2.237   3.100   1.844 -0.1024  0.0558 -0.4198
 8955WAT     H136540   2.198   3.155   1.899  2.3527  0.4431  1.0740
 8955WAT     H236541   2.244   3.146   1.770 -2.5330 -0.1168 -0.8322
 8955WAT    EPW36542   2.232   3.115   1.841 -0.0988  0.0875 -0.2601
 8956WAT      O36543   3.148   3.258   0.685  0.4535 -0.4943 -0.1273
 8956WAT     H136544   3.167   3.291   0.763  0.9740 -1.3714  0.1345
 8956WAT     H236545   3.212   3.201   0.671 -1.4885 -3.0175  0.4364
 8956WAT    EPW36546   3.160   3.255   0.694  0.2435 -0.9966 -0.0054
 8957WAT      O36547   2.238   1.727   7.316 -0.0404 -0.9609 -0.3806
 8957WAT     H136548   2.232   1.764   7.237 -0.3181  0.2464  0.1717
 8957WAT     H236549   2.221   1.794   7.371 -1.6261 -2.1368  0.6514
 8957WAT    EPW36550   2.234   1.743   7.313 -0.3156 -0.9563 -0.1466
 8958WAT      O36551   3.572   1.148   0.147 -0.1266  0.0693  0.0649
 8958WAT     H136552   3.630   1.212   0.139  0.6253 -0.4020  1.5748
 8958WAT     H236553   3.594   1.092   0.084  1.0637 -0.1047  0.6227
 8958WAT    EPW36554   3.584   1.150   0.136  0.1603 -0.0260  0.3703
 8959WAT      O36555   2.400   1.752   1.785 -0.4748 -0.2196  0.1098
 8959WAT     H136556   2.325   1.729   1.747 -1.2466 -1.3232  2.1793
 8959WAT     H236557   2.411   1.692   1.848  2.1260 -0.0656 -0.0783
 8959WAT    EPW36558   2.390   1.740   1.789 -0.2046 -0.3598  0.3877
 8960WAT      O36559   3.139   1.712   1.420 -0.4826  0.1608 -0.0801
 8960WAT     H136560   3.053   1.722   1.428 -0.4999 -0.7767  1.2366
 8960WAT     H236561   3.151   1.626   1.430  0.6389  0.3533  0.4196
 8960WAT    EPW36562   3.128   1.701   1.423 -0.3195  0.0508  0.1882
 8961WAT      O36563   3.000   2.956   0.092  0.6982  0.4036 -0.1200
 8961WAT     H136564   2.921   2.957   0.057  1.1534 -1.4113 -1.3469
 8961WAT     H236565   2.993   2.901   0.160  0.3986  2.0536  1.2578
 8961WAT    EPW36566   2.987   2.948   0.097  0.7212  0.3792 -0.0977
 8962WAT      O36567   3.824   3.077   1.614 -0.4257 -0.0246 -0.4538
 8962WAT     H136568   3.739   3.062   1.622 -0.3680 -0.0336  0.1594
 8962WAT     H236569   3.859   3.032   1.680 -0.0585  1.0350  0.1016
 8962WAT    EPW36570   3.817   3.068   1.625 -0.3629  0.1306 -0.2812
 8963WAT      O36571   4.097   1.863   7.573  0.0379  0.3220  0.1675
 8963WAT     H136572   4.127   1.835   7.496  0.7116  0.3904  0.3956
 8963WAT     H236573   4.157   1.834   7.630 -1.9736 -2.4283  1.1046
 8963WAT    EPW36574   4.111   1.855   7.570 -0.1597 -0.0742  0.3396
 8964WAT      O36575   2.721   2.558   0.478  0.1501  0.1845 -0.1791
 8964WAT     H136576   2.806   2.551   0.495  0.1968 -1.4929 -0.8822
 8964WAT     H236577   2.683   2.535   0.553  0.3066  0.5925  0.0280
 8964WAT    EPW36578   2.728   2.553   0.491  0.1801 -0.0030 -0.2524
 8965WAT      O36579   4.058   2.075   0.071  0.2375 -0.1619  0.0694
 8965WAT     H136580   4.035   2.124   0.002  0.5310 -0.6577 -0.3834
 8965WAT     H236581   4.002   2.100   0.133  1.5005  2.0469  0.4132
 8965WAT    EPW36582   4.046   2.086   0.070  0.4674  0.0911  0.0533
 8966WAT      O36583   3.539   2.396   0.941 -0.0026 -0.0497  0.0014
 8966WAT     H136584   3.578   2.383   1.018 -0.4165  0.8786  0.3713
 8966WAT     H236585   3.606   2.399   0.885  0.3521  0.0223  0.4229
 8966WAT    EPW36586   3.554   2.394   0.944 -0.0113  0.0981  0.1183
 8967WAT      O36587   4.759   1.163   0.630 -0.3407  0.3552  0.0402
 8967WAT     H136588   4.816   1.223   0.659  1.1676 -0.5238 -0.9291
 8967WAT     H236589   4.777   1.157   0.545 -1.5400 -0.3520 -0.1939
 8967WAT    EPW36590   4.770   1.171   0.621 -0.2951  0.1209 -0.1376
 8968WAT      O36591   3.022   1.862   0.505 -0.5051 -0.5138  0.2432
 8968WAT     H136592   3.091   1.873   0.557  0.6945 -0.0856 -1.3802
 8968WAT     H236593   2.975   1.935   0.518 -1.4520 -1.4095  2.3913
 8968WAT    EPW36594   3.025   1.874   0.515 -0.4678 -0.5828  0.3207
 8969WAT      O36595   4.392   0.799   2.360  0.1064 -0.3933 -0.1652
 8969WAT     H136596   4.314   0.814   2.322  0.3750 -1.9277 -1.4179
 8969WAT     H236597   4.372   0.748   2.427  0.1090 -1.8637 -1.2309
 8969WAT    EPW36598   4.377   0.794   2.364  0.1465 -0.8372 -0.5077
 8970WAT      O36599   3.471   0.780   0.485  0.0632 -0.2811 -0.3288
 8970WAT     H136600   3.436   0.817   0.555  0.1097  0.9672 -0.9248
 8970WAT     H236601   3.499   0.849   0.438  1.5187 -1.1414 -0.7972
 8970WAT    EPW36602   3.470   0.796   0.488  0.2851 -0.2238 -0.4861
 8971WAT      O36603   3.353   0.736   1.696  0.6465 -0.0684  0.1016
 8971WAT     H136604   3.280   0.707   1.657 -0.4298  1.5146  0.8193
 8971WAT     H236605   3.363   0.683   1.764  0.3956 -0.5571 -0.2362
 8971WAT    EPW36606   3.344   0.724   1.700  0.4505  0.0933  0.1577
 8972WAT      O36607   2.446   2.475   1.638 -0.1242 -0.0367  0.0725
 8972WAT     H136608   2.372   2.495   1.596  0.3185  1.5077 -0.0502
 8972WAT     H236609   2.445   2.388   1.640 -1.9186 -0.0687  0.0422
 8972WAT    EPW36610   2.435   2.465   1.632 -0.3239  0.1867  0.0499
 8973WAT      O36611   3.204   4.291   0.297 -0.1654 -0.4561 -0.5909
 8973WAT     H136612   3.218   4.348   0.233 -0.0248  0.3880  0.1746
 8973WAT     H236613   3.117   4.283   0.298 -0.7257  3.2026  2.1101
 8973WAT    EPW36614   3.193   4.298   0.287 -0.2274  0.2091 -0.0788
 8974WAT      O36615   3.031   1.867   0.206  0.2119 -0.2846  0.3821
 8974WAT     H136616   3.029   1.861   0.293  2.9541 -1.6979  0.4560
 8974WAT     H236617   3.088   1.805   0.183  0.2334  0.6386 -2.3540
 8974WAT    EPW36618   3.039   1.857   0.216  0.6202 -0.3570 -0.0111
 8975WAT      O36619   2.155   1.898   1.442  0.0374 -0.0650 -0.1562
 8975WAT     H136620   2.105   1.967   1.458  1.5506  0.5815  2.2131
 8975WAT     H236621   2.214   1.927   1.385 -0.4255  0.0305 -0.5950
 8975WAT    EPW36622   2.156   1.912   1.436  0.1926  0.0446  0.1290
 8976WAT      O36623   2.348   0.482   7.324  0.2366 -0.0085  0.6648
 8976WAT     H136624   2.262   0.483   7.336  0.2996 -0.1047  1.1366
 8976WAT     H236625   2.358   0.520   7.246 -0.1381  1.1440  1.1581
 8976WAT    EPW36626   2.337   0.488   7.314  0.1906  0.1475  0.8073
 8977WAT      O36627   1.861   1.711   7.472 -0.3906  0.1105 -0.2069
 8977WAT     H136628   1.851   1.729   7.387  1.5894  0.4049 -0.4110
 8977WAT     H236629   1.939   1.743   7.491 -0.4553 -0.6707  1.5507
 8977WAT    EPW36630   1.871   1.718   7.462 -0.1077  0.0386  0.0226
 8978WAT      O36631   2.768   6.785   6.337  0.1779  0.3907 -0.1754
 8978WAT     H136632   2.778   6.701   6.313 -1.0443 -0.2975  1.6008
 8978WAT     H236633   2.827   6.795   6.400  1.0231  1.2117 -1.0557
 8978WAT    EPW36634   2.779   6.774   6.343  0.1222  0.4103 -0.0431
 8979WAT      O36635   2.309   0.362   6.902  0.0922 -0.3353 -0.6516
 8979WAT     H136636   2.290   0.300   6.844  0.1180  0.4452 -1.5229
 8979WAT     H236637   2.332   0.430   6.852  0.2006  0.3272  0.2799
 8979WAT    EPW36638   2.310   0.363   6.886  0.1120 -0.1221 -0.6427
 8980WAT      O36639   2.327   1.091   7.627  0.1639 -0.3534  0.7017
 8980WAT     H136640   2.379   1.102   7.696  1.2412  1.1510 -0.2867
 8980WAT     H236641   2.252   1.126   7.653 -0.0302 -1.4584  1.7244
 8980WAT    EPW36642   2.324   1.098   7.641  0.2944 -0.2944  0.7068
 8981WAT      O36643   3.114   7.153   6.297  0.0901 -0.3579 -0.2066
 8981WAT     H136644   3.114   7.112   6.374  0.8942  0.5386  0.2952
 8981WAT     H236645   3.119   7.088   6.239 -1.6619 -1.1173  0.4189
 8981WAT    EPW36646   3.115   7.137   6.300 -0.0500 -0.3377 -0.0401
 8982WAT      O36647   2.623   6.215   0.207 -0.2332 -0.3889  0.5529
 8982WAT     H136648   2.613   6.269   0.140  1.0612 -2.0161 -1.0384
 8982WAT     H236649   2.542   6.209   0.241 -0.8666  0.6290 -0.6854
 8982WAT    EPW36650   2.609   6.222   0.202 -0.1355 -0.4789  0.1349
 8983WAT      O36651   2.850   1.075   7.299  0.5966 -0.0972 -0.0717
 8983WAT     H136652   2.855   1.088   7.385 -0.4440 -2.0909  0.3600
 8983WAT     H236653   2.897   1.003   7.286 -0.2413 -0.5139 -0.9680
 8983WAT    EPW36654   2.858   1.066   7.309  0.3191 -0.4533 -0.1403
 8984WAT      O36655   2.592   1.682   6.701  0.2599 -0.4095 -0.1768
 8984WAT     H136656   2.633   1.700   6.776 -0.2836  0.1138  0.0051
 8984WAT     H236657   2.649   1.631   6.658  1.5013  0.9811 -0.3005
 8984WAT    EPW36658   2.607   1.677   6.705  0.3630 -0.1268 -0.1682
 8985WAT      O36659   5.001   0.972   6.650 -0.3802 -0.8695  0.3815
 8985WAT     H136660   5.077   0.929   6.654 -1.2162 -2.4286  0.1762
 8985WAT     H236661   4.959   0.933   6.585 -1.9774 -1.0612  1.4750
 8985WAT    EPW36662   5.006   0.960   6.641 -0.7397 -1.1281  0.5127
 8986WAT      O36663   2.703   7.304   7.410  0.6063 -0.3827  0.1530
 8986WAT     H136664   2.655   7.368   7.445 -0.3672 -1.5251  0.9810
 8986WAT     H236665   2.785   7.325   7.433  0.1527 -0.2263  1.7355
 8986WAT    EPW36666   2.708   7.317   7.418  0.3955 -0.5284  0.5091
 8987WAT      O36667   3.019   0.604   6.766 -0.0773  0.8116 -0.0323
 8987WAT     H136668   3.086   0.601   6.821  1.7791 -0.3388 -2.1866
 8987WAT     H236669   3.035   0.539   6.710 -3.6270 -0.2774 -0.0131
 8987WAT    EPW36670   3.031   0.594   6.766 -0.3274  0.4808 -0.3477
 8988WAT      O36671   3.270   0.843   7.288 -0.4151  0.0525 -0.9959
 8988WAT     H136672   3.328   0.855   7.224  1.1189 -0.6512  0.2024
 8988WAT     H236673   3.281   0.913   7.340 -0.4137 -0.2479 -0.5877
 8988WAT    EPW36674   3.280   0.855   7.286 -0.1883 -0.0958 -0.7586
 8989WAT      O36675   3.187   1.161   5.982 -0.0987 -0.3429 -0.0302
 8989WAT     H136676   3.161   1.137   5.902  0.4314 -1.1285  0.0195
 8989WAT     H236677   3.274   1.155   5.977 -0.0778 -0.8156  0.7342
 8989WAT    EPW36678   3.196   1.156   5.969 -0.0173 -0.5288  0.0901
 8990WAT      O36679   3.663   0.650   6.951  0.2573  0.0691  0.0049
 8990WAT     H136680   3.607   0.708   6.984  0.0922 -0.3854  0.5377
 8990WAT     H236681   3.612   0.587   6.919  0.4565 -0.7115  1.1657
 8990WAT    EPW36682   3.647   0.650   6.951  0.2623 -0.1134  0.2551
 8991WAT      O36683   2.630   0.495   7.336  0.1885 -0.0275 -0.2323
 8991WAT     H136684   2.547   0.519   7.351  0.1918 -1.0247  1.7175
 8991WAT     H236685   2.623   0.411   7.314  0.7844 -0.9233  2.6156
 8991WAT    EPW36686   2.617   0.486   7.335  0.2770 -0.3071  0.4765
 8992WAT      O36687   3.952   0.382   7.088  0.0365 -0.2946 -0.3418
 8992WAT     H136688   3.983   0.456   7.121 -1.9800  1.0673 -1.2676
 8992WAT     H236689   3.989   0.377   7.010 -0.0068 -0.1190 -0.3737
 8992WAT    EPW36690   3.962   0.392   7.081 -0.2678 -0.0675 -0.4833
 8993WAT      O36691   2.401   1.312   6.378 -0.5083 -0.0690 -0.1762
 8993WAT     H136692   2.398   1.399   6.387 -0.5261 -0.2171  1.6120
 8993WAT     H236693   2.486   1.294   6.387 -0.8423 -0.5451  4.1292
 8993WAT    EPW36694   2.413   1.323   6.381 -0.5603 -0.1612  0.7239
 8994WAT      O36695   4.182   1.390   5.413 -0.0548  0.5616 -0.6878
 8994WAT     H136696   4.151   1.430   5.342 -0.8786  1.2642  0.0340
 8994WAT     H236697   4.136   1.316   5.416 -0.4099  0.7815 -0.5991
 8994WAT    EPW36698   4.170   1.385   5.403 -0.2289  0.6979 -0.5681
 8995WAT      O36699   1.127   7.247   0.621 -0.5758 -0.1712  0.1922
 8995WAT     H136700   1.187   7.229   0.681  0.2465 -2.3508 -1.1636
 8995WAT     H236701   1.051   7.231   0.661 -0.1217 -0.0847  1.0902
 8995WAT    EPW36702   1.125   7.242   0.635 -0.3873 -0.4804  0.1246
 8996WAT      O36703   3.357   7.646   7.819  0.6528 -0.4975 -0.0046
 8996WAT     H136704   3.363   7.729   7.794 -0.7444 -0.7232 -1.2143
 8996WAT     H236705   3.275   7.639   7.848  0.4510 -1.6729 -0.7962
 8996WAT    EPW36706   3.346   7.657   7.820  0.4166 -0.7045 -0.3003
 8997WAT      O36707   4.928   0.359   7.139  0.1161  0.1642 -0.1279
 8997WAT     H136708   4.945   0.372   7.054  1.4741 -1.5466 -0.1791
 8997WAT     H236709   4.856   0.406   7.153 -0.2378  0.3621 -2.2734
 8997WAT    EPW36710   4.920   0.368   7.128  0.2645 -0.0593 -0.4524
 8998WAT      O36711   2.939   0.757   0.075  0.3533  0.3546 -0.6390
 8998WAT     H136712   2.879   0.722   0.023  0.6924  1.9645 -2.2107
 8998WAT     H236713   2.933   0.710   0.149 -2.5413  0.2269 -0.8690
 8998WAT    EPW36714   2.930   0.745   0.078 -0.0242  0.5736 -0.9052
 8999WAT      O36715   3.958   1.230   0.883  0.6715 -1.0637 -0.2604
 8999WAT     H136716   4.037   1.253   0.910  0.4285 -1.6038  0.9447
 8999WAT     H236717   3.949   1.273   0.807  1.0978  1.0463  0.8186
 8999WAT    EPW36718   3.968   1.240   0.876  0.6985 -0.8318  0.0770
 9000WAT      O36719   5.328   0.342   6.894 -0.0538 -0.0281 -0.4076
 9000WAT     H136720   5.313   0.320   6.811 -0.0121  2.1991 -1.0646
 9000WAT     H236721   5.359   0.269   6.929 -0.5894 -1.1830 -2.2058
 9000WAT    EPW36722   5.330   0.328   6.887 -0.1267  0.1303 -0.7703
 9001WAT      O36723   2.834   0.496   5.618 -0.0756  0.0198 -0.6644
 9001WAT     H136724   2.852   0.445   5.550 -0.8704 -1.7401  0.3817
 9001WAT     H236725   2.748   0.486   5.630 -0.1229  1.0362  0.0330
 9001WAT    EPW36726   2.824   0.487   5.610 -0.2000 -0.0900 -0.4069
 9002WAT      O36727   2.589   0.281   0.594  0.0563 -0.1576  0.2412
 9002WAT     H136728   2.576   0.367   0.603 -0.2148 -0.0775 -0.7482
 9002WAT     H236729   2.608   0.272   0.509  1.4849 -0.9088  0.6128
 9002WAT    EPW36730   2.590   0.292   0.582  0.2273 -0.2567  0.1499
 9003WAT      O36731   2.911   7.375   7.058  0.2275  0.1026 -0.1256
 9003WAT     H136732   2.963   7.396   6.991 -0.9872  1.7347 -0.6276
 9003WAT     H236733   2.930   7.437   7.117  0.7052 -0.8479  0.7542
 9003WAT    EPW36734   2.922   7.387   7.057  0.1186  0.2033 -0.0698
 9004WAT      O36735   2.048   6.447   7.009 -0.7082 -0.0106 -0.5283
 9004WAT     H136736   1.975   6.427   6.966 -0.9531 -1.8191  0.6200
 9004WAT     H236737   2.110   6.402   6.966 -0.0333  2.0961 -1.9697
 9004WAT    EPW36738   2.047   6.437   6.996 -0.6447  0.0334 -0.5716
 9005WAT      O36739   3.449   1.235   7.371 -0.6062  0.1517 -0.4036
 9005WAT     H136740   3.447   1.219   7.457 -0.6474  0.0251 -0.4282
 9005WAT     H236741   3.365   1.240   7.350 -0.6120  1.6188 -0.1688
 9005WAT    EPW36742   3.436   1.234   7.381 -0.6132  0.3497 -0.3725
 9006WAT      O36743   3.477   1.041   5.980  0.4203  0.3766 -0.5154
 9006WAT     H136744   3.560   1.035   6.005  0.1993 -1.4789 -0.0809
 9006WAT     H236745   3.432   1.014   6.050 -0.4623 -0.1890 -1.2666
 9006WAT    EPW36746   3.482   1.036   5.994  0.2573  0.0190 -0.5622
 9007WAT      O36747   1.820   6.352   5.728 -0.2020  0.3129 -0.4697
 9007WAT     H136748   1.873   6.396   5.782  0.7589  1.1988 -2.0662
 9007WAT     H236749   1.859   6.361   5.650 -0.7990 -2.0737 -1.1140
 9007WAT    EPW36750   1.834   6.360   5.724 -0.1482  0.0912 -0.8007
 9008WAT      O36751   1.406   0.519   7.373  0.0871 -0.4957  0.3519
 9008WAT     H136752   1.459   0.467   7.327  1.3868 -1.1428  2.4212
 9008WAT     H236753   1.444   0.521   7.452 -1.2550  1.6760  1.0061
 9008WAT    EPW36754   1.420   0.511   7.378  0.0809 -0.2705  0.7543
 9009WAT      O36755   3.465   6.579   0.077 -0.0215  0.1405  0.2560
 9009WAT     H136756   3.415   6.640   0.114  0.3377  0.3844  0.3454
 9009WAT     H236757   3.534   6.573   0.131 -1.1067 -1.9990  1.5540
 9009WAT    EPW36758   3.468   6.587   0.091 -0.1288 -0.1395  0.4609
 9010WAT      O36759   2.936   7.148   7.233  0.0173  0.2371 -0.5413
 9010WAT     H136760   2.914   7.207   7.173 -0.2185 -1.0749 -1.8015
 9010WAT     H236761   3.014   7.174   7.261  1.0411 -0.1423 -2.8500
 9010WAT    EPW36762   2.944   7.160   7.229  0.1337 -0.0127 -1.0685
 9011WAT      O36763   2.918   7.047   5.737  0.9779 -0.1083  0.2218
 9011WAT     H136764   2.902   7.070   5.819 -0.4184 -0.5871  0.1042
 9011WAT     H236765   2.862   7.094   5.690 -0.7378 -2.3268 -0.1581
 9011WAT    EPW36766   2.907   7.057   5.742  0.5182 -0.5068  0.1483
 9012WAT      O36767   3.677   1.276   6.738  0.3972  0.2777  0.8329
 9012WAT     H136768   3.748   1.312   6.771 -1.4073  1.5263  3.7026
 9012WAT     H236769   3.619   1.341   6.737 -0.4765 -0.2944 -2.7379
 9012WAT    EPW36770   3.679   1.291   6.743  0.0016  0.3776  0.7293
 9013WAT      O36771   2.964   6.224   5.898 -0.6666 -0.2412  0.6630
 9013WAT     H136772   2.995   6.277   5.836  0.5367 -1.6454  0.0047
 9013WAT     H236773   2.999   6.254   5.971  1.3412 -1.0580  0.0879
 9013WAT    EPW36774   2.974   6.236   5.900 -0.1923 -0.5693  0.4808
 9014WAT      O36775   2.945   0.163   7.812 -0.0290  0.8046  0.4704
 9014WAT     H136776   2.934   0.219   7.878 -1.0460  1.5051 -0.2638
 9014WAT     H236777   2.864   0.150   7.782  0.4995  1.3573 -1.3102
 9014WAT    EPW36778   2.931   0.170   7.817 -0.1012  0.9897  0.0989
 9015WAT      O36779   1.007   7.417   6.647  0.2408  0.4187  0.3337
 9015WAT     H136780   1.015   7.488   6.597  0.7078  0.1320 -0.0072
 9015WAT     H236781   0.943   7.372   6.607 -1.2210  1.3989  1.4778
 9015WAT    EPW36782   0.998   7.421   6.634  0.0938  0.5211  0.4523
 9016WAT      O36783   1.535   7.386   0.331 -0.3539  0.0257  0.4791
 9016WAT     H136784   1.559   7.302   0.332 -0.5682 -0.0566 -0.6733
 9016WAT     H236785   1.448   7.382   0.340 -0.5363  0.0255 -1.0032
 9016WAT    EPW36786   1.526   7.373   0.333 -0.4125  0.0135  0.0899
 9017WAT      O36787   1.858   7.288   7.364 -0.2617 -0.6185  0.1678
 9017WAT     H136788   1.885   7.206   7.374  2.0274 -0.1613 -1.5199
 9017WAT     H236789   1.816   7.287   7.287 -0.3204 -0.2196  0.1924
 9017WAT    EPW36790   1.855   7.276   7.354  0.0678 -0.4920 -0.0779
 9018WAT      O36791   2.520   2.460   6.329  0.4738 -0.1881 -0.9022
 9018WAT     H136792   2.457   2.511   6.363 -0.7778 -2.1672 -0.0591
 9018WAT     H236793   2.566   2.515   6.280  0.1313  2.0782  1.1049
 9018WAT    EPW36794   2.517   2.476   6.327  0.2383 -0.1457 -0.4812
 9019WAT      O36795   2.489   1.913   7.401 -0.1444 -0.2515 -0.0719
 9019WAT     H136796   2.471   1.935   7.318 -1.6788  2.0901  0.7616
 9019WAT     H236797   2.473   1.828   7.404  0.8275 -0.5845 -2.3621
 9019WAT    EPW36798   2.484   1.904   7.389 -0.2275  0.0452 -0.2871
 9020WAT      O36799   5.020   7.448   0.260  0.9036  0.2853  0.0196
 9020WAT     H136800   5.008   7.476   0.178 -1.3248  1.5525  0.6984
 9020WAT     H236801   5.091   7.490   0.286  1.4268  0.1480 -1.1234
 9020WAT    EPW36802   5.029   7.458   0.251  0.6517  0.4522 -0.0490
 9021WAT      O36803   2.869   2.130   7.715 -0.7605 -0.4428  0.2748
 9021WAT     H136804   2.951   2.112   7.739  0.2706  1.3897 -1.5239
 9021WAT     H236805   2.838   2.053   7.688  0.1222 -1.2816  1.5356
 9021WAT    EPW36806   2.877   2.116   7.715 -0.4778 -0.2960  0.1953
 9022WAT      O36807   2.309   7.126   1.470  0.7343  0.9125  0.4854
 9022WAT     H136808   2.373   7.115   1.529  1.1490  0.8386  0.0261
 9022WAT     H236809   2.287   7.210   1.480  1.7777  1.2904 -0.2163
 9022WAT    EPW36810   2.316   7.136   1.480  0.9497  0.9574  0.3139
 9023WAT      O36811   1.908   1.189   0.591 -0.6678 -0.2441 -0.0420
 9023WAT     H136812   1.926   1.213   0.509  1.0259 -2.0662 -0.2797
 9023WAT     H236813   1.954   1.244   0.639 -2.1061  1.1948 -0.2463
 9023WAT    EPW36814   1.917   1.200   0.586 -0.6301 -0.3007 -0.1073
 9024WAT      O36815   3.014   6.664   6.773  0.0847 -0.2225  0.2016
 9024WAT     H136816   3.085   6.613   6.767  1.6346  1.9082 -1.5196
 9024WAT     H236817   2.949   6.608   6.785  1.9056 -2.4000  0.5866
 9024WAT    EPW36818   3.015   6.649   6.774  0.5826 -0.2294  0.0042
 9025WAT      O36819   2.324   0.150   0.034 -0.1966 -0.0535 -0.5170
 9025WAT     H136820   2.284   0.223   0.007  0.3950 -0.0751 -1.4797
 9025WAT     H236821   2.305   0.147   0.119  0.2743  1.5676 -0.3234
 9025WAT    EPW36822   2.315   0.160   0.043 -0.0396  0.1828 -0.6306
 9026WAT      O36823   2.517   7.582   6.945 -0.3850 -0.0308  0.8146
 9026WAT     H136824   2.573   7.647   6.928  0.0804 -0.7243 -0.4826
 9026WAT     H236825   2.441   7.612   6.915 -0.4397  0.4275  1.4178
 9026WAT    EPW36826   2.514   7.596   6.938 -0.3243 -0.0655  0.7121
 9027WAT      O36827   4.413   0.250   7.513 -0.5481  0.2574 -0.1792
 9027WAT     H136828   4.415   0.282   7.594 -1.7634  0.4394 -0.2034
 9027WAT     H236829   4.341   0.201   7.512  0.4686 -1.3218 -0.5869
 9027WAT    EPW36830   4.403   0.247   7.525 -0.5774  0.0510 -0.2430
 9028WAT      O36831   4.339   5.904   7.739  0.7061 -0.3996  0.1179
 9028WAT     H136832   4.313   5.870   7.815 -0.2287 -0.8762 -0.3987
 9028WAT     H236833   4.325   5.990   7.749  1.8061 -0.3113  0.9424
 9028WAT    EPW36834   4.333   5.912   7.751  0.7305 -0.4570  0.1634
 9029WAT      O36835   4.329   7.387   6.169 -0.1310  0.2460  0.0695
 9029WAT     H136836   4.280   7.356   6.104  0.3198  0.6717 -0.4925
 9029WAT     H236837   4.410   7.387   6.135  0.7040 -2.5866  1.7009
 9029WAT    EPW36838   4.334   7.382   6.154  0.0589 -0.1095  0.2275
 9030WAT      O36839   3.990   7.212   0.503  0.1760 -0.5050 -0.0755
 9030WAT     H136840   4.036   7.207   0.429  1.0405 -0.3447  0.4465
 9030WAT     H236841   4.012   7.290   0.537 -1.0147 -0.1007 -0.1554
 9030WAT    EPW36842   4.000   7.223   0.497  0.1278 -0.4216 -0.0102
 9031WAT      O36843   3.038   1.377   6.192 -0.1753  0.1010 -0.1538
 9031WAT     H136844   3.026   1.417   6.115 -0.9628  0.8158  0.3337
 9031WAT     H236845   3.095   1.314   6.173 -1.4720 -0.6783 -1.6422
 9031WAT    EPW36846   3.045   1.374   6.178 -0.4832  0.0914 -0.3017
 9032WAT      O36847   3.069   7.666   7.137  0.5811  0.2779 -0.3171
 9032WAT     H136848   3.148   7.634   7.122  0.8157  0.8657 -0.3528
 9032WAT     H236849   3.073   7.692   7.220  0.0778 -0.6800  0.0199
 9032WAT    EPW36850   3.081   7.665   7.147  0.5414  0.2232 -0.2726
 9033WAT      O36851   3.460   0.841   7.078  0.0216  0.3118  0.6894
 9033WAT     H136852   3.485   0.924   7.067  1.3128 -0.1551 -0.2355
 9033WAT     H236853   3.383   0.837   7.037 -0.6215  1.3047  1.7580
 9033WAT    EPW36854   3.453   0.853   7.070  0.1174  0.3895  0.7107
 9034WAT      O36855   2.094   7.103   7.501  0.1379 -0.1449  0.2138
 9034WAT     H136856   2.054   7.071   7.572 -0.3591  0.3495  0.1606
 9034WAT     H236857   2.118   7.183   7.525  0.3920 -0.1502 -0.0194
 9034WAT    EPW36858   2.092   7.110   7.515  0.1020 -0.0726  0.1715
 9035WAT      O36859   1.606   7.530   0.086 -0.0110 -0.2908 -0.0035
 9035WAT     H136860   1.584   7.469   0.144 -1.7605  0.1239 -0.1803
 9035WAT     H236861   1.536   7.582   0.082  1.1902  1.4355 -0.2734
 9035WAT    EPW36862   1.592   7.529   0.094 -0.0920  0.0255 -0.0694
 9036WAT      O36863   4.048   1.052   7.315 -0.5776  0.2666  0.4984
 9036WAT     H136864   4.094   0.979   7.329  0.9010  0.9900 -0.3915
 9036WAT     H236865   3.999   1.059   7.387  1.6976  0.1943  2.1384
 9036WAT    EPW36866   4.047   1.042   7.328 -0.0231  0.3628  0.6092
 9037WAT      O36867   3.507   0.755   6.113 -0.3854 -0.3957  0.2102
 9037WAT     H136868   3.440   0.706   6.086 -0.5696  0.8077 -1.6843
 9037WAT     H236869   3.547   0.777   6.039  1.6025 -0.3340  1.2425
 9037WAT    EPW36870   3.503   0.751   6.098 -0.1189 -0.2088  0.0828
 9038WAT      O36871   4.507   0.631   7.558  0.5784  0.5726  0.1269
 9038WAT     H136872   4.424   0.644   7.581  0.8471 -0.2554  1.7002
 9038WAT     H236873   4.500   0.586   7.483 -0.3901  0.4364  0.2874
 9038WAT    EPW36874   4.494   0.626   7.550  0.4750  0.4302  0.3830
 9039WAT      O36875   3.525   7.542   7.317 -0.0081  0.4361  0.1457
 9039WAT     H136876   3.478   7.565   7.387  0.8605  2.2763  0.1762
 9039WAT     H236877   3.593   7.596   7.319  0.0660  0.5463 -2.1057
 9039WAT    EPW36878   3.528   7.553   7.328  0.1312  0.7242 -0.1824
 9040WAT      O36879   3.650   7.475   6.351 -0.6403 -0.3516  0.1746
 9040WAT     H136880   3.664   7.391   6.333 -0.5516 -0.2428 -0.2612
 9040WAT     H236881   3.563   7.482   6.347 -0.5798 -0.1642 -0.9442
 9040WAT    EPW36882   3.639   7.464   6.348 -0.6183 -0.3078 -0.0550
 9041WAT      O36883   2.012   1.718   0.032 -0.0276 -0.1798  0.0495
 9041WAT     H136884   1.949   1.706  -0.026  1.8460 -0.6803 -2.0148
 9041WAT     H236885   2.044   1.797   0.013 -1.0454  0.8404  2.1926
 9041WAT    EPW36886   2.008   1.728   0.021  0.0988 -0.1030  0.0611
 9042WAT      O36887   4.317   6.189   7.768  0.3403 -0.0354  0.2718
 9042WAT     H136888   4.276   6.184   7.690 -0.0238 -0.8358  0.5041
 9042WAT     H236889   4.251   6.196   7.825  0.6318  1.4475  0.4603
 9042WAT    EPW36890   4.301   6.189   7.765  0.3296  0.0654  0.3340
 9043WAT      O36891   1.675   0.095   6.172 -0.7495  0.3537 -0.1798
 9043WAT     H136892   1.647   0.175   6.152 -1.1096  0.5009  0.8204
 9043WAT     H236893   1.759   0.108   6.195 -0.9154  0.5256  0.3592
 9043WAT    EPW36894   1.683   0.109   6.173 -0.8272  0.4008  0.0476
 9044WAT      O36895   1.089   7.527   6.014 -0.3886  0.1064  0.2007
 9044WAT     H136896   1.176   7.533   6.009 -0.3383 -0.9873 -0.6554
 9044WAT     H236897   1.062   7.569   5.943 -0.5184 -0.2074  0.0627
 9044WAT    EPW36898   1.098   7.534   6.003 -0.4004 -0.1015  0.0539
 9045WAT      O36899   1.942   7.025   1.212 -0.4225  0.0084  0.6950
 9045WAT     H136900   1.977   7.013   1.291  0.1716  0.3989  0.4987
 9045WAT     H236901   1.856   7.023   1.227 -0.3297  1.3897  1.5540
 9045WAT    EPW36902   1.935   7.023   1.226 -0.3210  0.2701  0.7929
 9046WAT      O36903   3.211   0.213   6.881  0.0088 -0.5370 -0.3297
 9046WAT     H136904   3.248   0.149   6.834 -1.6023 -0.1282 -2.2550
 9046WAT     H236905   3.252   0.285   6.854 -0.6210 -0.3489 -0.7874
 9046WAT    EPW36906   3.223   0.214   6.870 -0.3222 -0.4488 -0.6817
 9047WAT      O36907   2.444   0.062   7.470 -0.2096  0.2534  0.3642
 9047WAT     H136908   2.365   0.045   7.504 -0.6485 -0.9319 -1.1411
 9047WAT     H236909   2.453   0.001   7.408  0.4198  2.4138 -1.8314
 9047WAT    EPW36910   2.434   0.051   7.466 -0.1814  0.3975 -0.1825
 9048WAT      O36911   1.460   0.841   0.396  0.9555 -0.0048 -0.2545
 9048WAT     H136912   1.504   0.772   0.367 -1.0372 -1.6930  0.5016
 9048WAT     H236913   1.388   0.842   0.346 -0.4085 -0.2842  1.6095
 9048WAT    EPW36914   1.455   0.831   0.384  0.4597 -0.2955  0.1325
 9049WAT      O36915   2.522   7.628   6.051 -0.4984 -0.3249  0.1821
 9049WAT     H136916   2.575   7.669   5.995 -1.9452 -0.6948 -1.5560
 9049WAT     H236917   2.514   7.685   6.116  1.0041  0.2653 -0.1079
 9049WAT    EPW36918   2.529   7.643   6.052 -0.4902 -0.2924 -0.1175
 9050WAT      O36919   1.314   7.099   0.210  0.6599  0.1215  0.0438
 9050WAT     H136920   1.254   7.062   0.262  0.1146  0.7071 -0.1681
 9050WAT     H236921   1.286   7.080   0.130  0.6344  0.6034 -0.0590
 9050WAT    EPW36922   1.301   7.090   0.206  0.5756  0.2792 -0.0027
 9051WAT      O36923   3.202   0.380   5.785  0.2308 -0.5446  0.5480
 9051WAT     H136924   3.259   0.367   5.720  0.5782  0.5219  0.6178
 9051WAT     H236925   3.159   0.451   5.761 -0.2771 -0.6707  1.0584
 9051WAT    EPW36926   3.204   0.388   5.772  0.2071 -0.4057  0.6337
 9052WAT      O36927   3.587   0.623   7.461 -0.2741  0.2900  0.8503
 9052WAT     H136928   3.538   0.608   7.391 -0.0961  1.5968  0.4325
 9052WAT     H236929   3.669   0.616   7.430 -0.1907  0.1080  1.1055
 9052WAT    EPW36930   3.592   0.620   7.446 -0.2355  0.4562  0.8263
 9053WAT      O36931   3.445   6.957   7.587 -0.3487  0.3092 -0.3425
 9053WAT     H136932   3.529   6.949   7.608 -0.3007 -0.0544 -0.6625
 9053WAT     H236933   3.420   7.030   7.628  0.4801  1.1894 -1.3494
 9053WAT    EPW36934   3.454   6.967   7.596 -0.2192  0.3855 -0.5385
 9054WAT      O36935   3.646   0.399   7.104 -0.7254  0.2680  0.2378
 9054WAT     H136936   3.720   0.434   7.075 -1.2191  1.6558  0.5837
 9054WAT     H236937   3.671   0.323   7.138  0.1599 -0.5081 -1.9485
 9054WAT    EPW36938   3.660   0.393   7.105 -0.6676  0.3584 -0.0341
 9055WAT      O36939   1.658   1.002   6.062 -0.7794 -0.3255 -0.4191
 9055WAT     H136940   1.632   0.968   6.138 -0.0684 -0.7617 -0.3648
 9055WAT     H236941   1.673   1.086   6.081  2.6615 -1.0582  0.8232
 9055WAT    EPW36942   1.656   1.010   6.076 -0.1660 -0.4982 -0.2275
 9056WAT      O36943   3.867   0.533   7.376 -0.3084  0.6498 -0.1077
 9056WAT     H136944   3.868   0.448   7.397  0.1755  0.1161 -2.0529
 9056WAT     H236945   3.944   0.545   7.335  0.0325  2.2670  0.9201
 9056WAT    EPW36946   3.879   0.522   7.373 -0.1865  0.8099 -0.2432
 9057WAT      O36947   2.854   7.001   0.347  0.3351  0.1663  0.2106
 9057WAT     H136948   2.799   6.973   0.285 -0.1671  0.2233  0.6272
 9057WAT     H236949   2.924   7.026   0.302  0.9427 -2.0072 -0.1984
 9057WAT    EPW36950   2.856   7.000   0.331  0.3507 -0.1464  0.2117
 9058WAT      O36951   3.839   0.525   5.734 -0.1469 -0.5044  0.1064
 9058WAT     H136952   3.840   0.494   5.653 -0.2989 -0.7752  0.2059
 9058WAT     H236953   3.913   0.495   5.769  0.6496  0.8290 -0.3733
 9058WAT    EPW36954   3.850   0.516   5.727 -0.0517 -0.3475  0.0502
 9059WAT      O36955   2.293   0.366   6.423  0.3498 -0.2367  0.3016
 9059WAT     H136956   2.250   0.434   6.458 -0.1462 -0.7301  0.6734
 9059WAT     H236957   2.302   0.389   6.339 -0.7714 -0.1619  0.1751
 9059WAT    EPW36958   2.288   0.379   6.416  0.1109 -0.2985  0.3379
 9060WAT      O36959   4.385   0.314   6.947 -0.4337  0.1399 -0.6299
 9060WAT     H136960   4.376   0.392   6.983 -0.6541 -0.1766  0.0167
 9060WAT     H236961   4.363   0.327   6.863  0.3425  0.9353 -0.7219
 9060WAT    EPW36962   4.381   0.327   6.940 -0.3516  0.2107 -0.5480
 9061WAT      O36963   2.543   7.391   0.290 -0.0116 -0.0044  0.4738
 9061WAT     H136964   2.594   7.376   0.221  0.6844  0.8640  0.7839
 9061WAT     H236965   2.569   7.332   0.348  0.2865  0.0939  0.4420
 9061WAT    EPW36966   2.554   7.380   0.288  0.1353  0.1384  0.5149
 9062WAT      O36967   3.674   0.165   7.246  0.7761  0.2874  0.0139
 9062WAT     H136968   3.616   0.157   7.311 -0.4238  1.6803 -0.8281
 9062WAT     H236969   3.722   0.092   7.253 -0.9772 -0.8824  0.8455
 9062WAT    EPW36970   3.672   0.153   7.257  0.3399  0.3204  0.0123
 9063WAT      O36971   3.300   1.328   0.446  0.4680  0.2163 -0.2362
 9063WAT     H136972   3.362   1.388   0.441  0.8398 -0.0742  0.5966
 9063WAT     H236973   3.226   1.373   0.441  0.7468  0.6232 -0.6837
 9063WAT    EPW36974   3.298   1.343   0.445  0.5641  0.2335 -0.1793
 9064WAT      O36975   2.725   1.402   7.516  0.0148  0.1430 -0.1445
 9064WAT     H136976   2.675   1.421   7.447  1.0416 -1.0615 -1.2681
 9064WAT     H236977   2.806   1.419   7.488  0.5436 -1.3204  0.3830
 9064WAT    EPW36978   2.730   1.407   7.502  0.2446 -0.2511 -0.2326
 9065WAT      O36979   4.616   6.723   6.751 -0.0386 -0.2624 -0.5414
 9065WAT     H136980   4.649   6.797   6.783  0.0210 -1.0331  1.3022
 9065WAT     H236981   4.537   6.719   6.788  0.7053 -2.0558  0.9941
 9065WAT    EPW36982   4.609   6.734   6.761  0.0801 -0.6412 -0.0422
 9066WAT      O36983   1.609   1.216   0.611  0.2095 -0.5484 -0.2618
 9066WAT     H136984   1.691   1.200   0.634  0.1475 -0.9093 -0.2786
 9066WAT     H236985   1.562   1.177   0.674  0.0507 -0.9063 -0.5932
 9066WAT    EPW36986   1.614   1.208   0.623  0.1769 -0.6546 -0.3132
 9067WAT      O36987   2.249   0.663   7.731 -0.1902 -0.6355  0.3648
 9067WAT     H136988   2.224   0.580   7.737  0.2487 -0.7133  1.3570
 9067WAT     H236989   2.239   0.682   7.647 -0.2783 -1.7024  0.1248
 9067WAT    EPW36990   2.244   0.654   7.720 -0.1384 -0.8046  0.4759
 9068WAT      O36991   1.701   7.472   7.485  0.2484 -0.2097  0.2700
 9068WAT     H136992   1.678   7.432   7.559 -1.4411 -1.3210 -0.7634
 9068WAT     H236993   1.745   7.410   7.441 -1.6585 -0.7873 -0.9901
 9068WAT    EPW36994   1.704   7.457   7.489 -0.2828 -0.4592 -0.0688
 9069WAT      O36995   1.102   0.081   7.322 -0.0573 -0.2956  0.1327
 9069WAT     H136996   1.135   0.003   7.344  0.9884 -0.0208 -0.4094
 9069WAT     H236997   1.169   0.135   7.331 -0.5131  0.3805 -0.4395
 9069WAT    EPW36998   1.117   0.077   7.327  0.0299 -0.1551 -0.0319
 9070WAT      O36999   2.841   7.352   6.383 -0.3577 -0.2753 -0.3628
 9070WAT     H137000   2.861   7.315   6.459 -1.6627  1.1115  0.7096
 9070WAT     H237001   2.755   7.360   6.386 -0.3546  0.5137 -1.6769
 9070WAT    EPW37002   2.831   7.347   6.394 -0.5500  0.0461 -0.3985
 9071WAT      O37003   3.720   6.684   0.201 -0.6171  0.0209  0.6465
 9071WAT     H137004   3.677   6.756   0.178  0.0628  0.4084  0.5640
 9071WAT     H237005   3.793   6.688   0.154 -1.2032 -1.4815 -0.5157
 9071WAT    EPW37006   3.724   6.695   0.190 -0.6033 -0.1438  0.4627
 9072WAT      O37007   3.240   1.434   6.790  0.7158 -0.0348  0.2176
 9072WAT     H137008   3.174   1.379   6.805  0.1449 -0.7654 -3.9285
 9072WAT     H237009   3.200   1.511   6.778  0.6178 -0.2953 -1.3629
 9072WAT    EPW37010   3.224   1.437   6.791  0.6169 -0.1812 -0.6283
 9073WAT      O37011   4.859   7.474   7.019  0.1558 -0.2323  0.1996
 9073WAT     H137012   4.871   7.558   7.040 -2.8533 -0.1187  2.0922
 9073WAT     H237013   4.921   7.432   7.063  0.0076  0.8287  1.4658
 9073WAT    EPW37014   4.870   7.480   7.029 -0.3106 -0.0588  0.6662
 9074WAT      O37015   3.240   2.108   5.943  0.2245 -1.1287 -0.2649
 9074WAT     H137016   3.259   2.140   6.022 -0.5929 -0.8772 -0.1548
 9074WAT     H237017   3.168   2.061   5.957  0.2951 -1.4070 -0.7957
 9074WAT    EPW37018   3.232   2.106   5.957  0.1142 -1.1326 -0.3270
 9075WAT      O37019   4.622   7.401   6.171 -0.9054 -0.2358  0.0727
 9075WAT     H137020   4.601   7.370   6.250  0.5013  1.5180  1.1983
 9075WAT     H237021   4.627   7.487   6.184  0.3153 -0.0043 -1.7098
 9075WAT    EPW37022   4.620   7.409   6.185 -0.5173  0.0574 -0.0243
 9076WAT      O37023   2.710   6.949   0.838  0.0217  0.1396  0.0906
 9076WAT     H137024   2.667   6.998   0.896 -0.6353 -1.7905  1.3357
 9076WAT     H237025   2.785   6.991   0.827 -1.5944  2.9633 -1.1932
 9076WAT    EPW37026   2.714   6.962   0.845 -0.3141  0.2716  0.0849
 9077WAT      O37027   2.947   7.127   0.819 -0.7194  0.5003 -0.1226
 9077WAT     H137028   2.941   7.170   0.744 -0.1428  0.5568 -0.1433
 9077WAT     H237029   2.999   7.059   0.800 -2.3295 -0.7348 -0.3147
 9077WAT    EPW37030   2.954   7.123   0.805 -0.8720  0.3262 -0.1540
 9078WAT      O37031   2.705   0.660   7.839  0.1929  0.3653  0.0453
 9078WAT     H137032   2.625   0.674   7.871  0.0271  1.2963 -0.7509
 9078WAT     H237033   2.703   0.697   7.760  0.9747 -0.8149 -0.5673
 9078WAT    EPW37034   2.693   0.667   7.832  0.2839  0.3285 -0.1628
 9079WAT      O37035   1.664   1.015   5.387  0.2618  0.4216  0.6245
 9079WAT     H137036   1.622   1.004   5.311  0.3060  0.0445  0.6499
 9079WAT     H237037   1.745   0.988   5.370  0.1123 -0.2844  0.9656
 9079WAT    EPW37038   1.670   1.009   5.374  0.2462  0.2616  0.6787
 9080WAT      O37039   5.019   0.973   3.005  0.1255  0.0496  0.1643
 9080WAT     H137040   5.021   0.918   2.937 -2.7276 -1.8994  1.4504
 9080WAT     H237041   5.101   1.003   3.010  0.8198 -0.8976 -3.1251
 9080WAT    EPW37042   5.031   0.969   2.996 -0.1934 -0.3782 -0.1316
 9081WAT      O37043   2.275   0.831   4.401 -0.3950  0.2544  0.6544
 9081WAT     H137044   2.336   0.872   4.354  0.1179 -1.5687 -0.3715
 9081WAT     H237045   2.202   0.876   4.385  0.5012  2.0614  1.3590
 9081WAT    EPW37046   2.274   0.844   4.392 -0.1868  0.2521  0.6070
 9082WAT      O37047   2.928   0.266   5.463 -0.1151 -0.1836  0.5745
 9082WAT     H137048   2.887   0.235   5.393 -0.2695  2.0058 -0.3797
 9082WAT     H237049   3.011   0.244   5.450  0.1037  1.3691 -1.0774
 9082WAT    EPW37050   2.934   0.258   5.451 -0.1056  0.3692  0.1895
 9083WAT      O37051   3.627   0.759   4.747 -0.3429 -0.0892  0.3110
 9083WAT     H137052   3.613   0.845   4.739  0.3442  0.0232  0.1770
 9083WAT     H237053   3.705   0.748   4.710 -0.0153 -0.6218  1.1164
 9083WAT    EPW37054   3.637   0.770   4.741 -0.1930 -0.1513  0.4102
 9084WAT      O37055   3.090   1.763   5.185 -0.3060 -0.0225 -0.1965
 9084WAT     H137056   3.036   1.735   5.122  0.9770 -1.1655 -0.8451
 9084WAT     H237057   3.046   1.828   5.222 -1.0839  0.7924 -2.3782
 9084WAT    EPW37058   3.076   1.769   5.181 -0.2314 -0.0710 -0.6146
 9085WAT      O37059   3.284   2.395   6.837 -0.4480  0.2353  0.0696
 9085WAT     H137060   3.292   2.322   6.884  1.2301  0.5492  0.3516
 9085WAT     H237061   3.307   2.458   6.894 -1.2588  0.9382 -0.3462
 9085WAT    EPW37062   3.288   2.394   6.852 -0.3199  0.3855  0.0499
 9086WAT      O37063   3.037   6.828   5.615 -1.1089 -0.0003  0.3672
 9086WAT     H137064   3.000   6.890   5.664  0.4765  1.8935 -0.6692
 9086WAT     H237065   3.023   6.856   5.534 -2.8925 -2.5924 -0.3330
 9086WAT    EPW37066   3.029   6.841   5.610 -1.1382 -0.1035  0.1107
 9087WAT      O37067   2.555   0.127   4.603 -0.7646  0.2180  0.8057
 9087WAT     H137068   2.629   0.144   4.646  0.4038 -0.5501 -0.8075
 9087WAT     H237069   2.576   0.061   4.551 -1.9956  1.3075 -1.1952
 9087WAT    EPW37070   2.569   0.120   4.602 -0.7739  0.2654  0.2718
 9088WAT      O37071   4.294   1.906   4.885  0.0389 -0.2721 -0.1791
 9088WAT     H137072   4.374   1.872   4.893 -0.3308 -1.3851 -0.9410
 9088WAT     H237073   4.285   1.918   4.799 -0.4173  0.3359 -0.0510
 9088WAT    EPW37074   4.304   1.903   4.874 -0.0831 -0.3467 -0.2727
 9089WAT      O37075   2.210   0.674   5.868 -0.6097 -0.1678  0.6685
 9089WAT     H137076   2.191   0.698   5.786 -0.7167 -0.6024  0.5652
 9089WAT     H237077   2.251   0.744   5.901 -2.1115  0.6835  0.8026
 9089WAT    EPW37078   2.213   0.688   5.861 -0.8473 -0.1062  0.6731
 9090WAT      O37079   3.707   1.554   3.910 -0.1504 -0.1110  0.0335
 9090WAT     H137080   3.687   1.540   3.826 -1.4945 -0.7547  0.4384
 9090WAT     H237081   3.788   1.587   3.906  0.4455 -1.6139 -1.4059
 9090WAT    EPW37082   3.716   1.557   3.897 -0.2609 -0.4281 -0.1193
 9091WAT      O37083   4.659   1.675   4.458 -0.3537  0.0429  0.0473
 9091WAT     H137084   4.594   1.629   4.493 -0.6536  0.7530  0.4564
 9091WAT     H237085   4.713   1.615   4.426 -0.0554 -0.6228  1.7533
 9091WAT    EPW37086   4.657   1.660   4.458 -0.3540  0.0495  0.3597
 9092WAT      O37087   2.958   7.671   4.612  0.7182 -0.5798 -0.0467
 9092WAT     H137088   2.933   7.708   4.537  0.1948  0.8336  0.7968
 9092WAT     H237089   2.935   7.587   4.602 -0.9792 -0.0596 -0.7778
 9092WAT    EPW37090   2.951   7.664   4.599  0.3901 -0.2942 -0.0301
 9093WAT      O37091   2.582   2.688   5.206  0.0541  0.5450 -0.4751
 9093WAT     H137092   2.521   2.627   5.193 -0.1313  0.9077 -1.4464
 9093WAT     H237093   2.656   2.642   5.213 -0.2683  0.1254  0.3295
 9093WAT    EPW37094   2.584   2.672   5.205 -0.0209  0.5366 -0.4997
 9094WAT      O37095   1.943   2.256   3.829  0.4235  0.3337 -0.4307
 9094WAT     H137096   1.869   2.280   3.789 -0.4662  3.1689  2.5157
 9094WAT     H237097   1.996   2.324   3.814  0.8361  0.4006  1.2068
 9094WAT    EPW37098   1.940   2.270   3.821  0.3530  0.7624  0.2464
 9095WAT      O37099   2.967   7.278   6.609 -0.3223 -0.1539 -0.3487
 9095WAT     H137100   3.037   7.227   6.601 -0.0899 -0.1335  1.2765
 9095WAT     H237101   2.929   7.251   6.683 -0.7078  1.3761  0.0687
 9095WAT    EPW37102   2.971   7.267   6.619 -0.3449  0.0751 -0.0470
 9096WAT      O37103   3.158   1.852   3.697 -0.1187 -0.2306  0.2821
 9096WAT     H137104   3.224   1.837   3.642 -0.7170 -2.2530  0.0132
 9096WAT     H237105   3.089   1.857   3.644 -0.3173  0.9834  0.6342
 9096WAT    EPW37106   3.158   1.851   3.681 -0.2364 -0.3500  0.2944
 9097WAT      O37107   4.751   2.313   5.674 -0.0487 -0.0332 -0.0401
 9097WAT     H137108   4.756   2.226   5.667  3.2784  0.1503 -3.0849
 9097WAT     H237109   4.711   2.337   5.600  0.1454  1.0598  0.1880
 9097WAT    EPW37110   4.746   2.304   5.662  0.4715  0.1553 -0.4562
 9098WAT      O37111   2.104   1.214   5.740 -0.9267 -0.2186 -0.3907
 9098WAT     H137112   2.173   1.260   5.713 -0.5830  0.5487  1.6282
 9098WAT     H237113   2.085   1.164   5.671  0.9974  0.2857 -1.3701
 9098WAT    EPW37114   2.112   1.213   5.726 -0.5917 -0.0307 -0.2372
 9099WAT      O37115   2.328   7.150   3.385 -1.0059  0.0425  0.6763
 9099WAT     H137116   2.338   7.213   3.326  0.5405  1.0065  1.8881
 9099WAT     H237117   2.346   7.189   3.461 -1.5287 -1.4875  1.6520
 9099WAT    EPW37118   2.332   7.165   3.388 -0.8547 -0.0411  0.9994
 9100WAT      O37119   3.972   0.840   7.158 -0.4777 -0.1963 -0.4121
 9100WAT     H137120   4.008   0.919   7.149  2.8743 -1.4239  0.5806
 9100WAT     H237121   3.970   0.810   7.076  2.7410 -0.7125 -0.4394
 9100WAT    EPW37122   3.977   0.847   7.144  0.4929 -0.4539 -0.2695
 9101WAT      O37123   2.472   0.115   6.615 -0.3823 -0.5656 -0.3750
 9101WAT     H137124   2.388   0.118   6.591 -0.3619  1.1278 -0.4042
 9101WAT     H237125   2.489   0.198   6.638  1.5018 -0.6891 -1.1566
 9101WAT    EPW37126   2.462   0.128   6.615 -0.1010 -0.3337 -0.4948
 9102WAT      O37127   2.548   1.280   5.450 -0.1593 -0.2249 -0.0646
 9102WAT     H137128   2.593   1.217   5.489  0.6788 -0.2899 -1.0877
 9102WAT     H237129   2.508   1.238   5.384 -1.5770 -0.1302  0.7023
 9102WAT    EPW37130   2.549   1.264   5.446 -0.2449 -0.2205 -0.1024
 9103WAT      O37131   5.181   1.655   3.330  0.1931  0.0697  0.1916
 9103WAT     H137132   5.129   1.706   3.379  0.6010  2.0191 -1.2766
 9103WAT     H237133   5.261   1.672   3.361  0.1925 -1.3412  1.0674
 9103WAT    EPW37134   5.185   1.665   3.342  0.2533  0.1493  0.1041
 9104WAT      O37135   3.147   1.407   4.345  0.0278  0.2578 -0.4522
 9104WAT     H137136   3.092   1.475   4.344 -0.6550 -0.2795 -0.7219
 9104WAT     H237137   3.185   1.412   4.423  0.7950  1.5713 -0.8851
 9104WAT    EPW37138   3.144   1.418   4.357  0.0402  0.3725 -0.5560
 9105WAT      O37139   0.779   7.296   5.983 -0.2587 -0.8917  0.0686
 9105WAT     H137140   0.769   7.355   6.046  1.7752 -0.1318 -0.2296
 9105WAT     H237141   0.808   7.225   6.026  0.7523 -0.4968  0.0679
 9105WAT    EPW37142   0.782   7.294   5.999  0.1911 -0.7211  0.0245
 9106WAT      O37143   3.429   0.367   5.605 -0.4583 -0.1488  0.3251
 9106WAT     H137144   3.487   0.304   5.590 -1.6278 -1.7768  2.0581
 9106WAT     H237145   3.465   0.414   5.669 -0.1126  0.2359 -0.1414
 9106WAT    EPW37146   3.443   0.364   5.612 -0.5800 -0.3324  0.5122
 9107WAT      O37147   3.638   1.185   5.182  0.5519  0.6425 -0.6034
 9107WAT     H137148   3.647   1.218   5.262 -0.4012 -0.4055 -0.0275
 9107WAT     H237149   3.715   1.199   5.145  1.5736 -0.2142  1.0419
 9107WAT    EPW37150   3.651   1.192   5.188  0.5621  0.3612 -0.2753
 9108WAT      O37151   3.020   1.922   5.976  0.2345  0.0802  0.1597
 9108WAT     H137152   3.082   1.863   5.990  0.3719  0.2003  0.0590
 9108WAT     H237153   2.980   1.894   5.904  0.1851  0.0150  0.2121
 9108WAT    EPW37154   3.023   1.909   5.967  0.2475  0.0883  0.1526
 9109WAT      O37155   2.130   7.261   6.097  0.5041 -0.1155  0.2291
 9109WAT     H137156   2.212   7.278   6.123  0.5293  0.7199 -0.3330
 9109WAT     H237157   2.121   7.310   6.025 -0.4502 -0.2845  0.2176
 9109WAT    EPW37158   2.141   7.271   6.090  0.3669 -0.0171  0.1444
 9110WAT      O37159   5.119   6.817   4.668 -0.0294 -0.2504  0.0394
 9110WAT     H137160   5.040   6.821   4.632  0.1075  0.3810 -0.2206
 9110WAT     H237161   5.122   6.889   4.719  0.9724  0.6752 -1.2519
 9110WAT    EPW37162   5.108   6.828   4.670  0.1388 -0.0204 -0.1898
 9111WAT      O37163   1.892   0.095   5.710  0.0863  0.1581 -0.4800
 9111WAT     H137164   1.973   0.070   5.689  0.0513 -1.5954  1.2494
 9111WAT     H237165   1.896   0.109   5.796 -1.2831  0.7639 -0.4866
 9111WAT    EPW37166   1.905   0.094   5.720 -0.1212 -0.0114 -0.2255
 9112WAT      O37167   3.899   7.240   6.477  0.4011 -0.3034 -0.7182
 9112WAT     H137168   3.929   7.312   6.438  0.7721  0.6058  1.1269
 9112WAT     H237169   3.821   7.228   6.442 -0.0074  1.4991 -0.5067
 9112WAT    EPW37170   3.892   7.249   6.466  0.3955  0.0972 -0.4144
 9113WAT      O37171   3.642   0.560   4.091  0.0985  0.1796 -0.0485
 9113WAT     H137172   3.633   0.645   4.073  2.8524  0.2978 -1.5370
 9113WAT     H237173   3.722   0.542   4.061 -1.2014 -3.4568 -1.8716
 9113WAT    EPW37174   3.653   0.570   4.084  0.3133 -0.3401 -0.5377
 9114WAT      O37175   2.419   0.062   3.525  0.4688 -0.1346  0.0043
 9114WAT     H137176   2.475   0.088   3.587  0.8628  0.2270 -0.5021
 9114WAT     H237177   2.462   0.076   3.451  0.7227 -2.2144 -0.3157
 9114WAT    EPW37178   2.434   0.068   3.523  0.5645 -0.3884 -0.1178
 9115WAT      O37179   2.737   1.755   5.141 -0.2562 -0.2297  0.5805
 9115WAT     H137180   2.743   1.734   5.225 -1.4481  2.4981  1.4588
 9115WAT     H237181   2.652   1.769   5.129 -0.3450 -1.9444 -1.5474
 9115WAT    EPW37182   2.726   1.754   5.151 -0.4454 -0.0800  0.3959
 9116WAT      O37183   3.585   1.054   4.325  0.4578 -0.0119  0.2915
 9116WAT     H137184   3.519   1.097   4.363 -1.3440 -2.2645 -0.0942
 9116WAT     H237185   3.573   0.972   4.349  1.6474 -0.9109 -1.8879
 9116WAT    EPW37186   3.574   1.049   4.334  0.3674 -0.4774 -0.0874
 9117WAT      O37187   2.556   0.457   4.031  0.2963 -0.0358 -0.4693
 9117WAT     H137188   2.539   0.387   3.981  0.9532 -1.6987  1.4996
 9117WAT     H237189   2.477   0.490   4.047 -0.1139 -0.8787 -0.6795
 9117WAT    EPW37190   2.541   0.452   4.026  0.3328 -0.4059 -0.2095
 9118WAT      O37191   2.607   1.371   5.789 -0.1954 -0.2164 -0.2680
 9118WAT     H137192   2.521   1.364   5.800 -0.3424 -0.0399 -1.2636
 9118WAT     H237193   2.615   1.431   5.726  0.5752 -1.7585 -1.7124
 9118WAT    EPW37194   2.595   1.379   5.781 -0.1033 -0.4181 -0.6285
 9119WAT      O37195   2.576   1.173   3.218 -0.1996 -0.2657  0.2825
 9119WAT     H137196   2.517   1.156   3.280 -0.4982 -0.0251  0.0643
 9119WAT     H237197   2.567   1.107   3.162 -1.7517  0.8363 -0.8606
 9119WAT    EPW37198   2.566   1.161   3.219 -0.4730 -0.0674  0.0814
 9120WAT      O37199   1.215   7.566   5.330  0.1677 -0.2074 -0.0851
 9120WAT     H137200   1.223   7.489   5.369 -0.3784  0.6485  1.8391
 9120WAT     H237201   1.130   7.584   5.336  0.4953  1.2130  0.9788
 9120WAT    EPW37202   1.204   7.558   5.337  0.1354  0.1289  0.3563
 9121WAT      O37203   4.128   1.190   5.699 -0.3235  0.2775 -0.6726
 9121WAT     H137204   4.120   1.170   5.614  0.6719  1.9053 -1.1925
 9121WAT     H237205   4.046   1.200   5.726 -0.6283  2.1319 -2.0988
 9121WAT    EPW37206   4.115   1.189   5.690 -0.2215  0.7919 -0.9601
 9122WAT      O37207   4.076   1.440   6.075 -0.4868  0.5442 -0.3524
 9122WAT     H137208   4.149   1.396   6.093  0.0484  1.7912  0.6918
 9122WAT     H237209   4.015   1.378   6.070  0.3743 -0.3813  0.2865
 9122WAT    EPW37210   4.078   1.424   6.077 -0.2806  0.5917 -0.1038
 9123WAT      O37211   1.891   1.343   5.414 -0.0149  0.2941  0.3675
 9123WAT     H137212   1.964   1.295   5.410  0.6920  1.3213  0.4482
 9123WAT     H237213   1.866   1.350   5.330 -1.2619 -1.8438  0.5076
 9123WAT    EPW37214   1.898   1.337   5.401 -0.0947  0.1300  0.4001
 9124WAT      O37215   3.504   7.254   6.656  0.2809  0.4800  0.8297
 9124WAT     H137216   3.433   7.293   6.686  0.7210  1.7026  0.3342
 9124WAT     H237217   3.485   7.236   6.573  0.8178  1.5229  0.4688
 9124WAT    EPW37218   3.491   7.257   6.648  0.4252  0.8147  0.7032
 9125WAT      O37219   4.733   0.375   4.676  0.1312  0.3407 -0.1056
 9125WAT     H137220   4.737   0.363   4.762 -2.3649 -0.4062 -0.0262
 9125WAT     H237221   4.754   0.296   4.644  0.9730  0.5955 -0.2044
 9125WAT    EPW37222   4.737   0.361   4.684 -0.1132  0.2680 -0.1085
 9126WAT      O37223   3.800   0.837   5.478 -0.5326 -0.3687  0.5615
 9126WAT     H137224   3.749   0.768   5.490  0.7504 -1.4640 -0.0655
 9126WAT     H237225   3.752   0.889   5.427 -1.0522 -1.3496  0.0276
 9126WAT    EPW37226   3.785   0.835   5.472 -0.4198 -0.6754  0.3900
 9127WAT      O37227   4.180   0.489   4.337 -0.1185 -0.4070 -0.4159
 9127WAT     H137228   4.198   0.520   4.417 -1.4087 -1.3168  0.2633
 9127WAT     H237229   4.214   0.549   4.284 -0.3910  0.9049  0.8219
 9127WAT    EPW37230   4.188   0.502   4.341 -0.3493 -0.3476 -0.1327
 9128WAT      O37231   3.370   7.422   4.037 -0.3281  0.3792 -0.2207
 9128WAT     H137232   3.299   7.387   4.074  0.1698  0.4572  0.8264
 9128WAT     H237233   3.423   7.438   4.104 -0.3365  2.7332 -0.6886
 9128WAT    EPW37234   3.367   7.419   4.052 -0.2558  0.7385 -0.1352
 9129WAT      O37235   2.261   7.045   3.980  0.0317  0.4181  0.5028
 9129WAT     H137236   2.205   7.067   4.042 -0.7977 -0.6362  0.1611
 9129WAT     H237237   2.213   6.999   3.924  0.6870  1.5194 -1.0621
 9129WAT    EPW37238   2.246   7.042   3.981  0.0060  0.4250  0.2212
 9130WAT      O37239   3.828   0.628   6.027  0.1808  0.2393  0.3468
 9130WAT     H137240   3.766   0.567   6.023  0.0752  0.3521  0.2723
 9130WAT     H237241   3.830   0.661   5.947  0.4373  0.1398  0.3097
 9130WAT    EPW37242   3.819   0.624   6.015  0.2031  0.2412  0.3303
 9131WAT      O37243   2.519   6.668   5.924 -0.3298  0.2492 -0.2369
 9131WAT     H137244   2.469   6.739   5.931  0.0096  0.3799  1.1842
 9131WAT     H237245   2.596   6.700   5.900 -0.0676  0.4378  0.7935
 9131WAT    EPW37246   2.523   6.684   5.922 -0.2409  0.2964  0.1252
 9132WAT      O37247   2.913   0.356   6.250  0.1314 -0.3233  0.1420
 9132WAT     H137248   2.899   0.422   6.196  0.5480  0.7466  1.2826
 9132WAT     H237249   3.000   0.356   6.260 -0.0006  0.3031  1.6956
 9132WAT    EPW37250   2.924   0.366   6.244  0.1734 -0.0728  0.5400
 9133WAT      O37251   3.311   0.232   5.996 -0.2958  0.0498 -0.9016
 9133WAT     H137252   3.390   0.202   5.979  0.0500  0.5505 -0.2498
 9133WAT     H237253   3.292   0.284   5.928  0.4596  0.8997 -0.4880
 9133WAT    EPW37254   3.320   0.236   5.984 -0.1331  0.2493 -0.7442
 9134WAT      O37255   4.237   0.572   5.650  0.3820  0.2222  0.3804
 9134WAT     H137256   4.205   0.495   5.678 -1.5224  1.4318  1.8259
 9134WAT     H237257   4.278   0.552   5.576 -0.3895 -2.1246  0.5069
 9134WAT    EPW37258   4.238   0.557   5.643 -0.0133  0.0542  0.6126
 9135WAT      O37259   3.722   6.527   4.566 -0.3539  0.2014  0.2959
 9135WAT     H137260   3.656   6.583   4.565 -0.0214  0.6213 -2.0204
 9135WAT     H237261   3.788   6.571   4.531  0.3954 -1.0770  0.0103
 9135WAT    EPW37262   3.722   6.542   4.561 -0.1941  0.0746 -0.0885
 9136WAT      O37263   2.536   0.494   4.792 -0.0688 -0.7169 -0.3666
 9136WAT     H137264   2.527   0.565   4.842 -0.7309 -0.3524 -0.9805
 9136WAT     H237265   2.523   0.428   4.848  0.8243 -0.3742  0.2650
 9136WAT    EPW37266   2.532   0.495   4.808 -0.0347 -0.6124 -0.3640
 9137WAT      O37267   1.873   0.256   5.467  0.3829 -0.4470 -0.2477
 9137WAT     H137268   1.871   0.227   5.550  0.2911 -0.6922 -0.3347
 9137WAT     H237269   1.907   0.336   5.474  0.4098 -0.4813  0.0242
 9137WAT    EPW37270   1.878   0.263   5.481  0.3733 -0.4883 -0.2204
 9138WAT      O37271   4.429   1.047   4.881  0.1336 -0.3596  0.1831
 9138WAT     H137272   4.469   1.125   4.874 -2.6096  1.0269 -2.2510
 9138WAT     H237273   4.379   1.057   4.951  1.1840 -0.6795  0.9957
 9138WAT    EPW37274   4.428   1.060   4.890 -0.1164 -0.2020 -0.0564
 9139WAT      O37275   2.628   6.864   4.470 -0.1918 -0.1903  0.0014
 9139WAT     H137276   2.623   6.826   4.549  0.6008  0.4194  0.3592
 9139WAT     H237277   2.695   6.919   4.478 -0.2989  0.1065 -1.0115
 9139WAT    EPW37278   2.637   6.867   4.483 -0.0905 -0.0564 -0.0954
 9140WAT      O37279   4.757   7.080   4.727 -0.6171  0.1974  0.2621
 9140WAT     H137280   4.753   7.136   4.660  2.7708 -0.0261 -0.3113
 9140WAT     H237281   4.749   7.002   4.689 -2.0172  0.1390  0.6252
 9140WAT    EPW37282   4.755   7.077   4.711 -0.3235  0.1558  0.2310
 9141WAT      O37283   4.446   1.375   4.883 -0.0764 -0.3537  0.3597
 9141WAT     H137284   4.456   1.368   4.970  1.8821  3.7853  0.7219
 9141WAT     H237285   4.376   1.427   4.875  0.4503  0.2442 -0.4595
 9141WAT    EPW37286   4.437   1.382   4.895  0.2907  0.3460  0.2922
 9142WAT      O37287   4.239   1.297   2.468 -0.0159  0.2697 -0.3068
 9142WAT     H137288   4.229   1.234   2.527  0.5300  0.2666 -0.2103
 9142WAT     H237289   4.221   1.257   2.392 -2.6118  0.7378 -0.0262
 9142WAT    EPW37290   4.235   1.282   2.465 -0.3187  0.3384 -0.2511
 9143WAT      O37291   2.597   1.006   6.402  0.2255  0.2633  0.3783
 9143WAT     H137292   2.560   0.968   6.472  1.6212 -0.3495  0.8268
 9143WAT     H237293   2.676   0.969   6.398 -0.4193 -1.0999 -2.6219
 9143WAT    EPW37294   2.603   0.995   6.412  0.3364 -0.0286  0.0013
 9144WAT      O37295   4.260   0.843   4.598 -0.1033 -0.4416  0.2214
 9144WAT     H137296   4.260   0.879   4.519  0.0145 -0.6306  0.1357
 9144WAT     H237297   4.264   0.757   4.582 -1.2840 -0.5489  0.3909
 9144WAT    EPW37298   4.260   0.836   4.584 -0.2603 -0.4854  0.2338
 9145WAT      O37299   3.706   1.077   6.182  0.0413 -0.7048  0.7102
 9145WAT     H137300   3.753   1.009   6.210  2.0424  0.9834  1.7742
 9145WAT     H237301   3.629   1.066   6.222 -0.4682 -3.3379 -0.7595
 9145WAT    EPW37302   3.702   1.066   6.192  0.2616 -0.8444  0.6503
 9146WAT      O37303   2.275   6.358   7.434  0.2407 -0.6691  0.0694
 9146WAT     H137304   2.231   6.283   7.445 -0.4291 -0.0814  1.6691
 9146WAT     H237305   2.219   6.408   7.389  0.9235 -1.2781 -1.5532
 9146WAT    EPW37306   2.260   6.354   7.429  0.2426 -0.6722  0.0660
 9147WAT      O37307   4.189   0.970   6.082 -0.0501  0.0435  0.4313
 9147WAT     H137308   4.140   0.915   6.035  0.7608 -0.1270 -0.2512
 9147WAT     H237309   4.240   0.917   6.128 -0.2949  0.2218  0.9102
 9147WAT    EPW37310   4.189   0.954   6.082  0.0335  0.0446  0.4012
 9148WAT      O37311   2.623   0.569   6.372  0.1380  0.1427 -0.8032
 9148WAT     H137312   2.643   0.625   6.436  0.0387 -0.9731  0.2362
 9148WAT     H237313   2.604   0.621   6.305  2.1655  1.3535 -0.5508
 9148WAT    EPW37314   2.623   0.585   6.372  0.4228  0.1567 -0.6124
 9149WAT      O37315   4.915   1.475   4.891  0.3208  0.4453 -0.0914
 9149WAT     H137316   4.931   1.478   4.976 -1.1301 -1.7600  0.3161
 9149WAT     H237317   4.844   1.525   4.881 -1.4550 -1.8194  0.5831
 9149WAT    EPW37318   4.907   1.483   4.902 -0.1559 -0.2150  0.0684
 9150WAT      O37319   4.346   0.371   5.464 -0.3280 -0.1122  0.4660
 9150WAT     H137320   4.265   0.341   5.454  0.0677 -0.6718 -1.4290
 9150WAT     H237321   4.350   0.439   5.410  0.6950 -0.5932 -0.1065
 9150WAT    EPW37322   4.335   0.377   5.454 -0.1184 -0.2660  0.1015
 9151WAT      O37323   3.145   0.421   3.882 -0.5231  0.1952  0.2626
 9151WAT     H137324   3.175   0.493   3.921 -0.8239 -0.5085  1.8841
 9151WAT     H237325   3.218   0.378   3.860 -0.3509  0.5667  0.0881
 9151WAT    EPW37326   3.160   0.425   3.884 -0.5421  0.1461  0.4764
 9152WAT      O37327   2.817   0.171   4.747 -0.3777 -0.1135  0.2445
 9152WAT     H137328   2.853   0.151   4.824 -0.4704  0.7270  0.5243
 9152WAT     H237329   2.858   0.120   4.690  1.8905  1.3978  0.4145
 9152WAT    EPW37330   2.828   0.161   4.750 -0.0563  0.2339  0.3109
 9153WAT      O37331   3.069   0.913   5.383 -0.1573 -0.1830  0.4285
 9153WAT     H137332   3.029   0.836   5.369 -0.9102  0.5530 -1.9203
 9153WAT     H237333   3.150   0.900   5.351  0.5919 -0.7458  2.4289
 9153WAT    EPW37334   3.075   0.899   5.376 -0.1579 -0.1574  0.3770
 9154WAT      O37335   4.737   0.303   4.948  0.0873  0.3477 -0.2470
 9154WAT     H137336   4.698   0.350   5.010 -0.1472 -1.0455  0.6981
 9154WAT     H237337   4.677   0.243   4.928  0.0859  0.8688 -1.9738
 9154WAT    EPW37338   4.722   0.301   4.954  0.0524  0.2189 -0.3625
 9155WAT      O37339   3.640   1.517   5.276 -0.3701 -0.1812 -0.0641
 9155WAT     H137340   3.643   1.542   5.192 -0.9883 -2.0044 -0.6655
 9155WAT     H237341   3.590   1.579   5.313 -2.2576 -0.6847 -1.5879
 9155WAT    EPW37342   3.633   1.530   5.269 -0.7402 -0.5249 -0.3780
 9156WAT      O37343   2.370   3.063   5.373  0.1638  0.1688 -0.2464
 9156WAT     H137344   2.384   3.149   5.385 -1.2730  0.4823 -0.6288
 9156WAT     H237345   2.427   3.041   5.311  1.8041  0.4185  1.1090
 9156WAT    EPW37346   2.380   3.073   5.366  0.1939  0.2520 -0.1027
 9157WAT      O37347   1.599   7.094   3.896  0.3986 -0.4917 -1.0375
 9157WAT     H137348   1.584   7.146   3.965  0.1930 -1.8508 -0.0096
 9157WAT     H237349   1.626   7.149   3.835 -1.0539  1.0079 -0.4181
 9157WAT    EPW37350   1.601   7.110   3.897  0.1537 -0.4709 -0.7941
 9158WAT      O37351   1.910   0.409   5.013  0.0314 -0.2961 -0.4327
 9158WAT     H137352   1.878   0.353   5.072 -1.5857 -0.8075 -1.7395
 9158WAT     H237353   1.967   0.456   5.059 -1.3571 -0.4957  1.6041
 9158WAT    EPW37354   1.914   0.407   5.028 -0.4126 -0.4011 -0.3249
 9159WAT      O37355   3.610   1.469   6.039 -0.2219 -0.5660 -0.2644
 9159WAT     H137356   3.604   1.537   6.093 -0.7673  0.0384 -1.0712
 9159WAT     H237357   3.533   1.429   6.048 -1.6545  1.2955 -2.8419
 9159WAT    EPW37358   3.598   1.473   6.048 -0.5141 -0.2017 -0.7643
 9160WAT      O37359   2.102   0.725   5.607 -0.1771 -0.2952 -0.2651
 9160WAT     H137360   2.066   0.646   5.600 -0.3169 -0.2679  0.1157
 9160WAT     H237361   2.039   0.773   5.644  0.2656 -0.2709  0.4821
 9160WAT    EPW37362   2.087   0.720   5.611 -0.1324 -0.2876 -0.0985
 9161WAT      O37363   3.574   0.657   5.538 -0.0175  0.1214  0.2556
 9161WAT     H137364   3.497   0.628   5.565  0.7072 -2.2385 -0.0489
 9161WAT     H237365   3.576   0.636   5.454 -0.2504  2.9994 -0.5754
 9161WAT    EPW37366   3.563   0.650   5.530  0.0552  0.1979  0.0879
 9162WAT      O37367   2.988   7.377   4.883  0.2693  0.1096  0.3146
 9162WAT     H137368   2.933   7.421   4.934  0.2389 -0.0085  0.3819
 9162WAT     H237369   2.947   7.375   4.806  0.4003  0.4544  0.2320
 9162WAT    EPW37370   2.974   7.383   4.879  0.2842  0.1431  0.3123
 9163WAT      O37371   3.202   7.107   6.606 -0.1949  0.1622 -0.2374
 9163WAT     H137372   3.248   7.046   6.649 -0.1376  0.0590 -0.4482
 9163WAT     H237373   3.221   7.180   6.650 -0.4076  0.0014  0.1262
 9163WAT    EPW37374   3.212   7.109   6.619 -0.2179  0.1232 -0.2148
 9164WAT      O37375   4.607   1.575   4.805 -0.0368  0.3678 -0.0610
 9164WAT     H137376   4.573   1.651   4.832 -0.7012  0.4976 -1.1981
 9164WAT     H237377   4.569   1.516   4.857  0.8155  0.8375  1.1200
 9164WAT    EPW37378   4.596   1.578   4.817 -0.0091  0.4564 -0.0545
 9165WAT      O37379   2.215   0.322   5.180 -0.0933 -0.1769  0.0105
 9165WAT     H137380   2.278   0.268   5.154 -0.9812 -1.5015  0.5068
 9165WAT     H237381   2.180   0.282   5.249  0.3716  1.9109  1.5654
 9165WAT    EPW37382   2.219   0.308   5.186 -0.1558 -0.0642  0.3135
 9166WAT      O37383   3.642   1.173   3.758 -0.3556 -0.1561  0.0173
 9166WAT     H137384   3.664   1.249   3.795 -0.5871 -0.3963  0.6673
 9166WAT     H237385   3.600   1.130   3.822 -1.6108 -0.2012 -0.8053
 9166WAT    EPW37386   3.639   1.178   3.773 -0.5752 -0.1983 -0.0082
 9167WAT      O37387   2.167   1.290   3.432  0.0454 -0.2030 -0.4374
 9167WAT     H137388   2.117   1.309   3.363  1.6691  1.2302 -1.3030
 9167WAT     H237389   2.228   1.353   3.430 -0.0686  0.1349  2.5430
 9167WAT    EPW37390   2.169   1.302   3.421  0.2684  0.0586 -0.1250
 9168WAT      O37391   2.067   7.431   3.264  0.2621  0.1014  0.0769
 9168WAT     H137392   2.128   7.479   3.303 -0.5108  0.8044  0.4301
 9168WAT     H237393   2.097   7.423   3.182  1.9495 -1.4849  0.7700
 9168WAT    EPW37394   2.080   7.437   3.258  0.3972 -0.0291  0.2314
 9169WAT      O37395   2.795   1.173   5.852 -0.1396  0.2857 -0.1001
 9169WAT     H137396   2.728   1.228   5.841 -0.8654 -0.0865  2.0134
 9169WAT     H237397   2.773   1.128   5.924  1.4632 -1.2416 -0.4973
 9169WAT    EPW37398   2.782   1.174   5.861 -0.0100  0.0051  0.1534
 9170WAT      O37399   3.755   1.949   6.051  0.5048 -0.2037  0.1409
 9170WAT     H137400   3.780   1.956   5.967  2.8153  0.8756  0.8441
 9170WAT     H237401   3.725   2.028   6.071 -0.4842 -0.5856  0.2512
 9170WAT    EPW37402   3.754   1.962   6.041  0.7000 -0.1007  0.2611
 9171WAT      O37403   3.918   7.695   4.614  0.1857  0.0248  0.6249
 9171WAT     H137404   3.881   7.709   4.692 -0.7847 -0.3248  0.2342
 9171WAT     H237405   3.905   7.610   4.600 -1.5380  0.4932 -0.8710
 9171WAT    EPW37406   3.911   7.685   4.624 -0.2123  0.0423  0.3462
 9172WAT      O37407   4.254   1.525   5.849 -0.4460 -0.0315  0.2152
 9172WAT     H137408   4.193   1.481   5.892 -1.2224 -2.9675 -3.3911
 9172WAT     H237409   4.218   1.541   5.771  2.5922  0.0403 -1.3310
 9172WAT    EPW37410   4.240   1.521   5.843 -0.1119 -0.4546 -0.5459
 9173WAT      O37411   4.200   0.475   6.453 -0.0150 -0.4538  0.4704
 9173WAT     H137412   4.134   0.422   6.429 -0.3962 -0.4763  1.5161
 9173WAT     H237413   4.161   0.552   6.464 -0.0762 -0.6880  2.0589
 9173WAT    EPW37414   4.184   0.478   6.451 -0.0804 -0.4917  0.8595
 9174WAT      O37415   3.833   1.298   6.087 -0.7812  0.3102  0.3902
 9174WAT     H137416   3.791   1.225   6.109 -0.2510 -0.1157  0.0261
 9174WAT     H237417   3.769   1.356   6.072 -1.3391 -0.7581 -1.7099
 9174WAT    EPW37418   3.817   1.296   6.088 -0.7853  0.0895  0.0262
 9175WAT      O37419   1.742   7.171   4.880 -0.5145  0.2655 -0.4507
 9175WAT     H137420   1.673   7.189   4.930  0.8037 -0.9185  1.9870
 9175WAT     H237421   1.763   7.249   4.845 -2.6042  0.7667 -0.7105
 9175WAT    EPW37422   1.735   7.185   4.882 -0.6284  0.1646 -0.1290
 9176WAT      O37423   3.507   1.014   4.706  0.2952 -0.8435 -0.1283
 9176WAT     H137424   3.496   1.099   4.719  2.7708 -0.6468  1.4854
 9176WAT     H237425   3.481   1.001   4.624 -1.5416  1.1356  0.0685
 9176WAT    EPW37426   3.501   1.024   4.696  0.3896 -0.5221  0.1391
 9177WAT      O37427   1.430   0.531   5.140  0.2850 -0.1051  0.4006
 9177WAT     H137428   1.492   0.489   5.095  1.9071  0.4543  1.9941
 9177WAT     H237429   1.474   0.567   5.206 -1.1329  3.3795 -0.3357
 9177WAT    EPW37430   1.446   0.530   5.143  0.3152  0.4922  0.5272
 9178WAT      O37431   2.387   7.680   4.829  0.0294  0.0076 -0.3144
 9178WAT     H137432   2.455   7.670   4.775  0.1856  0.1948 -0.1548
 9178WAT     H237433   2.364   7.763   4.817  0.8088  0.3946  0.7752
 9178WAT    EPW37434   2.393   7.691   4.819  0.1676  0.0924 -0.1299
 9179WAT      O37435   3.777   0.722   5.138 -0.4287  0.6787 -0.0203
 9179WAT     H137436   3.717   0.688   5.085 -0.2049  0.3234 -0.0459
 9179WAT     H237437   3.739   0.795   5.168 -2.6777 -1.5428  3.2696
 9179WAT    EPW37438   3.763   0.728   5.135 -0.7279  0.2980  0.4619
 9180WAT      O37439   4.354   1.370   3.461 -0.3989  0.2631  0.1495
 9180WAT     H137440   4.284   1.420   3.477 -0.3702  0.2587  0.2868
 9180WAT     H237441   4.421   1.421   3.484 -0.3217  0.5317 -0.6563
 9180WAT    EPW37442   4.353   1.385   3.467 -0.3832  0.3021  0.0508
 9181WAT      O37443   4.527   6.861   5.597  0.3688 -0.1586  0.0827
 9181WAT     H137444   4.609   6.873   5.568  0.0928  1.0764 -0.2241
 9181WAT     H237445   4.529   6.780   5.629  1.0191 -1.1849 -2.2911
 9181WAT    EPW37446   4.540   6.851   5.597  0.4241 -0.1278 -0.3132
 9182WAT      O37447   2.080   1.013   6.606  0.5008 -0.6460 -0.5835
 9182WAT     H137448   2.138   1.057   6.654  2.4420 -0.8279 -2.6186
 9182WAT     H237449   2.004   1.051   6.627  1.6763  1.4940  0.1539
 9182WAT    EPW37450   2.077   1.025   6.616  0.9612 -0.3567 -0.7752
 9183WAT      O37451   1.779   7.106   3.290  0.3566 -0.4307 -0.2999
 9183WAT     H137452   1.761   7.028   3.256  1.0373 -1.6644  2.0382
 9183WAT     H237453   1.856   7.096   3.328 -0.2914  0.8429  1.5199
 9183WAT    EPW37454   1.788   7.093   3.290  0.3614 -0.4248  0.3143
 9184WAT      O37455   2.877   2.169   5.800  1.4414 -0.4429  0.1613
 9184WAT     H137456   2.830   2.139   5.867  0.2922  0.3637 -0.2513
 9184WAT     H237457   2.891   2.098   5.751  0.9180 -0.7514  0.4508
 9184WAT    EPW37458   2.872   2.154   5.803  1.1943 -0.3693  0.1431
 9185WAT      O37459   3.126   1.445   2.747  0.4537 -0.1678  0.4234
 9185WAT     H137460   3.146   1.513   2.798  0.7689 -0.3106  0.4940
 9185WAT     H237461   3.195   1.439   2.694  0.7080 -0.8236  0.8258
 9185WAT    EPW37462   3.139   1.454   2.747  0.5379 -0.2858  0.4933
 9186WAT      O37463   4.013   0.863   3.765 -0.6743 -0.1394  0.4015
 9186WAT     H137464   4.039   0.946   3.777 -0.8137 -0.1819  0.9927
 9186WAT     H237465   4.073   0.831   3.711 -0.1460  0.0962  0.8466
 9186WAT    EPW37466   4.025   0.871   3.759 -0.6168 -0.1109  0.5545
 9187WAT      O37467   2.985   7.564   0.601 -0.6930  0.2021 -0.0761
 9187WAT     H137468   2.958   7.631   0.649  1.9595  1.1661  0.2172
 9187WAT     H237469   2.975   7.592   0.519 -1.7501  0.0109 -0.0243
 9187WAT    EPW37470   2.980   7.578   0.596 -0.4573  0.3163 -0.0251
 9188WAT      O37471   1.786   7.497   1.411  0.1889  0.3396 -0.2826
 9188WAT     H137472   1.808   7.480   1.329  1.6680  0.0929  0.1387
 9188WAT     H237473   1.753   7.578   1.408 -0.4578  0.0463 -1.2173
 9188WAT    EPW37474   1.784   7.507   1.399  0.3119  0.2598 -0.3585
 9189WAT      O37475   2.079   1.173   1.784  0.9667 -0.0150  0.5000
 9189WAT     H137476   2.116   1.159   1.862 -0.7037  0.8182  1.4950
 9189WAT     H237477   2.129   1.127   1.729  2.0504 -0.8222  2.0847
 9189WAT    EPW37478   2.092   1.164   1.788  0.8800 -0.0111  0.8811
 9190WAT      O37479   2.249   6.378   2.698 -0.4204 -0.1656 -0.1419
 9190WAT     H137480   2.224   6.344   2.621 -1.1842  2.5705 -1.2119
 9190WAT     H237481   2.315   6.431   2.676 -0.6881  0.7020  1.0893
 9190WAT    EPW37482   2.255   6.381   2.683 -0.5728  0.3667 -0.1181
 9191WAT      O37483   2.461   0.280   2.779 -0.0334  0.4303  0.3144
 9191WAT     H137484   2.421   0.204   2.789 -1.8844  1.2265 -0.5215
 9191WAT     H237485   2.545   0.258   2.768 -0.4930 -1.4523  0.2198
 9191WAT    EPW37486   2.467   0.266   2.779 -0.3747  0.2698  0.1769
 9192WAT      O37487   3.964   0.485   3.980 -0.0139 -0.0547 -0.4761
 9192WAT     H137488   3.942   0.494   4.063  0.6170  0.0289 -0.3092
 9192WAT     H237489   4.001   0.561   3.959 -0.5920  0.0999 -0.9755
 9192WAT    EPW37490   3.967   0.497   3.989 -0.0061 -0.0195 -0.5252
 9193WAT      O37491   3.636   1.762   4.129 -0.5522 -0.3370 -0.1533
 9193WAT     H137492   3.611   1.748   4.046  1.2133 -0.6831 -0.6718
 9193WAT     H237493   3.611   1.690   4.170  1.0779 -1.4873 -1.0455
 9193WAT    EPW37494   3.629   1.749   4.123 -0.0506 -0.5580 -0.3617
 9194WAT      O37495   4.566   6.797   1.900 -0.0520  0.6062 -0.6090
 9194WAT     H137496   4.555   6.882   1.913  0.0381  0.4019  1.1234
 9194WAT     H237497   4.497   6.761   1.941  0.7387 -0.1911  0.0747
 9194WAT    EPW37498   4.554   6.804   1.908  0.0781  0.4582 -0.2521
 9195WAT      O37499   2.820   7.341   3.497  0.5656  0.1706  0.5047
 9195WAT     H137500   2.846   7.321   3.578  0.7770  0.9838  0.6478
 9195WAT     H237501   2.880   7.301   3.446 -0.9000 -2.3891  0.6040
 9195WAT    EPW37502   2.833   7.332   3.501  0.3803 -0.0874  0.5405
 9196WAT      O37503   3.047   0.931   2.108 -0.2974 -0.1086  0.3413
 9196WAT     H137504   3.053   0.849   2.136  1.3502 -0.6121 -1.2992
 9196WAT     H237505   3.072   0.926   2.025  2.7783  2.4019  0.8917
 9196WAT    EPW37506   3.052   0.918   2.100  0.4004  0.1879  0.1803
 9197WAT      O37507   4.443   1.591   0.780  0.4513  0.4123 -0.0007
 9197WAT     H137508   4.473   1.577   0.861  0.6548 -3.1821 -0.5469
 9197WAT     H237509   4.356   1.587   0.790  0.4818 -0.2156  0.0190
 9197WAT    EPW37510   4.434   1.589   0.793  0.4859 -0.2114 -0.0785
 9198WAT      O37511   3.330   7.429   0.922  0.2694  0.2719 -0.3945
 9198WAT     H137512   3.290   7.482   0.865 -0.5988 -0.7444 -0.7500
 9198WAT     H237513   3.268   7.371   0.943  0.7830  0.2301  1.0777
 9198WAT    EPW37514   3.315   7.428   0.916  0.2170  0.1156 -0.2295
 9199WAT      O37515   3.824   1.732   0.483 -0.5219 -0.2014  0.4773
 9199WAT     H137516   3.909   1.732   0.466 -0.7803  1.4416 -1.1596
 9199WAT     H237517   3.795   1.659   0.445  0.1374 -0.8861  1.2351
 9199WAT    EPW37518   3.832   1.721   0.475 -0.4627 -0.0598  0.3475
 9200WAT      O37519   3.872   1.424   3.541 -0.1349 -0.2574 -0.3422
 9200WAT     H137520   3.850   1.439   3.458 -1.6800 -0.0165  0.0893
 9200WAT     H237521   3.796   1.415   3.582  0.3646  3.0167  1.6921
 9200WAT    EPW37522   3.858   1.425   3.535 -0.2893  0.2618  0.0220
 9201WAT      O37523   3.106   1.300   4.103  0.2188 -0.5846 -0.4304
 9201WAT     H137524   3.095   1.309   4.189  1.0702 -2.2055 -0.1271
 9201WAT     H237525   3.025   1.308   4.072 -0.1540 -0.3469  0.5370
 9201WAT    EPW37526   3.092   1.303   4.111  0.2895 -0.7889 -0.2427
 9202WAT      O37527   1.821   0.223   4.462 -0.4580  0.2660 -0.0656
 9202WAT     H137528   1.894   0.187   4.429 -1.2835 -0.3476 -1.3057
 9202WAT     H237529   1.790   0.162   4.516 -1.1725 -0.4151 -1.1921
 9202WAT    EPW37530   1.827   0.209   4.465 -0.6855  0.0748 -0.4152
 9203WAT      O37531   3.017   1.212   2.181 -0.1460 -0.1433  0.0966
 9203WAT     H137532   2.938   1.222   2.218 -0.7281 -2.5518 -0.3096
 9203WAT     H237533   3.026   1.126   2.175  2.3895  0.0700 -0.2528
 9203WAT    EPW37534   3.006   1.201   2.186  0.1425 -0.4676 -0.0150
 9204WAT      O37535   3.215   0.908   2.837  0.0195  0.3479 -0.5590
 9204WAT     H137536   3.221   0.992   2.861  0.9979  0.6340 -1.6839
 9204WAT     H237537   3.269   0.867   2.892 -1.7653  0.1447  1.1384
 9204WAT    EPW37538   3.224   0.914   2.849 -0.0996  0.3602 -0.4744
 9205WAT      O37539   4.207   1.266   4.455  0.0288  0.2332 -0.0513
 9205WAT     H137540   4.267   1.266   4.518 -0.4769  1.5513  0.4619
 9205WAT     H237541   4.204   1.182   4.430  0.3993 -0.2872  1.5172
 9205WAT    EPW37542   4.216   1.253   4.461  0.0088  0.3510  0.2562
 9206WAT      O37543   4.679   0.440   3.530  0.6526  0.1816  0.6222
 9206WAT     H137544   4.649   0.502   3.476  1.2565  0.4532  0.5827
 9206WAT     H237545   4.740   0.400   3.482  0.3687 -0.3507  0.7010
 9206WAT    EPW37546   4.684   0.443   3.515  0.6999  0.1431  0.6280
 9207WAT      O37547   3.232   7.628   2.497 -0.3695 -0.0420 -0.0969
 9207WAT     H137548   3.145   7.625   2.485 -0.6522  2.1965  0.8649
 9207WAT     H237549   3.241   7.625   2.583  0.3223  1.9304 -0.0531
 9207WAT    EPW37550   3.220   7.627   2.508 -0.3091  0.5800  0.0517
 9208WAT      O37551   2.742   1.368   4.354  0.1011 -0.7034 -0.2300
 9208WAT     H137552   2.726   1.448   4.325 -3.1866 -0.7749  0.9999
 9208WAT     H237553   2.785   1.382   4.429 -0.6183 -0.0800  0.0742
 9208WAT    EPW37554   2.746   1.382   4.361 -0.4908 -0.6219 -0.0034
 9209WAT      O37555   3.352   1.440   3.719  0.1338 -0.1564 -0.1706
 9209WAT     H137556   3.329   1.390   3.787 -1.0045 -2.0699 -1.8145
 9209WAT     H237557   3.285   1.495   3.711  0.5318  0.4456  0.5688
 9209WAT    EPW37558   3.339   1.441   3.728  0.0244 -0.3502 -0.3042
 9210WAT      O37559   3.156   1.922   1.239  0.0325  0.7395  0.4596
 9210WAT     H137560   3.169   1.851   1.288  0.4105  0.4721 -0.0282
 9210WAT     H237561   3.078   1.952   1.267 -1.0433 -0.9157 -0.5915
 9210WAT    EPW37562   3.146   1.916   1.250 -0.0706  0.4555  0.2323
 9211WAT      O37563   2.344   0.702   3.051  0.3201 -0.2408 -0.3752
 9211WAT     H137564   2.312   0.679   3.129  2.9174 -1.0266  0.5536
 9211WAT     H237565   2.381   0.779   3.066  1.0913 -0.5303 -0.7276
 9211WAT    EPW37566   2.345   0.710   3.065  0.8177 -0.3996 -0.2901
 9212WAT      O37567   2.490   0.836   3.429  0.1297  0.4838 -0.0984
 9212WAT     H137568   2.541   0.887   3.478 -1.2062  1.2869  0.5244
 9212WAT     H237569   2.428   0.890   3.400 -1.1768 -0.6976  0.3576
 9212WAT    EPW37570   2.488   0.852   3.432 -0.2607  0.4280  0.0610
 9213WAT      O37571   3.216   7.208   3.521 -0.1210  0.4119 -0.3566
 9213WAT     H137572   3.292   7.175   3.493  0.8757  1.7912  0.6308
 9213WAT     H237573   3.160   7.188   3.456  0.6255 -2.2499 -0.2860
 9213WAT    EPW37574   3.219   7.200   3.507  0.1365  0.2225 -0.2003
 9214WAT      O37575   2.561   7.540   3.963 -0.0194  0.2752 -0.3616
 9214WAT     H137576   2.635   7.509   3.997 -0.2175  0.0150 -0.1638
 9214WAT     H237577   2.545   7.485   3.897  0.3633  0.7766 -0.8746
 9214WAT    EPW37578   2.569   7.527   3.958  0.0079  0.3108 -0.4082
 9215WAT      O37579   3.305   0.836   4.558  0.1085 -0.0823  0.2113
 9215WAT     H137580   3.247   0.899   4.538 -0.0353 -0.5525 -0.9656
 9215WAT     H237581   3.281   0.810   4.638  0.8118  2.0329  1.1659
 9215WAT    EPW37582   3.293   0.841   4.567  0.1911  0.1607  0.1784
 9216WAT      O37583   3.706   7.230   1.136  0.1789 -0.2870  0.0507
 9216WAT     H137584   3.786   7.243   1.103  0.4084 -1.2392  0.2084
 9216WAT     H237585   3.694   7.144   1.128 -0.8172 -0.1604  0.0683
 9216WAT    EPW37586   3.716   7.219   1.130  0.0656 -0.4090  0.0766
 9217WAT      O37587   1.757   7.236   1.738 -0.1473  0.0675  0.1238
 9217WAT     H137588   1.775   7.184   1.806 -0.0236 -0.1055 -0.0398
 9217WAT     H237589   1.812   7.208   1.676 -0.2025  0.2787 -0.0214
 9217WAT    EPW37590   1.768   7.224   1.739 -0.1372  0.0731  0.0782
 9218WAT      O37591   4.224   1.691   1.877 -0.4601  0.0042 -0.0917
 9218WAT     H137592   4.202   1.732   1.803 -0.1465 -2.8917 -1.9591
 9218WAT     H237593   4.175   1.619   1.875 -0.7492  0.0183  2.8271
 9218WAT    EPW37594   4.214   1.686   1.866 -0.4565 -0.4215  0.0636
 9219WAT      O37595   4.572   0.581   3.039  0.0136  0.7949  0.1582
 9219WAT     H137596   4.605   0.618   2.968 -0.9824 -0.6034 -1.0887
 9219WAT     H237597   4.489   0.564   3.017  0.2247 -1.5324  0.8567
 9219WAT    EPW37598   4.565   0.584   3.026 -0.1024  0.2445  0.0772
 9220WAT      O37599   3.430   0.743   2.918  0.3098  0.0370 -0.3054
 9220WAT     H137600   3.458   0.710   2.994 -2.2977  1.5138  1.4734
 9220WAT     H237601   3.376   0.682   2.888 -0.4393  0.3777  0.2875
 9220WAT    EPW37602   3.426   0.729   2.925 -0.1861  0.3055  0.0450
 9221WAT      O37603   2.508   6.179   2.562  0.0306 -0.1473 -0.1922
 9221WAT     H137604   2.559   6.232   2.609  1.1120 -1.9309  0.7385
 9221WAT     H237605   2.564   6.132   2.515 -0.9477  0.0648 -1.6211
 9221WAT    EPW37606   2.524   6.180   2.562  0.0458 -0.3794 -0.2658
 9222WAT      O37607   4.557   1.239   2.585  0.5551  0.1002  0.5122
 9222WAT     H137608   4.624   1.236   2.529  2.3624 -0.8330  2.5613
 9222WAT     H237609   4.528   1.157   2.587 -0.3680  0.3962  0.0226
 9222WAT    EPW37610   4.562   1.226   2.577  0.6857  0.0061  0.7426
 9223WAT      O37611   2.327   0.493   1.361  0.0549  0.0472  0.3055
 9223WAT     H137612   2.297   0.567   1.396 -0.4230  0.2245 -0.4696
 9223WAT     H237613   2.288   0.431   1.408 -0.6190  0.2850  0.0715
 9223WAT    EPW37614   2.317   0.495   1.373 -0.1152  0.1085  0.1564
 9224WAT      O37615   2.974   2.254   2.018  0.2600 -0.3794 -0.5228
 9224WAT     H137616   3.039   2.208   1.982  1.1543  2.4066 -2.9393
 9224WAT     H237617   2.903   2.226   1.976  0.4988 -0.8584 -0.6072
 9224WAT    EPW37618   2.974   2.243   2.006  0.4274 -0.0386 -0.8922
 9225WAT      O37619   2.911   7.382   2.314  0.3139 -0.1648  0.4215
 9225WAT     H137620   2.893   7.450   2.366  0.2327  1.8900 -2.0335
 9225WAT     H237621   2.834   7.343   2.303  0.1367  0.0179  0.9882
 9225WAT    EPW37622   2.897   7.387   2.320  0.2757  0.1658  0.1425
 9226WAT      O37623   2.878   7.006   2.088 -0.2509  0.0698  0.9747
 9226WAT     H137624   2.958   7.041   2.084 -0.1919 -0.0967  0.6663
 9226WAT     H237625   2.825   7.072   2.068 -0.1102 -0.1360 -0.1348
 9226WAT    EPW37626   2.882   7.021   2.085 -0.2214  0.0148  0.7653
 9227WAT      O37627   3.492   7.471   4.310  0.3178  0.0722  0.8689
 9227WAT     H137628   3.422   7.506   4.347 -0.2595  1.2143 -1.1256
 9227WAT     H237629   3.550   7.536   4.311 -0.1488  0.6006 -1.2461
 9227WAT    EPW37630   3.490   7.486   4.315  0.1636  0.3190  0.2618
 9228WAT      O37631   2.825   1.840   3.218  0.1855  0.4553 -0.5271
 9228WAT     H137632   2.912   1.843   3.219  0.2095  0.5204 -1.5439
 9228WAT     H237633   2.808   1.754   3.218  0.1729  0.3986  1.6179
 9228WAT    EPW37634   2.835   1.828   3.218  0.1872  0.4565 -0.3605
 9229WAT      O37635   3.756   7.431   3.448 -0.5307 -0.0800 -0.2663
 9229WAT     H137636   3.755   7.397   3.528 -1.4467 -0.8360 -0.5714
 9229WAT     H237637   3.675   7.416   3.419  0.4127 -2.0462 -2.2083
 9229WAT    EPW37638   3.743   7.424   3.455 -0.5267 -0.4821 -0.5982
 9230WAT      O37639   3.561   0.133   4.903  0.4712  0.3635  0.4121
 9230WAT     H137640   3.583   0.189   4.841  0.2882 -1.8708 -1.8251
 9230WAT     H237641   3.627   0.076   4.903 -0.7775 -1.1446  0.3802
 9230WAT    EPW37642   3.574   0.133   4.894  0.2597 -0.1893  0.0769
 9231WAT      O37643   2.825   0.596   4.113 -0.3665  0.0721  0.7834
 9231WAT     H137644   2.745   0.565   4.098  0.5276 -1.6493 -0.8468
 9231WAT     H237645   2.877   0.525   4.103  1.5890  1.5958 -0.8509
 9231WAT    EPW37646   2.821   0.581   4.109  0.0545  0.0429  0.3011
 9232WAT      O37647   3.552   7.294   3.054 -0.2285  0.1985  0.1745
 9232WAT     H137648   3.472   7.258   3.057 -0.7558  1.2964 -0.0478
 9232WAT     H237649   3.605   7.225   3.054 -1.1760 -0.5643  0.2786
 9232WAT    EPW37650   3.548   7.278   3.054 -0.4463  0.2480  0.1570
 9233WAT      O37651   4.823   1.618   1.787  0.2179 -0.0925  0.2391
 9233WAT     H137652   4.890   1.590   1.835  0.1935 -0.4287  0.0763
 9233WAT     H237653   4.814   1.701   1.811  0.4466 -0.1555  0.5423
 9233WAT    EPW37654   4.832   1.626   1.798  0.2481 -0.1515  0.2599
 9234WAT      O37655   3.846   2.359   3.198  0.1527 -0.1550  0.0069
 9234WAT     H137656   3.791   2.426   3.187 -0.6423 -0.9537 -1.0577
 9234WAT     H237657   3.918   2.386   3.156 -0.6236 -0.4702 -1.6472
 9234WAT    EPW37658   3.848   2.373   3.190 -0.0794 -0.3196 -0.3947
 9235WAT      O37659   2.952   0.131   2.686  0.0006 -0.5968  0.1205
 9235WAT     H137660   3.012   0.178   2.643 -0.7126 -1.1433 -1.5580
 9235WAT     H237661   2.981   0.049   2.678 -0.0005 -0.6943  0.9707
 9235WAT    EPW37662   2.965   0.126   2.678 -0.1049 -0.6920 -0.0019
 9236WAT      O37663   1.869   0.267   1.815 -0.0758 -0.2120 -0.2587
 9236WAT     H137664   1.927   0.202   1.820  1.8440  1.4431  0.1786
 9236WAT     H237665   1.850   0.271   1.730 -0.0897 -1.2349 -0.3117
 9236WAT    EPW37666   1.875   0.258   1.803  0.2057 -0.1186 -0.2019
 9237WAT      O37667   2.823   0.439   4.783 -0.3279 -0.2594 -0.2773
 9237WAT     H137668   2.826   0.355   4.762 -0.7154 -0.8741  1.9024
 9237WAT     H237669   2.739   0.452   4.805 -0.1096  0.4928  0.1616
 9237WAT    EPW37670   2.811   0.428   4.783 -0.3529 -0.2391  0.1096
 9238WAT      O37671   1.965   7.096   3.823 -0.0932  0.2557 -0.2499
 9238WAT     H137672   1.903   7.059   3.775  0.7962  0.3217 -1.5233
 9238WAT     H237673   1.940   7.179   3.829 -0.2182  0.2466 -0.6165
 9238WAT    EPW37674   1.952   7.102   3.817  0.0197  0.2641 -0.4922
 9239WAT      O37675   3.347   7.353   5.175 -0.0847 -0.1966 -0.1161
 9239WAT     H137676   3.289   7.306   5.219 -0.6419 -0.1726 -0.8053
 9239WAT     H237677   3.323   7.435   5.191  0.5204 -0.1521  0.5993
 9239WAT    EPW37678   3.335   7.358   5.184 -0.0777 -0.1865 -0.1122
 9240WAT      O37679   3.836   7.345   4.192 -0.1177  0.4491  0.5088
 9240WAT     H137680   3.898   7.380   4.243  0.6581 -0.1418  0.0077
 9240WAT     H237681   3.869   7.352   4.112 -0.3434 -0.5720  0.3027
 9240WAT    EPW37682   3.850   7.351   4.188 -0.0364  0.2110  0.4043
 9241WAT      O37683   2.684   0.140   2.546  0.3932 -0.3880 -0.3890
 9241WAT     H137684   2.745   0.139   2.609 -0.8852  1.1483  0.9682
 9241WAT     H237685   2.647   0.062   2.552 -0.6330  0.1783  1.8164
 9241WAT    EPW37686   2.688   0.129   2.556  0.0527 -0.0774  0.1373
 9242WAT      O37687   2.534   0.218   1.384  0.2023  0.2246 -0.2094
 9242WAT     H137688   2.621   0.208   1.382  0.5167  1.6915  2.4100
 9242WAT     H237689   2.517   0.255   1.307  2.2877  2.1246  0.1309
 9242WAT    EPW37690   2.544   0.222   1.372  0.5568  0.7220  0.2278
 9243WAT      O37691   1.513   7.234   4.125  0.2015 -0.6847  0.2994
 9243WAT     H137692   1.521   7.319   4.106 -0.9706 -0.9380 -1.6625
 9243WAT     H237693   1.427   7.222   4.129  0.3660 -1.6013  1.6503
 9243WAT    EPW37694   1.501   7.245   4.123  0.0527 -0.8575  0.2091
 9244WAT      O37695   4.548   1.039   1.930  0.8278  0.1234 -0.0614
 9244WAT     H137696   4.462   1.027   1.927  0.8524  0.1256 -1.6127
 9244WAT     H237697   4.579   0.980   1.874  1.5562  2.1478 -1.9188
 9244WAT    EPW37698   4.540   1.029   1.921  0.9390  0.4228 -0.5650
 9245WAT      O37699   1.859   6.116   2.683  0.1722  0.0182 -0.4032
 9245WAT     H137700   1.855   6.052   2.743  1.0044 -0.7468 -1.1335
 9245WAT     H237701   1.897   6.181   2.727 -1.0604  0.1867  0.4730
 9245WAT    EPW37702   1.864   6.116   2.699  0.1130 -0.0699 -0.3816
 9246WAT      O37703   4.100   2.125   2.949  0.0536  0.3599 -0.0080
 9246WAT     H137704   4.174   2.145   2.991  0.1372 -0.9501  0.5019
 9246WAT     H237705   4.052   2.086   3.010  0.8055 -3.1421 -1.3839
 9246WAT    EPW37706   4.104   2.122   2.964  0.1770 -0.3510 -0.1360
 9247WAT      O37707   5.287   0.582   1.512 -0.1245  0.0711  0.1055
 9247WAT     H137708   5.280   0.574   1.599 -2.0852 -1.8344 -0.1396
 9247WAT     H237709   5.238   0.651   1.494  0.9809  1.0091  0.5412
 9247WAT    EPW37710   5.279   0.591   1.522 -0.2509 -0.0718  0.1337
 9248WAT      O37711   3.956   7.264   0.943  0.1392  0.1038 -0.5783
 9248WAT     H137712   4.040   7.264   0.968  0.0383 -2.1463 -0.0160
 9248WAT     H237713   3.957   7.219   0.869 -0.3568  1.7683 -1.6408
 9248WAT    EPW37714   3.969   7.258   0.936  0.0510  0.0173 -0.6522
 9249WAT      O37715   3.914   0.798   4.709  0.4784  0.6472 -0.3967
 9249WAT     H137716   3.904   0.850   4.778  0.3072  0.1336 -0.0295
 9249WAT     H237717   3.959   0.730   4.740 -0.4269 -0.0507 -0.5481
 9249WAT    EPW37718   3.919   0.795   4.724  0.3194  0.4683 -0.3648
 9250WAT      O37719   3.465   6.902   2.236  0.3062  0.2704  0.0598
 9250WAT     H137720   3.480   6.977   2.278  0.2988  1.0941 -1.3164
 9250WAT     H237721   3.532   6.896   2.180  0.8753 -1.3178  0.8596
 9250WAT    EPW37722   3.477   6.913   2.234  0.3892  0.1574 -0.0254
 9251WAT      O37723   5.095   0.961   3.839  0.1743  0.1230 -0.3040
 9251WAT     H137724   5.036   1.001   3.789 -1.0146 -1.4503 -0.2397
 9251WAT     H237725   5.090   0.878   3.814  3.9812  0.1714 -1.8722
 9251WAT    EPW37726   5.085   0.955   3.828  0.5611 -0.1022 -0.5261
 9252WAT      O37727   3.439   1.092   3.950  0.4452 -0.5287  0.2045
 9252WAT     H137728   3.430   1.177   3.968  1.4692 -0.4986  0.6270
 9252WAT     H237729   3.362   1.071   3.915 -1.3296 -0.3007  3.5715
 9252WAT    EPW37730   3.426   1.102   3.948  0.3343 -0.4905  0.7643
 9253WAT      O37731   2.362   1.565   2.247  0.5642 -0.0449 -0.3760
 9253WAT     H137732   2.372   1.632   2.192 -1.1296  1.0558  0.5734
 9253WAT     H237733   2.285   1.530   2.223  1.3529 -1.6154 -0.7711
 9253WAT    EPW37734   2.352   1.570   2.235  0.4305 -0.1143 -0.2941
 9254WAT      O37735   4.347   1.579   3.154  0.0253  0.6016 -0.3878
 9254WAT     H137736   4.359   1.660   3.126  0.1774  0.9767  0.7121
 9254WAT     H237737   4.264   1.578   3.181 -0.0774  0.2932 -0.7113
 9254WAT    EPW37738   4.336   1.591   3.154  0.0326  0.6115 -0.2731
 9255WAT      O37739   4.436   7.585   2.822 -0.0003  0.3066 -0.2240
 9255WAT     H137740   4.489   7.654   2.822 -0.4398  0.6736 -1.3415
 9255WAT     H237741   4.389   7.595   2.895  0.3614  0.8428 -0.0570
 9255WAT    EPW37742   4.437   7.597   2.833 -0.0118  0.4400 -0.3644
 9256WAT      O37743   1.635   0.341   3.431  0.3960 -0.0137  0.2749
 9256WAT     H137744   1.576   0.300   3.382  0.9123 -1.0594  0.4909
 9256WAT     H237745   1.609   0.325   3.513  1.0592 -0.6248  0.3745
 9256WAT    EPW37746   1.623   0.333   3.436  0.5702 -0.2584  0.3215
 9257WAT      O37747   3.899   1.894   5.157 -0.3527 -0.1113  0.1243
 9257WAT     H137748   3.826   1.855   5.128 -0.0714  0.4587 -1.4691
 9257WAT     H237749   3.883   1.979   5.147  0.7207  0.0047 -0.7876
 9257WAT    EPW37750   3.886   1.901   5.151 -0.1526 -0.0099 -0.2457
 9258WAT      O37751   2.221   0.438   1.819  0.4303  0.1016 -0.0744
 9258WAT     H137752   2.253   0.382   1.878  0.4779  0.3088  0.1009
 9258WAT     H237753   2.257   0.514   1.843  1.9906 -0.1225 -1.4974
 9258WAT    EPW37754   2.231   0.441   1.831  0.6678  0.0991 -0.2587
 9259WAT      O37755   3.314   0.881   4.873  0.2416  0.3189 -0.4167
 9259WAT     H137756   3.346   0.846   4.946  0.9100  0.7903 -0.4708
 9259WAT     H237757   3.382   0.924   4.840 -0.2520  0.7174 -0.9367
 9259WAT    EPW37758   3.329   0.883   4.879  0.2674  0.4474 -0.5015
 9260WAT      O37759   4.145   0.551   2.228  0.0158  0.1062 -0.3293
 9260WAT     H137760   4.164   0.606   2.164 -1.8099  0.6072 -0.5143
 9260WAT     H237761   4.210   0.493   2.226  0.6108  0.7732 -1.8507
 9260WAT    EPW37762   4.157   0.550   2.219 -0.1660  0.2787 -0.5814
 9261WAT      O37763   2.308   1.040   2.907  0.4844 -0.0182 -0.3213
 9261WAT     H137764   2.260   1.065   2.975 -1.0875  0.4786 -1.5451
 9261WAT     H237765   2.250   1.033   2.842  1.6232 -2.2516 -1.2127
 9261WAT    EPW37766   2.293   1.043   2.907  0.4204 -0.2747 -0.6338
 9262WAT      O37767   2.107   1.267   4.331 -0.0436 -0.2307  0.4897
 9262WAT     H137768   2.039   1.314   4.305 -0.4798 -1.5235 -0.8069
 9262WAT     H237769   2.145   1.318   4.391 -1.9729  0.6401  1.0581
 9262WAT    EPW37770   2.103   1.281   4.336 -0.3930 -0.2930  0.3821
 9263WAT      O37771   3.038   1.402   3.078  0.0829 -0.1853 -0.0484
 9263WAT     H137772   2.985   1.335   3.062 -2.1116  1.3584  0.1856
 9263WAT     H237773   3.010   1.463   3.022  0.7311  1.1205  1.0057
 9263WAT    EPW37774   3.026   1.401   3.068 -0.1455  0.2357  0.1419
 9264WAT      O37775   3.318   1.022   2.207  0.4757  0.4040 -0.4302
 9264WAT     H137776   3.276   0.983   2.141  0.8251  1.1791 -1.1226
 9264WAT     H237777   3.381   1.068   2.167 -0.2133  2.0500  0.3201
 9264WAT    EPW37778   3.321   1.023   2.191  0.4255  0.7616 -0.4217
 9265WAT      O37779   3.542   0.805   4.422 -0.0502 -0.0242  0.5517
 9265WAT     H137780   3.485   0.817   4.486 -1.9602 -1.9897 -0.6315
 9265WAT     H237781   3.576   0.726   4.438  2.3460  1.0038  1.1177
 9265WAT    EPW37782   3.539   0.795   4.433  0.0216 -0.1627  0.4605
 9266WAT      O37783   2.588   0.374   3.285  0.0516 -0.2703  0.3384
 9266WAT     H137784   2.580   0.433   3.349  0.0832 -0.2384  0.3133
 9266WAT     H237785   2.567   0.418   3.213  1.6483  0.1761  0.1049
 9266WAT    EPW37786   2.584   0.389   3.284  0.2921 -0.1997  0.3002
 9267WAT      O37787   3.901   7.657   1.650 -0.0938  0.5503  0.1369
 9267WAT     H137788   3.937   7.735   1.639  0.9912  0.0375 -0.1260
 9267WAT     H237789   3.969   7.602   1.647 -0.7397 -0.3415  1.0704
 9267WAT    EPW37790   3.917   7.660   1.648 -0.0289  0.3428  0.2360
 9268WAT      O37791   3.964   0.330   2.225  0.4303  0.1375  0.1577
 9268WAT     H137792   3.895   0.362   2.268 -0.6832  0.5829 -1.8119
 9268WAT     H237793   4.023   0.395   2.229 -0.8784  1.5323 -1.6567
 9268WAT    EPW37794   3.963   0.344   2.232  0.0725  0.4093 -0.4013
 9269WAT      O37795   3.844   1.950   4.674 -0.5426 -0.4550 -0.2700
 9269WAT     H137796   3.876   2.028   4.694  0.1211 -0.5359 -0.9449
 9269WAT     H237797   3.798   1.965   4.601 -1.2447 -0.5227  0.1465
 9269WAT    EPW37798   3.842   1.964   4.666 -0.5483 -0.4770 -0.3082
 9270WAT      O37799   3.885   0.282   1.953  0.3327 -0.4011  0.0936
 9270WAT     H137800   3.908   0.203   1.982  4.2492  0.3687 -0.3626
 9270WAT     H237801   3.907   0.335   2.018 -1.8340  0.4868  0.2105
 9270WAT    EPW37802   3.891   0.278   1.967  0.5912 -0.1562  0.0435
 9271WAT      O37803   3.132   1.442   1.512  0.2082  0.3201  0.3221
 9271WAT     H137804   3.097   1.395   1.448  1.9252  0.5949 -0.8640
 9271WAT     H237805   3.080   1.425   1.580 -1.6131 -0.0424 -1.0916
 9271WAT    EPW37806   3.119   1.432   1.513  0.1928  0.3071 -0.0619
 9272WAT      O37807   4.410   1.022   1.209 -0.1262  0.0197 -0.1068
 9272WAT     H137808   4.341   1.069   1.236  0.0143 -0.0727  0.4339
 9272WAT     H237809   4.387   0.994   1.130  0.0587  1.5892 -0.7562
 9272WAT    EPW37810   4.396   1.025   1.202 -0.0781  0.2379 -0.1229
 9273WAT      O37811   1.852   1.099   2.184 -0.3449  0.0418  0.1959
 9273WAT     H137812   1.794   1.164   2.180  0.6143  0.9076  0.0802
 9273WAT     H237813   1.860   1.073   2.101 -0.5212 -0.0428  0.2048
 9273WAT    EPW37814   1.845   1.105   2.171 -0.2293  0.1572  0.1802
 9274WAT      O37815   3.771   0.292   3.037  0.1350 -0.2966 -0.2893
 9274WAT     H137816   3.818   0.357   3.070  0.0348 -0.2642 -0.2093
 9274WAT     H237817   3.828   0.247   2.989 -0.3149  1.3072 -2.4703
 9274WAT    EPW37818   3.786   0.295   3.035  0.0537 -0.0549 -0.5997
 9275WAT      O37819   4.256   1.594   4.881 -0.1699  0.3757  0.2646
 9275WAT     H137820   4.258   1.633   4.804 -0.1045 -0.5913 -0.2423
 9275WAT     H237821   4.208   1.648   4.931 -2.2963 -0.1115 -1.1124
 9275WAT    EPW37822   4.249   1.607   4.877 -0.4743  0.1609 -0.0137
 9276WAT      O37823   3.887   1.167   5.061  0.1481 -0.0574  1.0233
 9276WAT     H137824   3.941   1.229   5.032  0.0633 -0.2168  0.5197
 9276WAT     H237825   3.897   1.102   5.003  0.3145 -0.5602  1.6011
 9276WAT    EPW37826   3.897   1.166   5.048  0.1601 -0.1552  1.0342
 9277WAT      O37827   3.898   6.964   3.860  0.5429  0.2367 -0.2880
 9277WAT     H137828   3.961   6.912   3.829  0.5069  0.9739 -1.6598
 9277WAT     H237829   3.849   6.911   3.908 -0.1633 -1.2826 -2.5772
 9277WAT    EPW37830   3.900   6.949   3.862  0.4333  0.1212 -0.8288
 9278WAT      O37831   3.395   1.487   5.723  0.3464  0.3608 -0.3601
 9278WAT     H137832   3.335   1.486   5.787 -0.4870 -0.7505 -1.1178
 9278WAT     H237833   3.349   1.464   5.653  1.4823  0.4395 -1.1441
 9278WAT    EPW37834   3.379   1.483   5.722  0.3911  0.2083 -0.5878
 9279WAT      O37835   4.146   1.144   2.254  0.2075 -0.0442 -0.2361
 9279WAT     H137836   4.061   1.160   2.240 -0.4917 -2.4729  0.6119
 9279WAT     H237837   4.187   1.192   2.194 -1.8105  0.6199 -1.1582
 9279WAT    EPW37838   4.139   1.153   2.243 -0.1939 -0.3049 -0.2471
 9280WAT      O37839   3.822   0.355   4.549 -0.0051 -0.4842  0.1079
 9280WAT     H137840   3.862   0.289   4.508  1.4960 -0.1356  0.9437
 9280WAT     H237841   3.879   0.378   4.611 -1.7956 -0.3726  1.7932
 9280WAT    EPW37842   3.836   0.348   4.552 -0.0479 -0.4162  0.4803
 9281WAT      O37843   1.954   7.580   3.806  0.0660  0.3822  0.5614
 9281WAT     H137844   1.957   7.583   3.719 -0.9423  1.4527  0.5326
 9281WAT     H237845   2.018   7.634   3.830  0.0475  0.4477  0.4659
 9281WAT    EPW37846   1.964   7.589   3.797 -0.0856  0.5500  0.5430
 9282WAT      O37847   2.645   1.137   2.651 -0.0852  0.1676  0.2986
 9282WAT     H137848   2.578   1.193   2.649 -0.4193 -0.1962  1.1693
 9282WAT     H237849   2.712   1.186   2.679 -0.0031  0.5016 -0.4541
 9282WAT    EPW37850   2.645   1.153   2.655 -0.1224  0.1632  0.3160
 9283WAT      O37851   1.831   0.116   2.065 -0.2233  0.1862  0.0264
 9283WAT     H137852   1.882   0.137   2.132 -0.6780  1.1230  0.0889
 9283WAT     H237853   1.829   0.188   2.017 -0.1064 -0.3988 -0.8756
 9283WAT    EPW37854   1.838   0.129   2.068 -0.2732  0.2382 -0.0976
 9284WAT      O37855   4.160   0.812   0.963  0.1545  0.4960  0.6820
 9284WAT     H137856   4.118   0.824   0.887  0.2861  2.6003  0.8857
 9284WAT     H237857   4.150   0.727   0.978 -0.1288  0.0635 -1.5400
 9284WAT    EPW37858   4.152   0.801   0.954  0.1321  0.7429  0.3838
 9285WAT      O37859   3.500   1.858   3.877 -0.7490 -0.3042  0.6337
 9285WAT     H137860   3.460   1.802   3.823 -0.9861  1.0950 -0.7189
 9285WAT     H237861   3.435   1.911   3.903 -0.6349 -0.9220  2.3140
 9285WAT    EPW37862   3.484   1.858   3.873 -0.7671 -0.1888  0.6821
 9286WAT      O37863   2.890   1.504   2.055 -0.8272 -0.4854  0.2421
 9286WAT     H137864   2.875   1.547   2.130 -0.8259 -0.9773  0.5314
 9286WAT     H237865   2.969   1.531   2.031 -1.5525  1.0651 -0.5522
 9286WAT    EPW37866   2.900   1.514   2.063 -0.9342 -0.3290  0.1675
 9287WAT      O37867   2.966   0.789   3.992 -0.3455 -0.8001  0.8198
 9287WAT     H137868   2.933   0.719   4.031 -1.2735 -0.6327  0.3572
 9287WAT     H237869   2.947   0.777   3.907 -0.3369 -0.0977  0.7064
 9287WAT    EPW37870   2.958   0.777   3.985 -0.4813 -0.6716  0.7347
 9288WAT      O37871   2.113   7.512   4.296  0.2685  0.2025  0.0595
 9288WAT     H137872   2.156   7.486   4.368 -0.0410  0.7715  0.4563
 9288WAT     H237873   2.088   7.436   4.260  1.9301 -0.1521 -0.4027
 9288WAT    EPW37874   2.115   7.497   4.302  0.4682  0.2342  0.0498
 9289WAT      O37875   3.492   6.724   1.016 -0.5783  1.0257 -0.2001
 9289WAT     H137876   3.463   6.805   1.030 -1.4766  0.5196  1.0166
 9289WAT     H237877   3.457   6.678   1.081 -0.1619 -0.3700 -0.9249
 9289WAT    EPW37878   3.483   6.729   1.028 -0.6495  0.7447 -0.1275
 9290WAT      O37879   1.958   1.982   3.731 -0.0111 -0.1471  0.2846
 9290WAT     H137880   1.969   2.065   3.757  2.1127 -0.5352  0.7927
 9290WAT     H237881   1.871   1.974   3.727 -0.3377  1.5019  2.2031
 9290WAT    EPW37882   1.947   1.993   3.734  0.2544  0.0392  0.6431
 9291WAT      O37883   2.459   1.016   0.006  0.0444  0.5211 -0.8677
 9291WAT     H137884   2.457   1.096   0.041  0.0171 -0.2243  0.9143
 9291WAT     H237885   2.378   0.987   0.016  0.5933 -0.5811  0.6271
 9291WAT    EPW37886   2.447   1.024   0.013  0.1214  0.2482 -0.3836
 9292WAT      O37887   4.178   7.330   1.108  0.0182  0.3293 -0.3730
 9292WAT     H137888   4.116   7.346   1.167  1.0899  2.1996  0.3397
 9292WAT     H237889   4.246   7.378   1.135  2.4141 -2.8017 -0.1807
 9292WAT    EPW37890   4.179   7.339   1.121  0.5305  0.1431 -0.2393
 9293WAT      O37891   2.463   7.387   7.764  0.0307 -0.9583  0.0633
 9293WAT     H137892   2.521   7.436   7.722  0.8805 -1.9604  0.0383
 9293WAT     H237893   2.467   7.416   7.847 -0.3756 -0.1771 -0.1757
 9293WAT    EPW37894   2.472   7.398   7.770  0.0962 -0.9910  0.0243
 9294WAT      O37895   2.728   7.658   1.575 -0.5755 -0.4469  0.0426
 9294WAT     H137896   2.652   7.673   1.615 -0.7079 -0.3756 -0.2395
 9294WAT     H237897   2.786   7.700   1.625 -0.7214 -0.4904  0.2492
 9294WAT    EPW37898   2.726   7.666   1.588 -0.6166 -0.4428  0.0315
 9295WAT      O37899   1.949   7.438   0.455  0.0398 -0.1626  0.2001
 9295WAT     H137900   2.011   7.377   0.463  0.0795 -0.1912 -0.2916
 9295WAT     H237901   1.948   7.476   0.534 -0.8210 -1.5789  0.8984
 9295WAT    EPW37902   1.958   7.435   0.468 -0.0815 -0.3761  0.2306
 9296WAT      O37903   2.308   1.436   0.532  0.0166  0.2438 -0.0256
 9296WAT     H137904   2.251   1.403   0.589 -0.3453  1.6355  0.4556
 9296WAT     H237905   2.318   1.518   0.559  0.7988  0.5628 -1.2385
 9296WAT    EPW37906   2.301   1.443   0.544  0.0787  0.4965 -0.1336
 9297WAT      O37907   3.253   0.432   1.636 -0.1083  0.0017 -0.5309
 9297WAT     H137908   3.237   0.482   1.566  1.6782 -1.6815 -2.2533
 9297WAT     H237909   3.174   0.421   1.672 -0.9973  1.4047 -1.9301
 9297WAT    EPW37910   3.239   0.438   1.631  0.0243 -0.0397 -0.9920
 9298WAT      O37911   2.793   0.073   0.744 -0.2898  0.6646 -0.3009
 9298WAT     H137912   2.754   0.101   0.671  1.6280 -0.5841 -1.8741
 9298WAT     H237913   2.871   0.112   0.743  0.2965 -0.4333  0.3589
 9298WAT    EPW37914   2.799   0.083   0.733  0.0801  0.3179 -0.4358
 9299WAT      O37915   3.329   2.465   0.461 -0.2282 -0.0384  0.0656
 9299WAT     H137916   3.310   2.521   0.525  3.0536  0.0495  1.1691
 9299WAT     H237917   3.397   2.420   0.492  1.0081 -0.5820 -2.9951
 9299WAT    EPW37918   3.336   2.467   0.475  0.4392 -0.1057 -0.2235
 9300WAT      O37919   2.142   7.500   0.182 -0.3967  0.2897 -0.5899
 9300WAT     H137920   2.121   7.420   0.211  1.5619  0.3552  1.3111
 9300WAT     H237921   2.065   7.538   0.167 -1.3731 -1.8127 -1.2032
 9300WAT    EPW37922   2.127   7.494   0.184 -0.2516 -0.0112 -0.3996
 9301WAT      O37923   2.577   2.671   0.288  0.0400 -0.1718  0.5424
 9301WAT     H137924   2.628   2.645   0.354 -1.1476 -1.7568  0.8976
 9301WAT     H237925   2.560   2.596   0.246 -2.0674  0.2806  0.5143
 9301WAT    EPW37926   2.582   2.656   0.291 -0.4467 -0.3391  0.5907
 9302WAT      O37927   3.197   1.591   1.087 -0.2058  0.7110  0.6071
 9302WAT     H137928   3.117   1.580   1.054 -0.0830  0.2087  0.4751
 9302WAT     H237929   3.245   1.609   1.017 -0.4036  2.1982  0.8130
 9302WAT    EPW37930   3.192   1.592   1.072 -0.2169  0.8565  0.6180
 9303WAT      O37931   3.142   0.349   7.350 -0.0563  0.4636 -0.5974
 9303WAT     H137932   3.079   0.393   7.311  0.7288  1.1060 -1.1791
 9303WAT     H237933   3.196   0.328   7.285 -0.0079 -0.6780 -0.2177
 9303WAT    EPW37934   3.141   0.352   7.334  0.0668  0.3899 -0.6273
 9304WAT      O37935   4.568   0.730   0.807 -0.0528 -0.1059 -0.0715
 9304WAT     H137936   4.513   0.698   0.747 -1.1320 -0.7064  1.1767
 9304WAT     H237937   4.641   0.744   0.763 -0.1565 -2.4463 -1.1494
 9304WAT    EPW37938   4.571   0.727   0.792 -0.2275 -0.5403 -0.0464
 9305WAT      O37939   3.127   1.252   7.830  0.0180  0.4061 -0.4166
 9305WAT     H137940   3.112   1.169   7.808  1.0743  0.0992 -0.0191
 9305WAT     H237941   3.047   1.289   7.827 -0.8035 -1.0706  1.3188
 9305WAT    EPW37942   3.113   1.246   7.826  0.0527  0.1427 -0.1016
 9306WAT      O37943   3.072   0.163   0.731  0.0041 -0.5062  0.2532
 9306WAT     H137944   3.158   0.156   0.745  0.1995 -0.4078 -0.7788
 9306WAT     H237945   3.059   0.249   0.729  0.3716 -0.4302 -2.0668
 9306WAT    EPW37946   3.083   0.174   0.733  0.0873 -0.4804 -0.2420
 9307WAT      O37947   3.624   1.591   0.127  0.3062 -0.7416  0.2118
 9307WAT     H137948   3.665   1.514   0.120 -0.0189 -0.7883 -2.4826
 9307WAT     H237949   3.689   1.649   0.128  0.5362 -0.9830 -0.1379
 9307WAT    EPW37950   3.640   1.588   0.126  0.2922 -0.7842 -0.2379
 9308WAT      O37951   2.706   7.231   0.503  0.7111  0.4767  0.4133
 9308WAT     H137952   2.653   7.222   0.572  0.5369 -0.6005  0.1557
 9308WAT     H237953   2.719   7.149   0.476  1.4487  0.8244 -0.3344
 9308WAT    EPW37954   2.700   7.218   0.509  0.7944  0.3690  0.2648
 9309WAT      O37955   4.962   0.511   0.031 -0.3727 -0.1667  0.2872
 9309WAT     H137956   5.016   0.444   0.049  1.9447  1.6370  0.4609
 9309WAT     H237957   4.983   0.533  -0.050 -0.0063  1.2665  0.7430
 9309WAT    EPW37958   4.973   0.504   0.022  0.0237  0.3114  0.3802
 9310WAT      O37959   4.104   3.015   7.757 -0.0224  0.1255 -0.4115
 9310WAT     H137960   4.066   3.070   7.701 -1.2179 -1.0119 -0.7596
 9310WAT     H237961   4.146   2.959   7.705  1.2733  0.7283 -0.0550
 9310WAT    EPW37962   4.105   3.015   7.741 -0.0076  0.0465 -0.4103
 9311WAT      O37963   3.324   7.596   2.756 -0.4976 -0.1098  0.1243
 9311WAT     H137964   3.353   7.514   2.754 -1.3456 -0.4166 -0.9135
 9311WAT     H237965   3.394   7.643   2.779  0.7626 -0.8400 -1.9404
 9311WAT    EPW37966   3.339   7.591   2.759 -0.4367 -0.2630 -0.3340
 9312WAT      O37967   2.390   0.489   0.622  0.6234 -0.4665 -0.0146
 9312WAT     H137968   2.353   0.411   0.625 -0.3071 -0.0215  2.3674
 9312WAT     H237969   2.375   0.516   0.541 -3.0875 -0.9027  0.3757
 9312WAT    EPW37970   2.382   0.482   0.611 -0.0622 -0.4652  0.3949
 9313WAT      O37971   1.119   0.641   1.250 -0.1269  0.2997  0.0129
 9313WAT     H137972   1.174   0.619   1.186 -1.3729  1.0497 -1.3813
 9313WAT     H237973   1.051   0.588   1.237  0.7093 -1.5543  2.5221
 9313WAT    EPW37974   1.117   0.630   1.238 -0.1874  0.1366  0.1776
 9314WAT      O37975   2.937   7.191   1.797  0.1915  0.0995 -0.4572
 9314WAT     H137976   2.873   7.182   1.856 -0.0774 -2.4230 -1.0252
 9314WAT     H237977   3.010   7.192   1.845 -0.0812 -0.9271  0.0020
 9314WAT    EPW37978   2.938   7.190   1.813  0.1115 -0.4248 -0.4732
 9315WAT      O37979   4.491   0.319   0.319  0.3941  0.6998  0.3406
 9315WAT     H137980   4.427   0.374   0.297 -0.4293  0.7047  2.5146
 9315WAT     H237981   4.472   0.247   0.273  0.1671  1.4466 -0.7719
 9315WAT    EPW37982   4.479   0.316   0.309  0.2390  0.8108  0.4974
 9316WAT      O37983   4.860   0.845   7.594  0.0959 -0.6585  0.0844
 9316WAT     H137984   4.900   0.770   7.616 -0.2746 -1.1483 -0.8509
 9316WAT     H237985   4.792   0.848   7.649  0.5802 -0.5778  0.6873
 9316WAT    EPW37986   4.856   0.834   7.605  0.1127 -0.7189  0.0353
 9317WAT      O37987   4.375   0.596   1.967  0.0772  0.4808  0.1393
 9317WAT     H137988   4.396   0.549   1.897 -0.4777 -0.9149  0.8708
 9317WAT     H237989   4.440   0.579   2.023  0.5973  1.7033 -0.0694
 9317WAT    EPW37990   4.388   0.586   1.965  0.0721  0.4552  0.2165
 9318WAT      O37991   2.567   0.559   1.498 -0.2631 -0.1565  0.1753
 9318WAT     H137992   2.509   0.504   1.462 -0.0929 -0.3554  0.2058
 9318WAT     H237993   2.643   0.517   1.491 -0.0267  0.3554 -0.4024
 9318WAT    EPW37994   2.569   0.545   1.492 -0.2030 -0.1103  0.0945
 9319WAT      O37995   2.310   7.604   0.566  0.3035 -0.1048  0.3794
 9319WAT     H137996   2.391   7.603   0.597  0.5465  0.9584 -0.1604
 9319WAT     H237997   2.320   7.635   0.485 -0.6487  0.1326  0.3396
 9319WAT    EPW37998   2.324   7.608   0.558  0.1987  0.0873  0.2938
 9320WAT      O37999   3.923   6.879   0.949 -0.2472 -0.6976 -0.0867
 9320WAT     H138000   3.905   6.940   0.890 -1.8683  0.1194  1.1624
 9320WAT     H238001   3.896   6.805   0.912  0.6138 -0.5144 -1.1329
 9320WAT    EPW38002   3.916   6.877   0.935 -0.3595 -0.5499 -0.0568
 9321WAT      O38003   2.054   1.313   1.487 -0.4538  0.1356 -0.3480
 9321WAT     H138004   1.984   1.364   1.497  0.5674  1.5946 -0.3033
 9321WAT     H238005   2.020   1.235   1.469 -2.0879  0.7697 -0.1971
 9321WAT    EPW38006   2.038   1.309   1.486 -0.5444  0.4448 -0.3191
 9322WAT      O38007   3.448   0.573   7.223  0.2676 -0.2699 -0.0255
 9322WAT     H138008   3.438   0.637   7.165 -1.3495 -1.1672 -0.7846
 9322WAT     H238009   3.515   0.527   7.192 -0.4540 -0.6267 -1.1218
 9322WAT    EPW38010   3.457   0.576   7.210 -0.0779 -0.4552 -0.2996
 9323WAT      O38011   2.088   6.861   7.331 -0.1430  0.1133  0.6842
 9323WAT     H138012   2.116   6.859   7.249 -0.4076 -1.3095  0.5979
 9323WAT     H238013   2.098   6.944   7.355 -0.2732  0.5940 -0.8549
 9323WAT    EPW38014   2.093   6.873   7.322 -0.2014 -0.0258  0.4441
 9324WAT      O38015   2.318   1.509   3.358  0.3163  0.4914 -0.2635
 9324WAT     H138016   2.327   1.474   3.279  3.1168 -1.5042  0.7893
 9324WAT     H238017   2.372   1.577   3.357 -1.4894  2.0154 -0.7384
 9324WAT    EPW38018   2.327   1.514   3.346  0.4632  0.4217 -0.1782
 9325WAT      O38019   3.842   0.344   1.465 -0.0321 -0.0067 -0.0618
 9325WAT     H138020   3.892   0.318   1.532 -0.9716  2.6515  1.8707
 9325WAT     H238021   3.824   0.270   1.423  1.7260 -1.6484  1.8254
 9325WAT    EPW38022   3.847   0.329   1.469  0.0888  0.1435  0.5024
 9326WAT      O38023   2.382   6.702   0.843  0.4576 -0.5216 -0.2832
 9326WAT     H138024   2.446   6.697   0.903  2.1950 -1.0329 -2.0735
 9326WAT     H238025   2.408   6.767   0.792 -2.0599  1.3012  0.5946
 9326WAT    EPW38026   2.396   6.711   0.845  0.3424 -0.3279 -0.4180
 9327WAT      O38027   2.299   0.765   1.004  0.2044 -0.3299  0.0053
 9327WAT     H138028   2.235   0.708   1.018  0.8582 -0.9161  0.7148
 9327WAT     H238029   2.371   0.720   1.024  0.7527  0.6654  0.3343
 9327WAT    EPW38030   2.300   0.750   1.009  0.3820 -0.2695  0.1587
 9328WAT      O38031   2.197   2.337   0.858  0.4957 -0.3235 -0.9031
 9328WAT     H138032   2.255   2.402   0.858 -1.4738  1.6127  1.1937
 9328WAT     H238033   2.154   2.348   0.784 -0.6583  1.7256 -0.0200
 9328WAT    EPW38034   2.199   2.348   0.847  0.0343  0.2652 -0.4629
 9329WAT      O38035   2.199   7.340   0.582  0.1699  0.5018 -0.2727
 9329WAT     H138036   2.234   7.419   0.581 -1.1694  1.1460  0.5648
 9329WAT     H238037   2.187   7.324   0.667  0.0225 -0.4136 -0.4543
 9329WAT    EPW38038   2.202   7.349   0.595 -0.0497  0.4618 -0.1758
 9330WAT      O38039   1.995   1.428   1.868  0.3252  0.4777  0.4365
 9330WAT     H138040   2.022   1.345   1.868  0.5143  0.5371  0.6492
 9330WAT     H238041   1.954   1.437   1.792 -1.8368 -0.5064  1.3981
 9330WAT    EPW38042   1.993   1.417   1.857  0.0338  0.3411  0.6099
 9331WAT      O38043   2.569   7.135   7.769  0.3957  0.0936 -0.3436
 9331WAT     H138044   2.531   7.214   7.767  0.9379  0.3821  0.3876
 9331WAT     H238045   2.512   7.084   7.727  0.2193  0.9475 -1.1738
 9331WAT    EPW38046   2.555   7.139   7.762  0.4497  0.2624 -0.3582
 9332WAT      O38047   1.953   0.881   1.188 -0.3796  0.0071  0.5053
 9332WAT     H138048   1.870   0.862   1.205 -0.7072  2.1558  1.6552
 9332WAT     H238049   1.951   0.917   1.109  0.0173 -2.8926 -0.9552
 9332WAT    EPW38050   1.941   0.883   1.179 -0.3694 -0.1038  0.4594
 9333WAT      O38051   3.365   6.533   1.196  0.0038  0.2988 -0.3278
 9333WAT     H138052   3.295   6.509   1.149 -0.7492 -1.6163  1.5899
 9333WAT     H238053   3.333   6.589   1.255  0.2843  0.2079 -0.0845
 9333WAT    EPW38054   3.350   6.538   1.198 -0.0660  0.0025 -0.0086
 9334WAT      O38055   3.165   0.619   7.426 -0.0222 -0.3237 -0.2581
 9334WAT     H138056   3.195   0.538   7.419 -1.0130 -0.5554 -2.8617
 9334WAT     H238057   3.214   0.664   7.370 -0.6932  0.5028 -0.1993
 9334WAT    EPW38058   3.177   0.614   7.417 -0.2677 -0.2358 -0.6340
 9335WAT      O38059   3.101   2.102   0.025  0.2977 -0.0959  0.1064
 9335WAT     H138060   3.057   2.066   0.092 -0.3864 -1.3242 -0.9609
 9335WAT     H238061   3.183   2.106   0.054 -0.3173  1.5087  1.8534
 9335WAT    EPW38062   3.106   2.097   0.039  0.1058 -0.0403  0.2068
 9336WAT      O38063   4.100   0.331   0.933  0.7130  0.5121  0.0055
 9336WAT     H138064   4.106   0.414   0.959  1.4548  1.2272 -2.2550
 9336WAT     H238065   4.182   0.310   0.912  0.4840 -0.6946  0.2100
 9336WAT    EPW38066   4.113   0.340   0.934  0.7888  0.4395 -0.2982
 9337WAT      O38067   3.347   7.287   1.619  0.2324  0.4616  0.1372
 9337WAT     H138068   3.399   7.346   1.582 -0.1705  0.5192 -0.3492
 9337WAT     H238069   3.268   7.325   1.617 -0.3813 -0.7359 -1.7735
 9337WAT    EPW38070   3.343   7.302   1.613  0.0822  0.2932 -0.2169
 9338WAT      O38071   4.473   0.089   0.175  0.1852  0.2467  0.8357
 9338WAT     H138072   4.480   0.011   0.214 -1.3546  0.2971  1.2612
 9338WAT     H238073   4.406   0.078   0.120  2.1272  0.2267 -1.7473
 9338WAT    EPW38074   4.464   0.076   0.172  0.2446  0.2512  0.5170
 9339WAT      O38075   2.855   1.367   7.864 -0.7304  0.3787 -0.3848
 9339WAT     H138076   2.847   1.386   7.948 -1.3398 -1.2030 -0.0611
 9339WAT     H238077   2.816   1.289   7.856  1.7646 -0.8748 -1.5679
 9339WAT    EPW38078   2.848   1.358   7.875 -0.4519 -0.0401 -0.5118
 9340WAT      O38079   3.191   0.950   0.412 -0.3048  0.5946 -0.4017
 9340WAT     H138080   3.158   1.012   0.360 -0.5871  2.1111  1.4711
 9340WAT     H238081   3.277   0.963   0.408 -0.3491  0.9565 -0.1969
 9340WAT    EPW38082   3.198   0.961   0.403 -0.3530  0.8721 -0.0948
 9341WAT      O38083   2.462   1.648   7.457  0.0963  0.2687 -0.0097
 9341WAT     H138084   2.525   1.647   7.397 -0.0559  3.0330 -0.3291
 9341WAT     H238085   2.389   1.647   7.410 -0.1179 -1.3195  0.3098
 9341WAT    EPW38086   2.460   1.648   7.441  0.0421  0.4424 -0.0097
 9342WAT      O38087   1.151   0.619   0.780  0.3716 -0.3622 -0.2584
 9342WAT     H138088   1.237   0.606   0.780  0.4102 -0.6972 -2.7635
 9342WAT     H238089   1.118   0.538   0.789  0.2805 -0.2060  0.9744
 9342WAT    EPW38090   1.159   0.605   0.781  0.3639 -0.3886 -0.4463
 9343WAT      O38091   2.455   7.667   1.184  0.3490 -0.2568 -0.1248
 9343WAT     H138092   2.492   7.730   1.136 -0.0036 -1.1533 -1.6719
 9343WAT     H238093   2.383   7.647   1.139  0.0724 -1.2622  0.7157
 9343WAT    EPW38094   2.450   7.673   1.170  0.2561 -0.5378 -0.2292
 9344WAT      O38095   2.904   7.565   0.984  0.1274 -0.2531 -0.3988
 9344WAT     H138096   2.833   7.542   1.029  1.7213  1.2656  3.2231
 9344WAT     H238097   2.872   7.597   0.910 -2.8491 -1.0171  0.4414
 9344WAT    EPW38098   2.889   7.566   0.980 -0.0769 -0.1416  0.2603
 9345WAT      O38099   2.968   7.027   1.580  0.0360  0.0287 -0.6568
 9345WAT     H138100   2.883   7.015   1.566  0.0971 -1.7961  0.3024
 9345WAT     H238101   2.970   7.085   1.645 -0.4614  0.0856 -0.6867
 9345WAT    EPW38102   2.956   7.034   1.588 -0.0284 -0.2324 -0.5196
 9346WAT      O38103   5.035   1.674   0.461  0.3032  0.2270 -0.1679
 9346WAT     H138104   4.995   1.744   0.429  1.5571  1.2170  0.3053
 9346WAT     H238105   4.975   1.611   0.458 -1.0663  1.4981  0.0165
 9346WAT    EPW38106   5.020   1.675   0.456  0.2861  0.5610 -0.0707
 9347WAT      O38107   3.710   6.934   7.822 -0.7440  0.4583  0.0434
 9347WAT     H138108   3.758   7.004   7.844  0.2630 -0.9113  2.6029
 9347WAT     H238109   3.639   6.942   7.871 -0.7568 -0.1647  0.1307
 9347WAT    EPW38110   3.707   6.946   7.832 -0.5971  0.1640  0.4344
 9348WAT      O38111   2.198   0.133   1.133 -0.0943 -0.1327 -0.1869
 9348WAT     H138112   2.231   0.173   1.063  0.8560 -0.5394  0.0177
 9348WAT     H238113   2.137   0.189   1.162  1.4171  1.3557  0.2763
 9348WAT    EPW38114   2.194   0.147   1.127  0.2694  0.0271 -0.0883
 9349WAT      O38115   3.395   1.096   7.655 -0.3837  0.6101  0.1024
 9349WAT     H138116   3.398   1.171   7.698 -0.3466  1.1607 -0.8403
 9349WAT     H238117   3.471   1.058   7.673  0.4816  1.7151 -1.0040
 9349WAT    EPW38118   3.407   1.101   7.664 -0.2504  0.8547 -0.2003
 9350WAT      O38119   0.614   7.621   0.754 -0.4154 -0.0415 -0.3638
 9350WAT     H138120   0.549   7.626   0.696 -1.6534 -0.3492  0.9400
 9350WAT     H238121   0.588   7.558   0.808  1.0648 -0.2918  0.1000
 9350WAT    EPW38122   0.600   7.612   0.753 -0.3796 -0.1240 -0.1027
 9351WAT      O38123   2.318   7.055   0.910 -0.1910 -0.2618 -0.0109
 9351WAT     H138124   2.396   7.065   0.950 -1.0076  2.6744  1.1393
 9351WAT     H238125   2.277   6.996   0.960  0.0988  0.7199  1.4432
 9351WAT    EPW38126   2.324   7.048   0.924 -0.2688  0.3170  0.3738
 9352WAT      O38127   4.085   0.854   7.727 -0.7143 -0.8556  0.0559
 9352WAT     H138128   4.103   0.801   7.795 -1.1286  0.0869  0.9259
 9352WAT     H238129   4.048   0.800   7.669 -0.8936 -1.5786  0.8144
 9352WAT    EPW38130   4.082   0.838   7.729 -0.8020 -0.8232  0.2965
 9353WAT      O38131   4.809   0.059   0.412  0.3915 -1.1707  0.2065
 9353WAT     H138132   4.783   0.070   0.329  1.4141  0.2424  0.0364
 9353WAT     H238133   4.741   0.087   0.458  0.8691  0.8879 -0.2208
 9353WAT    EPW38134   4.795   0.065   0.406  0.6131 -0.6578  0.1183
 9354WAT      O38135   4.175   7.601   2.483 -0.4216 -0.2347 -0.0792
 9354WAT     H138136   4.107   7.588   2.535 -1.1726 -0.6517 -1.1333
 9354WAT     H238137   4.149   7.665   2.429 -0.6473 -1.5483 -1.5815
 9354WAT    EPW38138   4.161   7.609   2.483 -0.5659 -0.4903 -0.4568
 9355WAT      O38139   3.763   0.387   0.089  0.2312  0.2025  0.0787
 9355WAT     H138140   3.764   0.386   0.002 -1.2026  0.8962  0.0311
 9355WAT     H238141   3.847   0.399   0.110  0.7790 -1.1063 -1.1626
 9355WAT    EPW38142   3.776   0.388   0.079  0.1003  0.1116 -0.1117
 9356WAT      O38143   3.197   0.645   1.461  0.5347  0.3539  0.4812
 9356WAT     H138144   3.241   0.696   1.406  0.9350  0.8769  1.2671
 9356WAT     H238145   3.147   0.596   1.408  0.3403  1.3596 -0.3083
 9356WAT    EPW38146   3.196   0.645   1.445  0.5651  0.5797  0.4807
 9357WAT      O38147   1.880   7.430   1.137 -0.2412  0.2112  0.1939
 9357WAT     H138148   1.935   7.363   1.128  0.5552  0.8803 -0.0237
 9357WAT     H238149   1.924   7.498   1.103 -1.2798  0.7225 -0.1693
 9357WAT    EPW38150   1.895   7.430   1.131 -0.2770  0.3855  0.1081
 9358WAT      O38151   2.569   7.557   0.671 -0.0810 -0.1106 -0.3397
 9358WAT     H138152   2.590   7.626   0.720 -1.2041  0.1604 -0.2190
 9358WAT     H238153   2.629   7.559   0.607  0.7406  0.1532  0.4189
 9358WAT    EPW38154   2.581   7.568   0.669 -0.1255 -0.0316 -0.2098
 9359WAT      O38155   3.525   1.490   0.429 -0.5153  0.6832 -0.1151
 9359WAT     H138156   3.579   1.472   0.363 -1.7281 -0.8836 -0.7515
 9359WAT     H238157   3.561   1.449   0.497 -0.3578  0.5112 -0.3001
 9359WAT    EPW38158   3.538   1.481   0.430 -0.6712  0.4264 -0.2364
 9360WAT      O38159   2.604   0.951   0.829 -0.6598  0.2868 -0.0804
 9360WAT     H138160   2.598   0.914   0.750  3.1922  0.5824 -0.7043
 9360WAT     H238161   2.662   1.015   0.817 -0.3461  0.6703  2.8802
 9360WAT    EPW38162   2.612   0.955   0.815 -0.0445  0.3871  0.2648
 9361WAT      O38163   3.236   7.568   0.690 -0.3701  0.4534  0.2706
 9361WAT     H138164   3.256   7.631   0.632  0.8876 -1.8744 -2.0288
 9361WAT     H238165   3.155   7.545   0.666  0.2989 -0.7795 -0.9106
 9361WAT    EPW38166   3.227   7.574   0.678 -0.0855 -0.0726 -0.2435
 9362WAT      O38167   3.451   0.592   1.937 -0.4833 -0.0989  0.5857
 9362WAT     H138168   3.403   0.572   2.007 -3.4661 -0.8780 -1.4339
 9362WAT     H238169   3.502   0.522   1.926  1.0100  0.5823  2.5874
 9362WAT    EPW38170   3.451   0.578   1.945 -0.7034 -0.1133  0.5831
 9363WAT      O38171   2.535   1.866   0.952  0.1364  0.4196  0.1003
 9363WAT     H138172   2.597   1.925   0.932  0.5547  0.1971  0.7198
 9363WAT     H238173   2.552   1.845   1.035  0.4287 -1.0729 -0.3065
 9363WAT    EPW38174   2.547   1.871   0.961  0.2414  0.1663  0.1317
 9364WAT      O38175   1.224   6.607   0.765  0.0083  0.3494  0.1268
 9364WAT     H138176   1.276   6.628   0.832  0.1855 -0.3861  0.2281
 9364WAT     H238177   1.215   6.682   0.722  1.2422  0.4863  0.0599
 9364WAT    EPW38178   1.230   6.621   0.768  0.2168  0.2609  0.1319
 9365WAT      O38179   2.975   1.083   1.526 -0.3854 -0.3800  0.6080
 9365WAT     H138180   2.963   1.010   1.481 -0.7516  0.2657 -0.3827
 9365WAT     H238181   2.899   1.095   1.567 -0.2063 -0.7322  1.0459
 9365WAT    EPW38182   2.962   1.074   1.526 -0.4130 -0.3366  0.5264
 9366WAT      O38183   3.076   0.443   0.613 -0.2407  0.8879  0.3263
 9366WAT     H138184   3.158   0.470   0.602 -0.8426  2.0805 -2.0614
 9366WAT     H238185   3.032   0.517   0.628 -1.0155  0.3845  0.5943
 9366WAT    EPW38186   3.082   0.458   0.613 -0.4441  0.9897  0.0132
 9367WAT      O38187   3.492   1.336   0.653  0.4426 -0.1445 -1.1214
 9367WAT     H138188   3.415   1.325   0.613  1.0166  1.0482 -2.6732
 9367WAT     H238189   3.532   1.259   0.644 -0.6644 -0.8850 -0.0043
 9367WAT    EPW38190   3.486   1.323   0.646  0.3639 -0.0777 -1.1856
 9368WAT      O38191   2.860   6.176   0.895  0.4296 -0.3894  0.9422
 9368WAT     H138192   2.802   6.150   0.835  0.9163 -0.4680  0.4960
 9368WAT     H238193   2.890   6.101   0.929 -0.0148 -0.3406  1.4568
 9368WAT    EPW38194   2.856   6.161   0.891  0.4358 -0.3938  0.9523
 9369WAT      O38195   3.919   1.171   1.397  0.3109 -0.4993  0.5028
 9369WAT     H138196   3.978   1.167   1.461  1.2886 -0.0578 -0.3539
 9369WAT     H238197   3.967   1.170   1.324 -0.7612 -0.5858 -0.2227
 9369WAT    EPW38198   3.935   1.170   1.396  0.2970 -0.4469  0.2691
 9370WAT      O38199   2.544   0.901   1.822 -0.7999 -0.3467 -0.5846
 9370WAT     H138200   2.509   0.821   1.823 -0.8099 -0.3698 -1.7040
 9370WAT     H238201   2.556   0.917   1.737 -0.4518  0.6928 -0.3510
 9370WAT    EPW38202   2.541   0.892   1.810 -0.7499 -0.1965 -0.7154
 9371WAT      O38203   5.178   1.297   0.174 -0.4316  0.0468  0.1032
 9371WAT     H138204   5.120   1.361   0.186  0.6571  1.3673 -1.3597
 9371WAT     H238205   5.240   1.315   0.232 -1.2920 -1.2494  1.5226
 9371WAT    EPW38206   5.179   1.309   0.185 -0.3979  0.0504  0.0968
 9372WAT      O38207   3.482   7.140   1.420 -0.4890 -0.9147  0.6421
 9372WAT     H138208   3.459   7.134   1.336 -0.6491 -2.1128  0.7405
 9372WAT     H238209   3.417   7.186   1.456 -0.0936  0.1662  0.0095
 9372WAT    EPW38210   3.469   7.146   1.413 -0.4542 -0.9320  0.5631
 9373WAT      O38211   3.858   1.546   1.868  0.0714 -0.1834 -0.8960
 9373WAT     H138212   3.825   1.563   1.947 -0.2198 -0.1876 -1.0138
 9373WAT     H238213   3.878   1.625   1.837 -1.3996 -0.0056 -1.4946
 9373WAT    EPW38214   3.856   1.561   1.875 -0.1889 -0.1578 -1.0018
 9374WAT      O38215   3.484   7.631   6.879  0.1925 -0.2047 -0.1536
 9374WAT     H138216   3.423   7.663   6.825 -0.3669  0.1909  0.6997
 9374WAT     H238217   3.438   7.605   6.949  0.9799 -0.1314  0.3992
 9374WAT    EPW38218   3.468   7.632   6.881  0.2262 -0.1354  0.0541
 9375WAT      O38219   2.837   0.127   0.443 -0.0881 -0.3142 -0.3015
 9375WAT     H138220   2.786   0.180   0.397 -0.6453  0.0764  0.7256
 9375WAT     H238221   2.811   0.047   0.419  2.0407 -0.2710 -3.3032
 9375WAT    EPW38222   2.826   0.123   0.433  0.1441 -0.2501 -0.5932
 9376WAT      O38223   2.335   1.328   1.746 -0.5853 -0.3073 -0.4528
 9376WAT     H138224   2.364   1.279   1.680 -0.7638  1.3060 -1.8012
 9376WAT     H238225   2.251   1.343   1.725 -1.4918 -2.0743  1.6274
 9376WAT    EPW38226   2.327   1.323   1.733 -0.7456 -0.3300 -0.3447
 9377WAT      O38227   1.320   6.903   0.688  0.3511  0.1675  0.0614
 9377WAT     H138228   1.366   6.972   0.714 -0.5635  1.0154 -0.4684
 9377WAT     H238229   1.355   6.883   0.611 -0.6054  1.2954 -0.7051
 9377WAT    EPW38230   1.332   6.910   0.680  0.0747  0.4594 -0.1301
 9378WAT      O38231   3.253   6.547   6.769  0.3161 -0.6183 -0.4700
 9378WAT     H138232   3.288   6.555   6.848  0.5736  1.0386 -0.7152
 9378WAT     H238233   3.312   6.583   6.716 -1.2460  1.3699 -1.0020
 9378WAT    EPW38234   3.267   6.554   6.773  0.1234 -0.0799 -0.5848
 9379WAT      O38235   4.246   0.164   2.050 -0.0204  0.4685  0.3229
 9379WAT     H138236   4.202   0.228   2.010 -1.8761 -0.3046  1.0102
 9379WAT     H238237   4.186   0.127   2.102  0.9482 -1.8438 -0.0563
 9379WAT    EPW38238   4.231   0.168   2.052 -0.1514  0.0127  0.3684
 9380WAT      O38239   2.889   6.406   1.136  0.1116  0.3850 -0.0187
 9380WAT     H138240   2.886   6.363   1.060  0.7489 -1.6201  0.9908
 9380WAT     H238241   2.958   6.459   1.128 -0.5275  1.0616 -1.2192
 9380WAT    EPW38242   2.899   6.407   1.124  0.1113  0.1887 -0.0469
 9381WAT      O38243   3.783   6.945   1.169 -0.2021 -0.1076  0.2456
 9381WAT     H138244   3.826   6.913   1.100  1.6152 -0.6413  1.5097
 9381WAT     H238245   3.846   6.987   1.214 -0.6917 -1.7540  2.6984
 9381WAT    EPW38246   3.799   6.946   1.166 -0.0060 -0.4296  0.7946
 9382WAT      O38247   2.945   7.601   2.143 -0.5399 -0.1326  0.1299
 9382WAT     H138248   2.943   7.525   2.187  0.7261 -0.6717 -0.7008
 9382WAT     H238249   3.026   7.631   2.158 -0.7441  0.6355 -0.2695
 9382WAT    EPW38250   2.957   7.594   2.152 -0.3831 -0.0988 -0.0518
 9383WAT      O38251   3.977   1.098   7.746  0.0779 -0.0583 -0.2995
 9383WAT     H138252   3.941   1.108   7.667  1.7811  2.6775 -0.8385
 9383WAT     H238253   4.018   1.021   7.740  0.0743  0.0344 -2.0234
 9383WAT    EPW38254   3.978   1.088   7.733  0.3290  0.3595 -0.6338
 9384WAT      O38255   2.317   1.095   1.368 -0.4128  0.0462 -0.4880
 9384WAT     H138256   2.299   1.023   1.323 -2.1024  0.9426 -1.3401
 9384WAT     H238257   2.315   1.158   1.308 -0.8761  1.0284  0.5129
 9384WAT    EPW38258   2.314   1.093   1.353 -0.7308  0.3238 -0.4660
 9385WAT      O38259   2.896   1.672   0.743  0.4112  0.1390 -0.8038
 9385WAT     H138260   2.952   1.729   0.778  0.0891 -0.2944  0.4857
 9385WAT     H238261   2.947   1.606   0.717  0.3925 -2.0168  3.7377
 9385WAT    EPW38262   2.912   1.671   0.744  0.3608 -0.2435  0.0576
 9386WAT      O38263   3.156   1.172   0.785 -0.3916  0.4016  0.9402
 9386WAT     H138264   3.240   1.150   0.790 -0.3503 -0.6954 -2.2439
 9386WAT     H238265   3.128   1.164   0.867  2.3924 -0.0079  1.9579
 9386WAT    EPW38266   3.164   1.167   0.798  0.0258  0.1790  0.6202
 9387WAT      O38267   2.938   6.770   7.829 -0.6417  0.3973  0.3099
 9387WAT     H138268   2.995   6.816   7.783 -0.4906  0.2725  0.3734
 9387WAT     H238269   2.875   6.828   7.847 -0.6078  0.4944  0.1150
 9387WAT    EPW38270   2.937   6.785   7.825 -0.6144  0.3932  0.2905
 9388WAT      O38271   4.619   0.535   7.809  0.1396  0.4948 -0.3215
 9388WAT     H138272   4.615   0.570   7.729  1.7484 -0.3389 -0.7946
 9388WAT     H238273   4.570   0.589   7.857 -2.6441 -0.1379 -2.2344
 9388WAT    EPW38274   4.611   0.548   7.804 -0.0340  0.2782 -0.6740
 9389WAT      O38275   3.135   0.690   0.851  0.3564  0.6728 -0.4277
 9389WAT     H138276   3.192   0.747   0.817  0.2569  1.4171  0.6038
 9389WAT     H238277   3.059   0.711   0.814  0.0604  2.1087  0.9047
 9389WAT    EPW38278   3.133   0.701   0.840  0.2980  0.9949 -0.0785
 9390WAT      O38279   2.774   1.210   0.874 -0.2835  0.3764 -0.3570
 9390WAT     H138280   2.745   1.279   0.918  0.2149 -0.2980  1.1084
 9390WAT     H238281   2.831   1.174   0.929 -0.8179 -1.4168 -0.9193
 9390WAT    EPW38282   2.778   1.215   0.889 -0.2888  0.0119 -0.2236
 9391WAT      O38283   4.271   0.993   1.904 -0.2278 -0.5609 -0.2076
 9391WAT     H138284   4.250   1.005   1.820  2.6418  2.6520 -0.6802
 9391WAT     H238285   4.251   1.069   1.942  0.3102 -1.2619  1.5905
 9391WAT    EPW38286   4.265   1.006   1.897  0.2756 -0.1899 -0.0118
 9392WAT      O38287   2.049   7.481   7.389  0.3113 -0.2933  0.4223
 9392WAT     H138288   2.025   7.538   7.450 -0.2629  0.3593 -0.4079
 9392WAT     H238289   1.992   7.416   7.397 -0.5698  0.3811 -0.2662
 9392WAT    EPW38290   2.037   7.480   7.399  0.0963 -0.0973  0.1979
 9393WAT      O38291   3.203   7.307   7.593  0.1448 -0.3639 -0.1608
 9393WAT     H138292   3.162   7.301   7.670 -2.7602 -1.9531 -1.6323
 9393WAT     H238293   3.288   7.307   7.615 -0.5319  0.5442  3.0475
 9393WAT    EPW38294   3.209   7.306   7.608 -0.3843 -0.4645  0.0957
 9394WAT      O38295   4.079   1.338   7.831  0.3731  0.1100  0.3852
 9394WAT     H138296   4.048   1.257   7.832  0.7245 -0.0530 -0.6867
 9394WAT     H238297   4.051   1.372   7.907  1.3081 -1.3929  1.4365
 9394WAT    EPW38298   4.070   1.331   7.842  0.5632 -0.1361  0.3822
 9395WAT      O38299   1.996   0.677   6.054  0.2534  0.8865  0.2495
 9395WAT     H138300   2.067   0.689   6.005  2.1551  0.2509  2.6480
 9395WAT     H238301   1.995   0.747   6.106 -0.4387  0.5412  0.7115
 9395WAT    EPW38302   2.007   0.689   6.055  0.4321  0.7416  0.6721
 9396WAT      O38303   1.634   6.675   0.463  0.4071 -0.4685  0.7578
 9396WAT     H138304   1.658   6.622   0.529  3.0089 -0.5361 -0.1345
 9396WAT     H238305   1.547   6.664   0.459  0.7032 -4.3791  0.9107
 9396WAT    EPW38306   1.625   6.665   0.472  0.8351 -1.0561  0.6486
 9397WAT      O38307   0.867   6.858   5.384 -0.1239 -0.2233 -0.1160
 9397WAT     H138308   0.789   6.829   5.412  0.1010 -0.0434  0.7176
 9397WAT     H238309   0.922   6.795   5.409  0.3397  0.7993  1.5177
 9397WAT    EPW38310   0.864   6.844   5.392 -0.0222 -0.0456  0.2485
 9398WAT      O38311   1.102   6.358   6.043  0.1370  0.4773 -0.2235
 9398WAT     H138312   1.112   6.443   6.061 -1.0195  0.7620 -0.8123
 9398WAT     H238313   1.182   6.333   6.020  0.3950  1.5534 -0.5867
 9398WAT    EPW38314   1.115   6.367   6.042  0.0042  0.6783 -0.3641
 9399WAT      O38315   1.062   6.572   6.609  0.0055 -0.3804  0.2946
 9399WAT     H138316   1.015   6.536   6.672  0.3275 -0.2025  0.6461
 9399WAT     H238317   1.114   6.507   6.582  0.9364 -0.0819  1.2686
 9399WAT    EPW38318   1.063   6.557   6.614  0.1906 -0.3100  0.4904
 9400WAT      O38319   1.147   6.607   0.315 -0.7866 -0.1165  0.0831
 9400WAT     H138320   1.204   6.651   0.365 -0.4219 -1.2602  0.7168
 9400WAT     H238321   1.070   6.623   0.354 -0.7055  0.2046  0.1191
 9400WAT    EPW38322   1.144   6.616   0.328 -0.7207 -0.2380  0.1820
 9401WAT      O38323   1.864   7.362   0.158 -0.0311 -0.3145  0.2099
 9401WAT     H138324   1.860   7.278   0.179  2.6990 -0.3274  1.1830
 9401WAT     H238325   1.866   7.403   0.235 -2.7800  0.8547 -0.2260
 9401WAT    EPW38326   1.864   7.356   0.172 -0.0339 -0.1437  0.2892
 9402WAT      O38327   0.667   6.320   5.472  0.6216  0.2100 -0.7125
 9402WAT     H138328   0.652   6.245   5.430 -0.6348 -0.6769  1.1464
 9402WAT     H238329   0.737   6.302   5.521 -0.0784 -0.0107  0.2362
 9402WAT    EPW38330   0.675   6.306   5.473  0.3326  0.0464 -0.2977
 9403WAT      O38331   1.376   0.224   6.832 -0.2524 -0.3337  0.2423
 9403WAT     H138332   1.342   0.250   6.756  0.8693  0.0873 -0.1305
 9403WAT     H238333   1.448   0.273   6.840 -0.3255 -0.4098  1.5519
 9403WAT    EPW38334   1.382   0.235   6.822 -0.0975 -0.2828  0.3807
 9404WAT      O38335   1.292   6.201   6.886  0.3377 -0.0512 -0.1244
 9404WAT     H138336   1.347   6.253   6.842 -1.9903  1.8652 -0.9809
 9404WAT     H238337   1.263   6.146   6.825 -2.1177  1.9599 -0.9506
 9404WAT    EPW38338   1.296   6.201   6.870 -0.3689  0.5290 -0.3729
 9405WAT      O38339   0.577   0.330   5.958 -0.5544  0.1768  0.0512
 9405WAT     H138340   0.656   0.297   5.943 -0.3426  0.4504  0.5313
 9405WAT     H238341   0.584   0.364   6.038 -1.3637 -0.4350  0.4071
 9405WAT    EPW38342   0.590   0.330   5.968 -0.6427  0.1268  0.1747
 9406WAT      O38343   2.642   0.301   6.327  0.4862  0.1325 -0.4091
 9406WAT     H138344   2.628   0.384   6.353  0.3512  0.2834 -0.9525
 9406WAT     H238345   2.727   0.300   6.309  1.1401 -0.6144  2.2799
 9406WAT    EPW38346   2.652   0.313   6.328  0.5629  0.0444 -0.0921
 9407WAT      O38347   1.653   6.757   6.972  0.4536 -0.4152 -0.0213
 9407WAT     H138348   1.675   6.733   7.053 -0.6200 -0.3945  0.2867
 9407WAT     H238349   1.730   6.761   6.931  1.1112  0.3507  1.2018
 9407WAT    EPW38350   1.668   6.754   6.978  0.3922 -0.2990  0.2048
 9408WAT      O38351   1.620   7.619   6.769 -0.0250 -0.1079  0.0014
 9408WAT     H138352   1.696   7.646   6.802 -0.1000 -0.7736  0.7545
 9408WAT     H238353   1.639   7.542   6.733  0.0843  0.6656 -1.6889
 9408WAT    EPW38354   1.634   7.611   6.768 -0.0199 -0.0920 -0.1370
 9409WAT      O38355   1.231   7.038   7.806 -0.0719 -0.1121  0.0395
 9409WAT     H138356   1.266   6.980   7.750  3.8552  2.9539 -1.1680
 9409WAT     H238357   1.190   7.095   7.753  1.2157  1.2762  0.4646
 9409WAT    EPW38358   1.230   7.038   7.790  0.6984  0.5459 -0.0761
 9410WAT      O38359   1.167   6.797   7.106  0.0086 -0.8547 -0.1607
 9410WAT     H138360   1.205   6.788   7.028  0.6811 -0.5186  0.1205
 9410WAT     H238361   1.096   6.845   7.089  1.2722  1.0980 -0.2750
 9410WAT    EPW38362   1.162   6.803   7.092  0.2946 -0.5166 -0.1360
 9411WAT      O38363   2.230   6.795   5.584 -0.0635 -0.0958 -0.4808
 9411WAT     H138364   2.309   6.758   5.590 -0.5826 -1.3916 -1.2481
 9411WAT     H238365   2.247   6.880   5.590  1.3368 -0.3689 -0.1350
 9411WAT    EPW38366   2.245   6.802   5.586  0.0667 -0.3275 -0.5431
 9412WAT      O38367   1.270   0.357   5.586 -0.0499 -0.5385  0.4808
 9412WAT     H138368   1.226   0.428   5.609  1.6935  0.2368  1.6670
 9412WAT     H238369   1.269   0.360   5.498 -2.5581 -0.7728  0.4471
 9412WAT    EPW38370   1.264   0.368   5.576 -0.1629 -0.4586  0.6510
 9413WAT      O38371   0.590   7.151   7.080 -0.3120  0.5565  1.2720
 9413WAT     H138372   0.611   7.232   7.103 -1.0013  1.2935 -0.5130
 9413WAT     H238373   0.566   7.158   6.996  2.5544 -1.9885  0.0506
 9413WAT    EPW38374   0.589   7.164   7.071  0.0096  0.2894  0.8279
 9414WAT      O38375   1.450   6.554   5.526 -0.2224 -0.2582 -0.6870
 9414WAT     H138376   1.502   6.495   5.487 -0.1209  0.5144 -1.7707
 9414WAT     H238377   1.454   6.532   5.610 -0.6600 -2.1537 -1.1233
 9414WAT    EPW38378   1.458   6.542   5.533 -0.2721 -0.4241 -0.9115
 9415WAT      O38379   1.885   1.025   7.657  0.4501  0.2088  0.3345
 9415WAT     H138380   1.870   1.091   7.601 -1.5514 -0.9880 -0.6324
 9415WAT     H238381   1.808   1.013   7.695  0.4484 -2.3014 -0.3335
 9415WAT    EPW38382   1.871   1.033   7.654  0.1542 -0.3388  0.0930
 9416WAT      O38383   1.101   7.216   7.084  0.7179  0.7822 -0.1126
 9416WAT     H138384   1.185   7.194   7.085  0.8854  1.4095 -0.1434
 9416WAT     H238385   1.099   7.291   7.039 -0.0603 -0.0247 -1.5219
 9416WAT    EPW38386   1.113   7.224   7.077  0.6277  0.7557 -0.3253
 9417WAT      O38387   2.236   7.016   6.437  0.3298  0.0810  0.2053
 9417WAT     H138388   2.171   7.074   6.430  0.4894  0.3005  0.5154
 9417WAT     H238389   2.220   6.976   6.513  0.5949  0.1816  0.3151
 9417WAT    EPW38390   2.224   7.019   6.447  0.3926  0.1283  0.2673
 9418WAT      O38391   1.441   7.236   6.460 -0.4530  0.7918  0.2216
 9418WAT     H138392   1.393   7.236   6.387 -0.6796  0.5612  0.3710
 9418WAT     H238393   1.470   7.154   6.467 -2.1306  0.2486  1.4946
 9418WAT    EPW38394   1.438   7.224   6.450 -0.7343  0.6775  0.4317
 9419WAT      O38395   0.563   7.491   6.492 -0.0002 -0.1753  0.3223
 9419WAT     H138396   0.572   7.405   6.507  0.7932 -0.1195  0.2232
 9419WAT     H238397   0.559   7.496   6.405 -1.5475 -0.2291  0.3609
 9419WAT    EPW38398   0.564   7.479   6.481 -0.1116 -0.1750  0.3134
 9420WAT      O38399   1.451   6.286   6.676  0.0327 -0.3636 -0.2108
 9420WAT     H138400   1.499   6.344   6.720 -1.8402  1.4228 -0.3745
 9420WAT     H238401   1.464   6.307   6.592 -2.7043  1.7467 -0.2370
 9420WAT    EPW38402   1.460   6.297   6.670 -0.6483  0.2120 -0.2389
 9421WAT      O38403   0.787   5.433   6.046  0.1142 -0.3183 -0.5980
 9421WAT     H138404   0.702   5.430   6.063 -0.0487 -0.8088 -1.4204
 9421WAT     H238405   0.808   5.517   6.057 -0.1191 -0.4536  1.1715
 9421WAT    EPW38406   0.778   5.445   6.050  0.0556 -0.4107 -0.4581
 9422WAT      O38407   3.082   6.683   7.244  0.1711  0.1921  0.2021
 9422WAT     H138408   3.120   6.605   7.250 -1.9349 -0.8693  0.7628
 9422WAT     H238409   3.002   6.664   7.215 -0.4145  2.1526  0.4254
 9422WAT    EPW38410   3.076   6.668   7.240 -0.2265  0.3249  0.3179
 9423WAT      O38411   0.598   7.597   6.850 -0.6808  0.0960 -0.1455
 9423WAT     H138412   0.525   7.632   6.884 -1.2927 -0.7147 -0.5844
 9423WAT     H238413   0.617   7.650   6.784 -1.5254 -0.3019 -0.7266
 9423WAT    EPW38414   0.590   7.610   6.845 -0.8959 -0.0825 -0.2961
 9424WAT      O38415   0.598   7.080   0.672 -0.2017 -0.2650  0.1750
 9424WAT     H138416   0.582   7.108   0.753 -0.2902 -0.8081  0.3494
 9424WAT     H238417   0.647   7.009   0.685 -1.1434 -1.0040 -0.2004
 9424WAT    EPW38418   0.603   7.073   0.686 -0.3539 -0.4544  0.1453
 9425WAT      O38419   3.336   0.483   6.381 -0.0367  0.3342 -0.0473
 9425WAT     H138420   3.277   0.419   6.386 -0.3642  0.6986  1.2184
 9425WAT     H238421   3.299   0.541   6.327  0.4345 -0.6811 -1.5224
 9425WAT    EPW38422   3.322   0.482   6.374 -0.0155  0.2380 -0.0782
 9426WAT      O38423   3.377   7.540   6.305 -0.9505  0.3927 -0.2130
 9426WAT     H138424   3.344   7.581   6.236  1.3331  0.9294 -1.1043
 9426WAT     H238425   3.308   7.502   6.343 -2.7331  2.6150 -1.0202
 9426WAT    EPW38426   3.362   7.540   6.301 -0.8765  0.8002 -0.4639
 9427WAT      O38427   2.507   7.120   1.677  0.4492  0.3164 -0.2052
 9427WAT     H138428   2.563   7.061   1.709  1.1907  1.6934  1.1323
 9427WAT     H238429   2.559   7.181   1.643 -0.2018  1.4197  0.7080
 9427WAT    EPW38430   2.523   7.120   1.677  0.4626  0.6828  0.1273
 9428WAT      O38431   1.786   6.076   5.980  0.2724  0.2505  0.3725
 9428WAT     H138432   1.863   6.108   5.953  1.4512 -2.6866 -0.2596
 9428WAT     H238433   1.807   6.034   6.054 -0.9303  0.2407  0.7170
 9428WAT    EPW38434   1.801   6.074   5.987  0.2689 -0.1848  0.3300
 9429WAT      O38435   0.978   6.873   1.553  0.0993  0.1658  0.1200
 9429WAT     H138436   1.015   6.952   1.550 -0.9676  0.7059  0.3128
 9429WAT     H238437   1.003   6.835   1.479  1.9400  0.0494  0.7522
 9429WAT    EPW38438   0.987   6.879   1.542  0.2136  0.2284  0.2418
 9430WAT      O38439   1.842   7.103   6.387 -0.0340 -0.0751  0.3170
 9430WAT     H138440   1.909   7.153   6.412  0.9380 -0.4217 -1.4283
 9430WAT     H238441   1.810   7.144   6.317 -1.0705 -0.3992  0.5872
 9430WAT    EPW38442   1.847   7.116   6.380 -0.0436 -0.1742  0.0991
 9431WAT      O38443   0.800   6.212   1.153  0.1320 -0.0468 -0.4669
 9431WAT     H138444   0.762   6.140   1.122 -1.9920  0.5160  0.6556
 9431WAT     H238445   0.870   6.181   1.196  0.7353 -1.1628 -2.1568
 9431WAT    EPW38446   0.805   6.197   1.155 -0.0927 -0.1285 -0.5507
 9432WAT      O38447   2.070   0.395   7.083  0.2772 -0.4068 -0.1689
 9432WAT     H138448   2.139   0.353   7.047 -0.5599 -0.9936 -1.1700
 9432WAT     H238449   2.084   0.388   7.168  1.2178 -0.9446 -0.3484
 9432WAT    EPW38450   2.082   0.387   7.090  0.2925 -0.5729 -0.3433
 9433WAT      O38451   0.829   7.218   6.553 -0.0909 -0.9137 -0.2059
 9433WAT     H138452   0.831   7.152   6.610  0.5675 -1.3247 -0.6933
 9433WAT     H238453   0.848   7.180   6.477  0.5125 -0.1322 -0.4613
 9433WAT    EPW38454   0.832   7.202   6.550  0.0955 -0.8590 -0.3156
 9434WAT      O38455   0.962   7.528   0.448 -0.1676  0.1103 -0.7600
 9434WAT     H138456   0.953   7.532   0.535  0.5540  0.6480 -0.7018
 9434WAT     H238457   0.908   7.464   0.425  0.4782 -0.8204  0.2095
 9434WAT    EPW38458   0.953   7.520   0.458  0.0344  0.0522 -0.6082
 9435WAT      O38459   2.480   6.608   6.438 -0.2074  0.0376 -0.4043
 9435WAT     H138460   2.435   6.682   6.445 -3.0596 -1.5843  0.0959
 9435WAT     H238461   2.492   6.599   6.352 -0.5415  0.6842 -0.5239
 9435WAT    EPW38462   2.475   6.617   6.426 -0.6781 -0.1065 -0.3481
 9436WAT      O38463   1.674   6.389   0.230 -0.2560 -0.4523 -0.1062
 9436WAT     H138464   1.751   6.422   0.253 -0.1539 -0.4551 -0.4453
 9436WAT     H238465   1.682   6.304   0.248 -1.0287 -0.1163  2.1802
 9436WAT    EPW38466   1.687   6.381   0.236 -0.3551 -0.4031  0.1814
 9437WAT      O38467   2.091   1.284   7.206 -0.1269 -0.1097  0.0231
 9437WAT     H138468   2.053   1.362   7.214  1.0785  0.7376 -1.7883
 9437WAT     H238469   2.145   1.281   7.275 -0.8065  0.2755  0.5837
 9437WAT    EPW38470   2.093   1.295   7.217 -0.0493  0.0724 -0.1616
 9438WAT      O38471   0.566   0.450   6.845  0.2270 -0.3198  0.2335
 9438WAT     H138472   0.619   0.417   6.784  1.2455  0.6227  0.5901
 9438WAT     H238473   0.583   0.535   6.844 -1.8438  0.1422 -0.1594
 9438WAT    EPW38474   0.576   0.458   6.836  0.0716 -0.1123  0.2282
 9439WAT      O38475   2.982   0.039   6.878 -0.1198 -0.3267  0.4869
 9439WAT     H138476   3.044   0.100   6.876  2.7956 -3.0706  0.0331
 9439WAT     H238477   2.975   0.020   6.963  0.1743 -0.4828  0.4770
 9439WAT    EPW38478   2.990   0.046   6.890  0.3543 -0.7551  0.4184
 9440WAT      O38479   1.496   7.295   6.969 -0.2537 -0.0020  0.5460
 9440WAT     H138480   1.459   7.223   6.938 -0.6401  0.5319 -0.2770
 9440WAT     H238481   1.428   7.346   6.990 -0.0078  0.7859 -0.4955
 9440WAT    EPW38482   1.481   7.292   6.968 -0.2745  0.1932  0.2706
 9441WAT      O38483   1.681   7.568   0.503 -0.2248 -0.3592  0.1078
 9441WAT     H138484   1.759   7.532   0.517 -0.5777 -1.4144 -0.5070
 9441WAT     H238485   1.638   7.508   0.456 -1.6085 -0.0511  0.9051
 9441WAT    EPW38486   1.686   7.554   0.498 -0.4813 -0.4696  0.1348
 9442WAT      O38487   1.235   5.977   6.617 -0.3735  0.3827 -0.6478
 9442WAT     H138488   1.238   5.926   6.688  0.4604 -0.3877 -1.2196
 9442WAT     H238489   1.177   6.038   6.638  0.3037  0.5165  0.9260
 9442WAT    EPW38490   1.227   5.978   6.630 -0.1503  0.2886 -0.4998
 9443WAT      O38491   2.281   0.322   4.827 -0.4045  0.2057 -0.6352
 9443WAT     H138492   2.217   0.304   4.771 -1.3841  0.6728  0.3030
 9443WAT     H238493   2.245   0.307   4.905  0.7134  0.2275 -0.0921
 9443WAT    EPW38494   2.266   0.317   4.831 -0.3841  0.2779 -0.4164
 9444WAT      O38495   0.680   7.641   6.005 -0.2262  0.1106 -0.1100
 9444WAT     H138496   0.652   7.691   5.939  2.3235  1.2933 -0.4262
 9444WAT     H238497   0.766   7.656   6.006  0.0753 -1.3477  2.2936
 9444WAT    EPW38498   0.689   7.651   5.995  0.1950  0.0699  0.1984
 9445WAT      O38499   0.657   1.440   7.072  0.7318  0.3644  0.0411
 9445WAT     H138500   0.632   1.361   7.045  0.2198  0.1019  1.2087
 9445WAT     H238501   0.733   1.453   7.032  2.6157 -2.2307  2.4598
 9445WAT    EPW38502   0.664   1.430   7.062  0.9345 -0.0577  0.5709
 9446WAT      O38503   1.461   0.793   6.607  0.4226  0.0860  0.4736
 9446WAT     H138504   1.451   0.707   6.616  2.9924 -0.1591  1.8800
 9446WAT     H238505   1.542   0.801   6.576  0.2043  2.0217  0.2708
 9446WAT    EPW38506   1.471   0.782   6.604  0.7700  0.3357  0.6514
 9447WAT      O38507   0.603   7.168   5.804 -0.3737 -0.5374 -0.4215
 9447WAT     H138508   0.650   7.184   5.875 -0.7569 -0.7444 -0.1185
 9447WAT     H238509   0.521   7.183   5.830 -0.3754  1.7448 -1.4395
 9447WAT    EPW38510   0.598   7.173   5.818 -0.4306 -0.2308 -0.5271
 9448WAT      O38511   1.493   7.300   1.611 -0.5931 -0.1648 -0.0301
 9448WAT     H138512   1.431   7.323   1.667 -0.3439  0.7573 -0.1086
 9448WAT     H238513   1.556   7.267   1.662 -1.2386 -1.3700  0.0226
 9448WAT    EPW38514   1.493   7.298   1.627 -0.6517 -0.2066 -0.0339
 9449WAT      O38515   1.722   6.977   6.075 -0.2270  0.3531  0.1650
 9449WAT     H138516   1.748   6.895   6.063 -0.7744  0.4306 -2.1155
 9449WAT     H238517   1.721   7.010   5.994 -2.2660  1.9230  0.7443
 9449WAT    EPW38518   1.726   6.970   6.061 -0.6090  0.5964 -0.0863
 9450WAT      O38519   1.330   6.808   0.420  0.2190 -0.5225 -0.1774
 9450WAT     H138520   1.377   6.814   0.347  0.9359 -0.4447  0.2889
 9450WAT     H238521   1.275   6.876   0.414 -0.9366 -1.4939 -1.4737
 9450WAT    EPW38522   1.329   6.819   0.408  0.1542 -0.6545 -0.3000
 9451WAT      O38523   2.055   7.257   6.438  0.4320 -0.0906 -0.1338
 9451WAT     H138524   2.072   7.311   6.372 -1.2706  0.2374 -0.3414
 9451WAT     H238525   2.102   7.290   6.504 -0.2762  1.4570 -0.3528
 9451WAT    EPW38526   2.065   7.270   6.438  0.0759  0.1865 -0.1968
 9452WAT      O38527   2.590   0.248   0.081 -0.6387  0.1829 -0.1074
 9452WAT     H138528   2.604   0.312   0.024  1.8236 -3.1298 -3.7234
 9452WAT     H238529   2.509   0.220   0.063 -1.3553  1.5315  0.8432
 9452WAT    EPW38530   2.580   0.253   0.070 -0.3808 -0.1072 -0.5012
 9453WAT      O38531   1.461   7.673   6.982 -0.2952 -0.4585 -0.8176
 9453WAT     H138532   1.527   7.647   6.931 -0.9063 -1.2497 -1.2307
 9453WAT     H238533   1.427   7.740   6.939  1.2287  1.0614  0.2010
 9453WAT    EPW38534   1.466   7.679   6.968 -0.1604 -0.3509 -0.7281
 9454WAT      O38535   1.869   7.132   0.326  0.0510 -0.1769 -0.4950
 9454WAT     H138536   1.787   7.110   0.307  0.0098 -0.1674 -0.3208
 9454WAT     H238537   1.862   7.181   0.397  0.1820  0.0569 -0.6414
 9454WAT    EPW38538   1.856   7.136   0.333  0.0643 -0.1409 -0.4909
 9455WAT      O38539   2.322   6.113   0.083 -0.4390 -0.3138  0.2926
 9455WAT     H138540   2.348   6.144   0.160  1.7259 -0.1343 -0.4638
 9455WAT     H238541   2.297   6.185   0.039 -0.7032 -0.3005  0.4636
 9455WAT    EPW38542   2.322   6.128   0.088 -0.1582 -0.2853  0.2061
 9456WAT      O38543   1.698   7.003   7.159  0.1469 -0.0562  0.3036
 9456WAT     H138544   1.676   6.940   7.103  0.1232 -0.6666  0.9903
 9456WAT     H238545   1.720   6.960   7.232  1.6175  0.6488  0.3087
 9456WAT    EPW38546   1.698   6.988   7.162  0.3606 -0.0422  0.4058
 9457WAT      O38547   5.014   0.083   7.685  0.6218 -0.2164  0.1911
 9457WAT     H138548   4.953   0.061   7.627 -0.4838  0.3716  1.0797
 9457WAT     H238549   4.973   0.140   7.737  1.8975  0.0965  0.8997
 9457WAT    EPW38550   4.998   0.088   7.684  0.6469 -0.0833  0.4270
 9458WAT      O38551   1.849   0.397   6.582  0.1069 -0.0015 -0.0875
 9458WAT     H138552   1.925   0.440   6.582  0.6500 -0.9315  0.2732
 9458WAT     H238553   1.872   0.315   6.601 -1.0339 -0.2167  0.4329
 9458WAT    EPW38554   1.863   0.392   6.585  0.0186 -0.1707  0.0426
 9459WAT      O38555   1.162   7.029   0.427  0.3566 -0.1034 -0.0846
 9459WAT     H138556   1.079   7.005   0.422  0.1185  0.9474 -2.8311
 9459WAT     H238557   1.162   7.091   0.489 -1.2132  0.8721 -0.9998
 9459WAT    EPW38558   1.150   7.035   0.436  0.0895  0.1959 -0.6255
 9460WAT      O38559   2.179   7.509   6.305  0.7397 -0.2095  0.2134
 9460WAT     H138560   2.186   7.594   6.323 -1.9966  0.1796 -0.1562
 9460WAT     H238561   2.130   7.507   6.233  0.4938 -2.0997  0.3737
 9460WAT    EPW38562   2.173   7.521   6.297  0.2992 -0.4313  0.1825
 9461WAT      O38563   1.800   6.360   7.618 -0.9315  0.0695  0.1618
 9461WAT     H138564   1.793   6.291   7.565 -0.1237 -0.1085  0.2705
 9461WAT     H238565   1.726   6.358   7.665 -1.0201 -0.5813  0.0027
 9461WAT    EPW38566   1.788   6.349   7.617 -0.8253 -0.0529  0.1543
 9462WAT      O38567   1.472   6.569   6.520  0.1695  0.5711 -0.0948
 9462WAT     H138568   1.414   6.633   6.530  0.1382  0.7546 -1.3356
 9462WAT     H238569   1.463   6.546   6.436  2.5188  1.2347 -0.5858
 9462WAT    EPW38570   1.462   6.575   6.509  0.5119  0.6962 -0.3506
 9463WAT      O38571   1.830   6.550   6.585  0.1935  0.0958 -0.2814
 9463WAT     H138572   1.873   6.481   6.614  1.1377  0.1989 -1.3800
 9463WAT     H238573   1.857   6.615   6.637  0.5492 -0.0523 -0.2796
 9463WAT    EPW38574   1.840   6.550   6.597  0.3855  0.0892 -0.4434
 9464WAT      O38575   0.690   1.176   6.979  0.1109  0.9189 -0.4454
 9464WAT     H138576   0.710   1.177   6.894 -1.5091 -0.0479 -0.8755
 9464WAT     H238577   0.768   1.170   7.018  0.9695  2.4727 -1.7878
 9464WAT    EPW38578   0.704   1.175   6.973 -0.0016  1.0056 -0.7072
 9465WAT      O38579   2.482   7.130   7.448  0.5606  0.0577 -0.1713
 9465WAT     H138580   2.554   7.179   7.441 -0.6431  2.0553  0.4835
 9465WAT     H238581   2.418   7.188   7.437 -0.9565 -1.4648  0.3552
 9465WAT    EPW38582   2.483   7.146   7.445  0.1587  0.1279  0.0032
 9466WAT      O38583   3.369   6.400   6.451  0.1585  0.0786 -0.3812
 9466WAT     H138584   3.435   6.436   6.496 -0.6912  1.3672 -0.1312
 9466WAT     H238585   3.350   6.328   6.497  1.6551 -0.5737 -0.7017
 9466WAT    EPW38586   3.376   6.395   6.464  0.2541  0.1726 -0.3916
 9467WAT      O38587   1.987   6.520   0.533 -0.3944  0.1268  0.2472
 9467WAT     H138588   2.013   6.453   0.583  0.1931 -0.3284 -0.6399
 9467WAT     H238589   1.952   6.576   0.590  0.3287 -0.3385  1.1726
 9467WAT    EPW38590   1.986   6.518   0.549 -0.2008 -0.0092  0.2528
 9468WAT      O38591   0.839   6.515   7.283 -0.1274 -0.0412 -0.1544
 9468WAT     H138592   0.807   6.533   7.204  1.0385 -1.5212 -1.0164
 9468WAT     H238593   0.921   6.490   7.267 -0.9436 -4.1625  0.9686
 9468WAT    EPW38594   0.846   6.514   7.269 -0.0757 -0.8687 -0.1159
 9469WAT      O38595   2.223   0.964   5.233  0.5405 -0.1331 -0.0038
 9469WAT     H138596   2.270   0.919   5.291  0.3337 -0.4685 -0.0974
 9469WAT     H238597   2.221   0.912   5.163  0.2433 -0.0077 -0.0901
 9469WAT    EPW38598   2.230   0.950   5.231  0.4661 -0.1642 -0.0304
 9470WAT      O38599   1.579   0.162   7.822 -0.4042  0.8627  0.0928
 9470WAT     H138600   1.552   0.143   7.742  0.6073  0.2952 -0.1311
 9470WAT     H238601   1.541   0.100   7.871 -0.1423  0.5456 -0.1039
 9470WAT    EPW38602   1.569   0.150   7.818 -0.2161  0.7320  0.0306
 9471WAT      O38603   1.766   0.383   1.035 -0.1208 -0.6651  0.5623
 9471WAT     H138604   1.717   0.410   1.102  0.2540 -0.7189  0.8611
 9471WAT     H238605   1.803   0.310   1.065 -1.0088 -1.4357 -0.1827
 9471WAT    EPW38606   1.764   0.376   1.049 -0.1966 -0.7869  0.4964
 9472WAT      O38607   2.093   0.290   6.003 -0.6059 -0.3234 -0.3900
 9472WAT     H138608   2.153   0.345   6.035 -0.5991 -0.4199 -0.2320
 9472WAT     H238609   2.052   0.262   6.074 -0.9303 -0.1555 -0.5108
 9472WAT    EPW38610   2.096   0.294   6.018 -0.6528 -0.3128 -0.3845
 9473WAT      O38611   1.070   6.171   6.678  0.1380 -0.2665 -0.1063
 9473WAT     H138612   0.984   6.178   6.693  0.5924  0.3167  2.8239
 9473WAT     H238613   1.088   6.241   6.630 -0.8849  0.1765  0.1163
 9473WAT    EPW38614   1.060   6.182   6.673  0.0540 -0.1149  0.3594
 9474WAT      O38615   0.848   7.589   7.011 -0.0431 -0.2610 -0.3315
 9474WAT     H138616   0.774   7.595   6.966 -0.4955 -1.8832  0.1079
 9474WAT     H238617   0.839   7.647   7.075 -0.9393 -0.4206 -0.3038
 9474WAT    EPW38618   0.836   7.598   7.014 -0.2423 -0.5242 -0.2625
 9475WAT      O38619   3.260   6.182   7.061 -0.1781 -0.0883  0.2340
 9475WAT     H138620   3.335   6.146   7.085  1.2118  0.8069 -2.3672
 9475WAT     H238621   3.242   6.144   6.984 -1.9649  0.3095  0.3921
 9475WAT    EPW38622   3.268   6.171   7.053 -0.2368  0.1027 -0.1269
 9476WAT      O38623   2.058   7.201   6.744 -0.4947 -0.6005 -0.4643
 9476WAT     H138624   2.077   7.260   6.806  1.0325  1.1172 -2.4521
 9476WAT     H238625   1.971   7.208   6.737 -0.5077  0.4120  0.3059
 9476WAT    EPW38626   2.048   7.211   6.752 -0.2710 -0.1972 -0.6442
 9477WAT      O38627   1.173   7.003   6.715  0.1899  0.3786 -0.4598
 9477WAT     H138628   1.165   7.079   6.674 -1.0980  0.6422  0.1950
 9477WAT     H238629   1.090   6.980   6.730  0.5919  0.0744  1.5384
 9477WAT    EPW38630   1.159   7.011   6.711  0.0590  0.3726 -0.0679
 9478WAT      O38631   2.280   4.296   0.190  0.3295 -0.0040  0.3289
 9478WAT     H138632   2.342   4.235   0.191  1.0805  0.5316 -2.9192
 9478WAT     H238633   2.321   4.368   0.163 -1.2271  1.0195  0.5306
 9478WAT    EPW38634   2.295   4.298   0.186  0.2105  0.2263 -0.1211
 9479WAT      O38635   1.441   7.474   7.350 -0.3800  0.3006  0.2188
 9479WAT     H138636   1.517   7.456   7.389 -0.8043 -1.4060  0.3605
 9479WAT     H238637   1.436   7.413   7.287 -2.7049 -1.2608  1.7523
 9479WAT    EPW38638   1.452   7.462   7.346 -0.7861 -0.1821  0.4663
 9480WAT      O38639   1.622   6.544   0.712 -0.0369 -0.0369 -0.2618
 9480WAT     H138640   1.674   6.496   0.764 -1.7215 -2.0954 -0.3589
 9480WAT     H238641   1.603   6.613   0.761  0.6157 -0.5723  0.7932
 9480WAT    EPW38642   1.627   6.547   0.727 -0.1893 -0.4201 -0.1203
 9481WAT      O38643   1.385   6.759   6.906  0.2460 -0.2945  0.0214
 9481WAT     H138644   1.389   6.763   6.818 -1.1720  1.9620 -0.0284
 9481WAT     H238645   1.468   6.744   6.929  0.4333 -2.5143 -1.6937
 9481WAT    EPW38646   1.398   6.758   6.896  0.0642 -0.2891 -0.2393
 9482WAT      O38647   1.378   7.684   0.078 -0.3139  0.2028 -0.1838
 9482WAT     H138648   1.322   7.665   0.014  0.1649 -0.2475 -0.4780
 9482WAT     H238649   1.335   7.662   0.151 -0.4239 -0.3841 -0.4215
 9482WAT    EPW38650   1.364   7.678   0.080 -0.2594  0.0496 -0.2624
 9483WAT      O38651   1.458   0.081   5.912  0.1380 -0.0691 -0.6476
 9483WAT     H138652   1.475   0.143   5.971 -0.3546 -0.5543  0.0367
 9483WAT     H238653   1.389   0.112   5.868  0.3149  0.1634 -0.7584
 9483WAT    EPW38654   1.450   0.095   5.915  0.0914 -0.1064 -0.5629
 9484WAT      O38655   1.711   0.716   4.982 -0.5286  0.9275 -0.3589
 9484WAT     H138656   1.739   0.652   4.930 -1.6937 -0.4538  0.6375
 9484WAT     H238657   1.740   0.693   5.061  0.7356  2.7071 -0.2337
 9484WAT    EPW38658   1.719   0.704   4.986 -0.5139  0.9863 -0.1932
 9485WAT      O38659   1.882   7.670   7.580  0.5921  0.3416  0.4836
 9485WAT     H138660   1.879   7.729   7.515  2.4209 -0.2072 -0.1602
 9485WAT     H238661   1.827   7.608   7.553  0.0239  0.9102  0.2994
 9485WAT    EPW38662   1.874   7.669   7.566  0.7783  0.3445  0.3613
 9486WAT      O38663   2.497   0.392   6.602  0.1679  0.1610 -0.0619
 9486WAT     H138664   2.450   0.453   6.644 -1.1931 -1.3116  0.6686
 9486WAT     H238665   2.457   0.386   6.524  1.2767  1.2537 -0.7647
 9486WAT    EPW38666   2.484   0.400   6.596  0.1307  0.1049 -0.0578
 9487WAT      O38667   1.091   7.531   6.394 -0.0034 -0.6935 -0.5498
 9487WAT     H138668   1.091   7.455   6.351 -0.2275 -0.2222 -1.4231
 9487WAT     H238669   1.174   7.544   6.414 -0.1599 -2.0704  1.3204
 9487WAT    EPW38670   1.103   7.522   6.390 -0.0596 -0.8272 -0.4025
 9488WAT      O38671   1.657   0.163   0.893  0.1832 -0.5074 -0.6158
 9488WAT     H138672   1.741   0.148   0.872  0.6844 -1.7888  1.9645
 9488WAT     H238673   1.657   0.248   0.913  0.9655 -0.5580 -0.3381
 9488WAT    EPW38674   1.670   0.174   0.893  0.3728 -0.7042 -0.1936
 9489WAT      O38675   2.430   6.883   6.658  0.4466 -0.1197 -0.3598
 9489WAT     H138676   2.513   6.886   6.631 -0.1221 -1.4504 -2.5621
 9489WAT     H238677   2.426   6.944   6.720  3.4708 -1.1940  1.0843
 9489WAT    EPW38678   2.441   6.892   6.663  0.8093 -0.4750 -0.4718
 9490WAT      O38679   2.085   6.949   4.695 -0.0715 -0.0781  0.3295
 9490WAT     H138680   2.143   6.885   4.711  0.2571 -0.2347 -1.3139
 9490WAT     H238681   2.024   6.909   4.646 -0.0733  0.7583 -0.3642
 9490WAT    EPW38682   2.085   6.933   4.690 -0.0233  0.0223 -0.0157
 9491WAT      O38683   0.767   5.536   4.933 -0.4111 -0.0484 -0.1385
 9491WAT     H138684   0.847   5.568   4.918  0.8885 -1.5709  2.7685
 9491WAT     H238685   0.720   5.607   4.952  0.7546  0.7059  0.0178
 9491WAT    EPW38686   0.772   5.551   4.934 -0.0469 -0.1619  0.3141
 9492WAT      O38687   0.862   7.277   4.864  0.3110 -0.4734 -0.4542
 9492WAT     H138688   0.835   7.221   4.804  0.5158  0.2687 -1.2555
 9492WAT     H238689   0.945   7.254   4.879  0.6129  0.0443 -1.2964
 9492WAT    EPW38690   0.871   7.266   4.858  0.3859 -0.2873 -0.6969
 9493WAT      O38691   0.685   6.728   4.528  0.0779  0.3508 -0.5442
 9493WAT     H138692   0.682   6.795   4.472 -0.2909  0.0724 -0.8618
 9493WAT     H238693   0.760   6.688   4.507 -0.1581  0.1299 -0.9824
 9493WAT    EPW38694   0.696   6.732   4.517 -0.0115  0.2770 -0.6559
 9494WAT      O38695   1.501   6.399   4.520  0.1775  0.0821  0.1566
 9494WAT     H138696   1.548   6.375   4.590 -1.4004  0.9253  1.5806
 9494WAT     H238697   1.419   6.379   4.543 -0.4615  1.0467 -1.1582
 9494WAT    EPW38698   1.496   6.392   4.534 -0.1500  0.3491  0.1727
 9495WAT      O38699   0.811   0.749   5.029  0.4687  0.0081 -0.1469
 9495WAT     H138700   0.750   0.772   4.971  1.4916 -1.1512 -1.7510
 9495WAT     H238701   0.871   0.708   4.981  2.3736  0.7784  1.4121
 9495WAT    EPW38702   0.811   0.747   5.014  0.9012 -0.0493 -0.1535
 9496WAT      O38703   1.964   7.591   3.541 -0.3984  0.4416  0.2602
 9496WAT     H138704   1.923   7.645   3.486  1.3436  1.6937  0.0991
 9496WAT     H238705   2.045   7.588   3.509 -0.4070 -2.3158  0.2919
 9496WAT    EPW38706   1.970   7.599   3.528 -0.1423  0.2192  0.2411
 9497WAT      O38707   0.720   0.204   5.427  0.2826  0.1199  0.0044
 9497WAT     H138708   0.723   0.277   5.379 -1.1333  0.7347  0.7725
 9497WAT     H238709   0.729   0.140   5.368 -0.3128  0.8800 -0.9524
 9497WAT    EPW38710   0.722   0.206   5.411 -0.0145  0.3230 -0.0235
 9498WAT      O38711   0.999   6.399   5.352 -0.1555 -0.0302  0.7993
 9498WAT     H138712   0.973   6.333   5.301 -1.1101 -0.5527  1.9169
 9498WAT     H238713   0.988   6.369   5.433  0.3114  1.1599  1.3417
 9498WAT    EPW38714   0.994   6.385   5.357 -0.2276  0.0684  1.0446
 9499WAT      O38715   2.728   6.817   7.030  0.4144 -0.3944 -0.3942
 9499WAT     H138716   2.789   6.870   6.995  0.7364 -0.5550 -0.0850
 9499WAT     H238717   2.655   6.863   7.022  1.0441  1.2944  2.2273
 9499WAT    EPW38718   2.726   6.832   7.023  0.5550 -0.1687  0.0387
 9500WAT      O38719   2.661   5.640   6.019  0.2257  0.2889 -0.3315
 9500WAT     H138720   2.632   5.588   6.083  2.6046 -0.0482  0.5559
 9500WAT     H238721   2.598   5.635   5.958 -1.8204  0.1380  1.6866
 9500WAT    EPW38722   2.647   5.631   6.019  0.2749  0.2168  0.0977
 9501WAT      O38723   0.726   6.378   3.551  0.3220  0.1928  0.4939
 9501WAT     H138724   0.772   6.395   3.479 -0.4560  0.7312  0.1129
 9501WAT     H238725   0.779   6.326   3.597  2.0105  2.1206  0.8494
 9501WAT    EPW38726   0.740   6.373   3.547  0.4565  0.5571  0.4901
 9502WAT      O38727   0.815   7.677   5.578 -0.1318 -0.2943 -0.1418
 9502WAT     H138728   0.770   7.750   5.593 -0.8758 -0.7805  0.0597
 9502WAT     H238729   0.771   7.617   5.623  0.4174 -0.8854 -0.3850
 9502WAT    EPW38730   0.802   7.679   5.587 -0.1606 -0.4535 -0.1480
 9503WAT      O38731   1.016   0.923   6.281  0.1134 -0.0879  0.0578
 9503WAT     H138732   0.930   0.922   6.266  0.0768  0.3661  0.2192
 9503WAT     H238733   1.033   0.842   6.307 -0.3215 -0.1024  0.3073
 9503WAT    EPW38734   1.005   0.911   6.283  0.0438 -0.0230  0.1185
 9504WAT      O38735   1.183   0.112   5.741 -0.6790  0.4808  0.0844
 9504WAT     H138736   1.224   0.062   5.683 -0.0615  0.2115  0.7315
 9504WAT     H238737   1.187   0.192   5.706 -1.0115  0.2053 -0.6055
 9504WAT    EPW38738   1.189   0.117   5.727 -0.6369  0.4003  0.0781
 9505WAT      O38739   1.771   0.739   3.561 -0.1229 -0.1651  0.4750
 9505WAT     H138740   1.851   0.710   3.581 -1.1538 -2.6975  1.3263
 9505WAT     H238741   1.723   0.719   3.631 -1.8805 -0.3371 -0.7034
 9505WAT    EPW38742   1.776   0.732   3.574 -0.5348 -0.5646  0.4266
 9506WAT      O38743   0.918   0.377   4.423 -0.1965  0.1902  0.2635
 9506WAT     H138744   0.993   0.355   4.461 -0.6555  1.4855  2.0347
 9506WAT     H238745   0.942   0.400   4.342  1.1003 -0.6434  0.3799
 9506WAT    EPW38746   0.932   0.377   4.417 -0.0727  0.2584  0.5423
 9507WAT      O38747   1.013   0.369   4.896 -0.3782  0.3388 -0.3119
 9507WAT     H138748   1.030   0.370   4.981 -0.1282  0.7401 -0.3653
 9507WAT     H238749   0.929   0.345   4.891 -0.0887 -0.8282 -0.0031
 9507WAT    EPW38750   1.004   0.365   4.908 -0.2985  0.2257 -0.2742
 9508WAT      O38751   0.608   0.047   5.755 -0.5771 -0.1925 -0.5237
 9508WAT     H138752   0.536   0.078   5.716 -1.8392 -1.8986  0.3251
 9508WAT     H238753   0.605  -0.039   5.739  0.1924 -0.5849  1.1510
 9508WAT    EPW38754   0.597   0.039   5.747 -0.6499 -0.5025 -0.1509
 9509WAT      O38755   2.127   7.411   5.748  0.0232 -0.7280 -0.1655
 9509WAT     H138756   2.049   7.402   5.786  0.5250  0.4934  1.2593
 9509WAT     H238757   2.181   7.426   5.814  0.9529  1.4876 -1.2903
 9509WAT    EPW38758   2.124   7.412   5.763  0.2347 -0.2203 -0.1212
 9510WAT      O38759   1.645   5.753   4.342 -0.0527 -0.8826 -0.4619
 9510WAT     H138760   1.648   5.674   4.379 -0.6599 -2.0408 -2.6913
 9510WAT     H238761   1.725   5.763   4.309  1.0573  0.9049  2.3978
 9510WAT    EPW38762   1.657   5.742   4.343  0.0215 -0.7897 -0.3688
 9511WAT      O38763   1.330   7.319   4.375  0.0440 -0.2589 -0.0521
 9511WAT     H138764   1.275   7.352   4.434  1.0912  0.4048  0.5982
 9511WAT     H238765   1.282   7.260   4.333 -0.5311 -1.3936  2.0328
 9511WAT    EPW38766   1.315   7.315   4.378  0.1137 -0.3285  0.3520
 9512WAT      O38767   2.489   7.165   5.747 -0.6122 -0.3316 -0.4410
 9512WAT     H138768   2.453   7.131   5.675 -0.0688 -1.1673 -0.3343
 9512WAT     H238769   2.473   7.105   5.808  1.7464 -1.2177 -0.5867
 9512WAT    EPW38770   2.481   7.151   5.745 -0.1835 -0.5860 -0.4468
 9513WAT      O38771   0.873   7.544   4.767  0.0245 -0.3123 -0.0971
 9513WAT     H138772   0.860   7.461   4.793  1.0146 -0.8054 -1.0831
 9513WAT     H238773   0.952   7.563   4.800 -0.1104  0.1680 -0.0507
 9513WAT    EPW38774   0.883   7.534   4.776  0.1508 -0.3142 -0.2359
 9514WAT      O38775   1.117   5.733   5.072  0.0566 -0.0159  0.2262
 9514WAT     H138776   1.198   5.703   5.089 -0.4633 -1.6078  0.0242
 9514WAT     H238777   1.069   5.699   5.136 -0.7571 -0.5664 -0.6554
 9514WAT    EPW38778   1.122   5.723   5.084 -0.1404 -0.3323  0.0661
 9515WAT      O38779   2.769   7.489   6.076  0.0344 -0.3920  0.1545
 9515WAT     H138780   2.807   7.507   5.999  0.9253  4.3963  1.3722
 9515WAT     H238781   2.693   7.532   6.070  0.1005  0.0135  1.8632
 9515WAT    EPW38782   2.763   7.498   6.064  0.1758  0.3752  0.5868
 9516WAT      O38783   1.353   6.192   6.010  0.3968 -0.0811 -0.6596
 9516WAT     H138784   1.435   6.209   6.035  0.3031 -0.5998  0.0563
 9516WAT     H238785   1.351   6.217   5.927  0.9162  1.1448 -0.3256
 9516WAT    EPW38786   1.365   6.198   6.002  0.4597  0.0234 -0.5045
 9517WAT      O38787   2.379   6.508   5.767  0.0677 -0.1523 -0.0076
 9517WAT     H138788   2.400   6.557   5.837 -2.1634  0.7923  0.0720
 9517WAT     H238789   2.334   6.442   5.802 -0.1390 -0.2523 -0.4693
 9517WAT    EPW38790   2.376   6.505   5.783 -0.2924 -0.0275 -0.0640
 9518WAT      O38791   1.624   7.514   5.760 -0.0021  0.1631 -0.0289
 9518WAT     H138792   1.587   7.449   5.807 -2.5456  0.6568 -1.1722
 9518WAT     H238793   1.649   7.474   5.687  1.1734 -0.0303  0.4534
 9518WAT    EPW38794   1.622   7.498   5.756 -0.2042  0.2075 -0.1265
 9519WAT      O38795   2.694   0.052   5.870  0.1919 -0.5592 -0.1533
 9519WAT     H138796   2.701   0.066   5.785  1.5638 -1.0314 -0.1416
 9519WAT     H238797   2.766   0.088   5.904  0.1527 -1.2224  0.6832
 9519WAT    EPW38798   2.706   0.059   5.863  0.3888 -0.7269 -0.0280
 9520WAT      O38799   1.472   6.803   5.788 -0.4348  0.4846  0.1076
 9520WAT     H138800   1.491   6.718   5.796 -1.5681  0.2531  0.5212
 9520WAT     H238801   1.404   6.804   5.733  0.1230  1.2047 -0.6019
 9520WAT    EPW38802   1.465   6.791   5.781 -0.5198  0.5568  0.0639
 9521WAT      O38803   1.300   7.279   3.840  0.0188  0.0651 -0.5649
 9521WAT     H138804   1.315   7.217   3.780 -2.1834 -1.9183  0.7126
 9521WAT     H238805   1.375   7.284   3.884  0.6245 -0.8647 -1.4444
 9521WAT    EPW38806   1.313   7.270   3.838 -0.2171 -0.3652 -0.5061
 9522WAT      O38807   2.213   6.457   3.970 -0.6942  0.1556  0.0350
 9522WAT     H138808   2.225   6.540   3.991  0.1215 -0.0992  0.6070
 9522WAT     H238809   2.126   6.447   3.974 -0.7316  0.7228  0.9793
 9522WAT    EPW38810   2.202   6.468   3.974 -0.5792  0.2017  0.2590
 9523WAT      O38811   0.700   7.000   6.087 -0.1112  0.5354 -0.3456
 9523WAT     H138812   0.755   6.980   6.152 -0.7850 -0.3351 -0.0185
 9523WAT     H238813   0.635   7.042   6.127 -0.1081  0.7771 -0.5938
 9523WAT    EPW38814   0.698   7.003   6.103 -0.2102  0.4425 -0.3339
 9524WAT      O38815   2.318   0.816   5.455 -0.1191  0.7904 -0.1850
 9524WAT     H138816   2.344   0.735   5.436 -0.2560  0.4809  0.8649
 9524WAT     H238817   2.244   0.805   5.500  0.0474  1.4728  0.2842
 9524WAT    EPW38818   2.311   0.803   5.459 -0.1148  0.8455  0.0394
 9525WAT      O38819   1.654   6.991   4.694 -0.1489  0.3679 -0.4874
 9525WAT     H138820   1.694   7.056   4.736  0.6922  0.1611 -0.9461
 9525WAT     H238821   1.718   6.954   4.648 -0.2882 -1.5939  0.7513
 9525WAT    EPW38822   1.669   6.995   4.694 -0.0452  0.0476 -0.3722
 9526WAT      O38823   2.564   0.930   4.854  0.0009 -0.3381 -0.4029
 9526WAT     H138824   2.601   0.909   4.778 -1.3931  0.2869 -1.2952
 9526WAT     H238825   2.492   0.974   4.830 -0.0850  0.5103  1.2955
 9526WAT    EPW38826   2.559   0.933   4.839 -0.2177 -0.1204 -0.2838
 9527WAT      O38827   0.885   5.802   3.457  0.9364 -0.5555  0.5715
 9527WAT     H138828   0.892   5.734   3.403  1.6298  0.3876 -0.5805
 9527WAT     H238829   0.809   5.789   3.497 -0.0483 -0.8336 -1.3095
 9527WAT    EPW38830   0.875   5.790   3.455  0.8934 -0.4573  0.1235
 9528WAT      O38831   2.063   5.200   5.657 -0.1541  0.5424  0.1895
 9528WAT     H138832   2.058   5.120   5.622 -0.0369  0.6059  0.0261
 9528WAT     H238833   2.034   5.189   5.738 -0.5951  0.4277  0.0177
 9528WAT    EPW38834   2.058   5.187   5.664 -0.2019  0.5348  0.1400
 9529WAT      O38835   0.576   0.655   4.591 -0.8182  0.1096  0.1986
 9529WAT     H138836   0.613   0.576   4.588 -1.1323 -0.3355  3.9420
 9529WAT     H238837   0.509   0.647   4.536  0.3807 -1.4639 -1.1645
 9529WAT    EPW38838   0.571   0.642   4.582 -0.6875 -0.1886  0.5502
 9530WAT      O38839   1.623   0.299   3.071 -0.3807  0.0328  0.0019
 9530WAT     H138840   1.667   0.351   3.017  1.2194 -0.4413  0.7992
 9530WAT     H238841   1.682   0.240   3.097 -1.6965 -1.1588  0.4645
 9530WAT    EPW38842   1.638   0.298   3.067 -0.3387 -0.2133  0.1880
 9531WAT      O38843   1.975   0.503   5.555 -0.2340  0.3064  0.0184
 9531WAT     H138844   2.047   0.452   5.553 -1.0623 -0.8907 -0.5759
 9531WAT     H238845   1.938   0.483   5.631  1.4346  3.0124  1.7148
 9531WAT    EPW38846   1.980   0.492   5.566 -0.1099  0.5293  0.1812
 9532WAT      O38847   0.751   0.280   4.846  0.1850  0.1770  0.5571
 9532WAT     H138848   0.694   0.311   4.905 -0.5695 -0.9219  0.4273
 9532WAT     H238849   0.715   0.303   4.770  0.5891  0.6198  0.4989
 9532WAT    EPW38850   0.737   0.288   4.844  0.1332  0.0801  0.5293
 9533WAT      O38851   2.248   7.444   6.588  0.4347 -0.6127 -0.4014
 9533WAT     H138852   2.325   7.402   6.585  1.4291  1.1844 -1.4065
 9533WAT     H238853   2.226   7.452   6.505 -0.2599 -0.0869 -0.1741
 9533WAT    EPW38854   2.256   7.439   6.576  0.4790 -0.2696 -0.5163
 9534WAT      O38855   0.792   6.072   6.178 -0.0650  0.1587  0.5127
 9534WAT     H138856   0.872   6.050   6.152  0.3275  2.7217 -0.7572
 9534WAT     H238857   0.740   6.019   6.133  0.8447 -0.8713  0.6148
 9534WAT    EPW38858   0.796   6.061   6.168  0.1274  0.3852  0.3402
 9535WAT      O38859   0.584   6.538   5.664  0.0890 -0.9001  0.4979
 9535WAT     H138860   0.618   6.509   5.739  4.7014 -0.6552 -1.1774
 9535WAT     H238861   0.586   6.468   5.612 -0.1570 -0.3566 -0.2619
 9535WAT    EPW38862   0.589   6.523   5.667  0.7340 -0.7836  0.1382
 9536WAT      O38863   0.629   6.410   2.843  0.5792  0.3011  0.4169
 9536WAT     H138864   0.591   6.379   2.915  0.1263  0.5671  0.2926
 9536WAT     H238865   0.702   6.447   2.873 -0.3639  1.8090  0.9546
 9536WAT    EPW38866   0.634   6.411   2.858  0.3730  0.5632  0.4780
 9537WAT      O38867   1.031   1.282   3.687  0.5002 -0.6766  0.2160
 9537WAT     H138868   1.018   1.196   3.689  0.0006 -0.5949  0.7624
 9537WAT     H238869   1.015   1.303   3.604 -1.0381 -0.8764  0.4280
 9537WAT    EPW38870   1.026   1.272   3.675  0.1992 -0.6940  0.3280
 9538WAT      O38871   1.939   6.165   7.121  0.0044 -0.1790  0.0833
 9538WAT     H138872   2.006   6.219   7.105 -0.4917  1.3780  2.6685
 9538WAT     H238873   1.978   6.093   7.151  0.6020  0.4510  0.8911
 9538WAT    EPW38874   1.955   6.163   7.123  0.0194  0.1441  0.5845
 9539WAT      O38875   1.088   7.668   4.434 -0.1419  0.2132 -0.1908
 9539WAT     H138876   1.073   7.639   4.515  0.7542 -1.6173 -0.6367
 9539WAT     H238877   1.035   7.621   4.384  0.4104  0.2274 -0.8099
 9539WAT    EPW38878   1.078   7.657   4.439  0.0721 -0.0551 -0.3481
 9540WAT      O38879   0.578   7.166   3.852 -0.7371  0.5498 -0.3026
 9540WAT     H138880   0.658   7.132   3.857 -0.9602  0.0769  0.0814
 9540WAT     H238881   0.530   7.103   3.816 -1.2222  0.3020  0.7285
 9540WAT    EPW38882   0.583   7.152   3.847 -0.8417  0.4433 -0.0936
 9541WAT      O38883   1.367   7.553   6.034  0.3737 -0.1324  0.0855
 9541WAT     H138884   1.387   7.617   5.978 -1.7503 -0.3758 -1.0521
 9541WAT     H238885   1.404   7.483   5.999  1.5462  0.2003  0.6078
 9541WAT    EPW38886   1.376   7.552   6.021  0.2332 -0.1192 -0.0054
 9542WAT      O38887   0.759   6.775   3.563  0.2156 -0.4832  0.1187
 9542WAT     H138888   0.721   6.849   3.536  0.1189 -0.9718 -1.1034
 9542WAT     H238889   0.693   6.718   3.570  0.1002 -0.1966  2.1886
 9542WAT    EPW38890   0.744   6.778   3.560  0.1843 -0.5130  0.2439
 9543WAT      O38891   0.845   6.264   4.578  0.6205  0.2831 -0.6108
 9543WAT     H138892   0.779   6.213   4.552 -0.0916  0.9969 -0.2632
 9543WAT     H238893   0.877   6.224   4.648 -0.4781  0.7380  0.1637
 9543WAT    EPW38894   0.840   6.251   4.584  0.3531  0.4557 -0.4450
 9544WAT      O38895   0.395   0.718   4.389  0.0423 -0.5648  0.1639
 9544WAT     H138896   0.408   0.683   4.310 -1.2671  0.6985 -0.6755
 9544WAT     H238897   0.419   0.801   4.378 -2.1715  0.1668  0.4318
 9544WAT    EPW38898   0.401   0.725   4.376 -0.4781 -0.2701  0.0795
 9545WAT      O38899   1.649   6.718   7.246 -0.6308 -0.0754  0.1617
 9545WAT     H138900   1.596   6.736   7.313 -1.0452 -0.3110 -0.1013
 9545WAT     H238901   1.723   6.692   7.285 -1.1258 -0.9733  0.5285
 9545WAT    EPW38902   1.652   6.717   7.262 -0.7651 -0.2429  0.1770
 9546WAT      O38903   1.180   6.610   3.705  0.1932 -0.5718  0.8070
 9546WAT     H138904   1.240   6.654   3.660 -0.6203 -0.9185 -0.6904
 9546WAT     H238905   1.121   6.671   3.724  1.6178  0.1094  3.5995
 9546WAT    EPW38906   1.180   6.625   3.701  0.2835 -0.5224  0.9983
 9547WAT      O38907   2.830   0.451   6.892 -0.4817  0.0413  0.3593
 9547WAT     H138908   2.813   0.395   6.827  0.1647 -1.7580  1.6502
 9547WAT     H238909   2.885   0.508   6.856 -3.0838  1.4469 -1.7116
 9547WAT    EPW38910   2.836   0.451   6.877 -0.7706 -0.0169  0.2441
 9548WAT      O38911   1.911   7.496   6.177 -0.1327 -0.5284  0.0663
 9548WAT     H138912   1.942   7.425   6.137 -2.6472 -1.0241 -1.1388
 9548WAT     H238913   1.890   7.550   6.112 -0.3890  0.4034  0.8868
 9548WAT    EPW38914   1.913   7.494   6.161 -0.5420 -0.4640  0.0095
 9549WAT      O38915   1.148   6.000   4.611 -0.4762 -0.3536 -0.3206
 9549WAT     H138916   1.149   6.040   4.534  1.4665 -1.3878 -0.9101
 9549WAT     H238917   1.233   5.997   4.633 -0.2857 -4.7462 -0.7403
 9549WAT    EPW38918   1.161   6.005   4.603 -0.1611 -1.1553 -0.4697
 9550WAT      O38919   2.509   7.361   6.585 -0.6605 -0.2416 -0.1832
 9550WAT     H138920   2.545   7.360   6.665 -1.1500 -1.1216  0.0412
 9550WAT     H238921   2.535   7.286   6.550 -0.5367  0.0933 -0.8253
 9550WAT    EPW38922   2.518   7.350   6.592 -0.7145 -0.3221 -0.2449
 9551WAT      O38923   1.625   7.479   5.273  0.2762  0.4881 -0.0200
 9551WAT     H138924   1.580   7.409   5.300  0.3081  0.4641 -0.0294
 9551WAT     H238925   1.607   7.539   5.334 -1.3163  1.0988 -1.0076
 9551WAT    EPW38926   1.615   7.477   5.286  0.0457  0.5748 -0.1673
 9552WAT      O38927   2.156   0.331   3.839 -0.0607 -0.3894 -0.1225
 9552WAT     H138928   2.159   0.303   3.756 -1.0339  1.8924 -1.0315
 9552WAT     H238929   2.149   0.258   3.885 -0.3223 -1.7128 -2.1189
 9552WAT    EPW38930   2.155   0.316   3.833 -0.2431 -0.2478 -0.5517
 9553WAT      O38931   3.244   7.492   5.435  0.2313 -0.3915 -0.1652
 9553WAT     H138932   3.196   7.543   5.383  1.3228 -1.1122 -1.9730
 9553WAT     H238933   3.323   7.529   5.432  0.2927 -0.3618  1.1605
 9553WAT    EPW38934   3.248   7.505   5.427  0.4016 -0.4936 -0.2364
 9554WAT      O38935   1.603   6.292   6.074  0.4036 -0.1724  0.0862
 9554WAT     H138936   1.635   6.269   6.152 -0.1445 -0.8088  0.1377
 9554WAT     H238937   1.660   6.258   6.017 -0.3429 -1.6626  0.1645
 9554WAT    EPW38938   1.616   6.283   6.077  0.2123 -0.4865  0.1054
 9555WAT      O38939   1.960   7.252   4.661 -0.0579 -0.3822 -0.5106
 9555WAT     H138940   1.942   7.215   4.584  0.2232 -1.2332 -0.1756
 9555WAT     H238941   1.920   7.330   4.656 -0.4473 -0.6222 -1.3266
 9555WAT    EPW38942   1.951   7.258   4.649 -0.0739 -0.5434 -0.5816
 9556WAT      O38943   1.770   1.091   6.664 -0.4876  0.4746  0.0204
 9556WAT     H138944   1.685   1.092   6.682 -0.2428  1.7098  1.2722
 9556WAT     H238945   1.784   1.171   6.630  0.3388  0.6749  0.7874
 9556WAT    EPW38946   1.759   1.103   6.661 -0.3294  0.6867  0.3186
 9557WAT      O38947   3.072   7.629   6.562  0.4784  0.1634  0.7004
 9557WAT     H138948   2.990   7.653   6.543  0.5296  0.8434  1.3048
 9557WAT     H238949   3.089   7.567   6.504 -0.6335 -0.3187  0.8764
 9557WAT    EPW38950   3.062   7.624   6.550  0.3217  0.1927  0.8156
 9558WAT      O38951   1.552   6.811   5.472  0.1095 -0.3290  0.0097
 9558WAT     H138952   1.512   6.735   5.490 -1.7610  0.4822 -0.4971
 9558WAT     H238953   1.543   6.818   5.385  0.0753  0.5831  0.0806
 9558WAT    EPW38954   1.545   6.801   5.462 -0.1719 -0.0744 -0.0547
 9559WAT      O38955   2.142   6.996   3.628 -0.1702 -0.3839 -0.5019
 9559WAT     H138956   2.224   6.982   3.654 -0.3150 -1.3998 -0.5379
 9559WAT     H238957   2.099   7.011   3.702 -0.0086 -0.1081 -0.4607
 9559WAT    EPW38958   2.148   6.996   3.643 -0.1677 -0.4933 -0.5011
 9560WAT      O38959   1.128   5.678   6.076  0.3608  0.4917  0.6442
 9560WAT     H138960   1.147   5.603   6.116  0.0478  0.0046 -0.0912
 9560WAT     H238961   1.134   5.658   5.991 -1.3061  0.8555  0.3990
 9560WAT    EPW38962   1.132   5.664   6.069  0.0683  0.4735  0.4994
 9561WAT      O38963   1.811   6.813   5.609 -0.6449  1.0624  0.1120
 9561WAT     H138964   1.729   6.814   5.579 -1.0288 -1.2827  0.8639
 9561WAT     H238965   1.857   6.776   5.545 -0.6526  0.1833  0.5892
 9561WAT    EPW38966   1.805   6.808   5.595 -0.7027  0.5861  0.2936
 9562WAT      O38967   0.932   6.235   4.859 -0.2467  1.0338  1.2614
 9562WAT     H138968   0.866   6.277   4.898 -0.4585  0.1491  1.8590
 9562WAT     H238969   0.919   6.151   4.879 -1.2884  0.2651 -1.9663
 9562WAT    EPW38970   0.920   6.229   4.867 -0.4318  0.7895  0.8729
 9563WAT      O38971   1.732   0.766   6.551 -0.3371  0.3675  0.1152
 9563WAT     H138972   1.774   0.826   6.504 -0.0975  0.4011  0.3683
 9563WAT     H238973   1.796   0.716   6.584 -0.5942 -2.1290 -2.7527
 9563WAT    EPW38974   1.748   0.767   6.549 -0.3397  0.0037 -0.2711
 9564WAT      O38975   2.046   5.778   5.469 -0.5242  0.1710 -0.2187
 9564WAT     H138976   2.037   5.695   5.493 -1.0367  0.4609  0.6091
 9564WAT     H238977   2.024   5.824   5.540  2.7043  1.0133  0.4179
 9564WAT    EPW38978   2.041   5.773   5.483 -0.1230  0.3383 -0.0024
 9565WAT      O38979   0.480   7.127   6.279  0.2013  0.0133 -0.4036
 9565WAT     H138980   0.479   7.165   6.357 -1.9960  0.2650 -0.5157
 9565WAT     H238981   0.471   7.042   6.298 -0.8639  0.1197 -0.3753
 9565WAT    EPW38982   0.479   7.120   6.293 -0.2806  0.0662 -0.4160
 9566WAT      O38983   0.680   0.788   4.804 -0.7070  0.1164 -0.1549
 9566WAT     H138984   0.635   0.863   4.805 -1.3297 -0.2379  0.9673
 9566WAT     H238985   0.633   0.736   4.753 -0.1000  0.5716 -1.2047
 9566WAT    EPW38986   0.667   0.792   4.797 -0.7093  0.1313 -0.1442
 9567WAT      O38987   0.938   7.429   3.447 -0.0195  0.1309 -0.8332
 9567WAT     H138988   0.884   7.453   3.383  1.1389  0.1833 -1.8289
 9567WAT     H238989   0.889   7.378   3.498 -1.6018  1.8819 -0.4994
 9567WAT    EPW38990   0.923   7.425   3.445 -0.0821  0.3973 -0.9310
 9568WAT      O38991   1.891   6.672   7.359  0.0718 -0.6459 -0.3375
 9568WAT     H138992   1.883   6.662   7.446  2.6006  0.6872  0.1619
 9568WAT     H238993   1.930   6.750   7.351  1.1952 -1.3446 -2.5683
 9568WAT    EPW38994   1.896   6.682   7.371  0.6113 -0.5521 -0.5933
 9569WAT      O38995   1.357   0.742   6.029 -0.1641 -0.0111 -0.0685
 9569WAT     H138996   1.390   0.751   5.949 -1.2397  1.2796 -0.3976
 9569WAT     H238997   1.320   0.663   6.027 -3.2048  1.2764 -2.0838
 9569WAT    EPW38998   1.357   0.731   6.017 -0.7721  0.3697 -0.4148
 9570WAT      O38999   0.894   0.588   3.557 -0.2811 -0.1451  0.1310
 9570WAT     H139000   0.968   0.558   3.593  1.7126  2.0883 -1.7287
 9570WAT     H239001   0.890   0.546   3.481  0.5894  1.5152 -0.9060
 9570WAT    EPW39002   0.904   0.578   3.551  0.1420  0.4301 -0.2969
 9571WAT      O39003   1.777   6.194   7.388  0.1459 -0.0780  0.3757
 9571WAT     H139004   1.848   6.185   7.338  0.2079 -2.3161  0.7657
 9571WAT     H239005   1.720   6.234   7.335  1.3146  0.7209 -0.3146
 9571WAT    EPW39006   1.779   6.198   7.373  0.3277 -0.2906  0.3314
 9572WAT      O39007   1.092   5.841   5.652  0.5669 -0.3938 -0.4582
 9572WAT     H139008   1.154   5.897   5.677 -0.2408  1.1496 -1.7337
 9572WAT     H239009   1.110   5.826   5.568  0.1176 -1.1512 -0.4293
 9572WAT    EPW39010   1.104   5.847   5.643  0.3812 -0.2777 -0.6424
 9573WAT      O39011   1.366   7.690   5.562 -0.0827 -0.0942  0.0971
 9573WAT     H139012   1.332   7.633   5.506  2.3457 -1.7147  0.1218
 9573WAT     H239013   1.450   7.694   5.539  0.0184  2.9720  0.5888
 9573WAT    EPW39014   1.374   7.682   5.550  0.2910  0.1193  0.1734
 9574WAT      O39015   1.221   7.118   4.141 -0.1170 -0.2959 -0.0509
 9574WAT     H139016   1.153   7.173   4.134  0.0401 -0.1642 -0.6346
 9574WAT     H239017   1.209   7.062   4.075  1.1427  0.6321 -1.1176
 9574WAT    EPW39018   1.209   7.118   4.130  0.0923 -0.1393 -0.2947
 9575WAT      O39019   0.920   6.526   4.661 -0.1873  0.3069  0.2702
 9575WAT     H139020   0.905   6.445   4.632  1.0436  0.1313  0.0644
 9575WAT     H239021   0.849   6.544   4.707 -0.6270 -0.7751  0.0593
 9575WAT    EPW39022   0.907   6.516   4.664 -0.0704  0.1212  0.2087
 9576WAT      O39023   2.823   6.112   6.218 -0.3387  0.0881 -0.2050
 9576WAT     H139024   2.807   6.026   6.219 -0.1498  0.0475 -0.5465
 9576WAT     H239025   2.886   6.123   6.277 -0.5836  0.0374  0.0677
 9576WAT    EPW39026   2.830   6.101   6.227 -0.3470  0.0746 -0.2152
 9577WAT      O39027   2.338   6.816   6.299  0.0089 -0.2364  0.1581
 9577WAT     H139028   2.294   6.876   6.344 -0.5912  0.0363 -0.7657
 9577WAT     H239029   2.287   6.801   6.230  1.2473 -0.0732 -0.8259
 9577WAT    EPW39030   2.324   6.823   6.295  0.1032 -0.1720 -0.1237
 9578WAT      O39031   2.501   0.060   6.297  0.1632 -0.5757  0.3667
 9578WAT     H139032   2.521  -0.002   6.355 -0.9066  0.0896  1.5079
 9578WAT     H239033   2.555   0.126   6.317 -1.0342  0.1253  1.5141
 9578WAT    EPW39034   2.512   0.061   6.309 -0.1717 -0.3739  0.7048
 9579WAT      O39035   0.689   6.671   4.807  0.0228 -0.0656  0.0618
 9579WAT     H139036   0.702   6.745   4.850  0.5364  1.0805 -1.9189
 9579WAT     H239037   0.660   6.698   4.729  1.4172 -1.8546 -1.1486
 9579WAT    EPW39038   0.686   6.686   4.802  0.3047 -0.1606 -0.4096
 9580WAT      O39039   1.308   0.876   4.385 -0.0597  0.1756  0.2622
 9580WAT     H139040   1.358   0.805   4.387 -0.7028 -0.2866  0.8347
 9580WAT     H239041   1.286   0.888   4.469 -0.9420  0.3204  0.0267
 9580WAT    EPW39042   1.312   0.868   4.398 -0.2850  0.1287  0.3120
 9581WAT      O39043   1.740   6.240   6.293 -0.0556  0.0714  0.4348
 9581WAT     H139044   1.671   6.234   6.347 -0.6008  1.4377 -0.0672
 9581WAT     H239045   1.757   6.326   6.291  0.3833 -0.0240 -1.0287
 9581WAT    EPW39046   1.732   6.252   6.301 -0.0713  0.2591  0.1445
 9582WAT      O39047   0.954   7.042   5.605 -0.0900  0.0353  0.0428
 9582WAT     H139048   0.922   6.964   5.584 -0.8676  0.1074  0.8797
 9582WAT     H239049   1.039   7.035   5.587 -0.1437 -1.0136  0.1250
 9582WAT    EPW39050   0.962   7.030   5.599 -0.2128 -0.1090  0.1786
 9583WAT      O39051   1.275   6.716   4.836 -0.6006  0.2156 -0.2868
 9583WAT     H139052   1.244   6.667   4.771  0.9410 -0.0997 -0.8355
 9583WAT     H239053   1.277   6.661   4.904  0.3689 -0.2993 -0.7010
 9583WAT    EPW39054   1.271   6.701   4.836 -0.2297  0.0930 -0.4291
 9584WAT      O39055   1.040   6.384   4.362 -0.2339  0.0523  0.5090
 9584WAT     H139056   0.974   6.354   4.411 -1.3929  0.9414 -0.4353
 9584WAT     H239057   1.001   6.438   4.306  1.1634 -0.2075 -0.7982
 9584WAT    EPW39058   1.024   6.388   4.361 -0.1987  0.1453  0.1764
 9585WAT      O39059   3.942   6.457   7.617 -0.0960 -0.5885 -0.0098
 9585WAT     H139060   3.861   6.461   7.647 -0.3537 -2.2424 -0.4250
 9585WAT     H239061   3.932   6.459   7.530  0.3100 -0.8217 -0.0630
 9585WAT    EPW39062   3.929   6.458   7.608 -0.0741 -0.8673 -0.0790
 9586WAT      O39063   0.932   6.251   5.578  0.4648 -0.4063  0.0541
 9586WAT     H139064   0.905   6.171   5.555 -0.7658  0.1056 -0.3505
 9586WAT     H239065   0.965   6.240   5.658  1.6462 -1.5783 -0.5609
 9586WAT    EPW39066   0.933   6.238   5.586  0.4575 -0.5038 -0.0965
 9587WAT      O39067   2.823   6.461   6.769  0.0111  0.6612 -0.0488
 9587WAT     H139068   2.765   6.518   6.736  0.7382  1.4653  0.0123
 9587WAT     H239069   2.855   6.422   6.698  2.2438  3.0418 -0.5265
 9587WAT    EPW39070   2.819   6.464   6.753  0.4483  1.1316 -0.1103
 9588WAT      O39071   1.102   0.494   2.697 -0.2680  0.5146  0.0322
 9588WAT     H139072   1.096   0.574   2.732  0.9029  0.4660  0.3648
 9588WAT     H239073   1.184   0.489   2.669 -0.4786 -0.3816 -0.4913
 9588WAT    EPW39074   1.113   0.505   2.698 -0.1261  0.3750  0.0040
 9589WAT      O39075   2.336   0.644   2.030 -0.2012 -0.5207 -0.4248
 9589WAT     H139076   2.342   0.729   2.050 -0.6939 -0.3394 -1.0130
 9589WAT     H239077   2.417   0.615   2.040 -0.0756 -0.0344  0.0237
 9589WAT    EPW39078   2.349   0.653   2.034 -0.2554 -0.4221 -0.4455
 9590WAT      O39079   2.282   1.120   4.164 -0.2941  0.0477  0.1198
 9590WAT     H139080   2.312   1.187   4.117 -2.7478  0.9763 -0.2505
 9590WAT     H239081   2.221   1.155   4.215 -0.0145 -1.5303  1.6577
 9590WAT    EPW39082   2.277   1.135   4.165 -0.6152 -0.0482  0.2923
 9591WAT      O39083   1.015   5.314   4.010  0.0103 -1.2692 -0.1764
 9591WAT     H139084   0.952   5.368   4.037 -0.8536 -1.6784 -1.3096
 9591WAT     H239085   1.008   5.317   3.923  0.6018 -2.4389 -0.2734
 9591WAT    EPW39086   1.004   5.323   4.001 -0.0299 -1.5025 -0.3582
 9592WAT      O39087   0.860   0.413   3.344  0.1041  0.1926  0.1024
 9592WAT     H139088   0.835   0.450   3.269  0.3234  0.1926  0.0288
 9592WAT     H239089   0.921   0.356   3.320  0.2024  0.2179  0.2838
 9592WAT    EPW39090   0.865   0.410   3.330  0.1510  0.1964  0.1183
 9593WAT      O39091   0.778   0.270   4.042  0.0665  0.1131 -0.1716
 9593WAT     H139092   0.722   0.305   3.985  1.1753  1.8274 -0.2871
 9593WAT     H239093   0.823   0.213   3.993  0.4694  0.9812 -0.8495
 9593WAT    EPW39094   0.777   0.267   4.026  0.2898  0.4946 -0.2888
 9594WAT      O39095   1.138   7.434   1.741 -0.1886 -0.0711  0.2004
 9594WAT     H139096   1.197   7.393   1.790 -0.5807 -1.9137 -0.7711
 9594WAT     H239097   1.062   7.416   1.781 -0.1857  2.2485  1.4200
 9594WAT    EPW39098   1.135   7.425   1.754 -0.2461 -0.0006  0.2370
 9595WAT      O39099   0.624   0.057   3.779  0.7404  0.4932 -0.2618
 9595WAT     H139100   0.698   0.016   3.799 -0.0597 -1.3415 -0.9177
 9595WAT     H239101   0.640   0.092   3.701  1.6567  2.1242  0.5946
 9595WAT    EPW39102   0.637   0.056   3.770  0.7576  0.4631 -0.2322
 9596WAT      O39103   1.949   6.868   1.960  0.3469  0.2165 -0.3412
 9596WAT     H139104   1.894   6.885   2.027  3.6856  1.1255  2.4869
 9596WAT     H239105   1.957   6.782   1.961  1.3429  0.2818  1.4578
 9596WAT    EPW39106   1.942   6.858   1.970  0.9873  0.3604  0.3423
 9597WAT      O39107   0.917   6.212   3.674  0.0623 -0.1384  0.3752
 9597WAT     H139108   0.929   6.230   3.759 -0.2964  1.3207  0.1526
 9597WAT     H239109   0.913   6.125   3.672  1.2606 -0.2738  1.6857
 9597WAT    EPW39110   0.918   6.202   3.686  0.1863  0.0571  0.5359
 9598WAT      O39111   0.507   6.933   3.737 -0.2317 -0.4840  0.1679
 9598WAT     H139112   0.578   6.897   3.774  1.1935  1.8466 -0.0615
 9598WAT     H239113   0.537   6.964   3.661 -1.4550  0.7058  0.1398
 9598WAT    EPW39114   0.522   6.932   3.731 -0.2019  0.0360  0.1299
 9599WAT      O39115   2.224   6.141   1.506  0.8959 -0.4335  0.5796
 9599WAT     H139116   2.192   6.202   1.453  1.0879 -1.1126 -0.3506
 9599WAT     H239117   2.161   6.130   1.565  0.4614  0.0014  0.2103
 9599WAT    EPW39118   2.210   6.149   1.507  0.8601 -0.4696  0.3876
 9600WAT      O39119   0.936   7.636   2.670  0.0096  0.1469  0.0390
 9600WAT     H139120   0.863   7.672   2.637 -0.0884  1.6705  1.7461
 9600WAT     H239121   0.919   7.551   2.667 -1.2506  0.3942 -0.9330
 9600WAT    EPW39122   0.923   7.629   2.665 -0.1910  0.4085  0.1476
 9601WAT      O39123   2.623   6.492   3.766  0.6727  0.4614  1.4061
 9601WAT     H139124   2.620   6.562   3.818 -1.1509  0.0645  1.9281
 9601WAT     H239125   2.562   6.439   3.800  0.5823 -0.5227 -0.1694
 9601WAT    EPW39126   2.613   6.494   3.779  0.3900  0.2574  1.2505
 9602WAT      O39127   4.442   7.374   1.783 -0.2321  0.7271 -0.3694
 9602WAT     H139128   4.454   7.459   1.770  0.3887  1.0892  2.0421
 9602WAT     H239129   4.360   7.360   1.754 -0.3257  2.1144 -0.8455
 9602WAT    EPW39130   4.431   7.384   1.777 -0.1543  0.9855 -0.0835
 9603WAT      O39131   0.780   7.544   3.224 -0.0930 -0.2245 -0.1672
 9603WAT     H139132   0.749   7.614   3.265  0.8166  0.7833 -1.1689
 9603WAT     H239133   0.710   7.511   3.183 -0.1635  1.2816 -1.3430
 9603WAT    EPW39134   0.765   7.549   3.224  0.0310  0.1469 -0.4889
 9604WAT      O39135   0.923   7.029   3.334 -0.5167 -0.6598 -0.1231
 9604WAT     H139136   0.843   7.063   3.333 -0.5498 -0.7350 -0.8010
 9604WAT     H239137   0.965   7.075   3.273  0.0968 -0.3073  0.5487
 9604WAT    EPW39138   0.917   7.041   3.325 -0.4310 -0.6188 -0.1240
 9605WAT      O39139   1.083   6.674   2.826  0.3753  0.2600  0.0983
 9605WAT     H139140   1.091   6.755   2.794  0.9845  0.5483  0.9521
 9605WAT     H239141   1.161   6.657   2.860  0.1846 -0.6061  0.1305
 9605WAT    EPW39142   1.095   6.683   2.826  0.4371  0.1747  0.2292
 9606WAT      O39143   0.715   5.265   1.281  0.2181 -0.4751 -0.3071
 9606WAT     H139144   0.745   5.314   1.346 -0.7132  0.4254 -0.5319
 9606WAT     H239145   0.693   5.190   1.320 -1.0327  0.3197  0.5686
 9606WAT    EPW39146   0.716   5.261   1.296 -0.1042 -0.2247 -0.2109
 9607WAT      O39147   1.846   6.744   5.057 -0.3540  0.0370  0.0456
 9607WAT     H139148   1.872   6.818   5.018  1.4812 -0.5459  0.0660
 9607WAT     H239149   1.839   6.688   4.990  1.6569 -0.6579  0.3795
 9607WAT    EPW39150   1.849   6.747   5.041  0.2142 -0.1517  0.0980
 9608WAT      O39151   1.809   5.791   1.297  0.0674  0.5289 -0.5394
 9608WAT     H139152   1.798   5.773   1.382  0.6712 -1.3877 -0.8148
 9608WAT     H239153   1.739   5.755   1.259  2.0262 -2.9251 -1.2652
 9608WAT    EPW39154   1.797   5.783   1.304  0.4459 -0.2644 -0.6873
 9609WAT      O39155   1.174   7.682   3.365 -0.0584 -0.0520 -0.1392
 9609WAT     H139156   1.199   7.610   3.407 -1.2697  0.2510  1.1595
 9609WAT     H239157   1.181   7.660   3.281 -0.7209 -1.8235  0.2293
 9609WAT    EPW39158   1.178   7.668   3.359 -0.3352 -0.2689  0.1071
 9610WAT      O39159   1.150   6.494   2.335  0.4781 -0.1832 -0.3818
 9610WAT     H139160   1.144   6.504   2.421  0.7133 -0.1683 -0.3665
 9610WAT     H239161   1.088   6.547   2.304 -0.1080 -0.7448 -0.1962
 9610WAT    EPW39162   1.140   6.503   2.343  0.4263 -0.2640 -0.3521
 9611WAT      O39163   2.085   7.597   2.216 -0.4383 -0.2345  0.5926
 9611WAT     H139164   2.034   7.655   2.256 -0.7372  0.8330 -1.2218
 9611WAT     H239165   2.156   7.593   2.266  0.2203  2.8201  0.0576
 9611WAT    EPW39166   2.088   7.605   2.229 -0.3852  0.3744  0.2455
 9612WAT      O39167   2.479   7.171   3.053  0.4412  0.0826  0.2725
 9612WAT     H139168   2.526   7.120   3.106  0.3282  0.6648  0.9486
 9612WAT     H239169   2.479   7.127   2.977 -0.0470 -1.1488  0.9523
 9612WAT    EPW39170   2.486   7.157   3.050  0.3524 -0.0133  0.4728
 9613WAT      O39171   1.432   0.410   3.924 -0.5791 -0.7603  0.2491
 9613WAT     H139172   1.503   0.440   3.964  0.1521 -2.6872  0.5311
 9613WAT     H239173   1.383   0.481   3.912  1.0939  0.5256  0.6413
 9613WAT    EPW39174   1.435   0.425   3.928 -0.2239 -0.8550  0.3487
 9614WAT      O39175   1.498   7.281   2.084 -0.3315 -0.3393 -0.2017
 9614WAT     H139176   1.576   7.309   2.111 -0.6774  0.9224 -0.4423
 9614WAT     H239177   1.466   7.240   2.154  0.1899 -0.1143  0.1821
 9614WAT    EPW39178   1.505   7.279   2.098 -0.3056 -0.1197 -0.1806
 9615WAT      O39179   2.495   6.211   5.299  0.1108 -0.0276 -0.1548
 9615WAT     H139180   2.427   6.186   5.250  0.7149  1.7073 -2.0388
 9615WAT     H239181   2.458   6.252   5.366 -0.7180 -0.3171 -0.4193
 9615WAT    EPW39182   2.480   6.213   5.301  0.0776  0.1859 -0.4722
 9616WAT      O39183   1.335   7.073   3.627  0.4258  0.3167  0.2327
 9616WAT     H139184   1.252   7.080   3.602 -0.0246  1.3526  1.8949
 9616WAT     H239185   1.378   7.125   3.571  0.0512 -0.4440 -0.8121
 9616WAT    EPW39186   1.329   7.082   3.615  0.3040  0.3574  0.3239
 9617WAT      O39187   1.799   6.461   2.094 -0.1762 -0.5332  0.1756
 9617WAT     H139188   1.829   6.436   2.172 -2.6526  0.8226  1.6849
 9617WAT     H239189   1.731   6.408   2.080 -0.8308  0.3869 -0.2039
 9617WAT    EPW39190   1.793   6.449   2.103 -0.6387 -0.1970  0.3425
 9618WAT      O39191   1.093   7.648   4.880  0.2895  0.0030  0.5290
 9618WAT     H139192   1.167   7.604   4.894  0.0669  0.0061  1.8027
 9618WAT     H239193   1.118   7.716   4.831  0.8709 -0.7502 -0.2537
 9618WAT    EPW39194   1.107   7.651   4.874  0.3425 -0.1078  0.6015
 9619WAT      O39195   2.073   6.335   1.352 -0.6716  0.6541 -0.4140
 9619WAT     H139196   2.134   6.390   1.380  0.5132  0.3095 -2.1436
 9619WAT     H239197   2.084   6.335   1.266 -0.0589 -2.8145 -0.4857
 9619WAT    EPW39198   2.084   6.343   1.344 -0.4061  0.0908 -0.6801
 9620WAT      O39199   1.083   6.740   1.297 -0.0232  0.6305 -0.8132
 9620WAT     H139200   1.129   6.810   1.274 -0.6778  1.0242 -0.9530
 9620WAT     H239201   1.029   6.728   1.230  0.3963 -0.2948 -0.9963
 9620WAT    EPW39202   1.082   6.748   1.284 -0.0579  0.5520 -0.8609
 9621WAT      O39203   1.347   5.945   3.740 -0.1973  0.7717 -0.4985
 9621WAT     H139204   1.276   5.899   3.719  1.1611 -1.1412 -1.1861
 9621WAT     H239205   1.335   6.021   3.698 -2.2199  0.8696  0.1538
 9621WAT    EPW39206   1.335   5.949   3.731 -0.2954  0.5036 -0.5037
 9622WAT      O39207   3.190   0.188   5.418  0.2373 -0.0006  0.0363
 9622WAT     H139208   3.235   0.149   5.481 -1.1445 -1.1894  0.3448
 9622WAT     H239209   3.251   0.210   5.359  1.2799 -0.8925  0.7461
 9622WAT    EPW39210   3.206   0.185   5.418  0.1872 -0.3080  0.1868
 9623WAT      O39211   2.618   0.867   3.112 -0.4787 -0.2055 -0.1084
 9623WAT     H139212   2.626   0.920   3.043  0.8199  0.8325  0.7826
 9623WAT     H239213   2.665   0.797   3.089 -0.3648 -0.0252 -0.4408
 9623WAT    EPW39214   2.626   0.864   3.098 -0.2700 -0.0255 -0.0259
 9624WAT      O39215   2.794   1.004   3.262  0.5681  0.6404 -0.4686
 9624WAT     H139216   2.735   0.965   3.211 -0.0799  0.0875  0.6683
 9624WAT     H239217   2.750   1.072   3.295  0.3618 -0.0847  0.8088
 9624WAT    EPW39218   2.779   1.008   3.259  0.4419  0.4516 -0.1119
 9625WAT      O39219   1.570   5.676   1.890 -0.3486 -0.5243  0.0271
 9625WAT     H139220   1.498   5.646   1.929  1.8839 -2.5549  3.0264
 9625WAT     H239221   1.632   5.620   1.914  2.2733  0.9124 -2.6306
 9625WAT    EPW39222   1.569   5.664   1.899  0.3685 -0.6121  0.0775
 9626WAT      O39223   1.548   7.573   3.625 -0.1288 -0.0907 -0.0855
 9626WAT     H139224   1.594   7.628   3.676  0.3118 -0.8453  0.3527
 9626WAT     H239225   1.467   7.580   3.657  0.2650 -1.0876  1.2416
 9626WAT    EPW39226   1.543   7.582   3.638 -0.0055 -0.3495  0.1753
 9627WAT      O39227   2.043   6.224   2.106 -0.4437 -0.3109  0.5054
 9627WAT     H139228   1.988   6.223   2.039 -0.6040  0.9949  0.5964
 9627WAT     H239229   2.118   6.194   2.072 -1.1285 -1.9394  0.3421
 9627WAT    EPW39230   2.046   6.219   2.091 -0.5685 -0.3585  0.4947
 9628WAT      O39231   0.817   7.258   3.654 -0.6896 -0.2214  0.3843
 9628WAT     H139232   0.741   7.261   3.696 -1.2026  0.2127 -0.5364
 9628WAT     H239233   0.876   7.270   3.717 -1.4967  2.3227  0.7736
 9628WAT    EPW39234   0.814   7.260   3.669 -0.8846  0.2186  0.3058
 9629WAT      O39235   1.470   1.280   1.900 -0.5114  0.2862 -0.0400
 9629WAT     H139236   1.491   1.282   1.815 -0.3413  2.5469 -0.0114
 9629WAT     H239237   1.406   1.339   1.907 -2.1546 -1.5074  1.0657
 9629WAT    EPW39238   1.464   1.289   1.889 -0.7290  0.3552  0.1276
 9630WAT      O39239   1.722   7.049   2.612 -0.1063 -0.0655  0.5375
 9630WAT     H139240   1.682   6.974   2.593  1.8168 -1.2795  0.9274
 9630WAT     H239241   1.730   7.047   2.698  0.9455  0.0164  0.4575
 9630WAT    EPW39242   1.717   7.038   2.622  0.3331 -0.2327  0.5833
 9631WAT      O39243   1.378   0.000   2.779 -0.2882  0.0516  0.3551
 9631WAT     H139244   1.387   0.067   2.834 -1.1140  0.7923 -0.3791
 9631WAT     H239245   1.292  -0.007   2.770 -0.2419 -1.4827  0.8404
 9631WAT    EPW39246   1.367   0.009   2.786 -0.4033 -0.0656  0.3183
 9632WAT      O39247   1.593   6.892   3.413  0.0096  0.2171  0.2101
 9632WAT     H139248   1.521   6.862   3.452 -0.3474  1.5820  0.6727
 9632WAT     H239249   1.651   6.828   3.426 -1.2591 -1.1865 -0.7083
 9632WAT    EPW39250   1.591   6.878   3.421 -0.2306  0.2114  0.1427
 9633WAT      O39251   1.947   1.061   1.440 -0.0774  0.7480 -0.2978
 9633WAT     H139252   1.959   1.040   1.356  0.3080  0.3970 -0.1566
 9633WAT     H239253   2.021   1.036   1.478 -0.8285 -0.5184  0.4058
 9633WAT    EPW39254   1.960   1.054   1.433 -0.1314  0.5091 -0.1730
 9634WAT      O39255   2.630   7.170   2.325  0.0574  0.5923 -0.5321
 9634WAT     H139256   2.611   7.256   2.324 -1.3310  0.3948  1.4483
 9634WAT     H239257   2.554   7.132   2.303  0.5982 -0.1401 -1.1629
 9634WAT    EPW39258   2.616   7.177   2.322 -0.0678  0.4549 -0.3327
 9635WAT      O39259   0.725   7.240   2.992  0.1643 -1.2717  0.1127
 9635WAT     H139260   0.669   7.215   2.930 -0.0448 -1.0160  0.1951
 9635WAT     H239261   0.773   7.301   2.953 -0.0846 -0.9848  0.2566
 9635WAT    EPW39262   0.724   7.245   2.977  0.0967 -1.1916  0.1462
 9636WAT      O39263   0.978   6.709   3.369  0.7425 -0.0121  0.0307
 9636WAT     H139264   0.945   6.726   3.289 -0.3817  1.6923  0.7973
 9636WAT     H239265   0.929   6.758   3.422  1.7643 -0.7570  1.7368
 9636WAT    EPW39266   0.966   6.719   3.365  0.7273  0.1296  0.3960
 9637WAT      O39267   0.695   6.648   1.247  0.7427 -0.1998  0.5272
 9637WAT     H139268   0.740   6.656   1.321 -0.8794 -3.2418  2.0099
 9637WAT     H239269   0.661   6.568   1.252 -3.3978  1.2068 -1.2777
 9637WAT    EPW39270   0.697   6.637   1.258 -0.1085 -0.4414  0.4796
 9638WAT      O39271   0.518   0.043   3.151  0.3073  0.3524 -1.1408
 9638WAT     H139272   0.584   0.077   3.197 -0.7050 -0.6786  1.2077
 9638WAT     H239273   0.447   0.074   3.191 -0.6946  0.7001 -3.0435
 9638WAT    EPW39274   0.517   0.053   3.163  0.0098  0.2515 -1.0749
 9639WAT      O39275   1.483   7.597   2.334 -0.2152 -0.4470  0.0812
 9639WAT     H139276   1.409   7.551   2.327 -1.2093  0.7861  1.6425
 9639WAT     H239277   1.465   7.655   2.397  2.0489 -0.0042  0.4104
 9639WAT    EPW39278   1.469   7.599   2.342 -0.0276 -0.1994  0.3605
 9640WAT      O39279   2.326   7.136   1.203  0.2624  0.2636 -0.0959
 9640WAT     H139280   2.338   7.130   1.290 -0.5438 -0.5550 -0.0158
 9640WAT     H239281   2.407   7.145   1.172  0.8198 -1.5868  0.6180
 9640WAT    EPW39282   2.340   7.136   1.211  0.2257 -0.1307  0.0214
 9641WAT      O39283   1.813   0.375   2.408  0.1905 -0.2703  0.3918
 9641WAT     H139284   1.799   0.446   2.360  2.4151 -0.8664 -1.3371
 9641WAT     H239285   1.734   0.354   2.438 -0.6531  2.4100  0.2590
 9641WAT    EPW39286   1.799   0.382   2.405  0.3945  0.0376  0.1168
 9642WAT      O39287   1.545   6.633   3.098 -0.3599 -0.2387  0.1422
 9642WAT     H139288   1.540   6.578   3.166  0.4800 -1.4426 -0.7278
 9642WAT     H239289   1.560   6.580   3.030 -1.5463  0.8862 -1.0663
 9642WAT    EPW39290   1.546   6.617   3.098 -0.4111 -0.2504 -0.1648
 9643WAT      O39291   1.728   6.067   4.160 -0.4493 -0.4371  0.6663
 9643WAT     H139292   1.693   6.006   4.108 -5.3818  1.1585  1.5447
 9643WAT     H239293   1.744   6.133   4.106  1.2181 -1.1215  0.2763
 9643WAT    EPW39294   1.725   6.067   4.144 -0.9317 -0.3025  0.7385
 9644WAT      O39295   0.815   7.367   4.528  0.0331  0.0031  0.1587
 9644WAT     H139296   0.791   7.420   4.593  0.5230  0.0358  0.3109
 9644WAT     H239297   0.806   7.417   4.457  1.9219  0.8027  0.4228
 9644WAT    EPW39298   0.810   7.382   4.527  0.3845  0.1261  0.2202
 9645WAT      O39299   1.651   0.073   3.801 -0.4673  0.0581 -0.4032
 9645WAT     H139300   1.728   0.115   3.793 -0.7619  0.6945 -0.0081
 9645WAT     H239301   1.659   0.029   3.876 -0.3549 -0.1646 -0.5461
 9645WAT    EPW39302   1.664   0.073   3.811 -0.4942  0.1192 -0.3660
 9646WAT      O39303   3.482   0.271   3.093  0.4241 -0.9104 -0.0676
 9646WAT     H139304   3.477   0.239   3.174  0.2328 -0.7695 -0.0224
 9646WAT     H239305   3.564   0.254   3.068  0.1292 -2.0553 -0.3008
 9646WAT    EPW39306   3.493   0.264   3.101  0.3522 -1.0587 -0.0954
 9647WAT      O39307   2.091   0.607   2.936 -0.4644  0.5106  0.2465
 9647WAT     H139308   2.069   0.664   2.874 -0.3583 -0.1057 -0.3663
 9647WAT     H239309   2.161   0.644   2.974  2.4539 -1.1158 -3.0017
 9647WAT    EPW39310   2.098   0.621   2.933 -0.0177  0.1793 -0.3238
 9648WAT      O39311   1.102   6.380   3.555  0.9289  0.0656 -0.4802
 9648WAT     H139312   1.045   6.336   3.604  0.9867 -1.7931 -1.9605
 9648WAT     H239313   1.121   6.450   3.603 -2.1007  0.4681  0.3427
 9648WAT    EPW39314   1.096   6.384   3.569  0.4899 -0.1495 -0.5773
 9649WAT      O39315   1.385   6.696   4.047 -0.2314 -0.0657  0.0028
 9649WAT     H139316   1.447   6.706   4.108 -1.1098  0.5302  0.8248
 9649WAT     H239317   1.363   6.612   4.053  0.3936 -0.2488 -0.2018
 9649WAT    EPW39318   1.391   6.685   4.057 -0.2688 -0.0047  0.0940
 9650WAT      O39319   0.619   7.058   2.809 -0.2990 -0.2467  1.0093
 9650WAT     H139320   0.640   7.052   2.725 -1.9670  1.8589  0.3573
 9650WAT     H239321   0.542   7.017   2.815 -0.7635  0.6369  1.2399
 9650WAT    EPW39322   0.611   7.051   2.798 -0.6140  0.1948  0.9471
 9651WAT      O39323   1.969   7.458   2.572  0.1686  0.3759 -0.2419
 9651WAT     H139324   1.902   7.496   2.531 -0.4348 -0.5433 -0.1430
 9651WAT     H239325   1.967   7.376   2.541  1.9564  0.6179 -1.1050
 9651WAT    EPW39326   1.959   7.451   2.561  0.3436  0.2758 -0.3548
 9652WAT      O39327   1.452   7.667   4.524  1.2087  0.9102  0.3550
 9652WAT     H139328   1.389   7.655   4.465  0.9075  1.5694  0.5330
 9652WAT     H239329   1.424   7.621   4.593  0.9276  1.1855  0.4274
 9652WAT    EPW39330   1.438   7.658   4.526  1.1227  1.0483  0.3920
 9653WAT      O39331   2.470   7.067   2.799  0.0531  0.9343 -0.0891
 9653WAT     H139332   2.475   6.982   2.781 -0.2873  0.5459  1.4536
 9653WAT     H239333   2.529   7.103   2.747 -1.6457  0.1339 -2.8056
 9653WAT    EPW39334   2.479   7.060   2.789 -0.2481  0.7587 -0.2625
 9654WAT      O39335   2.142   1.506   3.797 -0.4316  0.4878  0.0391
 9654WAT     H139336   2.109   1.431   3.766 -3.8595  1.3026  1.2195
 9654WAT     H239337   2.154   1.554   3.725 -1.5008 -0.0641 -0.5442
 9654WAT    EPW39338   2.139   1.502   3.782 -1.0959  0.5266  0.1273
 9655WAT      O39339   1.249   6.348   2.774  0.3898  0.1217  0.0776
 9655WAT     H139340   1.211   6.301   2.836 -0.2309  0.2511 -0.1963
 9655WAT     H239341   1.287   6.413   2.818  0.6433 -0.2401  0.3913
 9655WAT    EPW39342   1.249   6.351   2.790  0.3355  0.0874  0.0835
 9656WAT      O39343   1.569   6.337   2.159 -0.1898 -0.1959 -0.5848
 9656WAT     H139344   1.562   6.308   2.241 -0.4510 -1.9619 -1.1811
 9656WAT     H239345   1.493   6.378   2.145  0.0205  0.4773  0.1607
 9656WAT    EPW39346   1.557   6.339   2.169 -0.1973 -0.3573 -0.5628
 9657WAT      O39347   2.605   7.235   2.606  0.1366 -0.1352 -0.1319
 9657WAT     H139348   2.622   7.205   2.526  0.4540 -0.6121  0.1161
 9657WAT     H239349   2.539   7.291   2.592  0.1603 -0.2416 -0.7201
 9657WAT    EPW39350   2.598   7.239   2.592  0.1870 -0.2214 -0.1821
 9658WAT      O39351   0.657   0.076   4.213  0.0230 -0.0794  0.0361
 9658WAT     H139352   0.613   0.029   4.154 -1.7885  1.2318  0.2433
 9658WAT     H239353   0.698   0.136   4.165  0.5154 -0.4732 -0.0478
 9658WAT    EPW39354   0.656   0.078   4.197 -0.1719  0.0561  0.0543
 9659WAT      O39355   2.024   7.206   2.850  0.1019 -0.2115  0.1933
 9659WAT     H139356   1.948   7.164   2.864  0.5650 -1.1351  0.0314
 9659WAT     H239357   2.046   7.181   2.769 -0.9292  2.4965 -1.0568
 9659WAT    EPW39358   2.016   7.196   2.840  0.0180  0.0521 -0.0153
 9660WAT      O39359   1.258   7.562   3.759  0.1630  0.0791  0.1861
 9660WAT     H139360   1.256   7.484   3.797  0.7400 -0.3424 -0.6330
 9660WAT     H239361   1.178   7.571   3.726  1.1745 -2.0098 -3.2931
 9660WAT    EPW39362   1.246   7.552   3.760  0.3977 -0.2918 -0.4489
 9661WAT      O39363   2.287   7.593   2.463 -0.6522 -0.3636  0.3585
 9661WAT     H139364   2.279   7.511   2.493 -1.2751 -0.7538 -0.8111
 9661WAT     H239365   2.245   7.641   2.523 -2.7664 -1.2371 -0.3120
 9661WAT    EPW39366   2.279   7.588   2.476 -1.0565 -0.5503  0.0866
 9662WAT      O39367   1.474   6.730   2.763 -0.3747 -0.9350  0.3591
 9662WAT     H139368   1.557   6.741   2.787 -0.2172 -0.4889 -0.3679
 9662WAT     H239369   1.470   6.767   2.685 -1.8950  1.5079  1.4785
 9662WAT    EPW39370   1.486   6.737   2.755 -0.5760 -0.5082  0.4170
 9663WAT      O39371   0.631   7.479   2.723 -0.0386  0.2161  0.2567
 9663WAT     H139372   0.563   7.453   2.771 -0.6788  0.2914 -0.5703
 9663WAT     H239373   0.673   7.535   2.774 -0.8470  0.4917  0.6319
 9663WAT    EPW39374   0.627   7.483   2.738 -0.2526  0.2679  0.1900
 9664WAT      O39375   2.195   0.233   3.566 -0.4355 -0.1432  0.3399
 9664WAT     H139376   2.240   0.167   3.532 -3.3784 -2.8815  1.2892
 9664WAT     H239377   2.141   0.257   3.503 -0.8406 -0.1449  0.6784
 9664WAT    EPW39378   2.194   0.227   3.552 -0.9301 -0.5479  0.5302
 9665WAT      O39379   2.746   0.236   2.823 -0.2172 -0.0018  0.0994
 9665WAT     H139380   2.797   0.279   2.880 -1.8981 -0.0784  1.7709
 9665WAT     H239381   2.803   0.189   2.776  1.4564  1.9043  0.0507
 9665WAT    EPW39382   2.762   0.235   2.824 -0.2182  0.2685  0.3391
 9666WAT      O39383   2.356   0.284   4.210  0.4488  0.4081  0.3363
 9666WAT     H139384   2.426   0.318   4.171  0.0657 -0.1401 -0.8922
 9666WAT     H239385   2.358   0.200   4.186 -1.2366  0.6228 -0.6955
 9666WAT    EPW39386   2.367   0.277   4.201  0.1433  0.3588  0.0024
 9667WAT      O39387   3.022   0.546   2.696  0.4782  0.3647 -0.1184
 9667WAT     H139388   2.952   0.518   2.739  0.2686  0.6507 -0.2743
 9667WAT     H239389   3.009   0.632   2.688  0.9468  0.4551  0.0374
 9667WAT    EPW39390   3.010   0.554   2.701  0.5164  0.4203 -0.1184
 9668WAT      O39391   1.075   0.057   1.358  0.6276  0.5103 -0.4486
 9668WAT     H139392   0.989   0.060   1.369  0.9385  1.5830  2.5697
 9668WAT     H239393   1.102   0.136   1.383  2.6138 -0.3204  0.2639
 9668WAT    EPW39394   1.066   0.069   1.364  0.9669  0.5460  0.1025
 9669WAT      O39395   1.639   6.895   3.099 -0.3060 -0.1627 -0.1156
 9669WAT     H139396   1.719   6.861   3.100 -0.0982  0.1896  2.4289
 9669WAT     H239397   1.587   6.826   3.111 -0.1522 -0.0955  1.0625
 9669WAT    EPW39398   1.643   6.880   3.101 -0.2526 -0.1007  0.4343
 9670WAT      O39399   1.291   6.803   2.381  0.7390  0.2234  0.3867
 9670WAT     H139400   1.329   6.727   2.360 -1.2373 -0.8829  0.5370
 9670WAT     H239401   1.212   6.797   2.344  1.5796  3.6875 -2.6181
 9670WAT    EPW39402   1.285   6.791   2.372  0.5712  0.5717 -0.0350
 9671WAT      O39403   3.356   0.039   4.338  0.5714 -0.0877  0.2343
 9671WAT     H139404   3.430   0.081   4.358  1.1626 -1.5453  1.2851
 9671WAT     H239405   3.318   0.026   4.416  0.3127 -1.2919 -0.0663
 9671WAT    EPW39406   3.361   0.043   4.353  0.6205 -0.4809  0.3451
 9672WAT      O39407   2.611   7.400   3.320  0.5221 -0.3935 -0.9657
 9672WAT     H139408   2.640   7.367   3.245  2.0696 -0.8101 -0.2168
 9672WAT     H239409   2.674   7.380   3.377 -0.0897  0.8910  0.2147
 9672WAT    EPW39410   2.625   7.392   3.317  0.6604 -0.2653 -0.6807
 9673WAT      O39411   1.431   0.147   3.415 -0.0261  0.2143 -0.3516
 9673WAT     H139412   1.380   0.079   3.394 -0.5212 -0.2284  1.9352
 9673WAT     H239413   1.403   0.168   3.495  3.0693  0.2567  0.8505
 9673WAT    EPW39414   1.419   0.140   3.424  0.3580  0.1552  0.1638
 9674WAT      O39415   3.231   0.288   2.996 -0.0328  0.0243 -0.0114
 9674WAT     H139416   3.311   0.270   3.025 -0.6818  0.1358  2.0641
 9674WAT     H239417   3.181   0.230   3.036 -1.2247  1.3701  0.5575
 9674WAT    EPW39418   3.235   0.277   3.006 -0.3047  0.2396  0.3792
 9675WAT      O39419   2.648   0.331   1.798 -0.1980  0.4037 -0.5410
 9675WAT     H139420   2.604   0.265   1.762 -2.1180 -0.6685  3.2300
 9675WAT     H239421   2.730   0.301   1.804 -0.4952 -0.5712 -1.2541
 9675WAT    EPW39422   2.654   0.317   1.794 -0.5255  0.1013 -0.0893
 9676WAT      O39423   2.053   1.217   3.792  0.2179 -0.5426 -0.6581
 9676WAT     H139424   2.001   1.194   3.858 -0.8145 -1.2820 -1.6670
 9676WAT     H239425   2.130   1.182   3.812  0.1766  0.0246  0.5653
 9676WAT    EPW39426   2.057   1.208   3.805  0.0593 -0.5680 -0.6264
 9677WAT      O39427   1.768   6.170   3.086 -0.6004  0.1730 -0.1351
 9677WAT     H139428   1.685   6.175   3.059 -0.9188  1.3166  0.9277
 9677WAT     H239429   1.769   6.219   3.158  0.7944 -0.6010  0.4180
 9677WAT    EPW39430   1.756   6.178   3.093 -0.4414  0.2276  0.1036
 9678WAT      O39431   1.214   7.252   2.785  0.0699  0.0634  0.1981
 9678WAT     H139432   1.266   7.299   2.733  0.3078 -1.5516 -1.1155
 9678WAT     H239433   1.244   7.270   2.865  2.3658 -0.4107 -0.4773
 9678WAT    EPW39434   1.226   7.261   2.789  0.4442 -0.2452 -0.0957
 9679WAT      O39435   1.828   7.101   2.247 -0.5058  0.3579  0.3687
 9679WAT     H139436   1.826   7.136   2.167  0.8621 -0.0470  0.1304
 9679WAT     H239437   1.816   7.016   2.232 -1.7163  0.4406  0.7553
 9679WAT    EPW39438   1.826   7.094   2.233 -0.4825  0.3103  0.3906
 9680WAT      O39439   1.004   6.817   3.730  0.6224  0.3320 -0.1820
 9680WAT     H139440   1.015   6.895   3.692 -2.1319  0.2571 -1.3956
 9680WAT     H239441   0.921   6.797   3.711  0.5674 -1.9292  1.9544
 9680WAT    EPW39442   0.993   6.826   3.721  0.2074 -0.0131 -0.0457
 9681WAT      O39443   2.715   7.212   1.979 -0.1372 -0.4873  0.2196
 9681WAT     H139444   2.700   7.298   1.970 -1.7972 -0.9700 -2.8925
 9681WAT     H239445   2.636   7.179   1.996 -0.0713 -1.6201 -1.4303
 9681WAT    EPW39446   2.701   7.220   1.980 -0.3727 -0.7259 -0.4838
 9682WAT      O39447   1.759   7.545   2.373  0.3439 -0.3955 -0.6496
 9682WAT     H139448   1.749   7.500   2.300 -2.0442 -0.2667 -0.4867
 9682WAT     H239449   1.681   7.583   2.384  0.5437 -0.5785  2.0438
 9682WAT    EPW39450   1.746   7.544   2.364  0.0207 -0.4036 -0.2277
 9683WAT      O39451   3.115   6.595   4.067 -0.0495  0.9517  0.5457
 9683WAT     H139452   3.125   6.678   4.091  0.2586  0.7429  1.1430
 9683WAT     H239453   3.081   6.557   4.138  2.4009 -0.0321  1.2936
 9683WAT    EPW39454   3.111   6.601   4.081  0.3580  0.7755  0.7444
 9684WAT      O39455   3.748   0.968   3.588  0.2825 -0.9100 -0.4121
 9684WAT     H139456   3.742   1.035   3.643  0.0570 -1.1057 -0.1973
 9684WAT     H239457   3.665   0.941   3.579  0.2716 -0.6359 -1.1463
 9684WAT    EPW39458   3.735   0.974   3.595  0.2476 -0.8985 -0.4889
 9685WAT      O39459   2.619   7.521   4.735 -0.1284 -0.4995  0.5397
 9685WAT     H139460   2.569   7.514   4.664  0.8815  0.6974 -0.3044
 9685WAT     H239461   2.586   7.459   4.788 -2.5240  0.2406  0.0463
 9685WAT    EPW39462   2.607   7.511   4.733 -0.3331 -0.2134  0.3421
 9686WAT      O39463   1.356   6.693   1.007  0.4205 -0.0485 -0.3026
 9686WAT     H139464   1.345   6.607   1.017 -1.4083 -0.6462 -4.8236
 9686WAT     H239465   1.435   6.699   0.970  0.0271 -0.0159 -1.1733
 9686WAT    EPW39466   1.366   6.681   1.003  0.0923 -0.1320 -1.0991
 9687WAT      O39467   1.501   0.180   1.878 -0.0703 -0.0947 -0.2512
 9687WAT     H139468   1.525   0.113   1.828 -1.0258 -0.7567  0.1389
 9687WAT     H239469   1.504   0.147   1.959  1.2552  0.8954  0.1428
 9687WAT    EPW39470   1.505   0.165   1.883 -0.0157 -0.0463 -0.1354
 9688WAT      O39471   0.783   7.075   7.561 -0.0166  0.0695 -0.1375
 9688WAT     H139472   0.804   7.103   7.640 -0.8045  0.5099 -0.0666
 9688WAT     H239473   0.762   7.149   7.518 -1.4845 -0.3277 -0.1494
 9688WAT    EPW39474   0.783   7.090   7.566 -0.3498  0.0759 -0.1288
 9689WAT      O39475   0.678   7.111   0.953 -0.4052  0.6063 -0.3881
 9689WAT     H139476   0.687   7.156   1.027 -0.3723 -0.3589  0.2211
 9689WAT     H239477   0.687   7.028   0.979 -2.4653  0.1016 -1.1268
 9689WAT    EPW39478   0.681   7.105   0.968 -0.7047  0.3892 -0.4073
 9690WAT      O39479   1.147   7.258   2.398  0.2790 -0.3131  0.8652
 9690WAT     H139480   1.131   7.251   2.313  2.0113  1.6583  0.2977
 9690WAT     H239481   1.073   7.230   2.435 -0.9697 -0.1217 -1.3058
 9690WAT    EPW39482   1.134   7.253   2.391  0.3504  0.0064  0.4607
 9691WAT      O39483   0.791   0.069   1.338 -0.4440  0.0978  0.0754
 9691WAT     H139484   0.763  -0.011   1.358  1.2544 -1.3952 -2.7672
 9691WAT     H239485   0.772   0.076   1.253  2.3954  1.2831 -0.5619
 9691WAT    EPW39486   0.784   0.058   1.328  0.2263  0.0524 -0.4387
 9692WAT      O39487   0.789   0.249   2.156 -0.2539  0.3234 -0.0547
 9692WAT     H139488   0.791   0.336   2.158  1.3670  0.3083  0.9937
 9692WAT     H239489   0.838   0.225   2.225  1.4706 -1.3658 -1.7043
 9692WAT    EPW39490   0.797   0.258   2.167  0.2403  0.0716 -0.1435
 9693WAT      O39491   0.933   1.299   2.741  0.0741  0.6455 -0.4683
 9693WAT     H139492   0.980   1.361   2.702  0.5113 -0.2835 -1.4518
 9693WAT     H239493   0.893   1.258   2.675  0.0712 -0.3543  0.1274
 9693WAT    EPW39494   0.934   1.302   2.725  0.1382  0.3606 -0.5256
 9694WAT      O39495   1.165   7.211   6.538  0.2190 -0.1336  0.3198
 9694WAT     H139496   1.246   7.234   6.515 -0.0727  0.1096 -0.4939
 9694WAT     H239497   1.134   7.281   6.578 -0.6367  0.9650 -2.0771
 9694WAT    EPW39498   1.172   7.224   6.540  0.0495  0.0646 -0.1545
 9695WAT      O39499   2.076   4.814   0.949 -0.4507 -1.0162  0.1558
 9695WAT     H139500   2.101   4.788   1.029  2.8641 -1.0016 -0.7179
 9695WAT     H239501   2.131   4.879   0.931 -2.4503  0.3570 -1.3993
 9695WAT    EPW39502   2.088   4.820   0.958 -0.2564 -0.8112 -0.2030
 9696WAT      O39503   1.428   6.923   2.134  0.0549  0.0377 -0.0041
 9696WAT     H139504   1.380   6.865   2.178 -3.3692  0.4519 -2.7846
 9696WAT     H239505   1.453   6.979   2.197 -0.4541 -1.9045  2.0663
 9696WAT    EPW39506   1.424   6.923   2.150 -0.5261 -0.1880 -0.1090
 9697WAT      O39507   0.781   7.469   1.288 -0.2288 -0.0599  0.3991
 9697WAT     H139508   0.725   7.403   1.283  0.9637 -1.0384 -0.5036
 9697WAT     H239509   0.804   7.483   1.205  1.4663 -0.2322  0.7997
 9697WAT    EPW39510   0.776   7.462   1.275  0.1978 -0.2299  0.3250
 9698WAT      O39511   1.791   6.092   2.407  0.3104  0.4211  0.3840
 9698WAT     H139512   1.705   6.081   2.396  0.5359 -0.6586 -0.4594
 9698WAT     H239513   1.799   6.093   2.494 -0.6536  1.5796  0.4937
 9698WAT    EPW39514   1.779   6.091   2.418  0.2013  0.4328  0.2756
 9699WAT      O39515   2.192   7.342   1.925  0.2611  0.2176 -0.0756
 9699WAT     H139516   2.257   7.395   1.899 -0.5421  1.5915  0.6138
 9699WAT     H239517   2.216   7.264   1.894  2.2064  0.6937  0.1002
 9699WAT    EPW39518   2.205   7.339   1.917  0.4298  0.4909  0.0522
 9700WAT      O39519   2.079   7.242   1.133  0.7965 -0.2224  0.3910
 9700WAT     H139520   2.033   7.170   1.150  1.0798 -0.5841 -0.3022
 9700WAT     H239521   2.162   7.218   1.147  0.8709  0.0578  0.4479
 9700WAT    EPW39522   2.085   7.228   1.137  0.8493 -0.2345  0.2970
 9701WAT      O39523   0.588   6.685   2.845 -0.8065  0.2858 -0.3600
 9701WAT     H139524   0.615   6.603   2.862 -0.2759  0.5368  0.0579
 9701WAT     H239525   0.595   6.692   2.759  0.8335  0.4452 -0.2435
 9701WAT    EPW39526   0.593   6.674   2.835 -0.4858  0.3464 -0.2810
 9702WAT      O39527   2.159   6.251   2.452  0.0092  0.2616  0.0736
 9702WAT     H139528   2.184   6.192   2.393  1.4716  0.7257  0.2123
 9702WAT     H239529   2.086   6.284   2.417 -1.7394 -2.6116  0.6720
 9702WAT    EPW39530   2.152   6.247   2.438 -0.0331 -0.0943  0.1825
 9703WAT      O39531   1.220   0.067   1.108  0.2489  0.5225 -0.5242
 9703WAT     H139532   1.178   0.137   1.078 -1.0271 -0.6018 -1.5181
 9703WAT     H239533   1.168   0.038   1.172 -1.0385 -1.2829 -2.2222
 9703WAT    EPW39534   1.206   0.073   1.113 -0.1298  0.0897 -0.9219
 9704WAT      O39535   2.105   0.592   1.078 -0.7757 -0.0051  0.4758
 9704WAT     H139536   2.067   0.581   1.155  0.6482  0.6073  1.2921
 9704WAT     H239537   2.075   0.524   1.031 -2.5729  0.2586  1.1627
 9704WAT    EPW39538   2.095   0.580   1.082 -0.8308  0.1243  0.6979
 9705WAT      O39539   1.152   7.685   6.670  0.1039 -0.0702 -0.5051
 9705WAT     H139540   1.134   7.724   6.746  0.9382 -0.7981  0.0984
 9705WAT     H239541   1.187   7.608   6.695  0.2871 -0.3702 -1.6276
 9705WAT    EPW39542   1.155   7.679   6.685  0.2542 -0.2221 -0.5818
 9706WAT      O39543   0.898   6.432   1.011  0.1346 -0.2243 -0.7603
 9706WAT     H139544   0.926   6.392   0.939 -0.1805  0.4795 -1.2812
 9706WAT     H239545   0.847   6.372   1.049  1.0688 -0.9457 -0.6131
 9706WAT    EPW39546   0.894   6.417   1.006  0.2260 -0.2269 -0.8155
 9707WAT      O39547   1.080   5.537   1.772  0.4360 -0.5471 -0.3322
 9707WAT     H139548   1.030   5.467   1.780  1.8292 -1.3322  2.7079
 9707WAT     H239549   1.134   5.516   1.706 -0.0504 -1.7096 -0.3772
 9707WAT    EPW39550   1.081   5.524   1.763  0.5700 -0.8348  0.1103
 9708WAT      O39551   0.655   6.376   0.317  0.0757 -0.4616  0.5466
 9708WAT     H139552   0.593   6.342   0.266 -0.1110 -1.8220  1.6196
 9708WAT     H239553   0.722   6.388   0.262 -0.9784  0.6601 -0.5450
 9708WAT    EPW39554   0.656   6.373   0.301 -0.1076 -0.4969  0.5439
 9709WAT      O39555   0.964   5.650   7.737 -0.1116  0.3668 -0.2025
 9709WAT     H139556   1.045   5.629   7.712 -0.3507 -0.2678 -0.4596
 9709WAT     H239557   0.913   5.612   7.677 -0.5717  1.6404 -0.6589
 9709WAT    EPW39558   0.969   5.641   7.725 -0.2149  0.4612 -0.3079
 9710WAT      O39559   0.843   0.391   6.386 -0.5289 -0.3546 -0.1139
 9710WAT     H139560   0.803   0.380   6.309  0.4496  0.4586 -0.7831
 9710WAT     H239561   0.922   0.357   6.372  0.4076  1.6945 -0.2303
 9710WAT    EPW39562   0.849   0.384   6.372 -0.2460  0.0682 -0.2300
 9711WAT      O39563   3.321   1.456   2.018  0.6608  0.5621 -0.2203
 9711WAT     H139564   3.354   1.460   1.937  0.4162  2.0144 -0.2741
 9711WAT     H239565   3.392   1.461   2.069  0.7957 -0.1191 -0.3263
 9711WAT    EPW39566   3.337   1.457   2.014  0.6446  0.6760 -0.2439
 9712WAT      O39567   1.169   5.944   0.648  0.5263 -0.3705 -0.1960
 9712WAT     H139568   1.204   6.019   0.676  0.4576  0.2580 -1.6988
 9712WAT     H239569   1.137   5.908   0.721  1.5726  0.5006  0.7263
 9712WAT    EPW39570   1.169   5.950   0.663  0.6707 -0.1490 -0.2818
 9713WAT      O39571   2.584   7.161   3.663  0.0970  0.2625  0.6750
 9713WAT     H139572   2.658   7.118   3.645 -0.4856 -0.8017  0.7723
 9713WAT     H239573   2.605   7.244   3.645  0.8793 -0.1898 -0.7167
 9713WAT    EPW39574   2.598   7.167   3.658  0.1265  0.0385  0.4838
 9714WAT      O39575   1.738   7.088   1.979  0.5587  0.5304  0.0491
 9714WAT     H139576   1.665   7.128   2.006 -0.8265 -1.0147 -1.2374
 9714WAT     H239577   1.709   7.028   1.923  2.9245  0.5423 -1.2875
 9714WAT    EPW39578   1.723   7.085   1.975  0.7036  0.3039 -0.3384
 9715WAT      O39579   0.917   6.905   7.126 -0.3540 -0.4778  0.1152
 9715WAT     H139580   0.875   6.966   7.080 -0.8047 -1.8264 -1.3495
 9715WAT     H239581   0.871   6.833   7.111  1.9487 -1.8430 -0.8422
 9715WAT    EPW39582   0.904   6.904   7.117 -0.0804 -0.8787 -0.2426
 9716WAT      O39583   2.163   0.303   0.539  0.7584 -0.2107 -0.3010
 9716WAT     H139584   2.080   0.325   0.525  0.5303 -0.3262  0.7737
 9716WAT     H239585   2.199   0.305   0.460  0.0072  0.9948 -0.6365
 9716WAT    EPW39586   2.156   0.307   0.526  0.6137 -0.0497 -0.1918
 9717WAT      O39587   2.153   6.762   7.600 -0.0797 -0.0202 -0.6215
 9717WAT     H139588   2.078   6.717   7.607  0.6207 -1.6416 -2.6629
 9717WAT     H239589   2.144   6.806   7.526  0.3622  1.0941 -0.0323
 9717WAT    EPW39590   2.140   6.762   7.590  0.0891 -0.0951 -0.8360
 9718WAT      O39591   0.991   5.274   2.316  0.0306  0.1345 -0.3184
 9718WAT     H139592   0.983   5.221   2.386  0.3903  0.6196  0.0980
 9718WAT     H239593   0.948   5.346   2.341  0.7618  0.5787 -0.3156
 9718WAT    EPW39594   0.984   5.277   2.330  0.1917  0.2718 -0.2565
 9719WAT      O39595   1.121   6.928   2.712  0.3269  0.3917 -0.0435
 9719WAT     H139596   1.065   6.971   2.764  1.2612  0.7270  0.7016
 9719WAT     H239597   1.149   6.990   2.657  1.6018  0.7490  0.9708
 9719WAT    EPW39598   1.117   6.944   2.711  0.6533  0.4940  0.2164
 9720WAT      O39599   1.935   6.356   2.330 -0.1412  0.1657 -0.6255
 9720WAT     H139600   1.879   6.292   2.350  1.1018 -0.1907  2.2098
 9720WAT     H239601   1.980   6.323   2.263 -0.6707 -1.1898 -0.3504
 9720WAT    EPW39602   1.933   6.341   2.323 -0.0358 -0.0872 -0.1660
 9721WAT      O39603   2.054   6.556   1.105 -0.2552 -0.0530  0.0416
 9721WAT     H139604   1.968   6.553   1.097 -0.2719  1.8019 -1.1878
 9721WAT     H239605   2.066   6.607   1.175 -0.2096  0.8965 -0.6285
 9721WAT    EPW39606   2.043   6.563   1.114 -0.2509  0.3613 -0.2390
 9722WAT      O39607   1.221   5.682   7.333  0.1170  0.0538  0.0663
 9722WAT     H139608   1.178   5.702   7.260  0.7810 -2.4012 -1.1119
 9722WAT     H239609   1.287   5.739   7.335 -0.7740  1.1295 -0.3899
 9722WAT    EPW39610   1.225   5.693   7.322  0.0834 -0.1500 -0.1752
 9723WAT      O39611   1.448   0.083   2.523 -0.4850 -0.5789  0.4951
 9723WAT     H139612   1.493   0.153   2.548 -3.4827  1.7812 -0.0111
 9723WAT     H239613   1.418   0.050   2.598  0.2355 -0.7708  0.6971
 9723WAT    EPW39614   1.450   0.089   2.538 -0.8214 -0.2586  0.4501
 9724WAT      O39615   1.219   6.993   1.939 -0.0189 -0.1469 -0.3948
 9724WAT     H139616   1.152   6.976   1.991 -0.2164  0.6475 -0.3745
 9724WAT     H239617   1.288   6.992   1.993 -0.2933  1.3079  0.0370
 9724WAT    EPW39618   1.220   6.990   1.955 -0.0886  0.1853 -0.3280
 9725WAT      O39619   2.169   4.864   1.617 -0.1913  0.0589 -0.2606
 9725WAT     H139620   2.160   4.806   1.682  1.2471 -0.4227 -0.4360
 9725WAT     H239621   2.190   4.938   1.658 -0.5364  0.0829 -0.1206
 9725WAT    EPW39622   2.171   4.866   1.633 -0.0298 -0.0087 -0.2659
 9726WAT      O39623   1.230   7.527   2.448 -0.5669  0.3514 -0.4943
 9726WAT     H139624   1.276   7.509   2.520 -0.3155  0.0407 -0.7322
 9726WAT     H239625   1.189   7.452   2.431 -0.2635  0.2842 -0.9406
 9726WAT    EPW39626   1.230   7.513   2.456 -0.4849  0.2956 -0.5954
 9727WAT      O39627   1.353   0.554   1.083  0.7446  0.2707 -0.5779
 9727WAT     H139628   1.389   0.489   1.129  2.3687  1.3957 -0.1859
 9727WAT     H239629   1.378   0.538   1.001  0.9778  0.2926 -0.5121
 9727WAT    EPW39630   1.362   0.542   1.078  1.0190  0.4401 -0.5103
 9728WAT      O39631   2.116   6.711   1.328 -0.1706  0.3029 -0.1573
 9728WAT     H139632   2.082   6.773   1.379 -0.9316 -0.9268  0.8773
 9728WAT     H239633   2.182   6.679   1.376  0.0933  0.1913 -0.5938
 9728WAT    EPW39634   2.121   6.715   1.343 -0.2440  0.1047 -0.0689
 9729WAT      O39635   1.680   7.162   1.152 -0.4651  0.4514  0.0351
 9729WAT     H139636   1.667   7.247   1.140  1.5676  0.8539  0.3498
 9729WAT     H239637   1.613   7.138   1.202 -2.7124  1.1686 -2.4140
 9729WAT    EPW39638   1.668   7.171   1.158 -0.4968  0.6168 -0.2802
 9730WAT      O39639   1.737   6.418   1.779 -0.3417  0.0977  0.1339
 9730WAT     H139640   1.660   6.459   1.778  0.0195  0.8006  0.1739
 9730WAT     H239641   1.777   6.448   1.708 -0.4587 -0.9922 -0.4063
 9730WAT    EPW39642   1.731   6.429   1.769 -0.3057  0.0405  0.0600
 9731WAT      O39643   1.486   0.669   1.959  0.5035 -0.3595 -0.2566
 9731WAT     H139644   1.462   0.696   2.039 -0.0229 -0.3873 -0.4051
 9731WAT     H239645   1.573   0.675   1.961  0.4911 -0.3196  0.3080
 9731WAT    EPW39646   1.495   0.674   1.971  0.4239 -0.3577 -0.1951
 9732WAT      O39647   1.137   6.299   7.475  0.4438  0.0528  0.1413
 9732WAT     H139648   1.221   6.279   7.492  0.2914  1.0050  2.4197
 9732WAT     H239649   1.100   6.297   7.554 -1.8871 -1.0554 -0.9048
 9732WAT    EPW39650   1.144   6.296   7.489  0.0770  0.0297  0.3233
 9733WAT      O39651   0.794   6.140   3.124  0.8534  0.1504 -0.4048
 9733WAT     H139652   0.817   6.120   3.042 -1.2112  0.1575 -1.0477
 9733WAT     H239653   0.715   6.175   3.114  0.7513  0.5499  1.5683
 9733WAT    EPW39654   0.786   6.142   3.110  0.5333  0.2105 -0.2083
 9734WAT      O39655   0.700   5.574   0.821 -0.4014  0.1489  0.7772
 9734WAT     H139656   0.659   5.559   0.745  1.5424 -1.2689 -0.0884
 9734WAT     H239657   0.698   5.497   0.861 -1.3706  0.8785  2.2073
 9734WAT    EPW39658   0.694   5.561   0.815 -0.2574  0.0473  0.8606
 9735WAT      O39659   0.807   7.360   0.313 -0.5124  0.1947 -0.6841
 9735WAT     H139660   0.751   7.304   0.349 -0.0463  0.9221  1.2508
 9735WAT     H239661   0.866   7.308   0.275  0.4527 -0.7206  1.9004
 9735WAT    EPW39662   0.807   7.344   0.313 -0.3010  0.1669 -0.0165
 9736WAT      O39663   1.152   7.186   1.338 -0.1286 -0.1800  0.3434
 9736WAT     H139664   1.188   7.193   1.259  1.1536  0.6970  0.9599
 9736WAT     H239665   1.128   7.268   1.357  1.3681  0.0016  1.6241
 9736WAT    EPW39666   1.154   7.199   1.329  0.2819 -0.0236  0.6236
 9737WAT      O39667   1.178   7.490   1.463  0.2273 -0.1391 -0.2476
 9737WAT     H139668   1.173   7.511   1.548  1.4983  0.5829 -0.3276
 9737WAT     H239669   1.143   7.559   1.423  0.1595 -0.2202 -0.3273
 9737WAT    EPW39670   1.172   7.503   1.470  0.4050 -0.0445 -0.2712
 9738WAT      O39671   0.932   6.178   2.581  0.9167  0.0524 -0.0060
 9738WAT     H139672   0.852   6.211   2.578  0.7405 -0.3138  0.6306
 9738WAT     H239673   0.965   6.197   2.502  0.2592  0.3220 -0.2180
 9738WAT    EPW39674   0.925   6.186   2.569  0.7936  0.0381  0.0567
 9739WAT      O39675   1.350   5.755   2.766  0.1595  0.0351 -0.0464
 9739WAT     H139676   1.434   5.760   2.788  0.6913  1.9674 -2.1337
 9739WAT     H239677   1.353   5.721   2.685 -0.7180  2.9893 -1.4365
 9739WAT    EPW39678   1.363   5.751   2.757  0.1084  0.7569 -0.5601
 9740WAT      O39679   1.610   6.654   2.045  0.1907  0.1951 -0.0296
 9740WAT     H139680   1.550   6.633   1.985 -1.5775 -0.1462  1.7392
 9740WAT     H239681   1.665   6.586   2.044  0.8068  0.6752 -1.9427
 9740WAT    EPW39682   1.609   6.641   2.036  0.0205  0.2156 -0.0509
 9741WAT      O39683   1.586   0.024   1.130  0.7471 -0.0396 -0.7059
 9741WAT     H139684   1.611   0.082   1.070 -0.4603  1.0962 -0.1659
 9741WAT     H239685   1.531  -0.029   1.087  1.8484 -0.8066 -1.1990
 9741WAT    EPW39686   1.581   0.025   1.115  0.7314  0.0149 -0.6990
 9742WAT      O39687   2.770   6.091   2.145  0.3423 -0.1446 -0.1518
 9742WAT     H139688   2.849   6.054   2.143  0.1366 -0.7430  1.3293
 9742WAT     H239689   2.724   6.042   2.090  1.1049  0.5292 -1.4363
 9742WAT    EPW39690   2.775   6.078   2.137  0.4246 -0.1334 -0.1228
 9743WAT      O39691   1.122   0.939   2.757 -0.1800 -0.3012  0.4801
 9743WAT     H139692   1.059   0.950   2.698 -0.6479  1.0431  1.1990
 9743WAT     H239693   1.125   1.015   2.799 -1.1564 -1.7449  3.4863
 9743WAT    EPW39694   1.113   0.952   2.754 -0.3933 -0.3158  1.0304
 9744WAT      O39695   1.586   0.325   2.566 -0.3807 -0.4478  0.4477
 9744WAT     H139696   1.535   0.391   2.540  1.2358  1.0397  0.9373
 9744WAT     H239697   1.599   0.341   2.650  0.7809 -0.8867  0.3614
 9744WAT    EPW39698   1.580   0.337   2.574  0.0297 -0.2929  0.5073
 9745WAT      O39699   1.265   5.521   1.559  0.1962  0.0245 -0.4706
 9745WAT     H139700   1.245   5.510   1.475 -2.1363 -1.9404  0.2186
 9745WAT     H239701   1.310   5.449   1.579 -1.0609 -0.5683  0.3780
 9745WAT    EPW39702   1.268   5.509   1.550 -0.3341 -0.3533 -0.2434
 9746WAT      O39703   1.923   5.455   1.667 -0.0389 -0.8583  0.2234
 9746WAT     H139704   1.892   5.389   1.620  0.5104 -0.2119 -1.1118
 9746WAT     H239705   1.990   5.485   1.618 -0.3262  0.7139  0.7347
 9746WAT    EPW39706   1.928   5.450   1.652 -0.0002 -0.5306  0.1017
 9747WAT      O39707   2.582   4.899   1.834  0.0431  0.4581  0.4139
 9747WAT     H139708   2.562   4.974   1.873  0.4107  0.6117  0.3130
 9747WAT     H239709   2.530   4.897   1.764 -0.0217  0.5819  0.4592
 9747WAT    EPW39710   2.571   4.910   1.829  0.0878  0.4991  0.4056
 9748WAT      O39711   0.902   6.614   0.746  0.0254  0.7458  0.7302
 9748WAT     H139712   0.869   6.541   0.712  0.2017  1.1251 -0.2736
 9748WAT     H239713   0.925   6.590   0.827  1.1018 -0.6078  0.0589
 9748WAT    EPW39714   0.900   6.600   0.753  0.2104  0.6019  0.4827
 9749WAT      O39715   1.379   6.261   1.571 -0.0199 -0.7878  0.2298
 9749WAT     H139716   1.412   6.297   1.499 -1.2114  0.2666  0.1613
 9749WAT     H239717   1.449   6.232   1.614  1.0686  1.4801  0.1751
 9749WAT    EPW39718   1.394   6.262   1.567 -0.0351 -0.2970  0.2116
 9750WAT      O39719   0.800   7.299   1.758  0.0193  0.3856  0.3282
 9750WAT     H139720   0.848   7.231   1.785  0.4868  0.9851  1.0566
 9750WAT     H239721   0.835   7.321   1.682  0.8754  0.7752  0.8255
 9750WAT    EPW39722   0.812   7.292   1.751  0.2148  0.5317  0.5092
 9751WAT      O39723   1.059   5.771   1.647  0.1803  0.0453  0.6387
 9751WAT     H139724   1.118   5.830   1.674  0.3848 -0.4040  1.1791
 9751WAT     H239725   1.074   5.702   1.698  1.1355 -1.1547 -1.1397
 9751WAT    EPW39726   1.070   5.770   1.658  0.3516 -0.1983  0.4558
 9752WAT      O39727   1.026   0.318   2.902 -0.2269 -0.6772  0.4655
 9752WAT     H139728   1.048   0.383   2.848 -0.3963 -1.5169 -0.6483
 9752WAT     H239729   1.085   0.323   2.966  0.1873  0.1298  0.0333
 9752WAT    EPW39730   1.038   0.329   2.903 -0.1907 -0.6820  0.2371
 9753WAT      O39731   3.563   0.115   1.997 -0.0828 -0.0113  0.3807
 9753WAT     H139732   3.507   0.135   2.061  0.3461 -0.1336  0.7970
 9753WAT     H239733   3.554   0.029   1.988 -0.3024  0.0349  0.1159
 9753WAT    EPW39734   3.553   0.105   2.005 -0.0519 -0.0225  0.4031
 9754WAT      O39735   1.540   6.086   1.213  0.3957 -0.3154 -0.3678
 9754WAT     H139736   1.626   6.077   1.203  0.2644 -3.1216  0.0419
 9754WAT     H239737   1.518   6.015   1.259 -2.0114  0.8541  0.4395
 9754WAT    EPW39738   1.550   6.074   1.219  0.0208 -0.5572 -0.1880
 9755WAT      O39739   1.059   0.274   1.037  0.2985 -0.0671 -0.5465
 9755WAT     H139740   1.027   0.336   1.090  1.7813 -1.3029  1.9553
 9755WAT     H239741   1.082   0.319   0.965 -0.4537  1.9623  0.4052
 9755WAT    EPW39742   1.058   0.290   1.034  0.4064  0.0502 -0.0363
 9756WAT      O39743   1.111   6.948   0.884  0.2982  0.3646  0.4417
 9756WAT     H139744   1.092   6.884   0.941  0.1606 -0.4033 -0.4520
 9756WAT     H239745   1.174   6.914   0.835 -0.9518  0.2354 -1.1511
 9756WAT    EPW39746   1.117   6.933   0.885  0.0932  0.2321  0.0744
 9757WAT      O39747   2.834   0.439   1.464  0.5255  0.7823  0.4654
 9757WAT     H139748   2.847   0.355   1.445 -0.6753  0.7591 -0.4020
 9757WAT     H239749   2.877   0.481   1.401 -0.8900  0.7471 -0.5840
 9757WAT    EPW39750   2.842   0.433   1.452  0.1390  0.7737  0.1822
 9758WAT      O39751   1.058   6.311   6.962 -0.0869  0.5878  0.5070
 9758WAT     H139752   1.130   6.286   6.919  0.1222  1.1882  0.5036
 9758WAT     H239753   1.090   6.355   7.030 -0.4367  0.1916  0.9353
 9758WAT    EPW39754   1.074   6.314   6.965 -0.1077  0.6179  0.5697
 9759WAT      O39755   1.366   6.621   1.581 -0.4677  0.0243 -0.1753
 9759WAT     H139756   1.382   6.679   1.518  0.6874  0.1282  0.1916
 9759WAT     H239757   1.297   6.577   1.552 -0.2281  0.3743 -1.3015
 9759WAT    EPW39758   1.358   6.623   1.568 -0.2617  0.0913 -0.2874
 9760WAT      O39759   2.243   6.031   1.249 -0.2505 -0.7389 -0.1953
 9760WAT     H139760   2.313   6.073   1.219  0.0311 -1.7061 -0.9450
 9760WAT     H239761   2.249   6.041   1.335 -0.7859  1.6499 -0.3627
 9760WAT    EPW39762   2.254   6.039   1.257 -0.2880 -0.5289 -0.3308
 9761WAT      O39763   1.755   0.706   1.888  0.4619 -0.1218  0.9169
 9761WAT     H139764   1.837   0.729   1.908  0.4506 -0.4160  1.3160
 9761WAT     H239765   1.743   0.741   1.809  0.2933  1.6397  1.6739
 9761WAT    EPW39766   1.765   0.715   1.879  0.4353  0.0950  1.0877
 9762WAT      O39767   0.732   6.885   1.111  0.2039 -0.0108 -0.4619
 9762WAT     H139768   0.701   6.814   1.151  1.1354 -0.8634 -1.2270
 9762WAT     H239769   0.778   6.925   1.173 -0.2244 -0.1277 -0.0598
 9762WAT    EPW39770   0.734   6.881   1.126  0.2782 -0.1540 -0.5155
 9763WAT      O39771   2.389   7.627   0.309 -0.6112 -0.0570 -0.0314
 9763WAT     H139772   2.323   7.596   0.262  0.3229 -1.8564 -0.2136
 9763WAT     H239773   2.445   7.561   0.313 -0.8324 -0.2820  4.0607
 9763WAT    EPW39774   2.387   7.613   0.303 -0.5059 -0.3561  0.5462
 9764WAT      O39775   1.459   6.187   0.939 -0.2796 -0.4749 -0.1971
 9764WAT     H139776   1.436   6.151   1.015 -1.5303 -3.1835 -1.6947
 9764WAT     H239777   1.388   6.176   0.889  1.2823 -1.0601 -2.4406
 9764WAT    EPW39778   1.445   6.180   0.943 -0.2336 -0.9615 -0.7497
 9765WAT      O39779   1.952   4.997   0.268 -0.1265  0.3413  0.0855
 9765WAT     H139780   1.999   4.933   0.306  1.3093  2.0670  1.4192
 9765WAT     H239781   1.957   4.978   0.183 -0.6031 -1.8262  0.4610
 9765WAT    EPW39782   1.960   4.985   0.261  0.0152  0.2760  0.3380
 9766WAT      O39783   1.928   6.474   0.281  0.1449 -0.0903  0.3021
 9766WAT     H139784   1.979   6.518   0.226 -1.6257  0.5206 -0.9718
 9766WAT     H239785   1.947   6.509   0.359 -0.3506  2.1967 -0.5000
 9766WAT    EPW39786   1.938   6.486   0.284 -0.1899  0.3378 -0.0046
 9767WAT      O39787   1.564   6.899   1.861  0.2785 -0.4235 -0.2255
 9767WAT     H139788   1.542   6.875   1.942  0.6202 -0.4367 -0.1335
 9767WAT     H239789   1.590   6.825   1.824  1.1522 -0.2421 -0.0019
 9767WAT    EPW39790   1.565   6.885   1.868  0.4581 -0.3987 -0.1789
 9768WAT      O39791   0.748   6.729   2.104  0.1360  0.4738  0.2709
 9768WAT     H139792   0.806   6.668   2.129 -0.9730 -1.3165 -1.3171
 9768WAT     H239793   0.770   6.746   2.021  0.6200  2.5799  0.7472
 9768WAT    EPW39794   0.760   6.723   2.095  0.0437  0.5204  0.1066
 9769WAT      O39795   3.178   5.521   0.688 -0.4360  0.3110 -0.4176
 9769WAT     H139796   3.263   5.534   0.670 -0.4398 -0.1834 -0.8113
 9769WAT     H239797   3.151   5.470   0.623 -0.7804 -0.4144  0.2825
 9769WAT    EPW39798   3.187   5.516   0.676 -0.4875  0.1308 -0.3723
 9770WAT      O39799   1.696   6.104   0.321 -0.0219  0.4058 -0.0502
 9770WAT     H139800   1.631   6.124   0.375  0.4857  1.0086  0.3419
 9770WAT     H239801   1.762   6.082   0.374  0.4103  0.7871 -0.4277
 9770WAT    EPW39802   1.696   6.103   0.336  0.1169  0.5512 -0.0481
 9771WAT      O39803   1.208   0.057   2.064  0.0066  0.5541  0.0329
 9771WAT     H139804   1.288   0.021   2.066 -0.0668  0.3070 -0.9703
 9771WAT     H239805   1.213   0.121   2.124  0.8583  0.3526  0.1948
 9771WAT    EPW39806   1.221   0.061   2.073  0.1216  0.4878 -0.0914
 9772WAT      O39807   1.187   6.075   1.463 -0.6107 -0.4433 -0.0890
 9772WAT     H139808   1.245   6.017   1.433 -1.0890 -0.9270 -0.0828
 9772WAT     H239809   1.237   6.141   1.490  0.0089 -1.3158  0.9435
 9772WAT    EPW39810   1.203   6.076   1.462 -0.5898 -0.6437  0.0644
 9773WAT      O39811   2.097   5.852   1.634  0.2031 -0.3658  0.0696
 9773WAT     H139812   2.061   5.931   1.644  1.6910  0.6155 -1.6730
 9773WAT     H239813   2.085   5.814   1.712 -1.2552  1.2562  0.7082
 9773WAT    EPW39814   2.090   5.858   1.647  0.2075  0.0187 -0.0935
 9774WAT      O39815   2.660   7.292   7.127  0.2901  0.4064 -0.0259
 9774WAT     H139816   2.675   7.294   7.213  1.2741  1.0997 -0.1852
 9774WAT     H239817   2.731   7.332   7.094  0.4356 -0.7955 -1.2309
 9774WAT    EPW39818   2.673   7.298   7.135  0.4569  0.3313 -0.2274
 9775WAT      O39819   0.774   5.844   0.788  0.2836  0.1356 -0.4259
 9775WAT     H139820   0.736   5.769   0.810  0.6799 -0.0580 -0.3882
 9775WAT     H239821   0.824   5.822   0.720 -0.3013  0.5575 -1.0109
 9775WAT    EPW39822   0.776   5.830   0.781  0.2557  0.1693 -0.5068
 9776WAT      O39823   1.355   6.419   1.079 -0.2255 -0.3051 -0.1914
 9776WAT     H139824   1.287   6.372   1.105  0.2689 -0.7565  0.3126
 9776WAT     H239825   1.408   6.360   1.043  0.8409 -0.3465  1.3228
 9776WAT    EPW39826   1.353   6.403   1.078  0.0051 -0.3779  0.1067
 9777WAT      O39827   2.364   7.123   2.320  0.0461  0.8404  0.2550
 9777WAT     H139828   2.371   7.069   2.388 -1.7520 -0.1883 -0.2915
 9777WAT     H239829   2.311   7.079   2.266 -1.0632  2.9412 -0.4514
 9777WAT    EPW39830   2.357   7.108   2.322 -0.3834  0.9988  0.0699
 9778WAT      O39831   2.174   6.980   2.140  0.2046 -0.5120  0.5782
 9778WAT     H139832   2.101   7.004   2.099 -0.2282 -0.6353  1.2647
 9778WAT     H239833   2.158   6.898   2.165 -0.1305  0.0400  2.2888
 9778WAT    EPW39834   2.161   6.971   2.138  0.0912 -0.4487  0.9323
 9779WAT      O39835   1.045   6.751   2.285  0.3930  0.5604  0.0914
 9779WAT     H139836   0.974   6.801   2.293 -0.0298  0.0278 -0.3112
 9779WAT     H239837   1.052   6.739   2.199  0.9295  0.5462  0.1356
 9779WAT    EPW39838   1.035   6.756   2.273  0.4098  0.4796  0.0384
 9780WAT      O39839   0.502   6.813   6.158 -0.1833 -0.2795 -0.3316
 9780WAT     H139840   0.474   6.760   6.094  1.1207 -2.0243  0.4712
 9780WAT     H239841   0.579   6.841   6.129 -0.3393  0.2843 -0.2217
 9780WAT    EPW39842   0.509   6.809   6.144 -0.0137 -0.4539 -0.1968
 9781WAT      O39843   1.241   6.903   7.344 -0.2330  0.0268  0.7350
 9781WAT     H139844   1.169   6.908   7.393 -0.2256 -0.3906  0.7869
 9781WAT     H239845   1.213   6.870   7.269  0.0452 -1.0005  1.0625
 9781WAT    EPW39846   1.226   6.899   7.340 -0.1908 -0.1866  0.7911
 9782WAT      O39847   3.517   6.938   6.331 -0.3372 -0.6298 -0.3811
 9782WAT     H139848   3.531   6.878   6.393 -0.8333 -0.7824 -0.4157
 9782WAT     H239849   3.478   6.893   6.268 -1.7819 -0.0447  0.0561
 9782WAT    EPW39850   3.514   6.923   6.331 -0.6239 -0.5659 -0.3216
 9783WAT      O39851   1.776   6.705   6.088 -0.0874 -0.3674  0.0356
 9783WAT     H139852   1.805   6.662   6.018  0.2066  0.6286 -0.4794
 9783WAT     H239853   1.792   6.651   6.154  2.7293 -0.0274 -0.2398
 9783WAT    EPW39854   1.783   6.691   6.087  0.3721 -0.1700 -0.0812
 9784WAT      O39855   1.426   5.266   6.021 -0.6444  0.0117  0.0250
 9784WAT     H139856   1.413   5.323   5.957 -0.4814  1.1300  0.9477
 9784WAT     H239857   1.509   5.279   6.044 -1.0900  0.6901  1.3995
 9784WAT    EPW39858   1.436   5.276   6.015 -0.6861  0.2771  0.3644
 9785WAT      O39859   0.662   7.160   0.419 -0.2651 -0.1877 -0.2992
 9785WAT     H139860   0.652   7.094   0.362 -2.9809  0.6492 -0.9508
 9785WAT     H239861   0.622   7.131   0.491  0.1353  0.0850  0.0409
 9785WAT    EPW39862   0.655   7.146   0.421 -0.6071 -0.0238 -0.3452
 9786WAT      O39863   0.592   5.516   6.497  0.5780 -0.4088 -0.2571
 9786WAT     H139864   0.511   5.527   6.529  0.4094 -0.0128 -0.8069
 9786WAT     H239865   0.606   5.590   6.453 -0.0796 -1.7824 -3.0003
 9786WAT    EPW39866   0.582   5.528   6.495  0.4560 -0.5532 -0.7436
 9787WAT      O39867   0.734   6.051   4.436 -0.2009  0.4286 -0.1362
 9787WAT     H139868   0.811   6.016   4.418 -0.1199 -0.0105  0.9600
 9787WAT     H239869   0.726   6.115   4.377  1.3421  0.9842  0.2054
 9787WAT    EPW39870   0.744   6.056   4.425  0.0390  0.4458  0.0762
 9788WAT      O39871   1.005   0.125   6.882 -0.3897 -0.2770  0.2913
 9788WAT     H139872   0.939   0.128   6.940 -0.2583  2.2989  0.4062
 9788WAT     H239873   1.009   0.206   6.852  0.5871 -1.1788 -2.2365
 9788WAT    EPW39874   0.996   0.137   6.886 -0.2260 -0.0297 -0.0652
 9789WAT      O39875   1.460   4.884   4.712  0.2793 -0.3121  0.4141
 9789WAT     H139876   1.462   4.797   4.720  1.1341 -0.4036 -0.6087
 9789WAT     H239877   1.406   4.898   4.645  0.7207 -0.0914  0.1025
 9789WAT    EPW39878   1.452   4.873   4.703  0.4708 -0.2930  0.2170
 9790WAT      O39879   1.255   4.549   6.146 -0.0043 -0.2900  0.2173
 9790WAT     H139880   1.199   4.616   6.144 -0.8125 -0.9611 -1.6115
 9790WAT     H239881   1.229   4.503   6.215 -0.7350  0.2343  0.3043
 9790WAT    EPW39882   1.243   4.552   6.156 -0.2316 -0.3117 -0.0400
 9791WAT      O39883   1.278   6.759   6.617  0.0273 -0.0048  0.2776
 9791WAT     H139884   1.218   6.699   6.638 -0.2421  0.4460  0.8513
 9791WAT     H239885   1.245   6.833   6.650  0.4540  0.4224 -0.2292
 9791WAT    EPW39886   1.264   6.761   6.625  0.0505  0.1249  0.2875
 9792WAT      O39887   2.051   6.547   0.054  0.4087 -0.2147  0.1586
 9792WAT     H139888   2.001   6.514  -0.009 -0.3800 -2.2635  1.7287
 9792WAT     H239889   2.128   6.509   0.041  0.9230  1.0626 -0.8006
 9792WAT    EPW39890   2.055   6.537   0.043  0.3682 -0.3287  0.2488
 9793WAT      O39891   0.492   5.144   4.861  0.4059  0.1770 -0.6880
 9793WAT     H139892   0.520   5.094   4.795  0.3292 -0.4302 -0.2723
 9793WAT     H239893   0.416   5.106   4.884 -0.3326  1.2677 -1.2200
 9793WAT    EPW39894   0.485   5.131   4.854  0.2855  0.2484 -0.7052
 9794WAT      O39895   0.400   6.689   5.939  0.1584  0.0472  0.3841
 9794WAT     H139896   0.424   6.637   5.873 -0.9773  1.0586 -0.8956
 9794WAT     H239897   0.313   6.680   5.941  0.2265 -0.7046  2.4356
 9794WAT    EPW39898   0.391   6.680   5.930  0.0007  0.0856  0.4981
 9795WAT      O39899   1.135   6.980   6.367  0.1667  0.0535 -0.2326
 9795WAT     H139900   1.178   7.011   6.297 -0.9950  0.8429 -0.6292
 9795WAT     H239901   1.139   7.046   6.424 -2.9461  1.4263 -1.3459
 9795WAT    EPW39902   1.142   6.995   6.365 -0.4647  0.3729 -0.4556
 9796WAT      O39903   0.830   5.563   7.496  0.7523 -0.0721 -0.0250
 9796WAT     H139904   0.887   5.526   7.441 -1.0258 -0.5690 -1.6650
 9796WAT     H239905   0.814   5.641   7.458  0.6948  0.2650  0.6816
 9796WAT    EPW39906   0.836   5.569   7.482  0.4811 -0.0957 -0.1629
 9797WAT      O39907   1.413   3.900   6.917  1.0563  0.1741  0.2967
 9797WAT     H139908   1.367   3.831   6.943  0.3965  0.7227  0.6043
 9797WAT     H239909   1.357   3.966   6.924  1.1113  0.4897 -1.7092
 9797WAT    EPW39910   1.398   3.900   6.922  0.9670  0.3018  0.0458
 9798WAT      O39911   1.725   4.533   6.400  0.2460 -0.1336  0.1778
 9798WAT     H139912   1.703   4.577   6.328 -0.2783 -1.4579 -0.5117
 9798WAT     H239913   1.798   4.572   6.427  0.0056  0.8999 -0.6054
 9798WAT    EPW39914   1.732   4.545   6.393  0.1331 -0.1766 -0.0398
 9799WAT      O39915   2.056   3.957   4.458  0.0514 -0.5268 -0.1917
 9799WAT     H139916   2.105   3.983   4.391 -0.4391  0.2732 -0.2496
 9799WAT     H239917   2.107   3.899   4.499  1.0806  0.3281 -0.2154
 9799WAT    EPW39918   2.071   3.953   4.454  0.1309 -0.2823 -0.2037
 9800WAT      O39919   1.700   7.664   4.896 -0.6095 -0.1366  0.1258
 9800WAT     H139920   1.658   7.703   4.962 -2.9814  1.4669 -2.1399
 9800WAT     H239921   1.744   7.730   4.859  1.5208 -1.2066  0.5768
 9800WAT    EPW39922   1.700   7.679   4.900 -0.6452 -0.0578 -0.1423
 9801WAT      O39923   0.522   6.636   6.394 -0.1109  0.1975 -0.2463
 9801WAT     H139924   0.503   6.689   6.328  1.2403  0.3978 -0.5124
 9801WAT     H239925   0.583   6.583   6.362  0.2610  0.0144  0.7038
 9801WAT    EPW39926   0.528   6.636   6.380  0.1437  0.2001 -0.1453
 9802WAT      O39927   1.789   4.975   5.887 -0.5048 -0.5246  0.0177
 9802WAT     H139928   1.733   4.998   5.824 -1.9503  1.7465  1.9640
 9802WAT     H239929   1.739   4.973   5.959  1.2728 -1.9565  1.2931
 9802WAT    EPW39930   1.773   4.978   5.888 -0.4558 -0.4006  0.4936
 9803WAT      O39931   0.601   5.079   6.124 -0.3063 -0.5186  0.0360
 9803WAT     H139932   0.651   5.125   6.069 -0.9828 -0.6518 -0.7000
 9803WAT     H239933   0.597   5.130   6.195  1.0897 -0.6258  0.2182
 9803WAT    EPW39934   0.608   5.094   6.127 -0.2000 -0.5541 -0.0458
 9804WAT      O39935   0.860   6.700   5.697 -0.3146  0.1671 -0.0216
 9804WAT     H139936   0.776   6.677   5.704 -0.6149  1.3636  0.5758
 9804WAT     H239937   0.873   6.753   5.765  0.8664  0.1895 -0.2384
 9804WAT    EPW39938   0.849   6.705   5.708 -0.1845  0.3471  0.0346
 9805WAT      O39939   1.255   5.190   5.706  0.7110 -0.1462 -0.1813
 9805WAT     H139940   1.181   5.230   5.729  1.0541 -0.3158  1.2952
 9805WAT     H239941   1.283   5.237   5.638 -0.5886  0.0858 -0.5991
 9805WAT    EPW39942   1.248   5.203   5.699  0.5697 -0.1370 -0.0249
 9806WAT      O39943   0.799   0.350   7.566 -0.2358  0.3303 -0.8791
 9806WAT     H139944   0.772   0.350   7.649  0.7688  0.2434 -0.5385
 9806WAT     H239945   0.865   0.293   7.567  0.6990  1.3893 -1.4301
 9806WAT    EPW39946   0.805   0.341   7.579  0.0507  0.4739 -0.9102
 9807WAT      O39947   2.497   4.280   7.250 -0.1350  0.1288  0.4537
 9807WAT     H139948   2.551   4.348   7.249  1.4061 -1.0185 -1.2603
 9807WAT     H239949   2.534   4.224   7.306  1.1007 -1.0573 -1.4355
 9807WAT    EPW39950   2.510   4.282   7.258  0.2752 -0.2159 -0.0786
 9808WAT      O39951   0.921   7.299   7.803 -0.1579  0.0351  0.0851
 9808WAT     H139952   0.836   7.316   7.789 -0.1586 -0.5402 -0.6738
 9808WAT     H239953   0.919   7.241   7.869 -0.3376  0.2578  0.2775
 9808WAT    EPW39954   0.908   7.293   7.811 -0.1846 -0.0170  0.0014
 9809WAT      O39955   1.445   6.474   6.232 -0.1402 -0.1825 -0.0235
 9809WAT     H139956   1.374   6.496   6.187  0.9659  1.3387 -1.1232
 9809WAT     H239957   1.507   6.467   6.170  0.5192 -2.4034  0.7720
 9809WAT    EPW39958   1.444   6.476   6.216  0.1206 -0.2859 -0.0684
 9810WAT      O39959   1.029   5.283   5.848 -0.0959 -0.2160  0.3666
 9810WAT     H139960   1.036   5.297   5.934  0.4918 -0.4454  0.3581
 9810WAT     H239961   1.014   5.363   5.816 -0.7210 -0.1872  0.7184
 9810WAT    EPW39962   1.028   5.297   5.856 -0.1014 -0.2456  0.4173
 9811WAT      O39963   2.382   4.459   5.987  0.2556 -0.0896 -0.4080
 9811WAT     H139964   2.345   4.390   5.947 -1.6919  1.3438 -1.2587
 9811WAT     H239965   2.316   4.495   6.031  1.2762  1.1072  0.2067
 9811WAT    EPW39966   2.367   4.454   5.988  0.1187  0.2989 -0.4429
 9812WAT      O39967   0.858   5.911   5.822 -0.5293 -0.1391  0.2443
 9812WAT     H139968   0.899   5.985   5.844 -0.7145 -0.0933  0.4363
 9812WAT     H239969   0.900   5.885   5.750  1.3434 -1.3187  1.6623
 9812WAT    EPW39970   0.870   5.918   5.814 -0.2800 -0.3066  0.4821
 9813WAT      O39971   1.412   6.706   7.405 -0.2621 -0.5588  0.2064
 9813WAT     H139972   1.374   6.646   7.454 -0.1519 -0.6769  0.1473
 9813WAT     H239973   1.348   6.764   7.390 -0.2421 -0.4231  0.6514
 9813WAT    EPW39974   1.397   6.706   7.410 -0.2429 -0.5562  0.2634
 9814WAT      O39975   1.159   0.194   4.742 -0.9334 -0.4069 -0.1921
 9814WAT     H139976   1.112   0.253   4.786 -0.8288 -1.3247  1.2436
 9814WAT     H239977   1.162   0.225   4.661 -0.1539  2.0123  0.6668
 9814WAT    EPW39978   1.153   0.207   4.737 -0.8028 -0.1851  0.1468
 9815WAT      O39979   3.582   6.370   6.267 -0.2573  0.2040  0.3670
 9815WAT     H139980   3.507   6.353   6.308  0.0699 -0.5882  0.6746
 9815WAT     H239981   3.558   6.415   6.196 -1.3084 -1.9840 -0.7709
 9815WAT    EPW39982   3.568   6.374   6.263 -0.3642 -0.2362  0.2444
 9816WAT      O39983   0.776   5.851   7.451 -0.3097  0.4423 -0.0880
 9816WAT     H139984   0.840   5.908   7.467  0.6739 -1.3146  2.9017
 9816WAT     H239985   0.716   5.869   7.511 -0.9503 -0.3029 -0.4823
 9816WAT    EPW39986   0.776   5.862   7.462 -0.2590  0.0727  0.2954
 9817WAT      O39987   2.819   7.233   5.148  0.3222  0.2162 -0.0916
 9817WAT     H139988   2.891   7.248   5.195  1.4291 -0.2113 -1.5774
 9817WAT     H239989   2.796   7.312   5.121 -0.5755  0.5237  1.4588
 9817WAT    EPW39990   2.827   7.247   5.151  0.3531  0.1984 -0.0820
 9818WAT      O39991   1.382   5.015   5.890 -0.4445  0.3889 -0.3461
 9818WAT     H139992   1.319   5.054   5.843 -1.9381 -0.2378  1.0598
 9818WAT     H239993   1.425   5.082   5.925 -0.4514  0.8315 -1.1553
 9818WAT    EPW39994   1.379   5.031   5.888 -0.6661  0.3617 -0.2580
 9819WAT      O39995   1.198   4.756   5.355  0.2525 -0.4562  0.1840
 9819WAT     H139996   1.231   4.801   5.288  0.9694 -0.1753  0.7115
 9819WAT     H239997   1.117   4.738   5.330 -0.0812  1.1832 -0.0191
 9819WAT    EPW39998   1.191   4.760   5.341  0.3091 -0.1725  0.2319
 9820WAT      O39999   1.022   0.661   6.437 -0.4796  0.4489 -0.3784
 9820WAT     H140000   0.947   0.622   6.417 -0.9715  0.7509  0.8157
 9820WAT     H240001   1.082   0.599   6.423 -1.1079 -0.2819  0.0774
 9820WAT    EPW40002   1.020   0.646   6.432 -0.6451  0.3856 -0.1346
 9821WAT      O40003   1.881   6.888   4.477  0.3792 -0.2159  0.3803
 9821WAT     H140004   1.954   6.866   4.436  0.0697 -0.8230  0.1481
 9821WAT     H240005   1.819   6.878   4.417  0.0894  0.1908  0.6059
 9821WAT    EPW40006   1.883   6.883   4.462  0.2907 -0.2455  0.3794
 9822WAT      O40007   1.003   5.674   6.818 -0.3061  0.3806 -0.3256
 9822WAT     H140008   1.007   5.641   6.899  0.4890 -0.1059 -0.5501
 9822WAT     H240009   0.920   5.659   6.795 -0.7878  1.2881  0.6919
 9822WAT    EPW40010   0.991   5.667   6.827 -0.2598  0.4428 -0.2084
 9823WAT      O40011   1.370   5.574   6.534 -0.0737  0.0574 -0.2034
 9823WAT     H140012   1.288   5.559   6.559  0.0476  0.3532  0.4005
 9823WAT     H240013   1.413   5.587   6.610  0.4216  0.4086 -0.5318
 9823WAT    EPW40014   1.365   5.574   6.549  0.0174  0.1530 -0.1627
 9824WAT      O40015   1.844   4.899   6.436 -0.0179  0.0567  0.3522
 9824WAT     H140016   1.911   4.909   6.492  1.1266 -1.5655 -0.6297
 9824WAT     H240017   1.795   4.838   6.473 -0.1960  0.2196  0.3882
 9824WAT    EPW40018   1.847   4.892   6.450  0.1249 -0.1589  0.2124
 9825WAT      O40019   2.221   4.183   6.843  0.1972 -0.3756  0.2733
 9825WAT     H140020   2.150   4.135   6.857 -0.1419 -0.2679 -0.9036
 9825WAT     H240021   2.221   4.239   6.910 -2.4852  1.5072 -1.0731
 9825WAT    EPW40022   2.210   4.184   6.855 -0.2491 -0.0815 -0.0995
 9826WAT      O40023   0.863   5.638   4.418 -0.9825 -0.3203 -0.0139
 9826WAT     H140024   0.796   5.675   4.459 -1.4878 -1.4531  0.2381
 9826WAT     H240025   0.926   5.698   4.423 -0.8856 -0.5166  2.7822
 9826WAT    EPW40026   0.863   5.652   4.425 -1.0429 -0.5167  0.4364
 9827WAT      O40027   1.115   6.435   7.238  0.2951  0.2579 -0.1433
 9827WAT     H140028   1.179   6.489   7.215  0.7057 -0.2578 -0.2051
 9827WAT     H240029   1.136   6.411   7.319 -1.4356  2.5203  1.0829
 9827WAT    EPW40030   1.127   6.439   7.247  0.1001  0.5159  0.0287
 9828WAT      O40031   1.336   4.518   7.120  0.0796  0.6906  0.0685
 9828WAT     H140032   1.400   4.480   7.166  0.8251  0.8479 -0.8176
 9828WAT     H240033   1.368   4.521   7.039 -1.3382  0.1319 -0.5478
 9828WAT    EPW40034   1.350   4.513   7.115 -0.0198  0.6313 -0.1534
 9829WAT      O40035   1.037   4.831   5.036 -0.4073 -0.1411 -0.1726
 9829WAT     H140036   0.984   4.897   5.018 -0.0091  0.4042  0.6061
 9829WAT     H240037   0.985   4.774   5.077 -0.0806  1.1240  2.1543
 9829WAT    EPW40038   1.021   4.832   5.039 -0.3002  0.1264  0.2861
 9830WAT      O40039   0.805   4.140   0.329  0.2019  0.4632 -0.3680
 9830WAT     H140040   0.718   4.134   0.335  0.0770  2.3165  0.3619
 9830WAT     H240041   0.833   4.060   0.350 -1.2488  0.4162  1.6764
 9830WAT    EPW40042   0.796   4.127   0.333 -0.0308  0.7301  0.0419
 9831WAT      O40043   1.518   6.307   7.220  0.2970 -0.2476  0.3369
 9831WAT     H140044   1.520   6.235   7.171  0.7757  0.4630 -0.7255
 9831WAT     H240045   1.460   6.358   7.179 -1.4826 -0.6991  2.1202
 9831WAT    EPW40046   1.510   6.304   7.207  0.1048 -0.2093  0.4434
 9832WAT      O40047   1.430   5.654   7.101 -0.2113 -0.2164 -0.1014
 9832WAT     H140048   1.385   5.727   7.118 -1.1066 -0.6158 -0.6848
 9832WAT     H240049   1.511   5.683   7.086  0.1878  0.3650  2.6580
 9832WAT    EPW40050   1.435   5.669   7.102 -0.2846 -0.1895  0.2200
 9833WAT      O40051   1.291   5.881   6.000  0.0440 -0.1000 -0.1604
 9833WAT     H140052   1.352   5.918   6.049 -0.8805  2.6303 -0.9175
 9833WAT     H240053   1.257   5.819   6.052 -0.2736  2.0306  2.3512
 9833WAT    EPW40054   1.295   5.877   6.015 -0.1395  0.6181  0.0988
 9834WAT      O40055   0.859   4.756   6.231 -0.2017 -0.2129 -0.0162
 9834WAT     H140056   0.774   4.759   6.217 -0.6936  1.7554  2.5939
 9834WAT     H240057   0.866   4.761   6.318  2.5928  0.8666 -0.1786
 9834WAT    EPW40058   0.848   4.757   6.242  0.1385  0.2373  0.3454
 9835WAT      O40059   0.932   4.476   6.138  0.2693 -0.5110 -0.5539
 9835WAT     H140060   1.004   4.472   6.188 -0.0175 -1.3123 -0.1948
 9835WAT     H240061   0.883   4.537   6.177 -0.2318 -1.5810  0.5330
 9835WAT    EPW40062   0.935   4.484   6.151  0.1529 -0.7874 -0.3403
 9836WAT      O40063   0.712   7.419   5.088  0.3865  0.1915  0.1043
 9836WAT     H140064   0.754   7.371   5.030  1.0149  1.2736 -0.3612
 9836WAT     H240065   0.690   7.491   5.044 -1.0150  0.1232  0.6295
 9836WAT    EPW40066   0.715   7.423   5.073  0.2723  0.3413  0.1131
 9837WAT      O40067   1.290   6.804   5.993 -0.6385  0.6604 -0.5490
 9837WAT     H140068   1.336   6.794   5.919  1.4320 -1.5758  0.8787
 9837WAT     H240069   1.343   6.852   6.043 -0.5356 -0.5869  0.5718
 9837WAT    EPW40070   1.305   6.810   5.989 -0.3175  0.1458 -0.1725
 9838WAT      O40071   1.005   7.559   0.047 -0.0127  0.3931  0.3588
 9838WAT     H140072   0.971   7.481   0.025  0.5121  0.0056  0.8611
 9838WAT     H240073   0.937   7.612   0.046 -0.3644 -0.0559 -0.1040
 9838WAT    EPW40074   0.990   7.555   0.044  0.0129  0.2696  0.3646
 9839WAT      O40075   1.593   4.994   6.122 -0.1008 -0.4195  0.5661
 9839WAT     H140076   1.541   4.955   6.180 -0.4450 -2.3063 -0.8993
 9839WAT     H240077   1.600   5.076   6.151 -3.8589 -0.0574  0.8936
 9839WAT    EPW40078   1.586   5.000   6.135 -0.7068 -0.6447  0.3980
 9840WAT      O40079   0.543   5.054   6.582 -0.1782 -0.0455 -0.6369
 9840WAT     H140080   0.544   5.120   6.525  0.4347 -0.2272 -0.8340
 9840WAT     H240081   0.616   5.064   6.627  0.7856 -1.5464 -1.7721
 9840WAT    EPW40082   0.554   5.065   6.580  0.0547 -0.2941 -0.8337
 9841WAT      O40083   2.396   4.512   5.055 -0.1329  0.1003 -0.1120
 9841WAT     H140084   2.433   4.531   5.132 -0.8287  0.4068  0.1512
 9841WAT     H240085   2.425   4.576   5.003  2.1112 -1.2873 -0.7080
 9841WAT    EPW40086   2.406   4.525   5.059  0.0958 -0.0594 -0.1612
 9842WAT      O40087   0.691   6.540   5.262 -0.2683 -0.2265 -0.5006
 9842WAT     H140088   0.653   6.603   5.311  1.6305  1.2773 -0.8361
 9842WAT     H240089   0.713   6.479   5.321 -0.6838  0.1712  0.0811
 9842WAT    EPW40090   0.689   6.541   5.278 -0.0492  0.0544 -0.4642
 9843WAT      O40091   2.434   5.412   4.710  0.0642  0.1765  0.7688
 9843WAT     H140092   2.469   5.342   4.747 -1.1683 -1.0862 -0.3232
 9843WAT     H240093   2.392   5.451   4.775 -0.1093 -0.6949  1.1864
 9843WAT    EPW40094   2.433   5.407   4.725 -0.1435 -0.1388  0.6692
 9844WAT      O40095   2.574   5.338   6.962 -0.2901 -0.3950  0.1366
 9844WAT     H140096   2.600   5.331   6.879 -0.9515 -0.7511 -0.0412
 9844WAT     H240097   2.511   5.398   6.959  0.3532  0.3208  0.5418
 9844WAT    EPW40098   2.569   5.346   6.950 -0.2928 -0.3419  0.1702
 9845WAT      O40099   1.997   4.684   6.927  0.1531 -0.4065 -0.3977
 9845WAT     H140100   2.029   4.647   6.999 -1.3048 -1.1786 -0.1169
 9845WAT     H240101   2.067   4.723   6.891  1.4646 -2.2949 -0.0100
 9845WAT    EPW40102   2.012   4.684   6.932  0.1315 -0.7995 -0.2990
 9846WAT      O40103   0.614   5.925   6.021 -0.1544 -0.1541 -0.0675
 9846WAT     H140104   0.537   5.948   5.988 -0.1697  1.6738  1.1038
 9846WAT     H240105   0.659   5.897   5.952 -2.2448 -2.5374 -0.5933
 9846WAT    EPW40106   0.609   5.924   6.006 -0.4655 -0.2362  0.0279
 9847WAT      O40107   0.399   6.056   5.894  0.1282  0.1390 -0.3205
 9847WAT     H140108   0.431   6.029   5.818 -0.9175  1.0908 -1.1303
 9847WAT     H240109   0.313   6.044   5.886 -0.1989  1.9731 -0.0486
 9847WAT    EPW40110   0.391   6.051   5.881 -0.0746  0.5506 -0.3999
 9848WAT      O40111   1.485   4.232   6.020  0.0153 -0.1159  0.2491
 9848WAT     H140112   1.414   4.268   5.986 -0.2961  0.9071  1.8943
 9848WAT     H240113   1.546   4.294   6.013 -0.0979  0.1950  1.6106
 9848WAT    EPW40114   1.483   4.246   6.014 -0.0474  0.0811  0.6932
 9849WAT      O40115   0.603   5.966   5.735  0.1491  0.6661 -0.1166
 9849WAT     H140116   0.690   5.965   5.738  0.1724  2.1429  0.2638
 9849WAT     H240117   0.585   5.959   5.650  0.6442  0.8473 -0.2371
 9849WAT    EPW40118   0.613   5.965   5.723  0.2257  0.9110 -0.0782
 9850WAT      O40119   1.632   4.368   5.577 -0.0880  0.0559  0.2574
 9850WAT     H140120   1.632   4.444   5.619 -0.7214 -0.2245  0.7777
 9850WAT     H240121   1.549   4.356   5.555  0.1700  0.0066 -0.7475
 9850WAT    EPW40122   1.620   4.377   5.580 -0.1434  0.0072  0.1858
 9851WAT      O40123   1.430   6.822   0.144 -0.0390 -0.4315 -0.2971
 9851WAT     H140124   1.453   6.895   0.101  0.8361 -0.9376 -0.7279
 9851WAT     H240125   1.477   6.760   0.104 -1.5924 -1.4122 -0.6528
 9851WAT    EPW40126   1.440   6.823   0.132 -0.1392 -0.6511 -0.4133
 9852WAT      O40127   2.398   6.623   7.306 -0.7588 -0.0076 -0.3355
 9852WAT     H140128   2.313   6.613   7.288 -0.5425  0.2404 -1.6185
 9852WAT     H240129   2.414   6.707   7.287 -0.3057  0.0395  0.2336
 9852WAT    EPW40130   2.388   6.634   7.300 -0.6599  0.0360 -0.4410
 9853WAT      O40131   0.888   7.006   6.720  0.0849  0.1117 -0.0191
 9853WAT     H140132   0.832   6.943   6.702 -0.2390  0.1689  0.7711
 9853WAT     H240133   0.865   7.034   6.799 -0.3212  1.7872 -0.6681
 9853WAT    EPW40134   0.876   7.001   6.729 -0.0229  0.3676  0.0018
 9854WAT      O40135   0.648   5.231   6.374 -0.5679  0.0825  0.2032
 9854WAT     H140136   0.728   5.204   6.395 -0.3979  0.1322 -0.3756
 9854WAT     H240137   0.642   5.310   6.412 -0.7793 -0.4097  1.2274
 9854WAT    EPW40138   0.659   5.239   6.383 -0.5741  0.0171  0.2690
 9855WAT      O40139   1.636   6.202   4.700 -0.0052 -0.2130  0.8167
 9855WAT     H140140   1.631   6.123   4.663 -1.5940  0.3683 -0.3399
 9855WAT     H240141   1.714   6.232   4.674 -0.8811  0.0126 -1.9266
 9855WAT    EPW40142   1.647   6.195   4.690 -0.3693 -0.0938  0.2406
 9856WAT      O40143   0.893   0.026   6.522 -0.1792 -0.2827  0.9157
 9856WAT     H140144   0.947  -0.014   6.466 -0.2411 -0.1943  0.7933
 9856WAT     H240145   0.928   0.009   6.600 -0.5571 -1.1117  0.9109
 9856WAT    EPW40146   0.906   0.018   6.526 -0.2442 -0.3921  0.8969
 9857WAT      O40147   1.433   5.836   7.318 -0.0076  0.0578 -0.0535
 9857WAT     H140148   1.519   5.851   7.318 -0.1257  0.8372  0.7972
 9857WAT     H240149   1.402   5.896   7.373 -1.1716  0.1921 -0.8177
 9857WAT    EPW40150   1.441   5.847   7.326 -0.1970  0.1928 -0.0407
 9858WAT      O40151   0.612   6.871   5.813 -0.1342 -0.4383 -0.4425
 9858WAT     H140152   0.630   6.956   5.827  0.9592 -0.3757 -1.9271
 9858WAT     H240153   0.550   6.853   5.872 -0.9317  1.5913 -0.5620
 9858WAT    EPW40154   0.605   6.881   5.823 -0.0905 -0.1293 -0.6794
 9859WAT      O40155   1.853   3.935   0.046 -0.3364  0.0968 -0.1017
 9859WAT     H140156   1.784   3.983   0.072  0.1185  0.2593  0.8574
 9859WAT     H240157   1.844   3.932  -0.041 -1.4476  0.2766 -0.0130
 9859WAT    EPW40158   1.841   3.942   0.037 -0.4334  0.1474  0.0531
 9860WAT      O40159   4.480   3.439   7.090  0.4042  0.0610 -0.3936
 9860WAT     H140160   4.522   3.439   7.167 -0.3841 -0.7270  0.0613
 9860WAT     H240161   4.397   3.422   7.112  0.6787 -4.0850 -1.5969
 9860WAT    EPW40162   4.474   3.436   7.105  0.3283 -0.6679 -0.5041
 9861WAT      O40163   0.946   5.211   2.035  0.1746  0.0666 -0.0098
 9861WAT     H140164   0.942   5.200   2.121 -2.2897  2.7171  0.3996
 9861WAT     H240165   0.892   5.150   2.004 -0.8623  0.6309  0.6178
 9861WAT    EPW40166   0.937   5.200   2.043 -0.3426  0.5415  0.1434
 9862WAT      O40167   2.609   4.344   6.552 -0.4771  0.6853  0.0212
 9862WAT     H140168   2.595   4.419   6.594 -2.3786 -0.3504  1.4392
 9862WAT     H240169   2.678   4.361   6.502 -0.3680  3.1306  0.8417
 9862WAT    EPW40170   2.617   4.358   6.551 -0.7419  0.8935  0.3518
 9863WAT      O40171   0.948   5.422   0.443 -0.9194  0.0646 -0.0594
 9863WAT     H140172   1.014   5.372   0.415  0.1813  1.9417 -1.0731
 9863WAT     H240173   0.878   5.372   0.433  0.2914 -1.8840  0.7135
 9863WAT    EPW40174   0.948   5.407   0.438 -0.5780  0.0540 -0.0950
 9864WAT      O40175   0.797   5.717   5.552 -0.3030  0.3332 -1.0014
 9864WAT     H140176   0.814   5.668   5.622 -0.3803  2.2137  0.3994
 9864WAT     H240177   0.779   5.658   5.490 -0.3483 -1.3947  0.5619
 9864WAT    EPW40178   0.797   5.701   5.553 -0.3211  0.3557 -0.5635
 9865WAT      O40179   0.656   5.370   4.741  0.0196  0.5325 -0.0890
 9865WAT     H140180   0.674   5.436   4.794 -0.0089  0.7698 -0.3728
 9865WAT     H240181   0.616   5.312   4.793 -1.6188  1.4958 -0.2220
 9865WAT    EPW40182   0.653   5.371   4.757 -0.2267  0.7099 -0.1505
 9866WAT      O40183   2.065   5.936   7.583  0.6435 -0.2636  0.1083
 9866WAT     H140184   2.112   5.988   7.531 -0.0863 -1.1304 -1.4963
 9866WAT     H240185   2.048   5.867   7.533 -2.2945 -0.0243  0.5877
 9866WAT    EPW40186   2.069   5.934   7.568  0.1017 -0.3563 -0.0579
 9867WAT      O40187   1.411   6.235   7.495 -0.1801  0.1851 -0.3848
 9867WAT     H140188   1.452   6.232   7.418  0.8425 -3.3008  0.0872
 9867WAT     H240189   1.468   6.277   7.547  1.4808 -1.7280 -0.5159
 9867WAT    EPW40190   1.426   6.241   7.491  0.2163 -0.6125 -0.3345
 9868WAT      O40191   0.868   6.790   5.958 -0.0848  0.4357  0.6601
 9868WAT     H140192   0.794   6.832   5.940 -1.3184 -1.4277  1.1031
 9868WAT     H240193   0.856   6.764   6.041  1.1374  0.2112  0.7759
 9868WAT    EPW40194   0.855   6.793   5.968 -0.0865  0.1272  0.7426
 9869WAT      O40195   1.968   6.865   6.292 -0.0031  0.2604  0.2431
 9869WAT     H140196   1.911   6.845   6.229 -0.1560 -0.0825  0.4832
 9869WAT     H240197   1.925   6.921   6.342 -0.8260 -1.3464  1.4362
 9869WAT    EPW40198   1.953   6.870   6.290 -0.1472 -0.0276  0.4548
 9870WAT      O40199   1.287   6.130   6.293 -0.6058 -0.2018  0.0040
 9870WAT     H140200   1.301   6.154   6.211  0.3745  0.1669  0.2662
 9870WAT     H240201   1.274   6.044   6.288  0.0606 -0.2817 -0.4706
 9870WAT    EPW40202   1.287   6.121   6.280 -0.3625 -0.1591 -0.0274
 9871WAT      O40203   2.618   6.608   6.691 -0.5634  0.1098 -0.0104
 9871WAT     H140204   2.630   6.693   6.709  0.7445 -0.2891  1.2100
 9871WAT     H240205   2.586   6.609   6.610 -0.2426  1.7488 -0.1660
 9871WAT    EPW40206   2.615   6.621   6.682 -0.3228  0.2930  0.1469
 9872WAT      O40207   0.754   7.573   7.499 -0.2402 -0.1626  0.1667
 9872WAT     H140208   0.682   7.604   7.462 -0.7224 -1.6722 -0.1844
 9872WAT     H240209   0.815   7.632   7.476 -1.3640  1.2962  0.7183
 9872WAT    EPW40210   0.753   7.587   7.490 -0.4775 -0.1701  0.1963
 9873WAT      O40211   1.155   4.306   7.619  0.0720 -0.7439  0.2827
 9873WAT     H140212   1.084   4.347   7.588  0.4598  0.0999  0.4701
 9873WAT     H240213   1.168   4.345   7.696  1.6007  0.1720 -0.4050
 9873WAT    EPW40214   1.146   4.318   7.626  0.3551 -0.4839  0.2088
 9874WAT      O40215   1.055   6.004   5.019 -0.3634 -0.1651 -0.1688
 9874WAT     H140216   1.135   6.023   4.988 -0.5255 -0.2810 -0.6711
 9874WAT     H240217   1.059   5.918   5.034 -0.2570 -0.0933  0.2194
 9874WAT    EPW40218   1.068   5.994   5.016 -0.3716 -0.1716 -0.1857
 9875WAT      O40219   0.641   7.335   0.058  0.4422 -0.3241 -0.0940
 9875WAT     H140220   0.597   7.408   0.040 -1.1032 -1.4208 -0.9900
 9875WAT     H240221   0.667   7.347   0.141  0.8700  1.5205 -0.4519
 9875WAT    EPW40222   0.638   7.347   0.068  0.2771 -0.2136 -0.2792
 9876WAT      O40223   0.387   7.220   6.019  0.1329  0.6401  0.3707
 9876WAT     H140224   0.380   7.307   6.023 -1.5708  0.5065  1.2985
 9876WAT     H240225   0.400   7.196   6.102  3.2301  0.1131 -0.1588
 9876WAT    EPW40226   0.388   7.229   6.032  0.3387  0.5425  0.4295
 9877WAT      O40227   2.264   6.265   6.250  0.2660 -0.6665  1.5827
 9877WAT     H140228   2.229   6.186   6.238 -0.1412 -0.3124  0.2509
 9877WAT     H240229   2.350   6.248   6.251  0.1522 -1.2808  2.7515
 9877WAT    EPW40230   2.272   6.251   6.248  0.1890 -0.7049  1.5586
 9878WAT      O40231   2.477   4.554   5.334  0.1188  0.1624 -0.1936
 9878WAT     H140232   2.494   4.635   5.361  2.8655 -0.1517 -0.6879
 9878WAT     H240233   2.492   4.506   5.405 -2.0987  0.0627  0.2709
 9878WAT    EPW40234   2.482   4.559   5.349  0.1970  0.1013 -0.1980
 9879WAT      O40235   0.994   7.087   6.046  0.7819 -0.1228 -0.8769
 9879WAT     H140236   1.052   7.103   5.983  1.9469 -1.2780 -0.1646
 9879WAT     H240237   0.974   7.003   6.034  0.1450 -0.0451 -0.4038
 9879WAT    EPW40238   1.000   7.077   6.035  0.8599 -0.2819 -0.7018
 9880WAT      O40239   1.333   7.239   6.201  0.0436 -0.0695 -0.4529
 9880WAT     H140240   1.250   7.265   6.196 -1.2632 -3.7037 -0.6822
 9880WAT     H240241   1.361   7.245   6.119 -0.5406 -0.3154 -0.6760
 9880WAT    EPW40242   1.325   7.244   6.188 -0.2357 -0.6427 -0.5197
 9881WAT      O40243   0.782   4.525   6.706  0.4157  0.0420  0.7513
 9881WAT     H140244   0.855   4.486   6.678 -0.6035 -1.0305 -0.5612
 9881WAT     H240245   0.768   4.588   6.647  0.1825  0.1147  0.8802
 9881WAT    EPW40246   0.791   4.529   6.693  0.2307 -0.1057  0.5765
 9882WAT      O40247   1.955   4.811   5.697 -0.0578 -0.2326 -0.2572
 9882WAT     H140248   1.920   4.837   5.772  1.0291 -0.6406  0.4116
 9882WAT     H240249   1.890   4.765   5.660 -1.5475  2.1920 -0.8698
 9882WAT    EPW40250   1.940   4.808   5.702 -0.1173  0.0653 -0.2489
 9883WAT      O40251   2.332   6.308   5.494  0.0267  0.2080 -0.1840
 9883WAT     H140252   2.255   6.291   5.458 -0.2448  1.0218  0.0007
 9883WAT     H240253   2.331   6.394   5.506  0.7420  0.1565  0.3334
 9883WAT    EPW40254   2.321   6.318   5.490  0.0923  0.3206 -0.0803
 9884WAT      O40255   0.339   4.951   4.996  0.5315 -0.0636 -0.2189
 9884WAT     H140256   0.414   4.910   5.013  0.5320 -0.2199 -0.5811
 9884WAT     H240257   0.280   4.886   4.990  0.2867  0.0904  0.4737
 9884WAT    EPW40258   0.341   4.935   4.998  0.4954 -0.0640 -0.1701
 9885WAT      O40259   1.115   5.507   6.620 -0.0296 -0.1026  0.1750
 9885WAT     H140260   1.076   5.553   6.683  0.8038  1.1780 -0.2033
 9885WAT     H240261   1.069   5.525   6.549  0.7921  0.8320 -0.1335
 9885WAT    EPW40262   1.103   5.516   6.619  0.2149  0.2246  0.0736
 9886WAT      O40263   1.645   4.594   5.717 -0.2813 -0.1403 -0.0924
 9886WAT     H140264   1.641   4.676   5.687  0.7100 -0.0635 -0.0537
 9886WAT     H240265   1.599   4.597   5.792 -0.5394  0.2923 -0.2643
 9886WAT    EPW40266   1.638   4.607   5.724 -0.1730 -0.0651 -0.1121
 9887WAT      O40267   1.041   5.346   6.943  0.8937  0.2926 -0.0062
 9887WAT     H140268   1.023   5.321   7.024 -0.7301  0.8483 -0.1552
 9887WAT     H240269   0.963   5.345   6.903  1.7441 -0.7399 -1.7836
 9887WAT    EPW40270   1.027   5.342   6.949  0.7794  0.2222 -0.2908
 9888WAT      O40271   1.153   6.348   6.486  0.0959 -0.3014 -0.1915
 9888WAT     H140272   1.079   6.330   6.443  0.1981 -1.8600  0.1984
 9888WAT     H240273   1.210   6.292   6.451  0.5550 -0.5537  0.9305
 9888WAT    EPW40274   1.150   6.337   6.474  0.1788 -0.5689  0.0318
 9889WAT      O40275   2.236   4.993   4.863 -0.5340 -0.0271  0.4297
 9889WAT     H140276   2.189   4.936   4.817 -0.1938 -0.6693  0.8578
 9889WAT     H240277   2.251   5.058   4.807  0.5366 -1.1354 -0.6128
 9889WAT    EPW40278   2.231   4.995   4.848 -0.3256 -0.2857  0.3389
 9890WAT      O40279   0.845   4.701   7.744 -0.6055  0.0340  0.7940
 9890WAT     H140280   0.784   4.684   7.684  0.9603 -1.5456 -0.4644
 9890WAT     H240281   0.902   4.752   7.702 -0.3769  0.3707  1.5033
 9890WAT    EPW40282   0.844   4.706   7.729 -0.3404 -0.1496  0.7129
 9891WAT      O40283   1.496   5.922   6.181  0.6740  0.0482 -0.8057
 9891WAT     H140284   1.583   5.921   6.180  0.6967  0.2674  0.0648
 9891WAT     H240285   1.475   5.868   6.246  0.1725  0.2634 -0.7770
 9891WAT    EPW40286   1.506   5.914   6.190  0.6033  0.1124 -0.6729
 9892WAT      O40287   2.655   5.725   5.031 -0.8224 -0.0173 -0.1479
 9892WAT     H140288   2.624   5.685   5.102  0.1302 -2.6688 -1.1096
 9892WAT     H240289   2.688   5.660   4.983 -1.8196  1.5670 -3.2810
 9892WAT    EPW40290   2.656   5.710   5.034 -0.8290 -0.1749 -0.7528
 9893WAT      O40291   0.902   4.443   7.042  0.2040 -0.1306 -0.0658
 9893WAT     H140292   0.830   4.408   7.009 -1.3018  2.4533  0.2239
 9893WAT     H240293   0.963   4.382   7.027 -2.0655 -2.6738  0.1665
 9893WAT    EPW40294   0.901   4.429   7.035 -0.3537 -0.1246  0.0113
 9894WAT      O40295   1.166   4.018   0.111  0.0307  0.5991  0.2932
 9894WAT     H140296   1.135   3.946   0.073  0.6123  0.0469  0.8259
 9894WAT     H240297   1.106   4.079   0.093 -0.1834  0.1197 -0.6509
 9894WAT    EPW40298   1.152   4.016   0.103  0.0850  0.4467  0.2325
 9895WAT      O40299   1.599   5.917   5.862  0.0397 -0.2018 -0.0379
 9895WAT     H140300   1.627   5.972   5.924  1.7245 -0.6357 -0.3617
 9895WAT     H240301   1.583   5.843   5.906 -2.7122  0.5943  0.4810
 9895WAT    EPW40302   1.601   5.914   5.878 -0.1180 -0.1483 -0.0091
 9896WAT      O40303   1.842   5.848   5.741  0.3964  0.0861  0.3727
 9896WAT     H140304   1.767   5.880   5.774  0.9862  0.9083  0.9444
 9896WAT     H240305   1.880   5.918   5.706 -0.0722 -0.6797 -1.8943
 9896WAT    EPW40306   1.836   5.863   5.741  0.4143  0.0944  0.1223
 9897WAT      O40307   2.963   4.597   6.805  0.3308  0.2128 -0.0989
 9897WAT     H140308   3.013   4.653   6.850  0.3507 -0.6822  1.0197
 9897WAT     H240309   3.001   4.520   6.818 -0.8889 -0.3697  0.1210
 9897WAT    EPW40310   2.976   4.594   6.813  0.1535 -0.0055  0.0988
 9898WAT      O40311   1.140   5.239   6.713  0.3870 -0.0132  0.3859
 9898WAT     H140312   1.107   5.265   6.790 -1.8068 -1.4718  0.0228
 9898WAT     H240313   1.121   5.304   6.659  0.4558  0.2971  0.7339
 9898WAT    EPW40314   1.133   5.252   6.716  0.0731 -0.1828  0.3837
 9899WAT      O40315   1.446   5.618   6.780 -0.1141 -0.4227 -0.0193
 9899WAT     H140316   1.414   5.547   6.820 -0.2353  0.0311  0.7083
 9899WAT     H240317   1.399   5.683   6.814  1.5603  0.2741  1.0972
 9899WAT    EPW40318   1.434   5.617   6.791  0.1153 -0.2527  0.2531
 9900WAT      O40319   0.809   5.833   7.143  0.2961 -0.4042 -0.1552
 9900WAT     H140320   0.793   5.830   7.228 -1.8294  0.4272 -0.4639
 9900WAT     H240321   0.850   5.909   7.131 -0.9822  0.3255 -0.0593
 9900WAT    EPW40322   0.813   5.844   7.154 -0.2067 -0.1736 -0.1867
 9901WAT      O40323   1.717   4.709   6.172 -0.0961 -0.0373 -0.0071
 9901WAT     H140324   1.759   4.719   6.096 -0.8049  0.1979 -0.3728
 9901WAT     H240325   1.676   4.785   6.184  1.2501  0.5311  1.4138
 9901WAT    EPW40326   1.717   4.722   6.163 -0.0019  0.0814  0.1488
 9902WAT      O40327   1.680   6.073   5.617  0.3690  0.1687 -0.0534
 9902WAT     H140328   1.634   6.026   5.674 -0.3110  0.4692 -0.3345
 9902WAT     H240329   1.728   6.126   5.667  0.3626 -0.1077  0.2482
 9902WAT    EPW40330   1.680   6.074   5.633  0.2676  0.1723 -0.0503
 9903WAT      O40331   1.210   4.420   0.005  0.3708  0.0742  0.2330
 9903WAT     H140332   1.129   4.441   0.029 -0.2720 -0.9179 -0.9306
 9903WAT     H240333   1.236   4.362   0.064  0.5598  0.9834  1.0661
 9903WAT    EPW40334   1.202   4.415   0.017  0.3038  0.0619  0.1842
 9904WAT      O40335   0.832   7.279   5.540 -0.3167  0.0517  0.3909
 9904WAT     H140336   0.878   7.204   5.540 -1.6333 -0.8396 -1.6753
 9904WAT     H240337   0.757   7.257   5.503 -2.2633  1.6209  3.0582
 9904WAT    EPW40338   0.828   7.265   5.535 -0.7988  0.1518  0.4797
 9905WAT      O40339   3.368   4.041   6.064  0.1368  0.4627 -0.2190
 9905WAT     H140340   3.396   4.102   6.120 -1.5116  0.6918  0.4354
 9905WAT     H240341   3.424   4.046   5.998  0.8456  1.7313  0.4363
 9905WAT    EPW40342   3.380   4.050   6.063 -0.0020  0.6839 -0.0255
 9906WAT      O40343   1.891   3.848   1.127 -0.0951  0.0723  0.8179
 9906WAT     H140344   1.866   3.765   1.139  0.0868  0.3319  3.9005
 9906WAT     H240345   1.977   3.846   1.140  0.4221  0.3654 -2.0525
 9906WAT    EPW40346   1.900   3.835   1.131  0.0082  0.1539  0.8492
 9907WAT      O40347   1.502   6.276   6.409  1.1005 -0.0121 -0.3185
 9907WAT     H140348   1.452   6.208   6.387 -0.0805 -0.3614  2.9252
 9907WAT     H240349   1.472   6.340   6.357 -2.3189 -0.4033  0.9359
 9907WAT    EPW40350   1.490   6.276   6.398  0.4209 -0.1215  0.3459
 9908WAT      O40351   1.373   6.541   7.148  0.1438 -0.6707 -0.2976
 9908WAT     H140352   1.403   6.584   7.218 -0.8651 -1.4283  0.6399
 9908WAT     H240353   1.378   6.600   7.084 -1.4340  0.9569  0.9703
 9908WAT    EPW40354   1.378   6.556   7.149 -0.2383 -0.5422  0.0282
 9909WAT      O40355   0.809   6.677   6.204 -0.5059 -0.3779  0.2548
 9909WAT     H140356   0.793   6.596   6.233  1.7713 -0.8811  0.2853
 9909WAT     H240357   0.848   6.716   6.272 -0.1828  0.2402 -0.2702
 9909WAT    EPW40358   0.812   6.671   6.218 -0.1218 -0.3609  0.1817
 9910WAT      O40359   0.606   4.823   6.115 -0.5319  0.3118 -0.6897
 9910WAT     H140360   0.588   4.786   6.038 -2.8590  0.3110 -0.2167
 9910WAT     H240361   0.577   4.904   6.106 -0.8749  0.2956  0.2054
 9910WAT    EPW40362   0.599   4.829   6.102 -0.9264  0.3093 -0.4876
 9911WAT      O40363   2.487   5.896   6.118  0.6525  0.2485 -0.3081
 9911WAT     H140364   2.445   5.918   6.045  0.3331 -1.7922 -0.8130
 9911WAT     H240365   2.569   5.886   6.092  0.7133  0.4257 -0.1836
 9911WAT    EPW40366   2.493   5.897   6.103  0.6143 -0.0268 -0.3643
 9912WAT      O40367   0.672   6.445   5.900  0.0345  0.2494 -0.2465
 9912WAT     H140368   0.650   6.383   5.957  0.9870 -0.0295 -0.1696
 9912WAT     H240369   0.725   6.497   5.945  0.0048  0.5837 -0.5897
 9912WAT    EPW40370   0.677   6.443   5.915  0.1708  0.2576 -0.2858
 9913WAT      O40371   1.165   3.447   7.040  0.0665  0.3165  0.5253
 9913WAT     H140372   1.179   3.439   7.126 -2.0049 -2.5979  0.7097
 9913WAT     H240373   1.237   3.413   7.005  0.1344 -0.2015  1.1481
 9913WAT    EPW40374   1.178   3.441   7.048 -0.2295 -0.1905  0.6445
 9914WAT      O40375   1.271   5.168   0.161  0.0206  0.0457  0.3067
 9914WAT     H140376   1.314   5.092   0.159  0.8306  0.4835  0.4588
 9914WAT     H240377   1.296   5.208   0.088  0.7776  0.7782  0.9437
 9914WAT    EPW40378   1.281   5.163   0.150  0.2520  0.2186  0.4233
 9915WAT      O40379   0.845   7.105   6.960 -0.2073  0.0379  0.1904
 9915WAT     H140380   0.772   7.125   7.003 -0.5896 -0.6103 -0.1405
 9915WAT     H240381   0.908   7.146   7.005 -0.8001  0.8376  0.3128
 9915WAT    EPW40382   0.844   7.114   6.973 -0.3514  0.0603  0.1596
 9916WAT      O40383   0.885   5.080   6.445  0.3495 -0.5077  0.1585
 9916WAT     H140384   0.957   5.109   6.484  0.2986 -0.1798  0.0084
 9916WAT     H240385   0.911   5.062   6.364 -0.0765  1.1295 -0.3812
 9916WAT    EPW40386   0.899   5.081   6.439  0.2791 -0.2174  0.0566
 9917WAT      O40387   1.274   4.125   6.933  0.4495 -0.0199  0.1458
 9917WAT     H140388   1.340   4.174   6.902 -0.9965  0.7853 -1.8768
 9917WAT     H240389   1.238   4.176   6.995  0.6833  0.2431  0.0665
 9917WAT    EPW40390   1.279   4.140   6.938  0.2705  0.1379 -0.1647
 9918WAT      O40391   1.317   5.140   6.254  0.2359  0.8250  0.0590
 9918WAT     H140392   1.332   5.183   6.179  0.9725  1.3667  0.5006
 9918WAT     H240393   1.351   5.193   6.315 -0.1382  0.2799  0.7529
 9918WAT    EPW40394   1.324   5.154   6.252  0.2895  0.8245  0.2267
 9919WAT      O40395   1.246   5.468   6.184 -0.4768  0.3264 -0.4480
 9919WAT     H140396   1.199   5.396   6.170 -0.6907  0.0590  1.4108
 9919WAT     H240397   1.276   5.458   6.265 -0.4136  2.2896 -0.1767
 9919WAT    EPW40398   1.244   5.456   6.194 -0.4991  0.5769 -0.1334
 9920WAT      O40399   0.984   6.246   2.064 -0.3717 -0.1113 -0.4295
 9920WAT     H140400   0.978   6.163   2.041  0.6816 -0.4663  0.4750
 9920WAT     H240401   1.020   6.284   1.994 -0.6332 -0.4544 -0.7543
 9920WAT    EPW40402   0.989   6.240   2.050 -0.2548 -0.2144 -0.3439
 9921WAT      O40403   1.279   6.030   5.748  0.0847 -0.1542  0.5573
 9921WAT     H140404   1.300   5.976   5.813  2.2881 -0.8061 -0.5794
 9921WAT     H240405   1.341   6.092   5.753 -0.5252  0.5198 -0.0874
 9921WAT    EPW40406   1.291   6.031   5.758  0.3201 -0.1509  0.2942
 9922WAT      O40407   1.231   4.172   4.452 -0.4517  0.0581 -0.1169
 9922WAT     H140408   1.144   4.174   4.445 -0.4540  0.4220  0.0067
 9922WAT     H240409   1.254   4.256   4.454 -0.2114 -0.0241  1.3268
 9922WAT    EPW40410   1.222   4.185   4.451 -0.4165  0.0997  0.1146
 9923WAT      O40411   2.496   6.447   7.117  0.3014 -0.8212  0.0647
 9923WAT     H140412   2.465   6.504   7.175 -0.7969 -0.9217 -0.3962
 9923WAT     H240413   2.471   6.481   7.040  2.1378 -0.4210 -0.4225
 9923WAT    EPW40414   2.488   6.461   7.114  0.4104 -0.7769 -0.0754
 9924WAT      O40415   1.796   5.329   6.565  0.2517 -0.1963  0.4287
 9924WAT     H140416   1.745   5.391   6.601 -0.2175 -0.2707 -0.0973
 9924WAT     H240417   1.740   5.283   6.517  1.0423  0.5864 -1.3116
 9924WAT    EPW40418   1.780   5.331   6.564  0.2992 -0.0917  0.0940
 9925WAT      O40419   1.126   7.266   7.599  0.7162 -0.1644  0.3526
 9925WAT     H140420   1.061   7.270   7.657  0.1199 -1.8790 -0.1428
 9925WAT     H240421   1.084   7.260   7.523  1.4882  1.1155 -0.2121
 9925WAT    EPW40422   1.110   7.266   7.596  0.7421 -0.2286  0.1960
 9926WAT      O40423   1.334   7.468   6.697  0.1985  0.0596  0.0945
 9926WAT     H140424   1.401   7.504   6.741 -0.6458  3.3092 -0.9687
 9926WAT     H240425   1.343   7.500   6.616 -0.4382 -2.6869 -1.1891
 9926WAT    EPW40426   1.345   7.478   6.691 -0.0203  0.1339 -0.2522
 9927WAT      O40427   1.449   5.334   6.434  0.0418 -0.1276 -0.2630
 9927WAT     H140428   1.456   5.295   6.511 -1.4216  0.3597  0.1514
 9927WAT     H240429   1.425   5.416   6.454 -0.7333 -0.0929 -1.2306
 9927WAT    EPW40430   1.446   5.340   6.448 -0.2889 -0.0505 -0.3447
 9928WAT      O40431   2.447   5.655   7.573  0.0963  0.5219 -0.1315
 9928WAT     H140432   2.402   5.615   7.635  0.0622 -1.2859 -1.2400
 9928WAT     H240433   2.511   5.599   7.555  2.2368  2.5447  0.6711
 9928WAT    EPW40434   2.450   5.641   7.580  0.4075  0.5537 -0.1767
 9929WAT      O40435   1.447   6.928   6.448  0.7182  0.3276 -0.1083
 9929WAT     H140436   1.440   6.906   6.364  1.4321 -0.9309  0.1492
 9929WAT     H240437   1.386   6.880   6.488 -0.5040  1.8407 -0.0127
 9929WAT    EPW40438   1.437   6.918   6.441  0.6431  0.3652 -0.0561
 9930WAT      O40439   2.103   6.249   0.348  0.1874  0.5244 -0.4065
 9930WAT     H140440   2.089   6.246   0.434  0.1445 -0.1987 -0.4332
 9930WAT     H240441   2.077   6.329   0.326  0.8960  0.9891  0.3674
 9930WAT    EPW40442   2.097   6.261   0.357  0.2857  0.4862 -0.2961
 9931WAT      O40443   1.345   7.164   7.314 -1.1447  0.0709 -0.1258
 9931WAT     H140444   1.318   7.084   7.335 -1.4201  0.0871 -0.4132
 9931WAT     H240445   1.285   7.216   7.351 -0.3470  0.2044  1.0454
 9931WAT    EPW40446   1.332   7.160   7.322 -1.0675  0.0930  0.0048
 9932WAT      O40447   0.770   5.330   6.869 -0.1503 -0.3377 -0.1607
 9932WAT     H140448   0.788   5.278   6.801 -1.0151  0.8278 -1.3401
 9932WAT     H240449   0.768   5.410   6.833 -2.6346  0.1112  0.7866
 9932WAT    EPW40450   0.772   5.334   6.853 -0.6450 -0.0993 -0.1950
 9933WAT      O40451   1.117   4.936   6.935  0.3293 -0.1370 -0.4934
 9933WAT     H140452   1.167   5.005   6.954 -0.0302  0.1008 -0.4014
 9933WAT     H240453   1.152   4.872   6.982  1.1615 -0.2133 -1.1976
 9933WAT    EPW40454   1.129   4.937   6.945  0.3991 -0.1132 -0.5838
 9934WAT      O40455   2.675   2.971   6.531  0.2330  0.0311 -0.7326
 9934WAT     H140456   2.650   2.952   6.612 -0.9571  0.2909 -1.0257
 9934WAT     H240457   2.743   3.025   6.542  0.0405  0.1147  0.0860
 9934WAT    EPW40458   2.682   2.976   6.544  0.0288  0.0818 -0.6550
 9935WAT      O40459   0.772   6.223   6.676 -0.7115  0.6790 -0.0293
 9935WAT     H140460   0.758   6.181   6.601 -1.1834 -0.4723  0.6689
 9935WAT     H240461   0.785   6.158   6.733 -3.8570  1.2762  1.5909
 9935WAT    EPW40462   0.772   6.207   6.673 -1.2459  0.5971  0.3132
 9936WAT      O40463   1.263   6.812   5.614  0.1344  0.6292  0.0476
 9936WAT     H140464   1.238   6.882   5.568  0.0774  0.2883 -0.4335
 9936WAT     H240465   1.205   6.751   5.592  2.4886 -0.8286 -2.6781
 9936WAT    EPW40466   1.251   6.813   5.604  0.4737  0.3635 -0.4261
 9937WAT      O40467   1.285   3.941   0.398 -0.0297  0.1485  0.0212
 9937WAT     H140468   1.333   3.871   0.378 -1.1694 -0.5788 -0.2510
 9937WAT     H240469   1.262   3.973   0.320  0.1513  0.5910  0.1480
 9937WAT    EPW40470   1.289   3.936   0.384 -0.1713  0.1064 -0.0002
 9938WAT      O40471   0.977   6.952   7.409  0.2449 -0.6644 -0.0893
 9938WAT     H140472   0.907   6.970   7.457  0.9535  0.2630  0.6497
 9938WAT     H240473   0.948   6.956   7.327 -0.1779  1.6767  0.1041
 9938WAT    EPW40474   0.963   6.955   7.404  0.2871 -0.1816  0.0485
 9939WAT      O40475   1.609   5.048   4.181  0.4928  0.4791 -0.3582
 9939WAT     H140476   1.606   4.985   4.120  1.9974 -2.2090  2.1111
 9939WAT     H240477   1.544   5.027   4.235 -0.3396  2.3862 -0.5442
 9939WAT    EPW40478   1.599   5.036   4.180  0.5921  0.3637 -0.0209
 9940WAT      O40479   1.311   3.948   6.441 -0.0306 -0.6010  0.0091
 9940WAT     H140480   1.371   3.920   6.499  0.3441 -0.3661 -0.2647
 9940WAT     H240481   1.236   3.940   6.485  0.1108 -1.6190  0.0978
 9940WAT    EPW40482   1.309   3.943   6.456  0.0457 -0.7167 -0.0183
 9941WAT      O40483   2.097   3.739   6.823  0.4561 -0.2542 -0.0855
 9941WAT     H140484   2.134   3.765   6.749 -0.6319  1.4594 -0.0646
 9941WAT     H240485   2.142   3.781   6.885 -0.4608  0.5721  0.0347
 9941WAT    EPW40486   2.109   3.749   6.822  0.1599  0.1210 -0.0647
 9942WAT      O40487   1.908   7.358   5.914  0.0526  0.6747  0.0242
 9942WAT     H140488   1.852   7.423   5.898  1.5650  1.8431 -0.9325
 9942WAT     H240489   1.862   7.286   5.895 -0.5007  1.6636 -3.0430
 9942WAT    EPW40490   1.893   7.357   5.909  0.1943  0.9933 -0.5702
 9943WAT      O40491   0.998   5.579   5.289 -0.3633 -0.0859 -0.4356
 9943WAT     H140492   1.073   5.581   5.334 -1.0546 -1.0336  0.8470
 9943WAT     H240493   0.991   5.496   5.264 -0.0978  0.3820 -2.2062
 9943WAT    EPW40494   1.008   5.567   5.292 -0.4262 -0.1568 -0.5077
 9944WAT      O40495   0.620   0.223   7.015  0.2818  0.1881 -0.2974
 9944WAT     H140496   0.584   0.290   6.972 -1.0419  0.4049  1.0919
 9944WAT     H240497   0.642   0.257   7.092 -0.5607 -0.9913  0.4979
 9944WAT    EPW40498   0.618   0.238   7.020 -0.0382  0.0459  0.0253
 9945WAT      O40499   1.934   5.411   6.338 -0.1249 -0.0850 -0.4681
 9945WAT     H140500   1.880   5.391   6.403 -0.2954  0.4354 -0.4503
 9945WAT     H240501   1.971   5.485   6.363  0.8214 -0.5788 -0.3502
 9945WAT    EPW40502   1.932   5.419   6.351 -0.0103 -0.0810 -0.4480
 9946WAT      O40503   1.524   6.008   6.683  0.0104  0.5764 -0.5468
 9946WAT     H140504   1.524   6.095   6.693 -0.4056  0.4246  1.0818
 9946WAT     H240505   1.439   5.988   6.682  0.0446  0.3061 -2.5850
 9946WAT    EPW40506   1.511   6.018   6.685 -0.0460  0.5141 -0.6073
 9947WAT      O40507   0.985   0.385   6.746  0.0665  0.5476 -0.2598
 9947WAT     H140508   0.996   0.471   6.732  0.2222  0.3107 -1.7052
 9947WAT     H240509   0.906   0.369   6.714 -0.6884  0.4344  1.5390
 9947WAT    EPW40510   0.975   0.396   6.740 -0.0220  0.4959 -0.2076
 9948WAT      O40511   1.283   5.196   5.123  0.1731  0.2919  0.0509
 9948WAT     H140512   1.265   5.185   5.039 -0.4515  0.4070  0.1634
 9948WAT     H240513   1.210   5.233   5.155  1.5635  3.4421 -0.0204
 9948WAT    EPW40514   1.269   5.200   5.116  0.2863  0.7742  0.0570
 9949WAT      O40515   0.853   7.014   6.355 -0.1327  0.2170 -0.1707
 9949WAT     H140516   0.822   6.951   6.408 -1.0152  1.1524  0.4644
 9949WAT     H240517   0.938   7.015   6.371 -0.2294 -0.2787  0.3986
 9949WAT    EPW40518   0.861   7.004   6.365 -0.2774  0.2819  0.0072
 9950WAT      O40519   1.821   3.935   7.637 -0.0008 -0.2658  0.5756
 9950WAT     H140520   1.765   4.002   7.629 -0.0881 -0.3224  0.7252
 9950WAT     H240521   1.801   3.884   7.569 -0.3938 -0.4825  0.8499
 9950WAT    EPW40522   1.810   3.938   7.626 -0.0717 -0.3062  0.6382
 9951WAT      O40523   1.038   4.604   6.850 -0.4623 -0.4936 -0.3051
 9951WAT     H140524   0.971   4.642   6.809 -0.4327  2.5877  2.1148
 9951WAT     H240525   1.001   4.572   6.923  0.4314  0.0289  0.3970
 9951WAT    EPW40526   1.023   4.605   6.855 -0.3259  0.0388  0.1561
 9952WAT      O40527   2.934   7.473   7.462  0.8217  0.1301 -0.2053
 9952WAT     H140528   2.905   7.509   7.536  0.1769 -1.6386  0.4757
 9952WAT     H240529   3.005   7.428   7.487 -0.8445 -2.6485  0.0116
 9952WAT    EPW40530   2.940   7.471   7.477  0.4803 -0.5416 -0.0726
 9953WAT      O40531   1.822   5.972   7.688 -0.1470  0.0498 -0.2245
 9953WAT     H140532   1.900   5.980   7.649  0.0436  2.1398  0.4608
 9953WAT     H240533   1.837   5.996   7.770 -1.4422  0.1162  0.0167
 9953WAT    EPW40534   1.836   5.977   7.694 -0.3102  0.3684 -0.0877
 9954WAT      O40535   0.627   6.784   5.492  0.4671  0.2500 -0.7804
 9954WAT     H140536   0.596   6.722   5.546  1.6997  0.5776  0.3715
 9954WAT     H240537   0.587   6.856   5.518  2.1963  0.7072  0.8285
 9954WAT    EPW40538   0.617   6.785   5.504  0.9046  0.3659 -0.3726
 9955WAT      O40539   1.346   6.451   4.204 -0.4448  0.2432 -0.9056
 9955WAT     H140540   1.386   6.374   4.220  1.5739  1.2409 -0.8471
 9955WAT     H240541   1.263   6.428   4.193 -0.0530 -1.8683 -0.0683
 9955WAT    EPW40542   1.340   6.436   4.205 -0.0887  0.0786 -0.7733
 9956WAT      O40543   2.168   4.595   5.816 -0.3148 -0.3014  0.2955
 9956WAT     H140544   2.115   4.652   5.777 -2.3210 -0.5839  2.4131
 9956WAT     H240545   2.144   4.518   5.783  0.9597 -0.2051 -0.9906
 9956WAT    EPW40546   2.157   4.592   5.805 -0.4229 -0.3289  0.4183
 9957WAT      O40547   1.473   0.071   7.584 -0.2331 -0.1751  0.1675
 9957WAT     H140548   1.424   0.131   7.544 -0.2488 -1.2206 -1.5111
 9957WAT     H240549   1.416   0.020   7.625 -0.3438  0.1066  0.3600
 9957WAT    EPW40550   1.458   0.072   7.584 -0.2518 -0.2879 -0.0520
 9958WAT      O40551   0.879   5.835   6.568  0.1020  0.0793  0.3414
 9958WAT     H140552   0.894   5.887   6.637 -0.4469  0.3439  0.2681
 9958WAT     H240553   0.817   5.878   6.524  0.2882 -0.2024 -0.1960
 9958WAT    EPW40554   0.872   5.849   6.572  0.0484  0.0768  0.2512
 9959WAT      O40555   1.497   6.108   0.049 -0.5493 -0.1917  1.1258
 9959WAT     H140556   1.490   6.025   0.075 -2.2898  0.0590  1.6348
 9959WAT     H240557   1.455   6.151   0.112 -2.6005  0.7273 -0.7713
 9959WAT    EPW40558   1.490   6.102   0.062 -1.1094 -0.0189  0.9208
 9960WAT      O40559   1.153   3.528   7.318  0.2229  0.0052  0.2357
 9960WAT     H140560   1.204   3.598   7.319 -0.0383  0.1964  1.4381
 9960WAT     H240561   1.192   3.474   7.375  0.1136 -0.5956 -0.2544
 9960WAT    EPW40562   1.166   3.530   7.327  0.1682 -0.0553  0.3409
 9961WAT      O40563   1.289   6.801   7.701 -0.0281 -0.1631 -0.3932
 9961WAT     H140564   1.243   6.739   7.661  0.1948 -1.2948  1.0281
 9961WAT     H240565   1.286   6.779   7.785 -0.1561  1.9226  0.2179
 9961WAT    EPW40566   1.282   6.789   7.708 -0.0141 -0.0222 -0.0929
 9962WAT      O40567   0.646   5.754   5.064  0.6104  0.8640 -0.1298
 9962WAT     H140568   0.577   5.726   5.109  0.3603 -0.0605 -1.0627
 9962WAT     H240569   0.704   5.775   5.126  0.1925 -0.1560  0.6303
 9962WAT    EPW40570   0.645   5.753   5.080  0.5117  0.5767 -0.1553
 9963WAT      O40571   0.917   5.211   4.749  0.2164  0.2234 -0.7850
 9963WAT     H140572   0.836   5.245   4.751  0.7626  1.6669 -1.6912
 9963WAT     H240573   0.969   5.281   4.755  1.4407 -0.7480  0.7705
 9963WAT    EPW40574   0.912   5.226   4.750  0.4779  0.2931 -0.6891
 9964WAT      O40575   1.454   6.950   6.158 -0.0980 -0.0777  0.5667
 9964WAT     H140576   1.539   6.959   6.139  0.1524 -0.9314  1.2352
 9964WAT     H240577   1.418   7.023   6.125  0.6989 -0.2825 -0.8220
 9964WAT    EPW40578   1.462   6.962   6.150  0.0567 -0.2341  0.4603
 9965WAT      O40579   2.931   5.138   5.755 -0.2647  0.5250  0.0629
 9965WAT     H140580   2.899   5.218   5.769 -0.9314  0.3103 -0.1618
 9965WAT     H240581   2.920   5.127   5.669 -1.3664 -0.2863  0.2863
 9965WAT    EPW40582   2.924   5.148   5.745 -0.5260  0.3734  0.0627
 9966WAT      O40583   0.914   0.333   5.597 -0.0115  0.7398 -0.0699
 9966WAT     H140584   0.968   0.377   5.545  0.7735 -1.5036 -1.2713
 9966WAT     H240585   0.858   0.295   5.542 -0.1039 -0.4899  0.8350
 9966WAT    EPW40586   0.913   0.334   5.581  0.0908  0.2268 -0.1137
 9967WAT      O40587   1.385   5.661   3.963  0.3651 -0.1514  0.3980
 9967WAT     H140588   1.428   5.585   3.959 -1.0051 -0.9316  0.1703
 9967WAT     H240589   1.422   5.709   3.900  1.4635 -0.4939  0.7580
 9967WAT    EPW40590   1.397   5.657   3.953  0.3249 -0.3172  0.4175
 9968WAT      O40591   2.691   7.501   5.601 -0.7371 -0.0308 -0.5005
 9968WAT     H140592   2.624   7.502   5.657 -0.1251 -0.0428  0.2523
 9968WAT     H240593   2.720   7.418   5.605 -1.6056 -0.4444 -1.9783
 9968WAT    EPW40594   2.686   7.489   5.610 -0.7750 -0.0936 -0.6076
 9969WAT      O40595   3.505   5.418   7.496 -1.1046  0.5763 -0.3620
 9969WAT     H140596   3.579   5.376   7.515 -0.0197  2.2888 -0.5721
 9969WAT     H240597   3.507   5.423   7.409 -0.4169  2.3424 -0.2799
 9969WAT    EPW40598   3.516   5.412   7.486 -0.8428  1.0901 -0.3809
 9970WAT      O40599   1.456   5.736   7.588  0.4746  0.5061 -1.0103
 9970WAT     H140600   1.443   5.750   7.503  1.4258  0.9318 -1.0995
 9970WAT     H240601   1.391   5.778   7.627  1.2555  2.1944 -1.4355
 9970WAT    EPW40602   1.445   5.744   7.581  0.7305  0.8184 -1.0863
 9971WAT      O40603   1.353   5.418   7.319 -0.4447 -0.1702  0.4887
 9971WAT     H140604   1.329   5.489   7.274 -0.8470 -0.3714  0.3875
 9971WAT     H240605   1.419   5.385   7.272 -0.0519  0.3043  0.6964
 9971WAT    EPW40606   1.359   5.424   7.305 -0.4461 -0.1298  0.5044
 9972WAT      O40607   2.736   4.752   6.495 -0.4251  0.1754 -0.1693
 9972WAT     H140608   2.730   4.733   6.410  1.1257 -1.3131  0.0123
 9972WAT     H240609   2.817   4.729   6.516  0.2735  3.2994  1.0981
 9972WAT    EPW40610   2.747   4.746   6.486 -0.0928  0.4170  0.0447
 9973WAT      O40611   0.986   4.527   7.507 -0.2237 -0.0315  0.2669
 9973WAT     H140612   0.946   4.601   7.484 -1.2935  0.0226  2.0899
 9973WAT     H240613   1.064   4.554   7.535 -0.2294  0.2854 -0.0122
 9973WAT    EPW40614   0.992   4.542   7.508 -0.3826  0.0233  0.4950
 9974WAT      O40615   0.760   7.311   7.410 -0.5421  0.3576 -0.6025
 9974WAT     H140616   0.720   7.305   7.332 -0.7448  0.9476 -0.5499
 9974WAT     H240617   0.737   7.390   7.439  1.3022  1.0761 -0.9335
 9974WAT    EPW40618   0.751   7.322   7.402 -0.2996  0.5509 -0.6436
 9975WAT      O40619   0.838   0.094   7.242  0.0577 -0.1173 -0.2015
 9975WAT     H140620   0.810   0.176   7.248 -1.0587 -0.5178  0.4171
 9975WAT     H240621   0.925   0.101   7.248  0.0350  1.0743 -0.9595
 9975WAT    EPW40622   0.847   0.107   7.244 -0.1106 -0.0004 -0.2221
 9976WAT      O40623   0.821   5.490   5.772  0.2226 -0.1103  0.5832
 9976WAT     H140624   0.801   5.461   5.852 -0.0977 -0.6453  0.3159
 9976WAT     H240625   0.772   5.441   5.720  1.2361 -0.5040 -0.0108
 9976WAT    EPW40626   0.811   5.479   5.776  0.3250 -0.2475  0.4560
 9977WAT      O40627   1.551   7.547   6.251 -0.3284  0.0396 -0.5629
 9977WAT     H140628   1.486   7.547   6.193  0.6323 -0.0797 -1.6657
 9977WAT     H240629   1.582   7.629   6.247 -1.1621  0.4754  0.8743
 9977WAT    EPW40630   1.546   7.559   6.242 -0.3097  0.0863 -0.5135
 9978WAT      O40631   2.009   5.875   4.861 -0.3219  0.1645 -0.3574
 9978WAT     H140632   2.010   5.799   4.904  1.3106  0.3297 -0.0337
 9978WAT     H240633   2.049   5.856   4.786  0.4552  0.7602 -0.1094
 9978WAT    EPW40634   2.015   5.861   4.856  0.0341  0.2769 -0.2730
 9979WAT      O40635   0.459   5.506   3.988  0.0387  0.4044 -0.1163
 9979WAT     H140636   0.469   5.462   4.062  0.5311 -2.2577 -1.6301
 9979WAT     H240637   0.373   5.506   3.975  0.0659 -0.7271 -0.3989
 9979WAT    EPW40638   0.448   5.500   3.997  0.1155 -0.1560 -0.3817
 9980WAT      O40639   3.172   6.597   5.530 -0.0275  0.2267  0.5869
 9980WAT     H140640   3.151   6.671   5.572 -0.5225  0.9718 -0.8945
 9980WAT     H240641   3.106   6.586   5.474  0.1480 -1.2477  0.6395
 9980WAT    EPW40642   3.159   6.606   5.528 -0.0747  0.1189  0.3759
 9981WAT      O40643   2.613   5.547   3.713  0.1045  0.4951  0.1282
 9981WAT     H140644   2.584   5.610   3.766  1.4979  1.0150  0.2977
 9981WAT     H240645   2.681   5.583   3.672  0.1735 -0.4942 -0.6895
 9981WAT    EPW40646   2.619   5.561   3.714  0.3205  0.4257  0.0324
 9982WAT      O40647   1.733   4.033   5.113  0.5608  0.3402  0.6028
 9982WAT     H140648   1.767   4.082   5.177 -0.0786  1.1195  0.3620
 9982WAT     H240649   1.666   4.081   5.084  0.7608 -0.0565 -0.5690
 9982WAT    EPW40650   1.729   4.047   5.118  0.4959  0.3967  0.3941
 9983WAT      O40651   1.392   5.711   4.600 -0.1170 -0.5796 -0.2764
 9983WAT     H140652   1.319   5.717   4.552  0.0390 -0.2554 -0.4724
 9983WAT     H240653   1.368   5.660   4.666 -1.3464  1.7291  1.1740
 9983WAT    EPW40654   1.377   5.704   4.603 -0.2755 -0.1906 -0.0911
 9984WAT      O40655   0.938   5.003   3.864 -0.4394 -0.5684 -0.0677
 9984WAT     H140656   1.013   4.959   3.855  0.2127  0.1182  1.6356
 9984WAT     H240657   0.910   4.981   3.943 -2.7831 -1.8353 -1.1512
 9984WAT    EPW40658   0.945   4.994   3.874 -0.6893 -0.6541  0.0238
 9985WAT      O40659   2.360   6.360   3.211  0.0677  0.2861 -0.2780
 9985WAT     H140660   2.398   6.429   3.176  0.0438  1.0027  1.0419
 9985WAT     H240661   2.388   6.293   3.162 -0.9305  1.3267 -2.3946
 9985WAT    EPW40662   2.369   6.360   3.199 -0.0833  0.5457 -0.3957
 9986WAT      O40663   2.676   5.373   5.140  0.0310  0.1364  0.2201
 9986WAT     H140664   2.605   5.324   5.123  0.6007 -0.7992  0.4395
 9986WAT     H240665   2.674   5.381   5.226  0.0430  0.3414  0.1998
 9986WAT    EPW40666   2.665   5.367   5.150  0.1170  0.0285  0.2495
 9987WAT      O40667   1.288   5.155   4.799  0.1614  0.0506  0.0364
 9987WAT     H140668   1.351   5.144   4.738  0.3154 -0.8545  0.3401
 9987WAT     H240669   1.243   5.224   4.770  2.0869  1.5859  0.4847
 9987WAT    EPW40670   1.291   5.164   4.786  0.4686  0.1437  0.1475
 9988WAT      O40671   0.949   5.214   5.436  0.5470 -0.3975 -0.2498
 9988WAT     H140672   0.872   5.216   5.477  0.5342 -1.6675 -0.1709
 9988WAT     H240673   0.993   5.151   5.478  3.0947  2.6848  2.1344
 9988WAT    EPW40674   0.944   5.205   5.448  0.9214 -0.1298  0.1140
 9989WAT      O40675   1.223   6.493   4.637 -0.3948  0.4563 -0.3437
 9989WAT     H140676   1.139   6.513   4.650 -0.9635 -1.5810 -0.5563
 9989WAT     H240677   1.233   6.418   4.680  2.0850  1.9812  2.0282
 9989WAT    EPW40678   1.212   6.485   4.645 -0.1125  0.3806 -0.0247
 9990WAT      O40679   1.025   0.046   5.140  0.1729 -0.7500  0.5231
 9990WAT     H140680   1.047   0.020   5.059  0.9020  1.1638  0.0484
 9990WAT     H240681   0.942   0.022   5.148  0.1233 -1.0840 -0.7612
 9990WAT    EPW40682   1.016   0.039   5.129  0.2733 -0.5166  0.2632
 9991WAT      O40683   1.572   0.143   5.098  0.5591 -0.1013 -0.0424
 9991WAT     H140684   1.557   0.205   5.039  1.3566 -1.0056 -1.2593
 9991WAT     H240685   1.495   0.135   5.139  0.6885  2.2900  0.8079
 9991WAT    EPW40686   1.558   0.151   5.095  0.6960  0.1184 -0.0965
 9992WAT      O40687   0.615   5.834   4.595 -0.3674 -0.3622 -0.0010
 9992WAT     H140688   0.642   5.898   4.543 -1.4405 -0.8693 -1.2815
 9992WAT     H240689   0.533   5.819   4.567 -2.0201  1.0105  3.5089
 9992WAT    EPW40690   0.607   5.841   4.583 -0.7701 -0.2343  0.3283
 9993WAT      O40691   0.657   6.212   5.092  0.6449 -0.0211 -0.3312
 9993WAT     H140692   0.669   6.290   5.054  0.4188 -0.4276 -1.2608
 9993WAT     H240693   0.649   6.157   5.025 -0.5487 -0.6519  0.2816
 9993WAT    EPW40694   0.658   6.216   5.076  0.4352 -0.1744 -0.3780
 9994WAT      O40695   0.896   5.354   4.327 -0.0865 -0.2789 -0.3258
 9994WAT     H140696   0.972   5.341   4.369  0.7688  0.1429 -1.6851
 9994WAT     H240697   0.871   5.433   4.353 -0.6111 -0.8180  0.9046
 9994WAT    EPW40698   0.903   5.364   4.337 -0.0377 -0.2962 -0.3448
 9995WAT      O40699   2.072   5.485   5.618  0.0344 -0.1938  0.1983
 9995WAT     H140700   2.061   5.398   5.624  0.3357 -0.2412  0.1033
 9995WAT     H240701   2.158   5.493   5.609 -0.0989  0.0587 -0.8599
 9995WAT    EPW40702   2.083   5.473   5.618  0.0592 -0.1635  0.0279
 9996WAT      O40703   1.623   6.239   3.767  0.2543  0.3765 -0.7574
 9996WAT     H140704   1.566   6.248   3.833 -0.5717 -0.5984 -1.3079
 9996WAT     H240705   1.611   6.312   3.720 -0.4175  0.2724 -0.7621
 9996WAT    EPW40706   1.613   6.252   3.770  0.0330  0.2171 -0.8394
 9997WAT      O40707   0.976   3.270   4.992  0.5327  0.8732  0.4218
 9997WAT     H140708   0.911   3.327   5.002 -0.2968 -0.1785  1.1615
 9997WAT     H240709   0.946   3.213   4.935  2.3443  2.5026 -2.4317
 9997WAT    EPW40710   0.962   3.270   4.985  0.6778  0.9585  0.1095
 9998WAT      O40711   0.700   0.009   4.941 -0.1018 -0.1622 -0.1763
 9998WAT     H140712   0.706   0.088   4.905 -4.3082 -0.2273 -1.5074
 9998WAT     H240713   0.726  -0.045   4.878 -1.2925  0.0143 -0.8334
 9998WAT    EPW40714   0.705   0.013   4.927 -0.8991 -0.1458 -0.4700
 9999WAT      O40715   1.267   6.503   5.014 -0.2240  0.7285  0.6810
 9999WAT     H140716   1.237   6.447   4.954 -1.2639 -0.3678  2.1290
 9999WAT     H240717   1.197   6.517   5.065  0.8382  0.8157  2.1842
 9999WAT    EPW40718   1.252   6.497   5.013 -0.2207  0.5795  1.1170
10000WAT      O40719   1.421   7.004   5.081 -0.1764  0.4298  0.5974
10000WAT     H140720   1.404   6.999   4.996  0.6248 -2.4623  0.4844
10000WAT     H240721   1.342   6.996   5.118 -0.3422 -0.1924  0.1212
10000WAT    EPW40722   1.407   7.002   5.074 -0.0826 -0.0893  0.5104
10001WAT      O40723   0.597   5.014   4.605  1.0279  0.1124 -0.2991
10001WAT     H140724   0.633   5.075   4.554  0.6340  0.0136 -0.6995
10001WAT     H240725   0.542   4.972   4.552 -0.1818  0.6856  0.4732
10001WAT    EPW40726   0.594   5.017   4.590  0.7910  0.1825 -0.2442
10002WAT      O40727   1.818   6.380   4.378 -0.3523  0.6501 -0.6466
10002WAT     H140728   1.802   6.460   4.410 -0.3917  1.0545 -1.6383
10002WAT     H240729   1.760   6.373   4.313 -1.0698 -0.6168  0.1000
10002WAT    EPW40730   1.807   6.391   4.373 -0.4641  0.5227 -0.6828
10003WAT      O40731   1.116   4.380   6.375 -0.3189 -0.1043  0.5948
10003WAT     H140732   1.087   4.393   6.456  0.5027 -1.6741  1.1961
10003WAT     H240733   1.190   4.334   6.387 -0.7066 -1.2502 -1.0437
10003WAT    EPW40734   1.123   4.375   6.389 -0.2548 -0.5055  0.4416
10004WAT      O40735   2.221   0.046   3.933 -0.5068 -0.0968  0.5077
10004WAT     H140736   2.245  -0.011   3.870 -1.8576 -0.8621  0.6418
10004WAT     H240737   2.258   0.014   4.005  0.6308  0.4996  0.2049
10004WAT    EPW40738   2.230   0.033   3.934 -0.5383 -0.1218  0.4828
10005WAT      O40739   1.789   6.618   4.527  0.4334 -0.0655 -0.2222
10005WAT     H140740   1.838   6.688   4.511 -0.3294  0.3212 -0.9260
10005WAT     H240741   1.779   6.619   4.613  0.1909  0.8619 -0.2532
10005WAT    EPW40742   1.795   6.628   4.537  0.2849  0.1286 -0.3307
10006WAT      O40743   2.399   2.889   5.780  0.4247  0.5420 -0.1720
10006WAT     H140744   2.360   2.830   5.832 -1.7166  1.5298 -0.5720
10006WAT     H240745   2.440   2.942   5.836  1.3478 -0.5800  0.2536
10006WAT    EPW40746   2.400   2.888   5.796  0.2448  0.5222 -0.1682
10007WAT      O40747   0.843   5.831   5.236  0.0200  0.3159  0.4592
10007WAT     H140748   0.897   5.767   5.259 -0.3833 -0.3474 -0.3595
10007WAT     H240749   0.870   5.900   5.283  2.2122  0.2901 -0.6586
10007WAT    EPW40750   0.855   5.832   5.246  0.2843  0.2141  0.1732
10008WAT      O40751   1.991   0.193   4.140 -0.3958 -0.6494  0.4926
10008WAT     H140752   1.991   0.110   4.168 -0.4294 -0.5956  0.6526
10008WAT     H240753   1.925   0.195   4.082  1.3706 -1.4597 -1.6913
10008WAT    EPW40754   1.981   0.181   4.136 -0.1398 -0.7611  0.1936
10009WAT      O40755   1.300   4.420   5.905  0.0550  0.1686  0.0644
10009WAT     H140756   1.226   4.431   5.861  0.4296  2.9475  0.0071
10009WAT     H240757   1.277   4.439   5.987  0.5902  0.4454  0.1470
10009WAT    EPW40758   1.285   4.424   5.911  0.1894  0.6200  0.0682
10010WAT      O40759   2.711   6.765   4.210 -0.0578  0.5869  0.0722
10010WAT     H140760   2.685   6.687   4.180 -0.7061  1.2534 -1.1590
10010WAT     H240761   2.687   6.763   4.294  2.0252 -1.4127  0.7200
10010WAT    EPW40762   2.703   6.753   4.218  0.1541  0.3900 -0.0140
10011WAT      O40763   2.050   5.104   2.616 -0.1906 -0.2901 -0.8606
10011WAT     H140764   2.038   5.019   2.628  1.8715 -0.3278  2.2163
10011WAT     H240765   2.135   5.116   2.634 -0.3450  2.3951 -1.3997
10011WAT    EPW40766   2.061   5.093   2.620  0.0912  0.1010 -0.4857
10012WAT      O40767   2.138   7.220   4.881  0.0778 -0.3721 -0.2041
10012WAT     H140768   2.219   7.188   4.875 -0.2955 -1.1062 -2.2408
10012WAT     H240769   2.104   7.206   4.802 -2.0730 -0.1192  0.5863
10012WAT    EPW40770   2.145   7.214   4.868 -0.2951 -0.4432 -0.3882
10013WAT      O40771   1.986   6.171   4.974 -0.5339 -0.0756 -0.0351
10013WAT     H140772   1.924   6.229   4.954  0.0547  0.6765  0.2639
10013WAT     H240773   1.942   6.097   4.986 -1.6351  0.8136  1.9499
10013WAT    EPW40774   1.971   6.168   4.973 -0.6096  0.1668  0.3023
10014WAT      O40775   2.356   5.735   4.044  0.3280 -1.0088  0.1691
10014WAT     H140776   2.307   5.801   4.071  0.2554 -0.1818 -1.8107
10014WAT     H240777   2.412   5.723   4.110 -1.4724 -0.9394  1.8040
10014WAT    EPW40778   2.357   5.743   4.058  0.0513 -0.8764  0.1181
10015WAT      O40779   1.182   5.002   4.280 -0.0056  0.2182 -0.1901
10015WAT     H140780   1.116   5.025   4.332  0.2017 -1.3398  0.8530
10015WAT     H240781   1.205   5.077   4.242 -0.9988  1.1958  1.0168
10015WAT    EPW40782   1.176   5.016   4.282 -0.1217  0.1324  0.1423
10016WAT      O40783   1.206   6.764   3.113  0.3702 -0.0185  0.4265
10016WAT     H140784   1.256   6.813   3.062  0.3361 -0.7681 -0.3453
10016WAT     H240785   1.250   6.762   3.189  0.1155  1.6085  0.6681
10016WAT    EPW40786   1.220   6.771   3.117  0.3276  0.1111  0.3482
10017WAT      O40787   2.254   4.749   3.816  0.0334  0.0899 -0.5708
10017WAT     H140788   2.329   4.707   3.803 -1.1525 -2.2560 -0.3251
10017WAT     H240789   2.236   4.733   3.900 -0.6284  0.8545 -0.5536
10017WAT    EPW40790   2.262   4.740   3.827 -0.2396 -0.1437 -0.5319
10018WAT      O40791   0.639   6.068   5.330  0.1524 -0.0039  0.5570
10018WAT     H140792   0.590   5.996   5.335  1.3358 -0.8487  0.1496
10018WAT     H240793   0.624   6.097   5.249  1.3181 -0.9996 -0.0354
10018WAT    EPW40794   0.629   6.062   5.318  0.4994 -0.2758  0.4093
10019WAT      O40795   0.599   7.068   5.077 -0.1707  0.0297  0.1758
10019WAT     H140796   0.657   7.084   5.141  1.5655  0.7980 -1.4821
10019WAT     H240797   0.522   7.087   5.113  0.7689  0.7003  1.9413
10019WAT    EPW40798   0.596   7.073   5.092  0.2245  0.2422  0.1917
10020WAT      O40799   1.545   5.460   3.900 -0.5671  0.2469 -0.1595
10020WAT     H140800   1.503   5.384   3.906 -0.5551  0.3050  0.8024
10020WAT     H240801   1.610   5.453   3.958  1.2377 -0.1094 -2.1082
10020WAT    EPW40802   1.548   5.448   3.909 -0.2987  0.2029 -0.3053
10021WAT      O40803   0.916   5.719   4.164 -0.2763 -0.4378  0.0755
10021WAT     H140804   0.892   5.674   4.234  0.2209 -0.7303  0.0665
10021WAT     H240805   0.992   5.683   4.142 -0.4028 -0.3088 -0.5836
10021WAT    EPW40806   0.924   5.707   4.171 -0.2215 -0.4619 -0.0232
10022WAT      O40807   1.397   5.190   3.887  0.1865 -0.0491 -0.8425
10022WAT     H140808   1.459   5.138   3.852  2.5559  1.6819  0.4675
10022WAT     H240809   1.349   5.213   3.818 -0.0058 -2.6902 -1.6903
10022WAT    EPW40810   1.399   5.186   3.871  0.5081 -0.1835 -0.7742
10023WAT      O40811   1.758   5.185   5.408 -0.0884 -0.2018 -0.2898
10023WAT     H140812   1.789   5.267   5.413  1.2439 -0.7267  0.8382
10023WAT     H240813   1.820   5.144   5.362 -0.2272 -0.7872  0.0425
10023WAT    EPW40814   1.772   5.191   5.402  0.0879 -0.3658 -0.0741
10024WAT      O40815   0.729   4.730   4.973 -0.3596 -0.4098 -0.2932
10024WAT     H140816   0.785   4.663   4.983  1.6677  1.3041  0.7751
10024WAT     H240817   0.745   4.757   4.891 -1.4350 -1.3735 -0.8543
10024WAT    EPW40818   0.740   4.724   4.962 -0.2190 -0.2990 -0.2183
10025WAT      O40819   1.872   4.815   4.557  0.2923 -0.5639 -0.0061
10025WAT     H140820   1.870   4.731   4.580 -0.8282 -0.3824  0.6267
10025WAT     H240821   1.873   4.813   4.470 -1.1873 -1.2399 -0.0332
10025WAT    EPW40822   1.872   4.802   4.547 -0.0918 -0.6369  0.0834
10026WAT      O40823   1.351   5.988   4.040 -0.3832  0.1854 -0.3534
10026WAT     H140824   1.354   5.936   4.110  0.1734  0.6136 -0.0424
10026WAT     H240825   1.348   5.932   3.973 -1.4417 -0.2261  0.0182
10026WAT    EPW40826   1.351   5.972   4.041 -0.4574  0.1879 -0.2526
10027WAT      O40827   0.686   5.249   4.488  0.2791  0.6541 -0.0478
10027WAT     H140828   0.758   5.283   4.451 -0.0355  2.1213  0.6451
10027WAT     H240829   0.675   5.297   4.560 -0.5445 -0.5433  0.6550
10027WAT    EPW40830   0.695   5.261   4.493  0.1109  0.6940  0.1584
10028WAT      O40831   1.442   4.137   4.741  0.1598 -0.0572  0.2303
10028WAT     H140832   1.491   4.131   4.669 -0.7636  2.6302 -0.7392
10028WAT     H240833   1.411   4.218   4.738 -2.1076 -0.7349  2.2711
10028WAT    EPW40834   1.444   4.148   4.730 -0.3115  0.2397  0.3886
10029WAT      O40835   1.389   3.461   5.308 -0.2869 -0.1274 -0.0599
10029WAT     H140836   1.363   3.474   5.390  0.4981 -1.6629  0.4645
10029WAT     H240837   1.315   3.462   5.263 -0.8267 -0.2552  0.8026
10029WAT    EPW40838   1.374   3.463   5.313 -0.2507 -0.3731  0.1449
10030WAT      O40839   0.712   5.237   5.583 -0.2728 -0.0131 -0.4598
10030WAT     H140840   0.750   5.216   5.659  1.3095  0.9540 -0.9349
10030WAT     H240841   0.693   5.160   5.548  1.2008 -0.5626 -0.1349
10030WAT    EPW40842   0.715   5.222   5.589  0.1786  0.0486 -0.4820
10031WAT      O40843   1.901   4.305   5.149  0.1370 -0.2281 -0.7302
10031WAT     H140844   1.852   4.302   5.222  0.4605 -1.6481 -0.5453
10031WAT     H240845   1.842   4.315   5.086 -0.5368 -2.7046 -0.5847
10031WAT    EPW40846   1.885   4.306   5.151  0.0853 -0.8037 -0.6814
10032WAT      O40847   3.012   6.174   3.678  0.2818  0.2466  0.0072
10032WAT     H140848   3.077   6.218   3.716 -0.1561 -0.1673  1.2962
10032WAT     H240849   3.037   6.167   3.595  2.1759 -0.4133  0.5862
10032WAT    EPW40850   3.025   6.179   3.671  0.4969  0.0879  0.2831
10033WAT      O40851   1.386   5.489   5.801 -0.0599  0.5452 -0.1188
10033WAT     H140852   1.429   5.552   5.758 -0.2438  0.3982 -0.5185
10033WAT     H240853   1.306   5.522   5.810 -0.2619  0.2088 -0.6702
10033WAT    EPW40854   1.380   5.503   5.796 -0.1169  0.4738 -0.2593
10034WAT      O40855   1.936   4.602   5.319 -0.0024  0.3339  0.1113
10034WAT     H140856   1.971   4.546   5.376  0.8825  0.9256  0.1595
10034WAT     H240857   1.878   4.552   5.276  1.1433 -0.7703 -0.2142
10034WAT    EPW40858   1.932   4.586   5.321  0.2976  0.2582  0.0703
10035WAT      O40859   1.315   6.989   4.790  0.1835  0.3480 -0.6014
10035WAT     H140860   1.285   6.910   4.811 -0.0748  0.1116 -1.7657
10035WAT     H240861   1.336   6.981   4.705  0.5556  1.4088 -0.6277
10035WAT    EPW40862   1.314   6.976   4.781  0.2003  0.4698 -0.7772
10036WAT      O40863   1.569   5.784   3.785 -0.4546  0.0170 -0.4186
10036WAT     H140864   1.549   5.866   3.760  2.1411  0.9359  0.1239
10036WAT     H240865   1.629   5.760   3.726 -1.6696 -1.8103 -0.9633
10036WAT    EPW40866   1.575   5.793   3.773 -0.2507 -0.1172 -0.4189
10037WAT      O40867   1.182   6.588   6.156 -0.3037 -0.1445  0.3539
10037WAT     H140868   1.214   6.660   6.119 -1.1810 -0.4828 -1.1492
10037WAT     H240869   1.143   6.617   6.229  1.6532  0.5133  1.2006
10037WAT    EPW40870   1.181   6.603   6.162 -0.1442 -0.0973  0.2569
10038WAT      O40871   2.022   5.467   3.864 -0.1010 -0.0750  0.8983
10038WAT     H140872   2.086   5.477   3.806  0.5168 -0.7608  1.4510
10038WAT     H240873   1.952   5.451   3.814  0.1022  0.8532  0.2872
10038WAT    EPW40874   2.021   5.466   3.848  0.0203 -0.0392  0.8897
10039WAT      O40875   0.723   4.347   5.518 -0.2363  0.5825 -0.5032
10039WAT     H140876   0.720   4.421   5.564  1.1057  0.4327 -0.1439
10039WAT     H240877   0.744   4.287   5.578  2.5018  0.5296 -1.4174
10039WAT    EPW40878   0.725   4.349   5.534  0.3664  0.5526 -0.5852
10040WAT      O40879   2.294   5.812   5.385  0.5157 -0.7530  1.1718
10040WAT     H140880   2.339   5.861   5.442 -1.0047  0.6573  1.2404
10040WAT     H240881   2.214   5.810   5.419 -0.7528  1.0502 -1.3819
10040WAT    EPW40882   2.289   5.819   5.399  0.1037 -0.2783  0.8047
10041WAT      O40883   2.579   5.739   3.310  0.0374  0.3149 -0.4263
10041WAT     H140884   2.654   5.694   3.303  0.4783  1.2004 -1.7297
10041WAT     H240885   2.518   5.677   3.308  0.7141 -0.4072  0.4838
10041WAT    EPW40886   2.581   5.723   3.309  0.2024  0.3390 -0.4844
10042WAT      O40887   1.550   0.437   2.212 -0.8193  0.0713 -0.1182
10042WAT     H140888   1.592   0.434   2.136  0.1883  1.7290  0.3098
10042WAT     H240889   1.549   0.354   2.238  0.7649 -0.2530 -0.9517
10042WAT    EPW40890   1.556   0.425   2.205 -0.4364  0.2683 -0.1781
10043WAT      O40891   0.849   6.001   5.501 -0.6538  0.3350  0.0632
10043WAT     H140892   0.787   6.032   5.448 -0.3624  1.1088  0.1662
10043WAT     H240893   0.830   5.916   5.506 -1.8876  0.6032  0.3272
10043WAT    EPW40894   0.837   5.993   5.494 -0.7930  0.4889  0.1174
10044WAT      O40895   2.583   6.518   5.405  0.4120 -1.0333 -0.1251
10044WAT     H140896   2.642   6.497   5.343  1.8049  1.7388  0.1337
10044WAT     H240897   2.627   6.506   5.479  1.2639  2.2919  0.0421
10044WAT    EPW40898   2.598   6.513   5.407  0.7436 -0.1326 -0.0622
10045WAT      O40899   2.936   4.608   4.233  0.4876 -0.1163 -0.2176
10045WAT     H140900   2.934   4.564   4.308 -0.2835 -0.5868 -0.4976
10045WAT     H240901   2.997   4.669   4.246  1.9905 -1.5871 -0.0088
10045WAT    EPW40902   2.945   4.611   4.246  0.5957 -0.4031 -0.2281
10046WAT      O40903   1.192   6.139   5.440  0.1800 -0.6030  0.3334
10046WAT     H140904   1.214   6.189   5.509  1.2380  0.1724 -0.5114
10046WAT     H240905   1.110   6.162   5.424  0.7071  1.1060 -0.1725
10046WAT    EPW40906   1.183   6.150   5.448  0.4141 -0.2360  0.1339
10047WAT      O40907   2.575   5.651   5.313  0.2925  0.0108 -0.3034
10047WAT     H140908   2.526   5.584   5.339 -1.3207  1.2571  0.0429
10047WAT     H240909   2.627   5.666   5.381  0.2406 -0.4972 -0.1434
10047WAT    EPW40910   2.575   5.643   5.327  0.0465  0.1199 -0.2286
10048WAT      O40911   1.182   5.433   4.474  0.3336 -0.2471 -0.0980
10048WAT     H140912   1.264   5.422   4.446  0.8863 -0.9010  1.6385
10048WAT     H240913   1.163   5.515   4.449  2.5250  0.9265  1.7348
10048WAT    EPW40914   1.192   5.444   4.466  0.7389 -0.1703  0.4293
10049WAT      O40915   1.167   0.228   4.474  0.3279  0.7555  0.7361
10049WAT     H140916   1.228   0.230   4.411 -0.8531  0.2553 -0.4642
10049WAT     H240917   1.131   0.149   4.465 -0.0260  0.7654  1.9109
10049WAT    EPW40918   1.171   0.216   4.463  0.1012  0.6831  0.7323
10050WAT      O40919   2.595   4.880   2.532  0.3672 -0.6393  0.0400
10050WAT     H140920   2.641   4.926   2.590 -0.3131  2.0744 -1.4054
10050WAT     H240921   2.656   4.851   2.476  0.9052 -2.4209  1.4558
10050WAT    EPW40922   2.611   4.882   2.532  0.3462 -0.5016  0.0356
10051WAT      O40923   0.828   4.743   6.524  0.0171  0.0601  0.0605
10051WAT     H140924   0.760   4.794   6.502  0.4277  1.1070  1.1200
10051WAT     H240925   0.879   4.796   6.571  1.4498 -0.7827 -0.4830
10051WAT    EPW40926   0.825   4.758   6.528  0.2894  0.0902  0.1367
10052WAT      O40927   1.818   6.511   6.279  0.1592 -0.3975  0.1870
10052WAT     H140928   1.905   6.518   6.287  0.0738 -0.9356  2.0446
10052WAT     H240929   1.788   6.533   6.358 -1.4062 -0.2021 -0.4328
10052WAT    EPW40930   1.826   6.515   6.292 -0.0847 -0.4481  0.3699
10053WAT      O40931   0.527   4.892   4.350 -0.4782 -0.0707 -0.1875
10053WAT     H140932   0.590   4.836   4.373  1.1725  0.7658 -2.2737
10053WAT     H240933   0.467   4.842   4.312 -1.0868 -0.8734  1.7265
10053WAT    EPW40934   0.527   4.876   4.348 -0.3243 -0.0657 -0.2130
10054WAT      O40935   1.321   3.654   4.821  0.3727  0.0994 -0.0907
10054WAT     H140936   1.294   3.571   4.829  0.2821  0.2188  1.0506
10054WAT     H240937   1.332   3.664   4.735 -1.8549 -0.3874 -0.4976
10054WAT    EPW40938   1.318   3.643   4.810  0.0303  0.0451  0.0178
10055WAT      O40939   1.469   6.130   5.372 -0.0389 -0.5393  0.3136
10055WAT     H140940   1.393   6.166   5.396  0.3886  0.1305  0.7327
10055WAT     H240941   1.499   6.095   5.446 -0.8365 -2.5522 -0.2697
10055WAT    EPW40942   1.462   6.130   5.386 -0.0936 -0.7377  0.2893
10056WAT      O40943   0.797   7.113   5.261 -0.0378 -0.1762 -0.0725
10056WAT     H140944   0.869   7.155   5.234  0.2621  0.5916  1.7441
10056WAT     H240945   0.828   7.041   5.298 -0.4124 -1.0271 -1.3462
10056WAT    EPW40946   0.813   7.109   5.263 -0.0488 -0.1885  0.0077
10057WAT      O40947   2.025   4.340   5.739 -0.2208  0.2340  0.3359
10057WAT     H140948   1.943   4.311   5.739 -0.7728  1.6432  1.7909
10057WAT     H240949   2.066   4.285   5.794 -0.6088  0.5163  0.9238
10057WAT    EPW40950   2.019   4.327   5.747 -0.3597  0.4839  0.6376
10058WAT      O40951   1.086   7.316   6.216  0.1772  0.6071 -0.3952
10058WAT     H140952   1.047   7.373   6.162 -2.3492  1.0748  1.7198
10058WAT     H240953   1.047   7.240   6.196  1.4182  0.1392 -1.1898
10058WAT    EPW40954   1.074   7.313   6.205 -0.0127  0.6071 -0.2002
10059WAT      O40955   1.772   3.942   5.743  0.2298 -0.5016  0.0589
10059WAT     H140956   1.758   4.024   5.770  0.3620 -0.3798 -0.2442
10059WAT     H240957   1.701   3.899   5.772 -0.0876 -0.1781 -0.2241
10059WAT    EPW40958   1.759   3.948   5.751  0.2025 -0.4358 -0.0277
10060WAT      O40959   1.988   5.574   4.843  0.1454 -0.2939  0.1628
10060WAT     H140960   1.976   5.558   4.928  1.0136  0.4017  0.4364
10060WAT     H240961   2.071   5.551   4.830  1.1110  2.7173  0.3177
10060WAT    EPW40962   1.999   5.568   4.853  0.4163  0.2537  0.2261
10061WAT      O40963   0.992   7.333   5.799  0.5427  0.7336 -0.2408
10061WAT     H140964   0.957   7.257   5.774  0.7564  0.7784 -0.6830
10061WAT     H240965   0.961   7.345   5.880 -0.7406  0.9343 -0.7406
10061WAT    EPW40966   0.982   7.324   5.808  0.3847  0.7699 -0.3799
10062WAT      O40967   2.076   5.001   6.614 -0.0345  0.4344  0.6467
10062WAT     H140968   2.139   4.995   6.674 -1.1464 -0.0629  1.8187
10062WAT     H240969   2.102   5.066   6.562  2.0105 -0.5494  0.3645
10062WAT    EPW40970   2.089   5.010   6.615  0.1033  0.2156  0.7781
10063WAT      O40971   1.386   0.203   6.379 -0.7968  0.1574 -0.2220
10063WAT     H140972   1.463   0.164   6.392 -0.7841 -0.5578 -2.2014
10063WAT     H240973   1.335   0.168   6.440 -0.1870 -1.2760 -0.5021
10063WAT    EPW40974   1.390   0.192   6.390 -0.7048 -0.1600 -0.5558
10064WAT      O40975   1.967   5.174   5.901  0.2823  0.2080 -0.3462
10064WAT     H140976   1.904   5.113   5.907 -0.4208  0.8622 -0.9901
10064WAT     H240977   1.937   5.239   5.951  0.8832  0.1599  0.0811
10064WAT    EPW40978   1.953   5.174   5.909  0.2672  0.2975 -0.3782
10065WAT      O40979   0.566   5.833   5.455 -0.4862 -0.5990 -0.0137
10065WAT     H140980   0.509   5.773   5.427  0.8752 -1.6917 -0.5540
10065WAT     H240981   0.630   5.786   5.489 -0.2438  0.6276  1.3093
10065WAT    EPW40982   0.567   5.817   5.456 -0.2493 -0.5792  0.1019
10066WAT      O40983   1.944   5.531   5.123 -0.0845 -0.8894 -0.0184
10066WAT     H140984   1.907   5.452   5.129 -1.9959  0.0085  0.6829
10066WAT     H240985   2.022   5.519   5.160  0.1506 -2.7021 -0.9654
10066WAT    EPW40986   1.950   5.518   5.129 -0.3321 -1.0245 -0.0547
10067WAT      O40987   0.964   6.755   4.481  0.7144  0.8460 -0.8117
10067WAT     H140988   1.029   6.752   4.423  0.5341  0.2406 -0.9902
10067WAT     H240989   0.986   6.822   4.533  2.6928 -0.7804  0.5746
10067WAT    EPW40990   0.977   6.765   4.480  0.9800  0.5163 -0.6333
10068WAT      O40991   1.837   7.502   5.068  0.0581 -0.0988 -0.5267
10068WAT     H140992   1.774   7.512   5.128 -0.5937 -2.3872 -0.7371
10068WAT     H240993   1.808   7.549   5.001 -0.5914  0.2436 -0.0247
10068WAT    EPW40994   1.823   7.510   5.067 -0.1342 -0.3863 -0.4836
10069WAT      O40995   1.452   5.879   4.813  0.0824  0.0524 -0.2914
10069WAT     H140996   1.526   5.847   4.847 -0.7473 -0.8349  0.7553
10069WAT     H240997   1.420   5.812   4.768 -0.5772  0.0905  0.1062
10069WAT    EPW40998   1.458   5.864   4.812 -0.1376 -0.0730 -0.0780
10070WAT      O40999   1.061   2.566   4.729  0.4680 -0.2838 -1.1500
10070WAT     H141000   1.020   2.643   4.725 -1.7159 -1.0280  2.3948
10070WAT     H241001   0.997   2.508   4.719  1.1410 -1.5185  0.9596
10070WAT    EPW41002   1.046   2.569   4.727  0.2448 -0.5761 -0.3147
10071WAT      O41003   0.729   5.657   3.649  0.4811  0.0839  0.3918
10071WAT     H141004   0.760   5.686   3.726  0.2491 -1.7998  1.2376
10071WAT     H241005   0.784   5.594   3.627 -0.7513 -0.9507  0.1752
10071WAT    EPW41006   0.742   5.652   3.657  0.2648 -0.3472  0.4848
10072WAT      O41007   2.513   4.697   6.115  0.1320  0.1949 -0.1856
10072WAT     H141008   2.593   4.684   6.147 -0.5961 -1.0817  1.2374
10072WAT     H241009   2.494   4.622   6.075 -0.9735 -0.1864  0.9778
10072WAT    EPW41010   2.522   4.684   6.114 -0.1389 -0.0500  0.1965
10073WAT      O41011   1.898   5.396   6.063  0.1673 -0.5981  0.3588
10073WAT     H141012   1.906   5.469   6.015  0.6280 -1.1256 -0.3955
10073WAT     H241013   1.908   5.424   6.145 -0.6797  0.3389  0.1609
10073WAT    EPW41014   1.901   5.411   6.068  0.1102 -0.5376  0.2181
10074WAT      O41015   0.489   5.613   5.276 -0.1089  0.6627 -0.2632
10074WAT     H141016   0.549   5.577   5.328 -1.7651  1.0200  2.0495
10074WAT     H241017   0.462   5.547   5.227  1.1941  0.2028 -0.3917
10074WAT    EPW41018   0.494   5.598   5.276 -0.1611  0.6476  0.0594
10075WAT      O41019   1.333   3.683   4.025  0.1760  0.0922 -0.2884
10075WAT     H141020   1.406   3.636   4.013  0.3625 -0.1355  1.4312
10075WAT     H241021   1.300   3.650   4.099  0.2791  2.6045  0.9850
10075WAT    EPW41022   1.339   3.671   4.034  0.2188  0.4297  0.1538
10076WAT      O41023   1.331   6.061   4.960 -0.1184 -0.0512  0.3610
10076WAT     H141024   1.382   6.007   4.916  0.0424  0.0936  0.3679
10076WAT     H241025   1.346   6.041   5.044  1.6083  1.4494  0.4898
10076WAT    EPW41026   1.340   6.050   4.966  0.1604  0.1919  0.3810
10077WAT      O41027   1.773   6.923   4.228  0.8550 -0.3120 -0.4078
10077WAT     H141028   1.730   6.848   4.216  0.2331  0.0372 -0.4540
10077WAT     H241029   1.710   6.977   4.256  1.4031  0.0480  0.1390
10077WAT    EPW41030   1.757   6.920   4.230  0.8441 -0.2072 -0.3338
10078WAT      O41031   2.108   6.467   4.600 -0.2752 -0.2350 -0.0577
10078WAT     H141032   2.040   6.425   4.635  0.4177 -1.1518  0.2335
10078WAT     H241033   2.071   6.531   4.553 -1.2999 -0.3062  0.6232
10078WAT    EPW41034   2.093   6.470   4.598 -0.3242 -0.3809  0.0859
10079WAT      O41035   2.544   4.600   1.860  0.7133 -0.2528 -0.2997
10079WAT     H141036   2.532   4.683   1.836 -0.2776  0.1125  1.3209
10079WAT     H241037   2.601   4.606   1.926  0.2393 -0.7879  0.1655
10079WAT    EPW41038   2.550   4.613   1.866  0.4969 -0.2779  0.0084
10080WAT      O41039   1.494   7.504   4.064  0.1864 -0.3335  0.4613
10080WAT     H141040   1.418   7.537   4.091 -0.6101 -2.2402  0.7284
10080WAT     H241041   1.548   7.572   4.066 -1.8618  1.5071 -1.3237
10080WAT    EPW41042   1.491   7.519   4.068 -0.2338 -0.3432  0.2371
10081WAT      O41043   2.050   7.270   4.150  1.1504 -0.1978 -0.2726
10081WAT     H141044   1.993   7.285   4.086  1.3344 -1.1668 -0.6740
10081WAT     H241045   2.018   7.199   4.189 -0.0058  1.3902  1.9339
10081WAT    EPW41046   2.037   7.262   4.146  1.0068 -0.1063 -0.0059
10082WAT      O41047   2.638   6.715   4.693  0.0747  0.2523  0.0918
10082WAT     H141048   2.594   6.641   4.703 -0.8683  0.5320 -1.6861
10082WAT     H241049   2.716   6.688   4.662 -0.3506  0.0005 -0.7858
10082WAT    EPW41050   2.643   6.700   4.690 -0.1274  0.2565 -0.3005
10083WAT      O41051   1.077   4.884   3.210  0.2452 -0.4032  0.3617
10083WAT     H141052   1.098   4.914   3.289 -1.8726  1.3921  0.2988
10083WAT     H241053   0.997   4.915   3.196  0.5404 -0.7063 -2.4886
10083WAT    EPW41054   1.069   4.893   3.220 -0.0241 -0.1828 -0.0687
10084WAT      O41055   0.559   6.313   3.080  0.0566 -0.1168 -0.2499
10084WAT     H141056   0.477   6.285   3.092 -0.2655  0.6169 -0.7053
10084WAT     H241057   0.562   6.388   3.124  0.3161  0.1317 -0.6857
10084WAT    EPW41058   0.547   6.320   3.088  0.0474  0.0283 -0.3816
10085WAT      O41059   1.603   4.904   3.915 -0.2673 -0.2956  0.1419
10085WAT     H141060   1.537   4.847   3.913 -1.3194  0.8958 -0.2856
10085WAT     H241061   1.586   4.958   3.849  1.4361 -0.2670 -0.3009
10085WAT    EPW41062   1.591   4.904   3.905 -0.1711 -0.1154  0.0133
10086WAT      O41063   2.069   6.231   5.444  0.1400  0.4894  0.2819
10086WAT     H141064   2.078   6.221   5.358  0.9713  1.1864  0.2762
10086WAT     H241065   2.018   6.302   5.451 -2.2640 -1.1153  0.3667
10086WAT    EPW41066   2.063   6.240   5.432 -0.0923  0.3553  0.2936
10087WAT      O41067   1.261   4.848   6.086 -0.2319 -0.2632  0.0840
10087WAT     H141068   1.301   4.826   6.161 -1.6909  0.7033  1.1970
10087WAT     H241069   1.325   4.885   6.039  0.5879 -0.3680  1.0810
10087WAT    EPW41070   1.277   4.850   6.090 -0.3263 -0.1359  0.3957
10088WAT      O41071   1.924   6.446   3.965  0.1461 -0.2892  0.3161
10088WAT     H141072   1.874   6.479   3.901  0.6689  1.8438  0.9075
10088WAT     H241073   1.932   6.513   4.021  2.0082 -1.2039  1.2345
10088WAT    EPW41074   1.918   6.461   3.964  0.4984 -0.1092  0.5391
10089WAT      O41075   2.195   6.925   5.109  0.6261  0.1775  0.2884
10089WAT     H141076   2.170   6.845   5.133  1.2674 -0.0903  0.0786
10089WAT     H241077   2.126   6.955   5.063  0.5545 -0.4203  0.0006
10089WAT    EPW41078   2.181   6.918   5.106  0.7102  0.0497  0.2149
10090WAT      O41079   2.566   6.459   4.675 -0.6962 -0.1381 -0.0248
10090WAT     H141080   2.513   6.441   4.742  0.0147  0.6853  0.7984
10090WAT     H241081   2.532   6.414   4.609 -3.5632  1.7752 -0.0381
10090WAT    EPW41082   2.553   6.450   4.675 -1.0147  0.2661  0.0948
10091WAT      O41083   2.054   4.993   0.604  0.2945  0.0270  0.0385
10091WAT     H141084   2.011   4.918   0.590  0.5361 -0.0430 -0.3407
10091WAT     H241085   2.087   4.983   0.684  0.8560 -0.5344 -0.2572
10091WAT    EPW41086   2.052   4.980   0.614  0.4131 -0.0663 -0.0612
10092WAT      O41087   2.153   4.715   4.082  0.4422  0.4569 -0.0156
10092WAT     H141088   2.075   4.684   4.059  0.7469  0.0725 -0.5718
10092WAT     H241089   2.198   4.643   4.104  0.7974  0.6109 -0.2176
10092WAT    EPW41090   2.148   4.700   4.082  0.5397  0.4228 -0.1276
10093WAT      O41091   1.595   6.796   5.180 -0.3818  0.0307  0.5817
10093WAT     H141092   1.579   6.877   5.152  0.3947 -0.1178 -0.3354
10093WAT     H241093   1.671   6.775   5.142 -1.5953 -1.9329 -0.9989
10093WAT    EPW41094   1.604   6.805   5.170 -0.4464 -0.2813  0.2127
10094WAT      O41095   0.940   6.286   6.265  0.7994  0.1657  0.3042
10094WAT     H141096   0.992   6.303   6.197  2.7173 -0.7967  1.4139
10094WAT     H241097   0.914   6.204   6.251 -1.2771  0.9432 -0.7097
10094WAT    EPW41098   0.944   6.277   6.253  0.7760  0.1384  0.3184
10095WAT      O41099   0.795   4.963   5.537 -0.5586  0.7316 -0.5176
10095WAT     H141100   0.808   4.934   5.618 -2.6197  1.0269 -0.0079
10095WAT     H241101   0.875   4.979   5.507  0.2557  0.8738  1.5635
10095WAT    EPW41102   0.808   4.961   5.544 -0.7427  0.7962 -0.1349
10096WAT      O41103   2.909   6.906   3.510 -0.6534 -0.1839 -0.3606
10096WAT     H141104   2.929   6.880   3.591  0.4478  0.7491 -0.3038
10096WAT     H241105   2.966   6.862   3.460 -1.3662 -0.7991 -0.6558
10096WAT    EPW41106   2.921   6.895   3.514 -0.5960 -0.1369 -0.3958
10097WAT      O41107   1.756   5.249   4.315 -0.2950 -0.7102 -0.0176
10097WAT     H141108   1.833   5.210   4.331  0.2362 -0.2922 -1.3426
10097WAT     H241109   1.711   5.188   4.271 -1.6149 -1.7433  2.5973
10097WAT    EPW41110   1.761   5.234   4.311 -0.4115 -0.8010  0.1730
10098WAT      O41111   1.930   5.424   7.004  0.2812  0.2672 -0.2453
10098WAT     H141112   1.950   5.490   7.057  3.2202 -0.6959  0.0041
10098WAT     H241113   1.935   5.354   7.055  0.7208 -0.4577 -1.2394
10098WAT    EPW41114   1.933   5.424   7.019  0.7803  0.0179 -0.3553
10099WAT      O41115   2.329   5.221   5.722 -0.2289 -0.1100 -0.3645
10099WAT     H141116   2.248   5.201   5.696  0.5847 -1.9078 -1.7836
10099WAT     H241117   2.328   5.308   5.726 -2.0886 -0.0586 -0.8477
10099WAT    EPW41118   2.317   5.231   5.719 -0.3834 -0.3679 -0.6455
10100WAT      O41119   1.881   7.157   4.404  0.2022  0.3898 -0.1001
10100WAT     H141120   1.882   7.071   4.421  3.0266  0.4236  0.4114
10100WAT     H241121   1.800   7.171   4.376  0.1695 -2.8277 -2.1557
10100WAT    EPW41122   1.869   7.146   4.402  0.6146 -0.0805 -0.3282
10101WAT      O41123   1.586   6.516   5.795  0.1268 -0.1937 -0.9368
10101WAT     H141124   1.670   6.494   5.791  0.0837 -0.5019 -0.2587
10101WAT     H241125   1.569   6.517   5.880 -0.8700 -1.3254 -1.1030
10101WAT    EPW41126   1.596   6.513   5.807 -0.0268 -0.4064 -0.8612
10102WAT      O41127   2.508   4.899   4.720 -0.0368 -0.4408  0.3309
10102WAT     H141128   2.513   4.925   4.637  0.2205  0.2646  0.5564
10102WAT     H241129   2.438   4.941   4.751  1.1299  1.1140  1.0574
10102WAT    EPW41130   2.499   4.909   4.712  0.1736 -0.1069  0.4715
10103WAT      O41131   1.735   3.982   4.191  0.2995  1.0025  0.9043
10103WAT     H141132   1.813   3.957   4.162  0.4449  2.4061 -0.0327
10103WAT     H241133   1.714   3.921   4.250  1.7174  0.1481  0.5707
10103WAT    EPW41134   1.743   3.969   4.195  0.5304  1.0836  0.7166
10104WAT      O41135   0.749   5.362   5.147  0.3256 -0.2537 -0.0125
10104WAT     H141136   0.719   5.281   5.132  0.5584 -0.2312 -0.6371
10104WAT     H241137   0.737   5.402   5.070 -0.3392  0.4854  0.4605
10104WAT    EPW41138   0.743   5.356   5.133  0.2618 -0.1412 -0.0349
10105WAT      O41139   0.890   5.049   4.958  0.1798 -0.5836  0.2122
10105WAT     H141140   0.898   5.106   4.893  1.0554  1.3326  1.8736
10105WAT     H241141   0.828   5.083   5.008 -0.9283 -2.3413  0.1394
10105WAT    EPW41142   0.882   5.062   4.956  0.1454 -0.5602  0.4469
10106WAT      O41143   2.187   7.524   5.387 -0.3239  0.5237 -0.0649
10106WAT     H141144   2.163   7.556   5.464 -0.9144 -1.7994  0.7742
10106WAT     H241145   2.274   7.535   5.387 -0.0146 -1.3574  1.9161
10106WAT    EPW41146   2.196   7.531   5.398 -0.3654 -0.0973  0.3517
10107WAT      O41147   2.409   4.300   4.532  0.0527  0.0344 -0.5143
10107WAT     H141148   2.450   4.257   4.469  1.8955  1.3686 -0.3192
10107WAT     H241149   2.435   4.261   4.605  0.5801  0.5328 -0.4233
10107WAT    EPW41150   2.419   4.288   4.534  0.4029  0.3051 -0.4721
10108WAT      O41151   1.300   5.572   5.383 -0.1012 -0.0264 -0.4521
10108WAT     H141152   1.320   5.545   5.303  1.1900 -1.9906  0.4562
10108WAT     H241153   1.340   5.650   5.389  0.0714 -0.0086 -1.5724
10108WAT    EPW41154   1.309   5.580   5.372  0.1150 -0.3139 -0.4834
10109WAT      O41155   2.420   0.039   5.629  0.2546 -0.5238  0.3050
10109WAT     H141156   2.414   0.107   5.683  1.2823  1.1857 -1.5844
10109WAT     H241157   2.438  -0.028   5.682 -0.8716  0.6211  2.2468
10109WAT    EPW41158   2.422   0.039   5.645  0.2400 -0.1022  0.3128
10110WAT      O41159   1.289   7.398   5.137 -0.2988  0.2124  0.2181
10110WAT     H141160   1.345   7.343   5.175 -0.6289 -0.7211 -0.5972
10110WAT     H241161   1.291   7.468   5.189 -0.3042 -0.7797  1.6428
10110WAT    EPW41162   1.297   7.400   5.151 -0.3484 -0.0721  0.3081
10111WAT      O41163   1.895   5.582   5.828  0.3305 -0.4038  0.2226
10111WAT     H141164   1.887   5.668   5.814 -1.3420 -0.6375 -0.3990
10111WAT     H241165   1.954   5.558   5.768  1.1323  0.3467  0.6720
10111WAT    EPW41166   1.903   5.591   5.817  0.2019 -0.3274  0.1972
10112WAT      O41167   1.942   4.906   3.175 -0.6473 -0.2816  0.6066
10112WAT     H141168   1.972   4.915   3.257 -1.0107  1.7813  0.5594
10112WAT     H241169   1.891   4.975   3.164 -1.1966 -0.9156 -1.1445
10112WAT    EPW41170   1.939   4.918   3.185 -0.7821 -0.0705  0.3410
10113WAT      O41171   2.151   5.927   4.078 -0.3837 -0.0504  0.2641
10113WAT     H141172   2.163   6.008   4.049 -1.9614 -0.0765 -0.5538
10113WAT     H241173   2.091   5.936   4.140 -0.0563 -0.5266  0.6638
10113WAT    EPW41174   2.144   5.940   4.083 -0.5684 -0.1246  0.2023
10114WAT      O41175   0.565   5.056   4.136  0.0203 -0.7279  0.4969
10114WAT     H141176   0.646   5.088   4.129 -0.4520  0.4121 -0.1146
10114WAT     H241177   0.569   5.001   4.203  1.3207 -0.7480  0.4137
10114WAT    EPW41178   0.577   5.053   4.145  0.1426 -0.5624  0.3942
10115WAT      O41179   0.819   4.895   5.824 -0.4999  0.4707  0.1295
10115WAT     H141180   0.892   4.872   5.866 -0.2338 -0.2026 -0.6813
10115WAT     H241181   0.761   4.835   5.852 -0.4637  0.3560 -0.0407
10115WAT    EPW41182   0.821   4.882   5.834 -0.4553  0.3543 -0.0154
10116WAT      O41183   3.424   5.476   5.408 -0.0759 -0.5877 -0.1616
10116WAT     H141184   3.378   5.550   5.412  1.6413  0.4633  1.4631
10116WAT     H241185   3.380   5.428   5.349 -1.1442  1.7623 -1.4032
10116WAT    EPW41186   3.410   5.480   5.400  0.0199 -0.0853 -0.1050
10117WAT      O41187   2.070   6.942   5.829 -0.3021  0.3047  0.5640
10117WAT     H141188   2.049   6.861   5.806 -1.5712  0.0532  2.3937
10117WAT     H241189   2.093   6.935   5.912 -1.0050  1.8900  0.9381
10117WAT    EPW41190   2.071   6.929   5.838 -0.5934  0.5017  0.8895
10118WAT      O41191   1.372   5.547   4.835  0.4165 -0.3105 -0.0795
10118WAT     H141192   1.440   5.498   4.812 -0.1231 -1.7772  1.2077
10118WAT     H241193   1.303   5.497   4.814 -0.1543 -0.2164  1.4197
10118WAT    EPW41194   1.372   5.532   4.829  0.2525 -0.5133  0.3321
10119WAT      O41195   1.866   4.806   3.598  0.2996  0.2153  0.1617
10119WAT     H141196   1.810   4.761   3.648  0.8880 -0.5091  0.1900
10119WAT     H241197   1.882   4.878   3.645 -0.6788  0.4889  0.1011
10119WAT    EPW41198   1.860   4.810   3.612  0.2420  0.1487  0.1570
10120WAT      O41199   1.758   4.789   5.500  0.0609 -0.2585  0.9580
10120WAT     H141200   1.805   4.739   5.447  0.3215 -0.4749  1.3844
10120WAT     H241201   1.706   4.834   5.446  0.8022  0.0340  0.4758
10120WAT    EPW41202   1.757   4.788   5.484  0.2089 -0.2473  0.9497
10121WAT      O41203   0.954   5.890   4.774 -0.0064  0.2900  0.1737
10121WAT     H141204   1.005   5.921   4.711 -0.6648  0.5327 -0.2551
10121WAT     H241205   0.993   5.917   4.847  0.0948  1.0805 -0.1638
10121WAT    EPW41206   0.967   5.899   4.776 -0.0887  0.4426  0.0605
10122WAT      O41207   0.604   6.541   3.751 -0.1564  0.4347 -0.9321
10122WAT     H141208   0.643   6.489   3.693  0.1179 -0.2356 -0.1646
10122WAT     H241209   0.531   6.565   3.711  1.2721  2.2337 -2.6682
10122WAT    EPW41210   0.599   6.537   3.737  0.0951  0.6014 -1.0752
10123WAT      O41211   0.604   7.282   5.345  0.7258 -0.2577  0.2353
10123WAT     H141212   0.611   7.339   5.280  0.9936 -0.1874  0.3224
10123WAT     H241213   0.673   7.229   5.333 -0.8928 -2.1526 -1.3649
10123WAT    EPW41214   0.615   7.282   5.334  0.5262 -0.5273  0.0118
10124WAT      O41215   0.769   5.460   4.041  0.1789  0.2574 -0.1278
10124WAT     H141216   0.712   5.428   4.098  1.3349  0.1295  0.9993
10124WAT     H241217   0.729   5.530   4.008 -0.7133  0.0344  0.4694
10124WAT    EPW41218   0.755   5.466   4.045  0.2178  0.2056  0.1269
10125WAT      O41219   2.462   5.679   5.845 -0.5578 -0.3752  0.1314
10125WAT     H141220   2.443   5.762   5.864 -0.8295 -1.0636  3.4194
10125WAT     H241221   2.528   5.686   5.788 -1.9329  2.0175 -1.3477
10125WAT    EPW41222   2.469   5.692   5.839 -0.8011 -0.1234  0.3986
10126WAT      O41223   1.513   6.715   4.478 -0.3490  0.1786  0.3115
10126WAT     H141224   1.440   6.667   4.477 -1.0190  1.1531 -0.6570
10126WAT     H241225   1.562   6.677   4.539 -1.5254 -0.7109  0.7447
10126WAT    EPW41226   1.510   6.702   4.487 -0.6218  0.1912  0.2324
10127WAT      O41227   1.183   7.308   5.503  0.1328  0.0999  0.1170
10127WAT     H141228   1.188   7.221   5.507 -0.5227 -0.0349 -1.1474
10127WAT     H241229   1.100   7.324   5.526  0.5979  0.5085  1.5564
10127WAT    EPW41230   1.171   7.297   5.507  0.1047  0.1404  0.1428
10128WAT      O41231   3.587   4.460   5.588 -0.1860  0.1480  0.1648
10128WAT     H141232   3.673   4.463   5.579 -0.3180 -1.1992 -2.2795
10128WAT     H241233   3.573   4.391   5.639  0.1878  1.6736  2.4767
10128WAT    EPW41234   3.597   4.450   5.594 -0.1503  0.1744  0.1453
10129WAT      O41235   2.134   5.219   6.433  0.1088 -0.0190  0.2015
10129WAT     H141236   2.132   5.171   6.360  0.1672 -0.7037  0.6418
10129WAT     H241237   2.073   5.280   6.419  0.8868  0.5503 -0.8784
10129WAT    EPW41238   2.124   5.221   6.420  0.2323 -0.0360  0.1071
10130WAT      O41239   0.391   7.630   0.577 -0.0026  0.5735 -0.4178
10130WAT     H141240   0.327   7.689   0.575  1.5388  2.4030  0.4549
10130WAT     H241241   0.405   7.612   0.493 -1.8851 -0.1845 -0.6089
10130WAT    EPW41242   0.384   7.636   0.565 -0.0530  0.7318 -0.3171
10131WAT      O41243   1.542   6.516   5.075 -0.5910 -0.5552  0.3417
10131WAT     H141244   1.463   6.495   5.046 -0.8804  2.1195 -1.1205
10131WAT     H241245   1.532   6.598   5.103  2.0786  0.7802 -2.1061
10131WAT    EPW41246   1.529   6.525   5.075 -0.2394  0.0371 -0.2359
10132WAT      O41247   0.951   6.833   5.118 -0.0546 -0.6841  0.8418
10132WAT     H141248   0.987   6.754   5.125  1.5577 -0.0060  0.5767
10132WAT     H241249   0.919   6.848   5.198  1.6856 -0.6701  1.5706
10132WAT    EPW41250   0.952   6.823   5.131  0.4406 -0.5819  0.9103
10133WAT      O41251   2.233   6.386   5.974 -0.3776 -0.7694 -0.0586
10133WAT     H141252   2.247   6.370   6.059  4.0662  2.5385  0.1833
10133WAT     H241253   2.193   6.464   5.974 -2.2129 -1.6493 -1.1137
10133WAT    EPW41254   2.229   6.395   5.987  0.0078 -0.4107 -0.1787
10134WAT      O41255   1.358   4.598   4.998 -0.1615 -0.1282  0.0879
10134WAT     H141256   1.367   4.677   5.035 -0.9841  0.1501 -0.2929
10134WAT     H241257   1.381   4.611   4.915  0.0117 -0.3653  0.0977
10134WAT    EPW41258   1.362   4.612   4.992 -0.2574 -0.1221  0.0331
10135WAT      O41259   2.141   6.175   3.933 -0.5351  0.1877  0.4598
10135WAT     H141260   2.058   6.179   3.907 -0.4703 -0.5920  0.1116
10135WAT     H241261   2.185   6.201   3.862 -0.5340  2.7628  1.2884
10135WAT    EPW41262   2.135   6.180   3.919 -0.5254  0.4529  0.5307
10136WAT      O41263   1.132   4.721   4.773 -0.0790 -0.6618  0.0393
10136WAT     H141264   1.098   4.714   4.853  0.3622  1.1225  0.4372
10136WAT     H241265   1.090   4.660   4.727 -1.0304 -1.0804  1.4075
10136WAT    EPW41266   1.121   4.711   4.778 -0.1544 -0.4601  0.3002
10137WAT      O41267   1.617   5.772   5.122 -0.2185 -0.2987  0.3679
10137WAT     H141268   1.689   5.762   5.171  0.2493  0.8598 -0.0488
10137WAT     H241269   1.648   5.767   5.040 -0.7371 -0.5696  0.1868
10137WAT    EPW41270   1.632   5.770   5.117 -0.2260 -0.1676  0.2796
10138WAT      O41271   0.814   4.595   5.651 -0.0639 -0.1755  0.1888
10138WAT     H141272   0.861   4.649   5.601  1.0819  0.3291  1.7553
10138WAT     H241273   0.871   4.565   5.709 -1.4995 -0.1119  1.7029
10138WAT    EPW41274   0.829   4.599   5.652 -0.1067 -0.0916  0.6439
10139WAT      O41275   0.841   0.259   5.883  0.1476 -0.2995  0.0290
10139WAT     H141276   0.837   0.281   5.799  1.1422 -0.4102 -0.0584
10139WAT     H241277   0.862   0.174   5.881  1.1953 -0.0519  0.3902
10139WAT    EPW41278   0.843   0.249   5.870  0.4493 -0.2793  0.0694
10140WAT      O41279   0.693   3.825   6.349  0.0109 -0.0973  0.8414
10140WAT     H141280   0.622   3.860   6.388 -0.1083 -0.1660  0.6877
10140WAT     H241281   0.700   3.870   6.275 -0.4770 -0.7705  0.3753
10140WAT    EPW41282   0.683   3.837   6.344 -0.0788 -0.2069  0.7499
10141WAT      O41283   0.842   4.556   4.639 -0.0193  0.3821 -0.0744
10141WAT     H141284   0.806   4.633   4.658 -1.9784 -0.3469 -0.5017
10141WAT     H241285   0.824   4.506   4.708 -0.9065 -0.3167 -0.7745
10141WAT    EPW41286   0.834   4.560   4.652 -0.4398  0.1712 -0.2409
10142WAT      O41287   0.802   5.007   3.220 -0.2045 -0.2987  0.0293
10142WAT     H141288   0.811   5.056   3.148  1.8806 -1.5630 -0.6738
10142WAT     H241289   0.772   4.931   3.189 -0.8088 -0.3420  0.7094
10142WAT    EPW41290   0.799   5.003   3.205  0.0143 -0.4919  0.0259
10143WAT      O41291   0.697   4.209   4.150  0.3393  0.1172 -0.2903
10143WAT     H141292   0.688   4.124   4.135  0.1977  0.0653  0.0718
10143WAT     H241293   0.616   4.236   4.167  0.4041  0.2936 -0.2560
10143WAT    EPW41294   0.684   4.200   4.151  0.3279  0.1356 -0.2317
10144WAT      O41295   0.658   6.012   4.915 -0.6525  0.0529  0.5228
10144WAT     H141296   0.644   5.983   4.834 -0.7835  2.5061 -0.4085
10144WAT     H241297   0.678   5.940   4.959  0.2189 -1.2719 -1.8560
10144WAT    EPW41298   0.659   5.997   4.909 -0.5431  0.2196  0.0338
10145WAT      O41299   1.454   6.212   4.309 -0.7215  0.1932  0.0969
10145WAT     H141300   1.489   6.256   4.375 -0.4757 -1.3877  1.0850
10145WAT     H241301   1.520   6.163   4.280 -1.5272 -1.2929  0.6332
10145WAT    EPW41302   1.469   6.211   4.314 -0.8042 -0.2599  0.3221
10146WAT      O41303   2.532   4.170   4.739  0.2027  0.6962  0.1207
10146WAT     H141304   2.613   4.139   4.728  0.2149  1.1768 -1.3901
10146WAT     H241305   2.535   4.208   4.818  1.0029 -0.5720  0.7398
10146WAT    EPW41306   2.544   4.171   4.749  0.3227  0.5799 -0.0110
10147WAT      O41307   1.910   7.256   5.150 -0.0013  0.2920 -0.1732
10147WAT     H141308   1.940   7.217   5.079 -0.0355 -0.7668  0.3816
10147WAT     H241309   1.888   7.336   5.122 -2.8548 -1.0035 -2.0349
10147WAT    EPW41310   1.912   7.262   5.136 -0.4278 -0.0557 -0.3663
10148WAT      O41311   2.637   5.963   5.295 -0.2642 -0.2129  0.0265
10148WAT     H141312   2.573   6.022   5.306  1.1327  1.5067 -0.6404
10148WAT     H241313   2.628   5.910   5.363 -2.5894 -0.2318 -0.2215
10148WAT    EPW41314   2.626   5.964   5.306 -0.4013  0.0383 -0.1086
10149WAT      O41315   1.170   7.046   5.188 -0.3794  0.6239  0.5274
10149WAT     H141316   1.113   6.981   5.175 -1.0487  1.4514 -0.7527
10149WAT     H241317   1.120   7.116   5.202  0.2030  1.6656 -1.9856
10149WAT    EPW41318   1.154   7.047   5.188 -0.3922  0.9000 -0.0329
10150WAT      O41319   1.601   6.387   5.337 -0.1387 -0.6840  0.2106
10150WAT     H141320   1.567   6.308   5.325 -0.6866 -0.3933 -0.1813
10150WAT     H241321   1.592   6.426   5.259  2.3840 -1.0614 -0.3857
10150WAT    EPW41322   1.595   6.381   5.323  0.1530 -0.6968  0.0646
10151WAT      O41323   1.168   4.158   4.026  0.0714  0.0076  0.2783
10151WAT     H141324   1.099   4.211   4.016  0.1511 -0.0281 -0.5397
10151WAT     H241325   1.144   4.106   4.092  0.5617  1.9240  2.0997
10151WAT    EPW41326   1.154   4.158   4.034  0.1556  0.2854  0.4266
10152WAT      O41327   0.566   4.856   5.149 -0.6447 -0.4077  0.0943
10152WAT     H141328   0.597   4.833   5.227  0.0485 -0.6309 -0.2372
10152WAT     H241329   0.617   4.812   5.093 -0.3272  0.6807 -0.5100
10152WAT    EPW41330   0.578   4.846   5.152 -0.4954 -0.2799 -0.0440
10153WAT      O41331   2.408   4.736   5.776 -0.5545  0.4280  0.3502
10153WAT     H141332   2.390   4.771   5.698 -1.2104 -0.4716  0.0845
10153WAT     H241333   2.338   4.688   5.794  0.5972 -1.3721  0.3447
10153WAT    EPW41334   2.395   4.734   5.768 -0.4813  0.0292  0.3102
10154WAT      O41335   2.206   3.345   4.366 -0.1995 -0.4321 -0.5279
10154WAT     H141336   2.181   3.381   4.441 -2.0008 -1.5957 -0.5046
10154WAT     H241337   2.235   3.413   4.319 -1.4727  0.7306  0.2857
10154WAT    EPW41338   2.206   3.360   4.370 -0.6537 -0.4322 -0.4042
10155WAT      O41339   2.475   5.162   5.149  0.2952  0.2251 -0.3817
10155WAT     H141340   2.488   5.138   5.232  0.0799 -0.0835 -0.4379
10155WAT     H241341   2.407   5.115   5.124 -0.4792  1.2823 -0.3319
10155WAT    EPW41342   2.467   5.151   5.158  0.1490  0.3357 -0.3826
10156WAT      O41343   2.410   6.561   6.881  0.1690  0.7977 -0.6111
10156WAT     H141344   2.479   6.561   6.828  0.5258 -1.5216 -0.2740
10156WAT     H241345   2.362   6.494   6.852 -1.5246  1.7830 -0.2664
10156WAT    EPW41346   2.413   6.551   6.869 -0.0285  0.6007 -0.5104
10157WAT      O41347   0.434   0.324   5.258 -0.5999  0.0373 -0.6471
10157WAT     H141348   0.451   0.312   5.342 -0.9081 -2.3607 -0.8672
10157WAT     H241349   0.353   0.295   5.248 -0.5574  0.2397 -1.7991
10157WAT    EPW41350   0.424   0.318   5.269 -0.6392 -0.2870 -0.8498
10158WAT      O41351   1.589   5.401   4.708 -0.3001  0.5138  0.6813
10158WAT     H141352   1.670   5.368   4.717  0.7280  1.4617 -3.1586
10158WAT     H241353   1.541   5.332   4.687  1.0545  0.6143 -3.5683
10158WAT    EPW41354   1.594   5.386   4.706  0.0519  0.6687 -0.5137
10159WAT      O41355   1.765   4.817   5.209 -0.0344  0.1833  0.3118
10159WAT     H141356   1.758   4.735   5.238  1.1974  0.2908  0.9835
10159WAT     H241357   1.690   4.854   5.233 -0.9741 -0.9544 -0.7615
10159WAT    EPW41358   1.753   4.811   5.217  0.0087  0.0311  0.2525
10160WAT      O41359   1.078   6.665   4.180 -0.0714 -0.4874 -0.0776
10160WAT     H141360   1.131   6.724   4.143  2.0400 -2.2520 -0.0516
10160WAT     H241361   1.117   6.648   4.257 -2.4312  0.4580  1.4331
10160WAT    EPW41362   1.092   6.671   4.186 -0.1081 -0.6084  0.1494
10161WAT      O41363   1.101   5.598   5.807  0.1460  0.0507 -0.5278
10161WAT     H141364   1.110   5.659   5.745  0.3122 -0.7187 -1.2618
10161WAT     H241365   1.016   5.581   5.807  0.4493 -1.8200 -2.3826
10161WAT    EPW41366   1.090   5.605   5.798  0.2154 -0.3393 -0.9102
10162WAT      O41367   0.919   4.540   4.974 -0.2168 -0.1399 -0.2257
10162WAT     H141368   0.908   4.474   4.918  0.9052 -0.4463 -0.1243
10162WAT     H241369   0.988   4.514   5.021 -0.0210  0.9282  0.0867
10162WAT    EPW41370   0.928   4.526   4.973 -0.0221 -0.0274 -0.1646
10163WAT      O41371   2.127   5.828   4.609 -0.0691 -0.6140  0.1421
10163WAT     H141372   2.210   5.855   4.611 -0.6025  1.3739 -1.2625
10163WAT     H241373   2.133   5.746   4.580  1.4271 -0.7219  0.6574
10163WAT    EPW41374   2.140   5.820   4.605  0.0731 -0.3363  0.0108
10164WAT      O41375   1.638   7.291   7.199  0.1178 -0.7082  0.2070
10164WAT     H141376   1.636   7.211   7.232 -1.5712 -0.4781  0.7685
10164WAT     H241377   1.599   7.282   7.121 -1.4165 -0.2322  0.8748
10164WAT    EPW41378   1.632   7.278   7.192 -0.3584 -0.6039  0.3886
10165WAT      O41379   2.222   6.269   4.200 -0.4938 -0.1037 -0.7994
10165WAT     H141380   2.195   6.240   4.122 -1.9892  1.8676 -1.1170
10165WAT     H241381   2.196   6.207   4.256 -0.6968 -0.8752 -1.7301
10165WAT    EPW41382   2.214   6.256   4.197 -0.7447  0.0735 -0.9838
10166WAT      O41383   1.207   6.274   4.835 -0.1097  0.0628 -0.0987
10166WAT     H141384   1.123   6.253   4.849 -0.1127  0.7410  1.1093
10166WAT     H241385   1.250   6.216   4.884 -0.0145  1.2253  1.2642
10166WAT    EPW41386   1.201   6.262   4.845 -0.0961  0.3347  0.2811
10167WAT      O41387   0.487   5.438   6.760 -0.1589  0.1094  0.0789
10167WAT     H141388   0.428   5.391   6.805 -2.2739  1.8080 -0.7719
10167WAT     H241389   0.563   5.404   6.786 -1.4115 -1.2811  2.3083
10167WAT    EPW41390   0.489   5.426   6.771 -0.6563  0.1549  0.2825
10168WAT      O41391   1.919   6.024   4.574 -0.3554  0.6110  0.1673
10168WAT     H141392   1.854   5.975   4.605  0.1038  0.1888  0.4942
10168WAT     H241393   1.990   5.979   4.597  0.0483  1.0702 -0.1737
10168WAT    EPW41394   1.920   6.010   4.582 -0.2279  0.6165  0.1652
10169WAT      O41395   2.181   6.948   7.081  0.3385  0.2695 -0.2640
10169WAT     H141396   2.208   6.923   7.002  0.8801 -0.5716  0.1743
10169WAT     H241397   2.100   6.977   7.066  0.4710  0.2308 -1.1441
10169WAT    EPW41398   2.173   6.949   7.067  0.4381  0.1395 -0.3293
10170WAT      O41399   1.817   5.741   3.956 -0.2680 -0.3388 -0.6277
10170WAT     H141400   1.731   5.739   3.973  0.0363  0.2665  1.2353
10170WAT     H241401   1.846   5.665   3.989 -0.0855 -0.5664 -1.2978
10170WAT    EPW41402   1.809   5.729   3.963 -0.1961 -0.2830 -0.4515
10171WAT      O41403   3.737   7.610   4.228 -0.0449  0.2039  0.5731
10171WAT     H141404   3.753   7.533   4.192  0.5906  0.5358  0.1421
10171WAT     H241405   3.751   7.667   4.164  4.3205  1.1190  1.9963
10171WAT    EPW41406   3.741   7.607   4.213  0.6938  0.3881  0.7197
10172WAT      O41407   2.519   6.152   6.213  0.0836  0.3589 -0.4566
10172WAT     H141408   2.599   6.169   6.180 -0.1438  0.8091 -0.7854
10172WAT     H241409   2.509   6.067   6.198  1.3069 -0.1470  1.3496
10172WAT    EPW41410   2.530   6.142   6.206  0.2307  0.3507 -0.2383
10173WAT      O41411   1.485   7.212   5.236 -0.1552 -0.7871  0.3627
10173WAT     H141412   1.548   7.187   5.291 -0.2378 -0.3738  0.6482
10173WAT     H241413   1.473   7.142   5.185  0.7122 -0.7835  0.1369
10173WAT    EPW41414   1.492   7.198   5.236 -0.0393 -0.7255  0.3715
10174WAT      O41415   1.163   5.867   5.378 -0.1591  0.2414  0.0950
10174WAT     H141416   1.204   5.875   5.301  1.4955  1.3531  1.0310
10174WAT     H241417   1.171   5.946   5.413 -0.3888 -0.4030  1.6571
10174WAT    EPW41418   1.170   5.880   5.372  0.0514  0.3104  0.4640
10175WAT      O41419   2.854   4.729   5.629  0.1175  0.0193 -0.0327
10175WAT     H141420   2.847   4.730   5.716  2.2708  1.6677  0.2027
10175WAT     H241421   2.789   4.783   5.603 -1.5140 -1.6507  0.3570
10175WAT    EPW41422   2.843   4.737   5.638  0.1946  0.0161  0.0596
10176WAT      O41423   2.059   5.149   5.059 -0.5760  0.2399  0.5692
10176WAT     H141424   2.119   5.110   5.010  0.3504  0.9296  1.1094
10176WAT     H241425   1.986   5.145   5.011  0.0020 -0.2260 -0.2861
10176WAT    EPW41426   2.057   5.143   5.045 -0.3538  0.2729  0.5227
10177WAT      O41427   2.014   6.307   6.601 -0.4475 -0.4143  0.0391
10177WAT     H141428   2.003   6.261   6.527  1.5870 -0.6521 -0.1786
10177WAT     H241429   2.081   6.360   6.582 -1.7967  1.6844  0.7609
10177WAT    EPW41430   2.023   6.308   6.587 -0.3463 -0.1394  0.1135
10178WAT      O41431   0.882   7.015   4.707 -0.3679  0.2796 -0.0937
10178WAT     H141432   0.965   6.996   4.725 -0.0703  2.2155  0.8694
10178WAT     H241433   0.838   6.977   4.771 -0.2098 -0.4862 -0.4283
10178WAT    EPW41434   0.888   7.007   4.719 -0.3006  0.4524 -0.0008
10179WAT      O41435   1.382   6.806   3.621  0.0813  0.3172 -0.0851
10179WAT     H141436   1.353   6.888   3.627 -1.6637 -0.2165 -0.5459
10179WAT     H241437   1.435   6.797   3.690  0.3258  1.8250 -0.0546
10179WAT    EPW41438   1.386   6.816   3.632 -0.1403  0.4611 -0.1487
10180WAT      O41439   0.718   6.459   4.995 -0.4520  0.4671  0.0693
10180WAT     H141440   0.687   6.505   4.927 -0.4397  0.8832  0.3408
10180WAT     H241441   0.680   6.496   5.064  0.1439  0.5618  0.3550
10180WAT    EPW41442   0.708   6.471   4.995 -0.3622  0.5426  0.1516
10181WAT      O41443   2.506   4.668   3.772 -0.2845 -0.4117 -0.2188
10181WAT     H141444   2.543   4.722   3.714  0.4000 -0.8201 -0.1689
10181WAT     H241445   2.534   4.698   3.849 -1.0462  0.0168 -0.0938
10181WAT    EPW41446   2.515   4.681   3.775 -0.2959 -0.4088 -0.1930
10182WAT      O41447   1.957   5.079   3.640  0.0289  0.6718 -0.2087
10182WAT     H141448   1.882   5.102   3.601 -0.5220 -0.6796  0.0177
10182WAT     H241449   2.018   5.109   3.585 -0.7243 -0.7310 -1.9033
10182WAT    EPW41450   1.955   5.087   3.626 -0.1637  0.2649 -0.4256
10183WAT      O41451   2.727   6.603   2.449 -0.0795  0.2753  0.2430
10183WAT     H141452   2.747   6.685   2.425  1.2676 -0.1710 -0.1920
10183WAT     H241453   2.800   6.574   2.486  0.3548 -1.5765 -1.8591
10183WAT    EPW41454   2.740   6.611   2.451  0.1837 -0.0641 -0.1318
10184WAT      O41455   1.064   4.887   0.517 -0.5489  0.2352  0.0250
10184WAT     H141456   1.129   4.909   0.464 -0.5932  1.0059  0.2875
10184WAT     H241457   1.050   4.803   0.498  0.4649  0.0795 -0.0859
10184WAT    EPW41458   1.072   4.877   0.506 -0.4057  0.3260  0.0474
10185WAT      O41459   0.763   5.761   3.921  0.3193 -0.4066 -0.4249
10185WAT     H141460   0.805   5.732   3.991  0.5668  2.3237  0.6929
10185WAT     H241461   0.691   5.798   3.954  0.2383  0.5756 -1.6183
10185WAT    EPW41462   0.758   5.762   3.936  0.3439  0.1418 -0.4361
10186WAT      O41463   1.378   5.336   2.505 -0.3350  0.5539 -0.5493
10186WAT     H141464   1.359   5.295   2.430 -2.3534 -1.6601  1.0191
10186WAT     H241465   1.464   5.323   2.514 -0.1745  0.3029 -2.1408
10186WAT    EPW41466   1.388   5.328   2.495 -0.6095  0.1898 -0.5527
10187WAT      O41467   2.367   4.334   2.718 -0.5331 -0.2356 -0.1446
10187WAT     H141468   2.322   4.406   2.737 -0.1525 -0.2160  0.7843
10187WAT     H241469   2.306   4.273   2.707 -0.8315 -0.5328  2.4448
10187WAT    EPW41470   2.352   4.336   2.719 -0.5209 -0.2766  0.3752
10188WAT      O41471   1.009   7.105   0.124 -0.1643 -0.1443 -0.1363
10188WAT     H141472   1.069   7.085   0.064  1.2314  1.1901  0.7271
10188WAT     H241473   0.959   7.034   0.128  0.3129 -0.6643 -2.1185
10188WAT    EPW41474   1.011   7.092   0.115  0.1123 -0.0240 -0.3015
10189WAT      O41475   2.388   6.334   4.861  0.0774 -0.2374  0.5161
10189WAT     H141476   2.441   6.265   4.857  0.4129 -0.0102  0.9683
10189WAT     H241477   2.324   6.315   4.804 -0.3335 -1.3496  1.3188
10189WAT    EPW41478   2.386   6.321   4.852  0.0663 -0.3681  0.7015
10190WAT      O41479   1.981   4.434   1.170  0.0796  0.1239 -0.1933
10190WAT     H141480   1.980   4.416   1.085  1.0345  0.3833 -0.2711
10190WAT     H241481   1.896   4.444   1.190 -0.1175  0.9036 -1.3047
10190WAT    EPW41482   1.968   4.433   1.160  0.1916  0.2774 -0.3690
10191WAT      O41483   1.809   4.851   2.636 -0.0035  0.5826  0.1459
10191WAT     H141484   1.806   4.896   2.711 -0.2910  0.6253  0.1110
10191WAT     H241485   1.891   4.820   2.634  0.5428  1.9461 -0.3148
10191WAT    EPW41486   1.821   4.853   2.647  0.0347  0.7903  0.0727
10192WAT      O41487   1.385   5.939   5.204 -0.0205  0.5846  0.0504
10192WAT     H141488   1.408   6.001   5.262  1.0219 -1.6005  2.1854
10192WAT     H241489   1.461   5.911   5.173 -0.4720  0.3603 -0.8871
10192WAT    EPW41490   1.400   5.944   5.208  0.0668  0.2287  0.2273
10193WAT      O41491   1.595   4.767   2.233  0.2866  0.0447 -0.2174
10193WAT     H141492   1.540   4.759   2.167  0.9068 -0.3374 -0.7006
10193WAT     H241493   1.644   4.836   2.212 -1.1280  1.5090  1.0565
10193WAT    EPW41494   1.594   4.776   2.220  0.1693  0.2046 -0.1006
10194WAT      O41495   1.441   6.509   3.378 -0.0260  0.0432 -0.6054
10194WAT     H141496   1.372   6.560   3.385 -1.0174 -1.1001 -1.6117
10194WAT     H241497   1.420   6.453   3.314  1.0967 -1.4430  0.2445
10194WAT    EPW41498   1.428   6.508   3.370 -0.0066 -0.3452 -0.6285
10195WAT      O41499   1.242   6.695   2.041 -0.0576  0.4033 -0.8546
10195WAT     H141500   1.296   6.626   2.038 -0.4531  0.0757 -0.4435
10195WAT     H241501   1.219   6.706   1.958 -1.2726 -0.9789 -0.7248
10195WAT    EPW41502   1.247   6.687   2.028 -0.2955  0.1507 -0.7747
10196WAT      O41503   2.750   4.934   2.743  0.4246 -0.6616 -0.2592
10196WAT     H141504   2.790   5.010   2.757  0.4777 -1.0358  2.1163
10196WAT     H241505   2.751   4.896   2.822 -0.3971 -2.7364 -1.1781
10196WAT    EPW41506   2.756   4.940   2.757  0.3111 -1.0234 -0.0440
10197WAT      O41507   1.973   4.098   3.918 -0.3021 -0.4400  0.0144
10197WAT     H141508   1.946   4.016   3.906 -1.2017 -0.1463 -0.0047
10197WAT     H241509   1.979   4.130   3.837 -3.0536  0.4757  0.0645
10197WAT    EPW41510   1.970   4.091   3.904 -0.8415 -0.2614  0.0190
10198WAT      O41511   2.866   5.121   5.085 -0.2880 -0.5164 -0.5495
10198WAT     H141512   2.806   5.171   5.125  1.5059  2.3728 -1.1323
10198WAT     H241513   2.939   5.168   5.093  1.6281 -3.2121 -1.0866
10198WAT    EPW41514   2.868   5.136   5.092  0.2601 -0.4878 -0.7150
10199WAT      O41515   0.897   4.861   1.764  0.1973 -0.3419  0.9137
10199WAT     H141516   0.966   4.896   1.723  1.0826 -1.3818  1.4763
10199WAT     H241517   0.867   4.802   1.707  0.1379 -0.3144  0.9165
10199WAT    EPW41518   0.903   4.858   1.749  0.3193 -0.4915  0.9972
10200WAT      O41519   2.935   4.977   2.288  0.1066 -0.6439 -0.1372
10200WAT     H141520   3.019   4.999   2.280 -0.1020  0.9574  1.4783
10200WAT     H241521   2.899   5.003   2.213  0.9562 -0.8596 -0.6267
10200WAT    EPW41522   2.942   4.984   2.276  0.2013 -0.4392  0.0291
10201WAT      O41523   2.025   5.166   1.552  0.6134 -0.0902 -0.1643
10201WAT     H141524   2.060   5.203   1.482 -1.6590  2.0209 -0.3301
10201WAT     H241525   1.939   5.170   1.537  0.0538 -0.0209  2.4876
10201WAT    EPW41526   2.017   5.172   1.540  0.1951  0.2319  0.2030
10202WAT      O41527   1.777   6.847   2.191 -0.2225 -0.3525  0.9868
10202WAT     H141528   1.719   6.811   2.136  0.8759 -0.2871 -0.2786
10202WAT     H241529   1.826   6.779   2.216  0.7640 -0.0621 -0.0386
10202WAT    EPW41530   1.776   6.832   2.186  0.0855 -0.3000  0.6484
10203WAT      O41531   0.818   6.508   2.472 -0.2288 -0.2194 -0.8431
10203WAT     H141532   0.774   6.451   2.522 -0.8499 -0.9406 -2.1643
10203WAT     H241533   0.899   6.505   2.505 -0.6449 -0.5282  0.2196
10203WAT    EPW41534   0.824   6.499   2.485 -0.3820 -0.3716 -0.8813
10204WAT      O41535   0.737   5.647   1.769 -0.2902 -0.0668 -0.1139
10204WAT     H141536   0.709   5.576   1.811 -0.7746  0.0385 -0.2610
10204WAT     H241537   0.806   5.672   1.817 -0.9077  0.1278  0.7092
10204WAT    EPW41538   0.743   5.640   1.782 -0.4530 -0.0225 -0.0140
10205WAT      O41539   1.711   4.267   3.639  0.4666  0.7318 -0.0910
10205WAT     H141540   1.653   4.277   3.574 -2.3069 -2.3750  1.5863
10205WAT     H241541   1.774   4.220   3.602 -0.3463  0.2382 -0.9146
10205WAT    EPW41542   1.712   4.262   3.624 -0.0632  0.2000  0.0351
10206WAT      O41543   1.343   5.727   3.490 -0.0043 -0.2014  0.3948
10206WAT     H141544   1.394   5.746   3.558  2.1767 -1.8683 -0.6862
10206WAT     H241545   1.357   5.793   3.435  1.1075 -0.6857  0.0718
10206WAT    EPW41546   1.352   5.740   3.492  0.4821 -0.5192  0.1874
10207WAT      O41547   0.787   4.533   3.231 -0.1233 -0.2077  0.0244
10207WAT     H141548   0.767   4.515   3.314  2.2882  0.5630  0.8633
10207WAT     H241549   0.870   4.507   3.224 -0.4925 -0.9430 -2.3981
10207WAT    EPW41550   0.796   4.527   3.242  0.1784 -0.2025 -0.2095
10208WAT      O41551   1.695   5.909   1.748 -0.0602 -0.2807 -0.5022
10208WAT     H141552   1.646   5.851   1.791  0.4893 -1.2247 -1.0873
10208WAT     H241553   1.721   5.864   1.678  1.5992  0.1937 -0.2242
10208WAT    EPW41554   1.692   5.894   1.744  0.2661 -0.3501 -0.5476
10209WAT      O41555   0.953   5.946   3.825  0.2528 -0.0991  0.1202
10209WAT     H141556   1.013   5.892   3.791  2.0609  0.8087  1.6625
10209WAT     H241557   0.891   5.892   3.854 -0.5140 -0.9882 -2.8463
10209WAT    EPW41558   0.953   5.930   3.824  0.4066 -0.0963 -0.0902
10210WAT      O41559   0.806   6.208   4.201  0.1157  0.3715 -0.2383
10210WAT     H141560   0.773   6.264   4.143 -1.6105 -1.9699 -1.7219
10210WAT     H241561   0.874   6.174   4.159 -0.2400 -0.2584 -0.3191
10210WAT    EPW41562   0.811   6.211   4.186 -0.1919 -0.0675 -0.4694
10211WAT      O41563   1.040   6.081   4.049  0.5093 -0.0549 -0.3202
10211WAT     H141564   1.124   6.059   4.059  0.6338  0.3977 -0.3358
10211WAT     H241565   1.019   6.047   3.972  0.0093 -2.1679  0.6736
10211WAT    EPW41566   1.050   6.073   4.039  0.4538 -0.3001 -0.1757
10212WAT      O41567   1.731   5.235   3.532 -0.8340 -0.0744 -0.2441
10212WAT     H141568   1.655   5.253   3.492 -0.1551  0.5390 -1.3018
10212WAT     H241569   1.743   5.303   3.585 -0.1398  0.7602 -1.4353
10212WAT    EPW41570   1.722   5.248   3.534 -0.6312  0.1395 -0.5763
10213WAT      O41571   2.212   4.603   1.688 -0.0773 -0.3743  0.4979
10213WAT     H141572   2.274   4.594   1.628  0.5314 -0.0077  1.0453
10213WAT     H241573   2.249   4.655   1.748 -0.3494 -1.4258  1.6135
10213WAT    EPW41574   2.226   4.609   1.688 -0.0276 -0.4754  0.7436
10214WAT      O41575   1.573   3.511   1.228 -0.3432  0.1444 -0.5344
10214WAT     H141576   1.656   3.523   1.203 -0.0219 -1.9776 -0.6162
10214WAT     H241577   1.578   3.507   1.315 -0.3513 -0.1125 -0.5469
10214WAT    EPW41578   1.586   3.512   1.237 -0.2969 -0.2070 -0.5483
10215WAT      O41579   0.976   6.632   1.669 -0.0547  0.0872  0.1710
10215WAT     H141580   1.048   6.661   1.708  0.0820  0.5045 -0.3787
10215WAT     H241581   0.944   6.702   1.628  1.0545 -0.7509 -2.3595
10215WAT    EPW41582   0.982   6.647   1.668  0.1294  0.0250 -0.2840
10216WAT      O41583   1.180   6.149   4.350 -0.2153  0.3146 -0.6306
10216WAT     H141584   1.265   6.164   4.338  0.5495  0.0959  3.2282
10216WAT     H241585   1.145   6.229   4.350 -0.0117  0.4312 -1.8340
10216WAT    EPW41586   1.188   6.163   4.348 -0.0723  0.2995 -0.2383
10217WAT      O41587   1.714   5.876   3.385 -0.5943  0.3468 -0.4331
10217WAT     H141588   1.703   5.956   3.419  3.3061  1.4851 -1.3329
10217WAT     H241589   1.659   5.875   3.318 -0.0897  2.7463 -0.9974
10217WAT    EPW41590   1.705   5.888   3.380  0.0564  0.8694 -0.6494
10218WAT      O41591   1.703   5.772   4.840 -0.2261 -0.4001 -0.8004
10218WAT     H141592   1.787   5.794   4.836 -0.3796  0.0753 -2.1852
10218WAT     H241593   1.702   5.689   4.813  0.0552 -1.3474  1.8344
10218WAT    EPW41594   1.715   5.763   4.835 -0.2072 -0.4698 -0.6158
10219WAT      O41595   1.319   6.441   2.112  0.0091  0.1579 -0.1812
10219WAT     H141596   1.256   6.391   2.078  0.9925 -0.0043 -1.9077
10219WAT     H241597   1.279   6.487   2.174 -1.6617 -0.3734 -0.8266
10219WAT    EPW41598   1.304   6.440   2.116 -0.0924  0.0555 -0.5316
10220WAT      O41599   0.764   5.983   1.458  0.3648 -0.2491 -0.0237
10220WAT     H141600   0.681   5.963   1.438  0.3487  0.1978 -0.3934
10220WAT     H241601   0.796   5.907   1.486 -0.6808 -0.0676  1.8820
10220WAT    EPW41602   0.756   5.969   1.459  0.2079 -0.1563  0.2032
10221WAT      O41603   1.270   6.043   2.426  0.2436 -0.6188 -0.3156
10221WAT     H141604   1.218   5.996   2.477 -0.8475  1.6320  0.7978
10221WAT     H241605   1.216   6.085   2.373  1.1413 -0.3807 -1.0821
10221WAT    EPW41606   1.255   6.042   2.426  0.2150 -0.2511 -0.2643
10222WAT      O41607   2.035   0.524   3.977  0.5523 -0.0367 -0.4440
10222WAT     H141608   2.078   0.471   3.922  0.5097  0.2101 -0.7204
10222WAT     H241609   2.047   0.603   3.942 -0.3026  0.0135 -0.6549
10222WAT    EPW41610   2.043   0.528   3.964  0.4197  0.0072 -0.5160
10223WAT      O41611   2.068   5.332   1.324 -0.5382  0.0353  0.1337
10223WAT     H141612   2.055   5.409   1.286  2.6070  0.6864  0.1259
10223WAT     H241613   2.090   5.280   1.258 -0.3300 -0.2520  0.4277
10223WAT    EPW41614   2.069   5.336   1.309 -0.0428  0.0890  0.1760
10224WAT      O41615   1.090   6.278   3.298 -0.9340  0.0736  0.3420
10224WAT     H141616   1.056   6.198   3.305  0.0895 -0.6813 -2.0125
10224WAT     H241617   1.097   6.305   3.381 -0.8468 -2.4890  1.2719
10224WAT    EPW41618   1.086   6.270   3.311 -0.7699 -0.4165  0.1315
10225WAT      O41619   0.734   2.668   1.795  0.1303  0.1466  0.3612
10225WAT     H141620   0.766   2.600   1.839  1.0149  0.2020 -0.1880
10225WAT     H241621   0.719   2.727   1.858 -2.9105 -1.3150  1.2167
10225WAT    EPW41622   0.736   2.667   1.811 -0.1882 -0.0611  0.4064
10226WAT      O41623   1.942   6.477   3.465 -0.0663  0.2208  0.7491
10226WAT     H141624   1.993   6.462   3.535  0.0096  0.9382  0.8531
10226WAT     H241625   1.999   6.496   3.402 -0.1999  0.8206  0.8127
10226WAT    EPW41626   1.958   6.477   3.466 -0.0748  0.4154  0.7739
10227WAT      O41627   0.841   3.966   0.768  0.5687 -0.4581  0.0818
10227WAT     H141628   0.851   3.955   0.854  0.7658  0.3624  0.1713
10227WAT     H241629   0.835   4.052   0.759  1.4134 -0.4830 -0.8299
10227WAT    EPW41630   0.841   3.977   0.779  0.7226 -0.3406 -0.0396
10228WAT      O41631   2.149   7.451   2.785 -0.0906 -0.1981  0.6361
10228WAT     H141632   2.113   7.377   2.813  2.0472 -1.3347  0.5575
10228WAT     H241633   2.096   7.476   2.720 -2.3240 -0.1571  2.3445
10228WAT    EPW41634   2.136   7.444   2.779 -0.1047 -0.3599  0.8768
10229WAT      O41635   3.213   5.064   1.906  0.0426 -0.4660  0.0905
10229WAT     H141636   3.224   5.146   1.876  1.5553 -0.8619 -0.5620
10229WAT     H241637   3.171   5.075   1.981 -0.3274  0.8692 -0.2826
10229WAT    EPW41638   3.208   5.078   1.913  0.2114 -0.3272 -0.0610
10230WAT      O41639   2.683   5.209   2.897  0.2532 -0.0521  0.0276
10230WAT     H141640   2.718   5.241   2.824 -1.4385 -1.3652 -1.4266
10230WAT     H241641   2.620   5.267   2.917  0.4852  0.1226  0.2605
10230WAT    EPW41642   2.679   5.222   2.889  0.0376 -0.2203 -0.1528
10231WAT      O41643   1.381   5.063   3.233  0.2389  0.0950 -0.3008
10231WAT     H141644   1.412   5.061   3.152 -0.4581 -2.8030 -0.5977
10231WAT     H241645   1.390   4.981   3.261 -3.4086 -0.0325  1.0021
10231WAT    EPW41646   1.387   5.051   3.225 -0.4029 -0.3519 -0.1522
10232WAT      O41647   1.104   4.611   3.691  0.3348  0.4118 -0.5550
10232WAT     H141648   1.126   4.691   3.716  0.4359 -0.2169  1.6092
10232WAT     H241649   1.101   4.566   3.766  0.2707 -1.6122 -1.6854
10232WAT    EPW41650   1.107   4.616   3.706  0.3403  0.0199 -0.4022
10233WAT      O41651   1.102   0.068   2.851  0.5262  0.2565  0.1293
10233WAT     H141652   1.046   0.028   2.797 -0.5694  0.9552  0.7177
10233WAT     H241653   1.066   0.146   2.864  0.7150  0.0872  1.9176
10233WAT    EPW41654   1.088   0.073   2.845  0.3922  0.3347  0.4804
10234WAT      O41655   2.546   6.571   3.504  0.1289  0.5741 -0.0035
10234WAT     H141656   2.569   6.550   3.586  1.1746 -0.4237 -0.5376
10234WAT     H241657   2.504   6.500   3.475  0.1803  0.7417 -0.4971
10234WAT    EPW41658   2.543   6.557   3.512  0.2910  0.4515 -0.1553
10235WAT      O41659   2.564   4.066   2.780 -0.2683  0.1479  0.5065
10235WAT     H141660   2.632   4.018   2.807 -0.9960 -0.7046  0.8834
10235WAT     H241661   2.505   4.006   2.757 -0.5015  0.8622 -0.8542
10235WAT    EPW41662   2.566   4.050   2.780 -0.4102  0.1275  0.3612
10236WAT      O41663   2.321   5.523   3.845  0.7065  0.5149 -0.3875
10236WAT     H141664   2.340   5.599   3.884  0.7815  0.7789 -0.9255
10236WAT     H241665   2.317   5.466   3.911 -0.9923  1.2902  0.2181
10236WAT    EPW41666   2.323   5.526   3.861  0.4666  0.6684 -0.3775
10237WAT      O41667   1.438   4.494   1.313 -0.0459  0.4546 -0.0667
10237WAT     H141668   1.449   4.580   1.308 -0.5989  0.7159  2.1051
10237WAT     H241669   1.392   4.483   1.387  1.2294 -1.7973  0.4940
10237WAT    EPW41670   1.433   4.505   1.323  0.0608  0.1606  0.3369
10238WAT      O41671   3.088   6.287   2.889  0.3997 -0.0522 -0.3960
10238WAT     H141672   3.036   6.294   2.959  0.6582 -1.8095  0.0181
10238WAT     H241673   3.048   6.336   2.829 -0.8370 -0.0222  0.4148
10238WAT    EPW41674   3.074   6.295   2.891  0.2552 -0.3074 -0.2150
10239WAT      O41675   1.223   5.885   2.096 -0.3768  0.3425  0.2528
10239WAT     H141676   1.252   5.967   2.095 -0.7788  0.5013 -1.8016
10239WAT     H241677   1.279   5.843   2.044 -1.0699 -0.3524  0.0509
10239WAT    EPW41678   1.236   5.891   2.088 -0.5386  0.2633 -0.0805
10240WAT      O41679   0.974   0.778   2.363 -0.4985 -0.2485  0.2646
10240WAT     H141680   0.953   0.836   2.425  0.8805 -1.3789  1.8588
10240WAT     H241681   1.029   0.823   2.312  0.9129 -0.2117  1.7393
10240WAT    EPW41682   0.979   0.793   2.365 -0.0863 -0.4101  0.7179
10241WAT      O41683   1.268   4.399   2.455 -0.5963 -0.1105 -0.1757
10241WAT     H141684   1.321   4.421   2.521  0.7258  0.6187 -1.3969
10241WAT     H241685   1.291   4.455   2.392  0.5620 -2.7742 -2.3600
10241WAT    EPW41686   1.279   4.411   2.455 -0.2299 -0.3963 -0.6788
10242WAT      O41687   1.056   6.673   5.490 -0.1661 -0.4633 -0.1075
10242WAT     H141688   1.058   6.597   5.447 -1.0488 -1.1020  0.9359
10242WAT     H241689   0.987   6.665   5.543 -1.5310  1.8519 -1.3792
10242WAT    EPW41690   1.046   6.660   5.491 -0.4981 -0.2157 -0.1412
10243WAT      O41691   0.847   5.478   1.984 -0.3938 -0.0216  0.2744
10243WAT     H141692   0.870   5.394   1.978  1.3451  0.5091 -1.8709
10243WAT     H241693   0.857   5.497   2.068 -0.2963 -1.8027  0.7032
10243WAT    EPW41694   0.852   5.469   1.995 -0.1226 -0.2063  0.0208
10244WAT      O41695   1.057   6.500   2.612  0.6501  0.0539 -0.1418
10244WAT     H141696   1.079   6.565   2.666  1.4881 -0.0215 -0.3724
10244WAT     H241697   1.096   6.430   2.647  0.4002 -0.1726 -0.3166
10244WAT    EPW41698   1.066   6.499   2.625  0.7370  0.0093 -0.2017
10245WAT      O41699   3.081   5.243   2.647 -0.1520  0.3257 -0.9035
10245WAT     H141700   3.141   5.182   2.662 -0.2706  0.2963 -0.5325
10245WAT     H241701   3.007   5.198   2.640 -0.4214  0.4989  0.4882
10245WAT    EPW41702   3.079   5.228   2.648 -0.2093  0.3470 -0.6431
10246WAT      O41703   1.548   6.737   4.751  0.0866 -0.4768 -0.4400
10246WAT     H141704   1.567   6.821   4.738  0.4758 -0.7590 -1.9387
10246WAT     H241705   1.461   6.737   4.761  0.1789  0.1832  0.4964
10246WAT    EPW41706   1.538   6.749   4.750  0.1577 -0.4210 -0.5231
10247WAT      O41707   2.157   6.018   2.624  0.2085 -0.4578  0.1986
10247WAT     H141708   2.201   6.082   2.583  1.7750 -1.7875 -0.3226
10247WAT     H241709   2.074   6.038   2.610  0.6686  0.6564 -1.2665
10247WAT    EPW41710   2.151   6.030   2.616  0.5079 -0.4897 -0.0948
10248WAT      O41711   2.590   4.952   2.194 -0.1068 -0.1494  0.5063
10248WAT     H141712   2.519   5.002   2.188 -0.6826 -0.9206  0.8456
10248WAT     H241713   2.648   4.994   2.143 -0.8798  0.3298 -0.0072
10248WAT    EPW41714   2.588   4.966   2.186 -0.3060 -0.1925  0.4806
10249WAT      O41715   1.332   6.354   3.148  0.1395  0.0495  0.4138
10249WAT     H141716   1.300   6.387   3.074 -0.1044 -0.2757  0.3746
10249WAT     H241717   1.265   6.308   3.181  0.8494 -1.4562 -0.1598
10249WAT    EPW41718   1.317   6.352   3.142  0.2083 -0.2209  0.3233
10250WAT      O41719   1.627   5.460   4.439  0.3160 -0.0381  0.1264
10250WAT     H141720   1.674   5.389   4.420 -1.6742 -1.5431  0.5007
10250WAT     H241721   1.616   5.455   4.525  0.8435  1.2114  0.2884
10250WAT    EPW41722   1.632   5.448   4.449  0.0999 -0.0758  0.2056
10251WAT      O41723   2.873   6.893   3.011 -0.1916  0.5978  1.0288
10251WAT     H141724   2.876   6.851   2.934  0.8814  0.4116  1.1587
10251WAT     H241725   2.844   6.832   3.066 -0.0707  0.4610  0.9416
10251WAT    EPW41726   2.869   6.878   3.008 -0.0153  0.5501  1.0351
10252WAT      O41727   1.659   5.275   2.534  0.9926  0.7594  0.6169
10252WAT     H141728   1.694   5.347   2.499 -0.2097  0.3086 -1.7477
10252WAT     H241729   1.695   5.271   2.613  2.8699  2.6554 -0.0407
10252WAT    EPW41730   1.669   5.285   2.540  1.0923  0.9729  0.1705
10253WAT      O41731   2.098   4.889   3.390 -0.0969  0.1786  0.1578
10253WAT     H141732   2.100   4.976   3.403 -1.2733 -0.0376  2.3450
10253WAT     H241733   2.129   4.857   3.465  0.3112 -1.3139 -0.6179
10253WAT    EPW41734   2.103   4.897   3.403 -0.2104 -0.0738  0.3663
10254WAT      O41735   2.891   6.668   4.595 -0.5244 -0.2864 -0.1735
10254WAT     H141736   2.908   6.663   4.510  2.4990  0.7458  0.2350
10254WAT     H241737   2.955   6.621   4.631 -0.9383  0.4044  1.5591
10254WAT    EPW41738   2.903   6.660   4.588 -0.1389 -0.0319  0.1428
10255WAT      O41739   0.995   5.062   1.231  0.0112 -0.0375 -0.1729
10255WAT     H141740   1.014   5.094   1.153  1.6323  0.9965  0.5896
10255WAT     H241741   0.982   5.134   1.279  1.1733 -0.5619  0.9877
10255WAT    EPW41742   0.996   5.078   1.227  0.4223  0.0378  0.1112
10256WAT      O41743   1.389   5.308   4.351  0.2306 -0.0323 -0.1196
10256WAT     H141744   1.352   5.275   4.278 -0.8532  0.3094  0.2627
10256WAT     H241745   1.438   5.374   4.321  0.0128 -0.0703 -0.5716
10256WAT    EPW41746   1.391   5.313   4.336  0.0383  0.0126 -0.1299
10257WAT      O41747   1.219   5.699   3.208  0.0223 -0.0660 -0.4133
10257WAT     H141748   1.276   5.634   3.215 -0.9534 -0.7705  1.6421
10257WAT     H241749   1.261   5.767   3.244  0.1459 -0.1739 -0.3532
10257WAT    EPW41750   1.234   5.700   3.214 -0.1035 -0.1860 -0.1008
10258WAT      O41751   0.942   5.610   3.278 -0.2358  0.0835 -0.2592
10258WAT     H141752   0.971   5.529   3.293  0.1744 -0.1607 -2.0696
10258WAT     H241753   1.016   5.657   3.272 -0.4464  0.4734  0.1841
10258WAT    EPW41754   0.957   5.605   3.279 -0.2063  0.1050 -0.4612
10259WAT      O41755   0.734   4.805   2.163  0.1724  0.4082  0.3308
10259WAT     H141756   0.743   4.770   2.242 -2.6543 -1.9329 -0.2048
10259WAT     H241757   0.770   4.746   2.110 -2.4957 -0.7176 -0.4038
10259WAT    EPW41758   0.741   4.791   2.167 -0.6393 -0.1040  0.1432
10260WAT      O41759   1.639   5.786   2.849 -0.4245 -0.0130 -0.2787
10260WAT     H141760   1.680   5.740   2.788 -0.0261 -1.8695  1.2715
10260WAT     H241761   1.702   5.834   2.886 -0.4157  0.1387 -0.4931
10260WAT    EPW41762   1.654   5.786   2.846 -0.3643 -0.2648 -0.0814
10261WAT      O41763   1.642   7.325   3.732  0.6026  0.0242  0.1038
10261WAT     H141764   1.615   7.401   3.698 -0.4737 -0.2457  0.3395
10261WAT     H241765   1.722   7.316   3.698 -0.4721 -0.3514 -2.5930
10261WAT    EPW41766   1.650   7.335   3.722  0.2849 -0.0712 -0.2597
10262WAT      O41767   3.062   6.525   3.640 -0.3438 -0.6818  0.4871
10262WAT     H141768   3.123   6.490   3.588  0.1260 -1.2542  1.3953
10262WAT     H241769   3.005   6.560   3.584  1.7696  1.6218 -0.3697
10262WAT    EPW41770   3.063   6.525   3.624  0.0378 -0.4261  0.4947
10263WAT      O41771   1.758   4.440   2.642 -0.4864  0.5291  0.0627
10263WAT     H141772   1.821   4.421   2.586 -0.0094  1.0063  0.4309
10263WAT     H241773   1.730   4.519   2.617 -1.0134  0.2747 -0.1663
10263WAT    EPW41774   1.763   4.449   2.630 -0.4938  0.5620  0.0832
10264WAT      O41775   1.448   4.789   2.749 -0.1525 -0.3522 -0.0423
10264WAT     H141776   1.412   4.712   2.729 -1.7925  0.7410 -1.5563
10264WAT     H241777   1.470   4.823   2.672 -2.3803  2.0048  0.2303
10264WAT    EPW41778   1.446   4.782   2.735 -0.7238  0.1575 -0.2256
10265WAT      O41779   1.595   6.448   2.899  0.4270  0.4220  0.3890
10265WAT     H141780   1.577   6.364   2.887  1.8076 -0.2573  2.5464
10265WAT     H241781   1.623   6.475   2.821 -2.1352 -0.4627 -0.9542
10265WAT    EPW41782   1.596   6.440   2.885  0.2524  0.1909  0.5093
10266WAT      O41783   0.753   6.443   4.016  0.3551 -0.0957 -0.2788
10266WAT     H141784   0.689   6.459   3.959  0.6183  3.2338  0.2115
10266WAT     H241785   0.761   6.517   4.060  1.9396 -1.6907  2.3873
10266WAT    EPW41786   0.745   6.456   4.014  0.6280  0.1605  0.1874
10267WAT      O41787   0.838   4.594   3.734  0.4130 -0.5715 -0.0716
10267WAT     H141788   0.789   4.638   3.676  2.4282  1.9322 -0.0650
10267WAT     H241789   0.919   4.600   3.702  1.3725 -0.4819  2.1788
10267WAT    EPW41790   0.843   4.602   3.721  0.8524 -0.1884  0.2618
10268WAT      O41791   0.638   7.060   3.255  0.2558  0.0837  0.1220
10268WAT     H141792   0.635   6.988   3.206  0.0587  0.2283 -0.0794
10268WAT     H241793   0.660   7.123   3.198 -0.1569  0.2847  0.1811
10268WAT    EPW41794   0.641   7.059   3.239  0.1657  0.1348  0.1010
10269WAT      O41795   2.608   5.126   1.539  0.1448  0.2272 -0.0164
10269WAT     H141796   2.677   5.084   1.573  1.0467  0.6661 -1.2317
10269WAT     H241797   2.592   5.082   1.465 -0.8281  0.1913  0.2070
10269WAT    EPW41798   2.616   5.113   1.533  0.1343  0.2868 -0.1629
10270WAT      O41799   2.661   6.357   2.683  0.5579  0.1667 -0.2508
10270WAT     H141800   2.743   6.383   2.675  0.1375  2.2037  1.2131
10270WAT     H241801   2.653   6.340   2.768 -1.3420  3.4388  0.4061
10270WAT    EPW41802   2.672   6.358   2.694  0.2151  0.9509  0.0625
10271WAT      O41803   0.860   6.453   3.318  0.4186 -0.4216 -0.1668
10271WAT     H141804   0.933   6.410   3.300  0.7128 -0.6559  1.4519
10271WAT     H241805   0.888   6.528   3.353 -0.0930 -0.3943  0.2066
10271WAT    EPW41806   0.875   6.458   3.321  0.3865 -0.4521  0.1275
10272WAT      O41807   1.176   5.633   2.928  0.1659 -0.0920 -1.0923
10272WAT     H141808   1.196   5.668   3.006 -0.0855 -1.8855 -0.1612
10272WAT     H241809   1.229   5.675   2.873  0.6955  0.9004  0.1114
10272WAT    EPW41810   1.187   5.644   2.932  0.2070 -0.2104 -0.7770
10273WAT      O41811   0.884   4.241   1.235  0.0705 -0.0453 -0.2125
10273WAT     H141812   0.813   4.190   1.228  0.4035 -0.2916 -3.5395
10273WAT     H241813   0.950   4.186   1.220  0.6583  0.7808 -0.7624
10273WAT    EPW41814   0.883   4.225   1.232  0.2065  0.0403 -0.7852
10274WAT      O41815   1.732   5.581   1.064 -0.3505 -0.2673  0.2609
10274WAT     H141816   1.771   5.570   0.986 -0.7776  0.1391 -0.0082
10274WAT     H241817   1.740   5.502   1.101  0.0782 -0.3955 -0.0913
10274WAT    EPW41818   1.739   5.567   1.058 -0.3502 -0.2262  0.1691
10275WAT      O41819   1.194   4.955   4.631 -0.5095 -0.0402 -0.5431
10275WAT     H141820   1.211   5.015   4.692  0.2674  1.0209 -1.7573
10275WAT     H241821   1.179   4.883   4.678 -2.0387  1.1859  0.9928
10275WAT    EPW41822   1.194   4.953   4.647 -0.6206  0.2977 -0.4955
10276WAT      O41823   1.189   4.877   3.769 -0.1526 -0.1130 -0.2772
10276WAT     H141824   1.236   4.932   3.720 -0.8260 -1.4667 -2.6096
10276WAT     H241825   1.247   4.849   3.828  1.6982 -0.7300 -2.2363
10276WAT    EPW41826   1.205   4.881   3.770  0.0213 -0.4041 -0.9112
10277WAT      O41827   1.569   4.974   5.366  0.0095 -0.2232  0.1236
10277WAT     H141828   1.483   4.986   5.369  0.0712  0.3465 -0.2843
10277WAT     H241829   1.601   5.053   5.351  0.5601 -0.5362 -0.4226
10277WAT    EPW41830   1.561   4.987   5.364  0.0999 -0.1853 -0.0173
10278WAT      O41831   2.130   5.468   2.608  0.0275  0.0106  0.2137
10278WAT     H141832   2.112   5.545   2.571  1.2131  0.1856 -0.0663
10278WAT     H241833   2.107   5.410   2.547  1.0820  0.2555 -0.4414
10278WAT    EPW41834   2.124   5.471   2.593  0.3584  0.0726  0.0755
10279WAT      O41835   1.222   4.636   3.053  0.4708  0.0900  0.1054
10279WAT     H141836   1.167   4.570   3.063  1.1829 -0.8261 -1.5957
10279WAT     H241837   1.183   4.702   3.095 -1.8456 -0.5404 -0.9073
10279WAT    EPW41838   1.208   4.636   3.061  0.2338 -0.1385 -0.2955
10280WAT      O41839   1.779   5.480   1.907 -0.0037 -0.0847 -0.0239
10280WAT     H141840   1.820   5.497   1.832  0.2471 -0.2297  0.0785
10280WAT     H241841   1.770   5.393   1.905 -1.5479  0.0640 -0.6948
10280WAT    EPW41842   1.784   5.469   1.896 -0.1948 -0.0842 -0.1079
10281WAT      O41843   1.801   5.128   3.092  0.0914  0.6484  0.0238
10281WAT     H141844   1.840   5.206   3.085  0.3816  0.3275 -3.8037
10281WAT     H241845   1.722   5.142   3.059 -0.8593 -0.1715  1.8125
10281WAT    EPW41846   1.795   5.142   3.086 -0.0061  0.4799 -0.2774
10282WAT      O41847   0.896   4.440   1.889 -0.0149 -0.3427  0.2746
10282WAT     H141848   0.854   4.452   1.814 -0.4455  2.6366  0.8605
10282WAT     H241849   0.903   4.520   1.922  0.5695 -1.4540  3.2187
10282WAT    EPW41850   0.891   4.453   1.883  0.0079 -0.0668  0.7961
10283WAT      O41851   1.260   5.207   4.129 -0.4591 -0.2558  0.5992
10283WAT     H141852   1.199   5.263   4.102  0.0284  0.5544  1.1316
10283WAT     H241853   1.295   5.178   4.055 -0.8600 -0.0211  0.3097
10283WAT    EPW41854   1.256   5.211   4.114 -0.4463 -0.1014  0.6351
10284WAT      O41855   1.572   5.773   2.330 -0.3649 -0.6640  0.6183
10284WAT     H141856   1.632   5.718   2.361  0.3109 -0.0007  0.5316
10284WAT     H241857   1.498   5.747   2.369 -0.0750 -1.6439  0.5408
10284WAT    EPW41858   1.570   5.761   2.340 -0.2222 -0.7108  0.5941
10285WAT      O41859   1.446   4.806   3.370  0.0543  0.2879  0.4827
10285WAT     H141860   1.439   4.737   3.424 -1.5310 -0.1176 -0.1980
10285WAT     H241861   1.532   4.808   3.352  0.3808 -0.5545  1.7200
10285WAT    EPW41862   1.458   4.796   3.376 -0.1317  0.1035  0.5649
10286WAT      O41863   1.271   4.728   4.202 -0.0472 -0.1550  0.6231
10286WAT     H141864   1.224   4.792   4.237  0.9973  0.6453  0.6066
10286WAT     H241865   1.331   4.711   4.264  0.7011  0.0263 -0.0418
10286WAT    EPW41866   1.273   4.735   4.217  0.2177 -0.0100  0.5224
10287WAT      O41867   2.470   6.185   3.049 -0.4321 -0.0925  0.5335
10287WAT     H141868   2.414   6.156   2.989  0.3072 -2.3488  0.8305
10287WAT     H241869   2.469   6.122   3.110  0.6549  0.9580  1.6910
10287WAT    EPW41870   2.461   6.171   3.049 -0.1623 -0.2706  0.7484
10288WAT      O41871   1.272   5.960   1.753  0.1866 -0.3809 -0.2525
10288WAT     H141872   1.332   5.901   1.728  2.4494  1.3898  0.6436
10288WAT     H241873   1.259   6.007   1.681  0.8190 -0.0403 -0.1537
10288WAT    EPW41874   1.279   5.958   1.739  0.6143 -0.0690 -0.1055
10289WAT      O41875   2.724   6.685   3.157  0.2864 -0.3288 -0.2997
10289WAT     H141876   2.726   6.699   3.243  0.2588  0.2436 -0.3896
10289WAT     H241877   2.789   6.628   3.144 -0.4167 -1.2959  0.2506
10289WAT    EPW41878   2.734   6.679   3.168  0.1784 -0.3871 -0.2317
10290WAT      O41879   2.282   5.014   2.176  0.0112  0.2305 -0.0587
10290WAT     H141880   2.308   5.023   2.259  0.4087  0.4214 -0.2016
10290WAT     H241881   2.293   4.929   2.160  0.5797  0.3150 -0.1265
10290WAT    EPW41882   2.287   5.003   2.186  0.1539  0.2712 -0.0898
10291WAT      O41883   1.641   6.095   3.544 -0.1868 -0.4419  0.5144
10291WAT     H141884   1.560   6.116   3.518  0.7631  2.1686 -0.7753
10291WAT     H241885   1.647   6.130   3.624 -0.2104 -0.2173  0.4198
10291WAT    EPW41886   1.630   6.103   3.552 -0.0500 -0.0231  0.3099
10292WAT      O41887   1.178   5.269   3.713 -0.5646  0.7131  0.4500
10292WAT     H141888   1.213   5.333   3.666  0.3364 -0.1453 -0.1041
10292WAT     H241889   1.162   5.207   3.653  0.4308 -0.3269  1.2212
10292WAT    EPW41890   1.181   5.269   3.697 -0.2844  0.4327  0.4821
10293WAT      O41891   1.596   2.263   1.668 -0.2869 -0.1167  0.2631
10293WAT     H141892   1.578   2.217   1.740 -1.3975 -0.3963 -0.1741
10293WAT     H241893   1.677   2.292   1.682 -0.4767 -0.1787  1.6124
10293WAT    EPW41894   1.606   2.260   1.681 -0.4790 -0.1672  0.3978
10294WAT      O41895   2.675   5.932   3.542  0.6723 -0.1147  0.3675
10294WAT     H141896   2.753   5.900   3.565  1.2130 -0.2600 -1.5038
10294WAT     H241897   2.641   5.869   3.493 -0.5262  0.0684  0.9330
10294WAT    EPW41898   2.681   5.918   3.538  0.5751 -0.1091  0.1746
10295WAT      O41899   1.499   5.115   2.738  0.2832 -0.0819  0.3004
10295WAT     H141900   1.414   5.102   2.723 -0.1415  1.6530  1.0058
10295WAT     H241901   1.538   5.079   2.669 -0.9474 -1.6925  0.3898
10295WAT    EPW41902   1.493   5.107   2.726  0.0387 -0.0635  0.4178
10296WAT      O41903   3.557   5.651   2.396  0.8068  0.0901 -0.1731
10296WAT     H141904   3.548   5.714   2.456  2.8892 -0.0309  0.3240
10296WAT     H241905   3.475   5.626   2.380 -0.2968  3.9014 -1.4972
10296WAT    EPW41906   3.543   5.656   2.402  0.9514  0.6352 -0.2952
10297WAT      O41907   0.851   4.612   4.056  0.7799 -0.0736  0.1340
10297WAT     H141908   0.851   4.685   4.103 -1.1548 -1.5117  2.5834
10297WAT     H241909   0.802   4.632   3.987  2.5983  1.6906 -0.7660
10297WAT    EPW41910   0.844   4.626   4.053  0.7627 -0.0254  0.3629
10298WAT      O41911   2.285   6.691   3.510 -0.5434 -0.0401 -0.0135
10298WAT     H141912   2.310   6.771   3.536 -0.6413  0.2432 -0.7570
10298WAT     H241913   2.358   6.658   3.474 -0.4198 -0.4091  0.5640
10298WAT    EPW41914   2.300   6.698   3.509 -0.5396 -0.0528 -0.0380
10299WAT      O41915   0.952   4.971   2.205  0.4042  0.1821 -0.6690
10299WAT     H141916   0.944   4.992   2.289 -1.0119  2.6917 -1.3221
10299WAT     H241917   0.888   4.912   2.193  1.2094 -0.9084  0.1507
10299WAT    EPW41918   0.942   4.965   2.216  0.3139  0.3917 -0.6444
10300WAT      O41919   3.460   5.167   2.943  0.2925  0.2506 -0.7990
10300WAT     H141920   3.504   5.128   3.006 -1.0706 -2.0960 -1.1659
10300WAT     H241921   3.406   5.221   2.985  0.6685  0.0829 -0.0997
10300WAT    EPW41922   3.458   5.169   2.958  0.1467 -0.1208 -0.7499
10301WAT      O41923   1.998   6.341   2.787  0.0891  0.3791  0.0401
10301WAT     H141924   2.083   6.358   2.794  0.2176 -0.5418  0.9165
10301WAT     H241925   1.962   6.393   2.848  0.1586 -0.1660  0.5490
10301WAT    EPW41926   2.005   6.351   2.797  0.1183  0.1625  0.2448
10302WAT      O41927   3.159   4.613   3.107 -0.0121 -0.2181  0.0385
10302WAT     H141928   3.210   4.563   3.058  0.8636  0.0036  0.7027
10302WAT     H241929   3.213   4.672   3.141 -0.8071  0.3943  0.2904
10302WAT    EPW41930   3.174   4.615   3.105 -0.0002 -0.0949  0.1738
10303WAT      O41931   1.309   4.926   0.388  0.3713  0.4456 -0.4899
10303WAT     H141932   1.382   4.969   0.407 -0.5416  1.0054  2.2320
10303WAT     H241933   1.323   4.846   0.420 -0.2766  0.6607  0.3884
10303WAT    EPW41934   1.322   4.921   0.396  0.1407  0.5601  0.0419
10304WAT      O41935   0.629   6.724   2.515  0.2036  0.1531 -0.1446
10304WAT     H141936   0.694   6.666   2.510  0.1595  0.1080 -0.1954
10304WAT     H241937   0.570   6.694   2.458 -1.1515 -1.4197  1.9603
10304WAT    EPW41938   0.630   6.711   2.505 -0.0031 -0.0859  0.1588
10305WAT      O41939   2.466   6.587   3.067  0.0212  0.2225 -0.5200
10305WAT     H141940   2.408   6.652   3.065  0.3212  0.5318  0.4433
10305WAT     H241941   2.543   6.627   3.074  0.4342 -0.1665 -2.3750
10305WAT    EPW41942   2.469   6.603   3.068  0.1265  0.2107 -0.6517
10306WAT      O41943   1.244   5.367   2.951  0.3306 -0.2347  0.6193
10306WAT     H141944   1.239   5.453   2.938  0.7843 -0.0077  1.8379
10306WAT     H241945   1.216   5.334   2.875 -0.4472  0.9751  0.3396
10306WAT    EPW41946   1.239   5.375   2.938  0.2827 -0.0224  0.7580
10307WAT      O41947   1.079   5.068   0.940 -0.4585  0.4578 -0.5333
10307WAT     H141948   1.030   5.019   0.889 -0.8247  1.7511 -1.4771
10307WAT     H241949   1.148   5.089   0.890 -0.6751  1.4995 -0.4287
10307WAT    EPW41950   1.082   5.064   0.925 -0.5446  0.8027 -0.6573
10308WAT      O41951   0.932   7.159   2.556  0.4800 -0.1726 -0.0613
10308WAT     H141952   0.887   7.085   2.565 -0.1955  0.2212 -0.1834
10308WAT     H241953   0.871   7.219   2.539  0.9229  0.5903  0.9414
10308WAT    EPW41954   0.916   7.157   2.555  0.4457 -0.0018  0.0688
10309WAT      O41955   1.080   5.115   3.498 -0.1890 -0.3301  0.1523
10309WAT     H141956   1.002   5.077   3.507 -1.1562  1.7871  1.2377
10309WAT     H241957   1.066   5.178   3.439  0.5833  0.3872  0.7206
10309WAT    EPW41958   1.067   5.118   3.490 -0.2178  0.0886  0.3966
10310WAT      O41959   1.989   6.962   4.085  0.2557  0.6614 -0.0067
10310WAT     H141960   1.951   6.992   4.013 -0.2003 -1.2184 -0.5999
10310WAT     H241961   1.922   6.947   4.139  0.4537  0.4318  0.1768
10310WAT    EPW41962   1.973   6.964   4.083  0.2176  0.3498 -0.0672
10311WAT      O41963   1.417   4.329   3.613  0.4850 -0.1818  0.1441
10311WAT     H141964   1.419   4.294   3.693 -0.7627  0.2013  0.3658
10311WAT     H241965   1.422   4.415   3.629  0.5368 -0.1176 -0.2095
10311WAT    EPW41966   1.418   4.337   3.627  0.3084 -0.1158  0.1246
10312WAT      O41967   1.438   6.276   3.965  0.5253 -0.0872 -0.7742
10312WAT     H141968   1.390   6.203   3.970 -1.6739  1.1452 -2.3995
10312WAT     H241969   1.379   6.340   3.961  2.3672  1.7350 -0.4800
10312WAT    EPW41970   1.422   6.275   3.965  0.4725  0.3640 -0.9709
10313WAT      O41971   1.956   4.472   2.422  0.4840 -0.2132  0.3152
10313WAT     H141972   2.019   4.413   2.406  0.8898  0.7452 -2.1196
10313WAT     H241973   1.912   4.476   2.346  0.9410  3.0821  0.0780
10313WAT    EPW41974   1.959   4.464   2.408  0.6114  0.4152 -0.0795
10314WAT      O41975   0.646   7.018   3.510 -0.4713 -0.0591 -0.1598
10314WAT     H141976   0.636   7.031   3.425 -2.0924 -0.0171 -0.0037
10314WAT     H241977   0.688   7.089   3.538 -1.0294  0.5196 -0.7499
10314WAT    EPW41978   0.650   7.030   3.502 -0.7932  0.0326 -0.2239
10315WAT      O41979   3.756   4.120   2.412  0.6120  0.0388  0.2484
10315WAT     H141980   3.754   4.036   2.388  0.3705 -0.1647  0.9575
10315WAT     H241981   3.706   4.123   2.483  1.3925  0.5928  0.8005
10315WAT    EPW41982   3.749   4.108   2.419  0.6917  0.0906  0.4347
10316WAT      O41983   1.808   5.200   1.936  0.4841 -0.1641 -0.4666
10316WAT     H141984   1.893   5.216   1.927  0.3215 -0.3616 -2.8971
10316WAT     H241985   1.798   5.122   1.899 -0.6582 -0.5109  0.5159
10316WAT    EPW41986   1.819   5.191   1.929  0.2914 -0.2445 -0.6805
10317WAT      O41987   0.811   5.211   3.723  0.1275 -0.5049  0.3118
10317WAT     H141988   0.733   5.212   3.762 -0.0780 -2.0033 -0.0002
10317WAT     H241989   0.853   5.145   3.762  1.3902  0.4980  0.7274
10317WAT    EPW41990   0.806   5.201   3.734  0.2837 -0.5781  0.3271
10318WAT      O41991   1.223   4.959   2.115  0.2457  0.1888  0.2596
10318WAT     H141992   1.150   5.002   2.136  0.6719  0.5634  1.0438
10318WAT     H241993   1.274   4.969   2.186  2.0215  2.0385 -1.1669
10318WAT    EPW41994   1.220   4.967   2.129  0.5710  0.5174  0.1647
10319WAT      O41995   0.936   6.737   3.092  0.0277  0.0378  0.1254
10319WAT     H141996   1.017   6.767   3.107 -0.5367  1.6290  0.2668
10319WAT     H241997   0.946   6.682   3.026  1.2647  0.0070  0.3112
10319WAT    EPW41998   0.949   6.733   3.085  0.1270  0.2683  0.1737
10320WAT      O41999   1.036   6.127   2.832  0.1179 -0.0164  0.2405
10320WAT     H142000   0.993   6.060   2.868  0.2660 -1.7037 -2.3984
10320WAT     H242001   0.994   6.140   2.756  1.2580  1.6168 -0.1551
10320WAT    EPW42002   1.024   6.119   2.826  0.3082 -0.0244 -0.2078
10321WAT      O42003   1.632   4.876   1.165  0.4510  0.4092  0.6638
10321WAT     H142004   1.629   4.854   1.250  0.6305 -0.2417  0.5057
10321WAT     H242005   1.554   4.850   1.135  1.1515 -1.2610  0.1898
10321WAT    EPW42006   1.620   4.869   1.173  0.5810  0.0663  0.5704
10322WAT      O42007   1.167   4.644   2.720 -0.3996 -0.7943 -0.3785
10322WAT     H142008   1.196   4.572   2.760 -1.0577 -1.7297 -1.5415
10322WAT     H242009   1.089   4.658   2.757 -0.0078 -0.2888  0.2889
10322WAT    EPW42010   1.160   4.635   2.732 -0.4390 -0.8578 -0.4517
10323WAT      O42011   2.203   5.767   0.313  0.5158 -0.1548  0.1412
10323WAT     H142012   2.167   5.840   0.281  0.4684 -0.4339 -0.4605
10323WAT     H242013   2.277   5.759   0.267  0.4595 -0.5501  0.1158
10323WAT    EPW42014   2.209   5.777   0.302  0.5005 -0.2544  0.0485
10324WAT      O42015   2.236   4.384   0.446 -0.3550  0.4657 -0.0697
10324WAT     H142016   2.257   4.354   0.367  0.2805 -0.7669  0.5240
10324WAT     H242017   2.288   4.453   0.456 -0.8774  1.0014 -0.9537
10324WAT    EPW42018   2.247   4.390   0.436 -0.3383  0.3628 -0.1126
10325WAT      O42019   1.552   3.838   3.336 -0.4896  0.4455  0.5938
10325WAT     H142020   1.585   3.757   3.337 -0.8040  0.3104  1.9577
10325WAT     H242021   1.466   3.826   3.324 -0.3784  0.6713 -0.5722
10325WAT    EPW42022   1.544   3.825   3.334 -0.5196  0.4589  0.6231
10326WAT      O42023   0.848   5.943   2.890  0.2352 -0.7092 -0.5931
10326WAT     H142024   0.778   5.933   2.839 -0.3997 -1.6422  0.4365
10326WAT     H242025   0.863   5.863   2.920  0.0724 -0.0318  1.3823
10326WAT    EPW42026   0.840   5.930   2.887  0.1174 -0.7470 -0.1492
10327WAT      O42027   1.172   5.260   0.407 -0.7042  0.2709 -0.1687
10327WAT     H142028   1.186   5.216   0.333 -0.3514 -1.6765  0.9959
10327WAT     H242029   1.222   5.331   0.398 -0.3585 -0.1148 -1.6275
10327WAT    EPW42030   1.181   5.264   0.395 -0.6010 -0.0738 -0.2121
10328WAT      O42031   2.280   5.477   3.099  0.1463  0.3111 -0.1045
10328WAT     H142032   2.320   5.501   3.172  0.0036 -0.1017  0.1119
10328WAT     H242033   2.257   5.553   3.062 -0.9361  0.5094  0.9231
10328WAT    EPW42034   2.282   5.491   3.104 -0.0347  0.2794  0.0792
10329WAT      O42035   1.748   4.960   1.762  0.3216 -0.6090  1.0000
10329WAT     H142036   1.796   4.899   1.802  0.3912 -0.0016  1.8821
10329WAT     H242037   1.666   4.935   1.777  0.3481 -1.0758  0.4013
10329WAT    EPW42038   1.743   4.947   1.770  0.3358 -0.5882  1.0419
10330WAT      O42039   1.745   6.327   4.927 -0.6396 -0.2950 -0.2880
10330WAT     H142040   1.693   6.296   4.864 -1.4570  0.1209  0.1596
10330WAT     H242041   1.689   6.362   4.984  0.1443  0.2255  0.1810
10330WAT    EPW42042   1.729   6.328   4.926 -0.6446 -0.1567 -0.1526
10331WAT      O42043   2.185   5.890   3.610 -0.0653  0.0821  0.1786
10331WAT     H142044   2.116   5.894   3.663  0.5170 -1.4485  1.1231
10331WAT     H242045   2.251   5.917   3.661  0.5408 -1.6333  0.3652
10331WAT    EPW42046   2.185   5.895   3.626  0.1102 -0.3974  0.3457
10332WAT      O42047   2.011   5.129   4.130  0.1833 -0.3190  0.5192
10332WAT     H142048   2.037   5.203   4.168  1.2933  0.6722 -1.9364
10332WAT     H242049   2.078   5.075   4.143  1.1352  0.4294 -0.9910
10332WAT    EPW42050   2.025   5.132   4.137  0.4879 -0.0620 -0.0666
10333WAT      O42051   1.324   6.205   3.660  0.4070  0.3497 -0.1472
10333WAT     H142052   1.256   6.247   3.625  0.6715  0.7539 -0.1799
10333WAT     H242053   1.379   6.269   3.681  0.7417  0.0303 -0.0431
10333WAT    EPW42054   1.322   6.221   3.658  0.4955  0.3622 -0.1367
10334WAT      O42055   1.363   4.767   3.944  0.1317  0.0394  0.4609
10334WAT     H142056   1.347   4.784   4.029  1.5610 -0.2377  0.8012
10334WAT     H242057   1.405   4.691   3.946  0.6634  0.3006 -0.4523
10334WAT    EPW42058   1.367   4.759   3.957  0.4214  0.0371  0.3763
10335WAT      O42059   2.007   5.933   2.301  0.3242 -0.2139 -0.4240
10335WAT     H142060   1.940   5.980   2.331  0.4195  0.8205 -1.7350
10335WAT     H242061   1.973   5.891   2.233  0.8276 -0.2457 -0.6563
10335WAT    EPW42062   1.992   5.934   2.295  0.4126 -0.0658 -0.6520
10336WAT      O42063   1.294   6.029   2.870  0.3548 -0.2381 -0.1496
10336WAT     H142064   1.210   6.046   2.859  0.1304 -0.9940  0.3046
10336WAT     H242065   1.309   5.962   2.818  0.8173  0.2398 -0.6445
10336WAT    EPW42066   1.284   6.022   2.861  0.3899 -0.2792 -0.1556
10337WAT      O42067   1.438   6.082   3.133 -0.0380 -0.2652 -0.1547
10337WAT     H142068   1.425   6.168   3.142  1.6129  0.0251 -0.3465
10337WAT     H242069   1.414   6.066   3.050  2.3421  0.6087 -1.1040
10337WAT    EPW42070   1.432   6.092   3.122  0.5574 -0.0932 -0.3233
10338WAT      O42071   1.970   6.019   4.291  0.2221  0.6953  0.1622
10338WAT     H142072   1.956   6.017   4.377  1.2951 -0.1740  0.3469
10338WAT     H242073   1.896   6.051   4.258 -0.3474  0.6632  1.3790
10338WAT    EPW42074   1.957   6.023   4.299  0.2965  0.5621  0.3692
10339WAT      O42075   1.141   3.816   2.990 -0.1225  0.3667 -0.7235
10339WAT     H142076   1.098   3.892   2.990 -2.8297 -1.0398 -0.0422
10339WAT     H242077   1.103   3.771   3.054  0.7152 -1.9047 -1.7130
10339WAT    EPW42078   1.129   3.820   2.999 -0.3986 -0.1766 -0.7690
10340WAT      O42079   3.209   5.919   3.679  0.2895  0.0770 -0.1423
10340WAT     H142080   3.225   5.972   3.747 -0.2463 -0.4361  0.3915
10340WAT     H242081   3.219   5.972   3.610  1.9288  0.3470  0.2631
10340WAT    EPW42082   3.213   5.935   3.679  0.4525  0.0411 -0.0036
10341WAT      O42083   2.078   5.430   3.543 -0.3488 -0.5033 -0.1827
10341WAT     H142084   2.126   5.499   3.521  1.1597 -1.5019 -0.1621
10341WAT     H242085   2.010   5.433   3.488  0.3805  0.2424 -1.0559
10341WAT    EPW42086   2.075   5.440   3.532 -0.0182 -0.5407 -0.3087
10342WAT      O42087   0.895   7.658   1.624 -0.6238 -0.3164  0.1460
10342WAT     H142088   0.883   7.744   1.618 -1.3116 -0.4607 -0.7703
10342WAT     H242089   0.911   7.645   1.709 -0.7012  0.6878  0.3243
10342WAT    EPW42090   0.896   7.669   1.635 -0.7369 -0.1894  0.0370
10343WAT      O42091   1.047   4.530   2.302 -0.1314  0.8144 -0.6146
10343WAT     H142092   1.029   4.601   2.349 -0.6085 -0.2700  0.9330
10343WAT     H242093   1.086   4.477   2.359  0.4148 -0.1048 -1.7823
10343WAT    EPW42094   1.050   4.532   2.317 -0.1212  0.5184 -0.5585
10344WAT      O42095   1.054   6.315   3.025  0.3437 -0.2564  0.3950
10344WAT     H142096   1.035   6.246   2.974 -3.9234  0.4703  0.5847
10344WAT     H242097   1.039   6.285   3.106  0.0192  0.4294  0.5978
10344WAT    EPW42098   1.049   6.300   3.030 -0.3346 -0.0478  0.4530
10345WAT      O42099   1.387   5.487   3.155  0.3009  0.2022 -0.0195
10345WAT     H142100   1.351   5.433   3.096  3.2724 -1.3783 -0.6248
10345WAT     H242101   1.462   5.511   3.116  0.2373  2.8398  1.3052
10345WAT    EPW42102   1.393   5.483   3.140  0.7305  0.3584  0.0868
10346WAT      O42103   0.829   5.124   4.122 -0.7274 -0.0216  0.4128
10346WAT     H142104   0.856   5.159   4.047 -1.5044 -0.2887  0.0038
10346WAT     H242105   0.859   5.179   4.183 -0.9173  0.7081 -0.1509
10346WAT    EPW42106   0.838   5.137   4.120 -0.8703  0.0467  0.2691
10347WAT      O42107   1.208   4.940   1.642  0.1499 -0.1209 -0.0618
10347WAT     H142108   1.243   4.982   1.573 -0.8495  0.1612 -0.4172
10347WAT     H242109   1.213   4.856   1.619 -0.4149 -0.0136 -0.6012
10347WAT    EPW42110   1.214   4.934   1.628 -0.0811 -0.0634 -0.1940
10348WAT      O42111   1.631   5.477   1.410  0.7118 -0.1013 -0.0235
10348WAT     H142112   1.572   5.418   1.436 -0.2729  0.4315 -0.9630
10348WAT     H242113   1.676   5.435   1.349  0.1008  0.0657 -0.5968
10348WAT    EPW42114   1.629   5.462   1.405  0.4761  0.0021 -0.2470
10349WAT      O42115   1.955   5.730   3.384 -0.7611 -0.5682 -0.2596
10349WAT     H142116   1.892   5.789   3.370 -1.6003 -1.1978  0.6773
10349WAT     H242117   1.959   5.686   3.309 -1.2814 -0.3665 -0.4103
10349WAT    EPW42118   1.946   5.733   3.371 -0.9619 -0.6314 -0.1435
10350WAT      O42119   0.533   4.885   3.710  0.2682  0.1505  0.1309
10350WAT     H142120   0.483   4.948   3.743  1.4275  1.3405 -0.2990
10350WAT     H242121   0.605   4.887   3.759  0.4975 -0.5578 -0.1573
10350WAT    EPW42122   0.537   4.894   3.722  0.4733  0.2216  0.0248
10351WAT      O42123   1.344   6.110   2.016  0.1605 -0.7651  0.0196
10351WAT     H142124   1.403   6.166   2.047 -0.9826 -0.4121  1.7082
10351WAT     H242125   1.327   6.141   1.935  0.6656  0.4175  0.3372
10351WAT    EPW42126   1.350   6.123   2.008  0.0662 -0.5383  0.3160
10352WAT      O42127   1.106   7.025   4.368 -0.2855 -0.1469  0.6041
10352WAT     H142128   1.137   7.062   4.295  0.4382 -0.9896  0.4579
10352WAT     H242129   1.089   7.093   4.420 -0.2924  0.4430 -0.1528
10352WAT    EPW42130   1.108   7.041   4.365 -0.1796 -0.1842  0.4707
10353WAT      O42131   1.120   5.185   1.806  0.0927  0.6824  0.3977
10353WAT     H142132   1.183   5.125   1.807 -0.8027 -0.2909  0.1362
10353WAT     H242133   1.094   5.189   1.889 -0.4716  0.0092  0.2634
10353WAT    EPW42134   1.125   5.177   1.819 -0.1229  0.4392  0.3392
10354WAT      O42135   1.121   4.269   1.895  0.1196 -0.4521  0.1629
10354WAT     H142136   1.091   4.212   1.954 -1.5154 -0.4289 -0.5922
10354WAT     H242137   1.063   4.334   1.899  1.2680  0.6075  0.1321
10354WAT    EPW42138   1.108   4.270   1.904  0.0477 -0.2921  0.0468
10355WAT      O42139   1.272   5.253   2.262  0.0997  0.4700  0.3541
10355WAT     H142140   1.282   5.167   2.273 -1.6393 -0.0253 -1.3214
10355WAT     H242141   1.186   5.264   2.265  0.0334  1.5877 -2.6020
10355WAT    EPW42142   1.261   5.242   2.264 -0.1670  0.5619 -0.3301
10356WAT      O42143   2.844   6.505   3.478 -0.2574 -0.0381 -0.5025
10356WAT     H142144   2.764   6.539   3.470  0.2426  1.5535  0.7000
10356WAT     H242145   2.854   6.458   3.405 -1.2523  1.9601 -2.0260
10356WAT    EPW42146   2.834   6.503   3.466 -0.3305  0.4922 -0.5499
10357WAT      O42147   1.389   4.608   3.571 -0.0100 -0.3188  0.0152
10357WAT     H142148   1.328   4.598   3.510 -0.0060 -1.6636  0.2166
10357WAT     H242149   1.343   4.609   3.646  0.1181 -0.2146  0.0935
10357WAT    EPW42150   1.373   4.607   3.573  0.0095 -0.5021  0.0565
10358WAT      O42151   1.810   6.730   3.446 -0.7031  0.1810 -0.1838
10358WAT     H142152   1.827   6.648   3.424 -0.5652  0.4718 -1.2078
10358WAT     H242153   1.883   6.773   3.425 -1.2662  0.7865 -0.9592
10358WAT    EPW42154   1.823   6.724   3.440 -0.7659  0.3134 -0.4496
10359WAT      O42155   1.176   6.883   3.994 -0.3783  0.0962  0.3855
10359WAT     H142156   1.143   6.842   3.925 -0.0001  2.6752 -1.4474
10359WAT     H242157   1.250   6.839   4.010 -1.6523 -2.0492  0.8184
10359WAT    EPW42158   1.182   6.871   3.986 -0.5107  0.1603  0.1786
10360WAT      O42159   1.194   5.273   2.701  0.1106  0.1820 -0.1611
10360WAT     H142160   1.199   5.188   2.686  3.1566  0.1642  0.3686
10360WAT     H242161   1.252   5.308   2.646  0.5155  1.6441  1.0878
10360WAT    EPW42162   1.203   5.266   2.691  0.6204  0.3954  0.1017
10361WAT      O42163   1.394   4.545   2.259  0.3724  0.1254 -0.5995
10361WAT     H142164   1.374   4.561   2.176  0.2093 -1.7216 -0.9408
10361WAT     H242165   1.458   4.486   2.255  1.3370  1.0195  0.5925
10361WAT    EPW42166   1.400   4.539   2.246  0.4908 -0.0154 -0.4738
10362WAT      O42167   3.034   5.853   3.279 -0.5443  0.5212  0.4951
10362WAT     H142168   3.037   5.939   3.294 -1.3157  0.4396  1.1737
10362WAT     H242169   3.026   5.847   3.193 -1.5778  1.1637  0.5389
10362WAT    EPW42170   3.033   5.864   3.269 -0.8109  0.6041  0.6018
10363WAT      O42171   0.604   6.564   3.214  0.1966 -0.0833  0.0937
10363WAT     H142172   0.636   6.637   3.179 -0.3797 -0.3402 -1.0142
10363WAT     H242173   0.675   6.526   3.249  0.2082  1.8794  2.4116
10363WAT    EPW42174   0.619   6.569   3.214  0.1132  0.1687  0.2725
10364WAT      O42175   3.117   7.359   3.160 -0.0323  0.4785 -0.2988
10364WAT     H142176   3.083   7.400   3.229 -1.9005 -0.6035 -0.5042
10364WAT     H242177   3.140   7.423   3.107 -1.0501  1.2947  0.2157
10364WAT    EPW42178   3.115   7.374   3.163 -0.4586  0.4393 -0.2531
10365WAT      O42179   1.120   5.794   3.681  0.2782  0.1662  0.2450
10365WAT     H142180   1.115   5.714   3.716  0.2553  0.8513  1.9373
10365WAT     H242181   1.063   5.791   3.615  1.1279 -1.5406 -0.4773
10365WAT    EPW42182   1.111   5.782   3.676  0.4004  0.0152  0.3883
10366WAT      O42183   1.631   4.662   2.524  0.2927  0.3375 -0.3211
10366WAT     H142184   1.626   4.678   2.438  0.4522  0.1332 -0.3701
10366WAT     H242185   1.681   4.727   2.554  0.0005  0.5741 -0.3345
10366WAT    EPW42186   1.637   4.674   2.516  0.2731  0.3423 -0.3303
10367WAT      O42187   1.304   5.954   3.338 -0.6041 -0.1915  0.0023
10367WAT     H142188   1.220   5.975   3.336 -0.4193  0.5767 -2.0072
10367WAT     H242189   1.338   5.996   3.269  0.6388 -3.5282 -1.6606
10367WAT    EPW42190   1.297   5.963   3.328 -0.3932 -0.5709 -0.5402
10368WAT      O42191   2.925   5.068   0.653 -0.3678 -0.8625 -0.0149
10368WAT     H142192   2.904   5.063   0.737  0.2601 -0.1490  0.1904
10368WAT     H242193   2.949   4.987   0.633 -0.1022 -0.9419  0.6059
10368WAT    EPW42194   2.925   5.055   0.662 -0.2358 -0.7688  0.1071
10369WAT      O42195   1.426   4.513   2.652 -0.0977 -0.1248  0.2375
10369WAT     H142196   1.472   4.475   2.715  0.7042  2.4128  1.3328
10369WAT     H242197   1.488   4.552   2.603 -0.8259 -0.6122 -1.1339
10369WAT    EPW42198   1.442   4.513   2.654 -0.0868  0.1781  0.1967
10370WAT      O42199   0.810   5.447   2.884 -0.1685  0.1072  0.1838
10370WAT     H142200   0.819   5.529   2.912  0.4408  0.5030 -1.0845
10370WAT     H242201   0.865   5.443   2.816  1.0227 -1.8050  1.1538
10370WAT    EPW42202   0.820   5.459   2.878  0.0975 -0.1168  0.1397
10371WAT      O42203   2.976   5.905   2.147  0.1653  0.3330  0.2685
10371WAT     H142204   2.967   5.895   2.061 -0.1161 -1.8858  0.4774
10371WAT     H242205   3.003   5.826   2.173 -0.7065  0.6519  2.3310
10371WAT    EPW42206   2.979   5.892   2.138 -0.0050  0.0523  0.6040
10372WAT      O42207   0.868   5.205   3.025  0.3054 -0.3029 -0.0991
10372WAT     H142208   0.844   5.285   3.000  1.6630 -0.2158 -1.3001
10372WAT     H242209   0.922   5.220   3.093 -1.0808 -0.3598  1.0542
10372WAT    EPW42210   0.873   5.219   3.031  0.3012 -0.2984 -0.1062
10373WAT      O42211   0.756   5.021   1.958 -0.2572  0.2193 -0.2619
10373WAT     H142212   0.782   4.960   1.901 -3.0299 -0.9799 -0.3726
10373WAT     H242213   0.727   4.975   2.026 -1.2715  1.4674  0.1862
10373WAT    EPW42214   0.756   5.006   1.960 -0.8166  0.2265 -0.2121
10374WAT      O42215   1.407   6.345   0.318  0.0605  0.3785  0.0560
10374WAT     H142216   1.493   6.359   0.319  0.0575  0.4693  2.0164
10374WAT     H242217   1.400   6.258   0.329 -0.0912  0.4799  0.8216
10374WAT    EPW42218   1.418   6.334   0.320  0.0376  0.4069  0.4587
10375WAT      O42219   0.977   5.919   4.340  0.0038 -0.5181 -0.0626
10375WAT     H142220   0.949   5.883   4.266  1.2311 -0.5886 -0.5194
10375WAT     H242221   1.034   5.979   4.313 -0.8424  0.7156  0.7578
10375WAT    EPW42222   0.981   5.922   4.325  0.0601 -0.3462 -0.0089
10376WAT      O42223   1.890   5.300   2.710  0.4323 -0.3548  0.0382
10376WAT     H142224   1.942   5.357   2.751  2.0684 -0.0739 -2.2318
10376WAT     H242225   1.943   5.234   2.690 -0.8863 -1.6061  0.4706
10376WAT    EPW42226   1.905   5.299   2.713  0.4792 -0.4982 -0.2333
10377WAT      O42227   3.637   5.700   4.178  0.2732  0.1116 -0.4356
10377WAT     H142228   3.692   5.713   4.112 -2.1369 -1.0710 -2.9229
10377WAT     H242229   3.623   5.613   4.176 -0.1219  0.0959  1.4358
10377WAT    EPW42230   3.643   5.689   4.168 -0.1412 -0.0654 -0.5266
10378WAT      O42231   2.349   4.524   1.386 -0.2048 -0.0752 -0.1430
10378WAT     H142232   2.275   4.478   1.392 -0.0060 -0.3086  0.7808
10378WAT     H242233   2.409   4.463   1.369 -0.0227 -0.0888  0.5284
10378WAT    EPW42234   2.347   4.508   1.385 -0.1485 -0.1117  0.0927
10379WAT      O42235   2.279   5.015   3.698  0.3932 -0.0462  0.5141
10379WAT     H142236   2.255   4.939   3.734  2.8208 -0.4637  1.4714
10379WAT     H242237   2.243   5.075   3.751 -0.2539 -0.5567  0.6659
10379WAT    EPW42238   2.271   5.013   3.712  0.6562 -0.1833  0.6779
10380WAT      O42239   2.721   6.214   5.116  0.6335 -0.4574 -0.2552
10380WAT     H142240   2.646   6.204   5.158  0.4259  1.1738 -0.1979
10380WAT     H242241   2.781   6.212   5.180  0.3589  1.4756  0.1088
10380WAT    EPW42242   2.719   6.212   5.132  0.5623  0.0691 -0.1930
10381WAT      O42243   1.701   0.860   2.247 -0.3648 -0.0208 -0.6972
10381WAT     H142244   1.737   0.939   2.252 -1.4248  0.4076  2.0684
10381WAT     H242245   1.617   0.877   2.229 -1.0494 -0.2351  1.8391
10381WAT    EPW42246   1.694   0.874   2.245 -0.6225  0.0109  0.0860
10382WAT      O42247   1.806   6.729   2.578 -0.2303 -0.3882  0.4091
10382WAT     H142248   1.745   6.757   2.523  0.0058  0.7192  0.6893
10382WAT     H242249   1.866   6.694   2.525 -0.2618  0.1708 -0.0145
10382WAT    EPW42250   1.806   6.728   2.562 -0.2001 -0.1420  0.3879
10383WAT      O42251   1.848   6.191   3.919 -0.7258 -0.6905  0.3130
10383WAT     H142252   1.864   6.267   3.959  0.2786 -1.3735  1.2481
10383WAT     H242253   1.780   6.209   3.867 -0.5810  0.8090  0.6124
10383WAT    EPW42254   1.840   6.205   3.917 -0.5560 -0.5699  0.4954
10384WAT      O42255   0.617   5.505   0.580 -0.0862 -0.1772  0.2697
10384WAT     H142256   0.654   5.435   0.543 -1.0716 -0.4025 -0.3156
10384WAT     H242257   0.537   5.507   0.545 -0.2166  1.0040  0.5952
10384WAT    EPW42258   0.611   5.495   0.569 -0.2510 -0.0360  0.2313
10385WAT      O42259   1.028   5.346   0.728  0.3742 -0.2552 -0.2181
10385WAT     H142260   1.014   5.358   0.643  1.0880 -0.2855 -0.3423
10385WAT     H242261   0.959   5.298   0.753  1.0155 -1.7161 -1.1430
10385WAT    EPW42262   1.015   5.340   0.719  0.5744 -0.4755 -0.3730
10386WAT      O42263   1.033   5.973   6.110 -0.5485 -0.3831 -0.0823
10386WAT     H142264   1.097   5.958   6.053 -0.8756  0.5640 -0.7063
10386WAT     H242265   1.048   5.912   6.172  2.2516  1.1129  0.9153
10386WAT    EPW42266   1.045   5.962   6.111 -0.1832 -0.0222 -0.0271
10387WAT      O42267   1.085   5.045   7.454  0.5026 -0.2073  0.2659
10387WAT     H142268   1.095   5.118   7.501  0.4836  0.6767 -1.0261
10387WAT     H242269   1.004   5.052   7.422  0.6311 -0.6005 -0.1653
10387WAT    EPW42270   1.075   5.057   7.456  0.5188 -0.1348  0.0114
10388WAT      O42271   0.956   6.023   1.278 -0.0412 -0.4157 -0.2382
10388WAT     H142272   0.884   6.021   1.328 -0.7830  0.9025 -1.2099
10388WAT     H242273   1.015   6.064   1.328 -1.1576  2.0887 -0.8461
10388WAT    EPW42274   0.954   6.029   1.293 -0.3157  0.1490 -0.4716
10389WAT      O42275   0.705   5.982   1.040  0.2238  0.5813 -0.2970
10389WAT     H142276   0.670   5.963   0.963 -0.8675  1.8972 -0.1467
10389WAT     H242277   0.731   5.904   1.070 -0.6712 -0.1462 -1.3343
10389WAT    EPW42278   0.704   5.967   1.033 -0.0696  0.6682 -0.4280
10390WAT      O42279   0.999   5.536   6.370 -0.4610 -0.2861  0.1749
10390WAT     H142280   1.038   5.495   6.304  0.6187  0.7831  0.1116
10390WAT     H242281   1.011   5.621   6.352 -2.1778  0.0785  0.5524
10390WAT    EPW42282   1.007   5.543   6.358 -0.5551 -0.0743  0.2213
10391WAT      O42283   1.536   5.099   7.728  0.4682  0.4176 -0.0720
10391WAT     H142284   1.584   5.137   7.667  0.3177  0.3783 -0.2152
10391WAT     H242285   1.559   5.141   7.801  0.0856  0.9860 -0.2748
10391WAT    EPW42286   1.546   5.111   7.730  0.3895  0.4958 -0.1231
10392WAT      O42287   1.638   5.542   3.007  0.1014 -0.1490 -0.2488
10392WAT     H142288   1.631   5.610   2.953  1.1098 -0.3229 -0.6223
10392WAT     H242289   1.628   5.473   2.955 -1.2037 -0.3001  0.1743
10392WAT    EPW42290   1.636   5.542   2.992  0.0576 -0.1970 -0.2415
10393WAT      O42291   0.926   3.068   2.137  0.1197 -0.5686  0.2551
10393WAT     H142292   0.892   2.994   2.108 -0.2554  0.1185 -1.1516
10393WAT     H242293   1.002   3.043   2.173  1.2788 -1.3775 -2.5238
10393WAT    EPW42294   0.932   3.054   2.138  0.2355 -0.5866 -0.3632
10394WAT      O42295   1.710   4.352   0.067 -0.3298  0.2280 -0.0754
10394WAT     H142296   1.769   4.351   0.003 -0.4061 -0.0242 -0.1432
10394WAT     H242297   1.757   4.366   0.138 -0.2915  0.9525 -0.2351
10394WAT    EPW42298   1.726   4.354   0.068 -0.3354  0.2978 -0.1090
10395WAT      O42299   2.630   6.442   2.078 -0.4430  0.3086 -1.0518
10395WAT     H142300   2.657   6.516   2.114  1.3021 -0.3626 -0.8950
10395WAT     H242301   2.595   6.398   2.145  1.6696 -0.4208 -0.3573
10395WAT    EPW42302   2.629   6.446   2.093  0.1268  0.1017 -0.9260
10396WAT      O42303   1.909   3.582   0.400  0.4005  0.1843 -0.2631
10396WAT     H142304   1.866   3.655   0.383 -1.0717 -0.9754 -1.8760
10396WAT     H242305   1.934   3.591   0.483 -0.5401  2.0899 -0.1479
10396WAT    EPW42306   1.906   3.594   0.410  0.0441  0.2945 -0.4844
10397WAT      O42307   1.286   5.627   1.924 -0.0746 -0.1754  0.2947
10397WAT     H142308   1.302   5.545   1.950 -0.3079 -0.4720 -0.4842
10397WAT     H242309   1.208   5.622   1.887  0.6536  0.0336 -1.3443
10397WAT    EPW42310   1.277   5.614   1.923 -0.0015 -0.1884 -0.0625
10398WAT      O42311   0.594   7.636   7.269 -0.2068  0.2035 -0.0184
10398WAT     H142312   0.535   7.648   7.206 -1.3102  0.4556  1.0319
10398WAT     H242313   0.658   7.692   7.247 -1.8631  2.5053  0.6068
10398WAT    EPW42314   0.595   7.646   7.256 -0.6145  0.5808  0.2291
10399WAT      O42315   2.276   4.059   1.856  0.4154  0.0484 -0.3015
10399WAT     H142316   2.297   4.107   1.786  1.9309 -0.7027 -0.3930
10399WAT     H242317   2.300   4.109   1.923 -0.1463  0.3665 -0.3320
10399WAT    EPW42318   2.282   4.074   1.855  0.5563 -0.0156 -0.3196
10400WAT      O42319   1.147   5.979   0.325  0.6782 -0.2188 -0.1061
10400WAT     H142320   1.080   5.983   0.381  2.1953  0.4361  1.7775
10400WAT     H242321   1.127   5.912   0.274 -1.2924 -0.2011  0.5433
10400WAT    EPW42322   1.134   5.970   0.326  0.6112 -0.1194  0.2681
10401WAT      O42323   0.906   5.724   2.653  0.6475  0.4277  0.0122
10401WAT     H142324   0.906   5.734   2.739 -1.3658  1.5069 -0.0462
10401WAT     H242325   0.933   5.642   2.642  0.9946  0.2887  1.6536
10401WAT    EPW42326   0.910   5.713   2.664  0.4014  0.5666  0.2460
10402WAT      O42327   1.761   5.185   0.836  0.2621  0.6867  0.2919
10402WAT     H142328   1.741   5.108   0.800 -2.9026  1.6487 -0.3110
10402WAT     H242329   1.751   5.170   0.921 -1.7610  0.6844  0.1075
10402WAT    EPW42330   1.757   5.171   0.843 -0.5043  0.8285  0.1756
10403WAT      O42331   1.575   4.831   7.266 -0.4785 -0.5115  0.0963
10403WAT     H142332   1.499   4.859   7.299 -1.0376 -2.4621  0.5489
10403WAT     H242333   1.624   4.817   7.336 -0.2568 -0.8147 -0.1177
10403WAT    EPW42334   1.571   4.833   7.281 -0.5283 -0.8444  0.1315
10404WAT      O42335   0.718   6.115   0.717 -0.4265  0.0306  0.0009
10404WAT     H142336   0.639   6.122   0.682  0.6853 -1.5867 -3.2457
10404WAT     H242337   0.724   6.031   0.739  0.5874 -0.0473 -0.4759
10404WAT    EPW42338   0.707   6.104   0.715 -0.1125 -0.2198 -0.5491
10405WAT      O42339   1.560   6.181   0.571  0.0959 -0.4034 -0.9702
10405WAT     H142340   1.594   6.256   0.600 -0.3250  0.4471 -2.5178
10405WAT     H242341   1.576   6.125   0.635  0.4269  1.0125  0.2532
10405WAT    EPW42342   1.567   6.184   0.585  0.0827 -0.0686 -1.0181
10406WAT      O42343   1.303   3.687   1.521 -0.0837 -0.0502  0.2061
10406WAT     H142344   1.383   3.720   1.529 -0.6793  1.3835  0.5469
10406WAT     H242345   1.314   3.602   1.539  1.0790  0.4044  1.9054
10406WAT    EPW42346   1.316   3.679   1.525  0.0001  0.2287  0.5075
10407WAT      O42347   0.798   4.544   0.528  0.2731 -0.0295  0.1419
10407WAT     H142348   0.848   4.515   0.463  1.5469  2.5723 -0.1733
10407WAT     H242349   0.745   4.601   0.489 -0.8117 -0.4153  0.9987
10407WAT    EPW42350   0.797   4.548   0.513  0.3010  0.2978  0.2219
10408WAT      O42351   0.862   5.033   0.321  0.7399  0.3102  0.7102
10408WAT     H142352   0.817   4.961   0.303 -0.2320  1.2104 -0.6297
10408WAT     H242353   0.925   5.005   0.375 -1.6527 -0.9091  3.0861
10408WAT    EPW42354   0.865   5.018   0.326  0.2429  0.2631  0.8632
10409WAT      O42355   0.954   5.676   0.343 -0.1276 -0.3292  0.4476
10409WAT     H142356   0.962   5.593   0.369  1.0738 -0.7993 -1.2311
10409WAT     H242357   1.019   5.685   0.285  0.6986  2.2128  1.6167
10409WAT    EPW42358   0.965   5.665   0.338  0.1719 -0.0231  0.3723
10410WAT      O42359   1.013   5.976   0.999 -0.1532  0.2931  0.6334
10410WAT     H142360   0.954   5.950   1.059  0.0979  0.1415  0.8160
10410WAT     H242361   1.025   5.905   0.950 -0.2874  0.3897  0.4625
10410WAT    EPW42362   1.006   5.962   1.001 -0.1359  0.2850  0.6351
10411WAT      O42363   2.414   3.904   1.179  0.1528  0.2571 -0.0747
10411WAT     H142364   2.435   3.868   1.102 -1.3477 -1.5963  0.2754
10411WAT     H242365   2.470   3.867   1.235  0.0378  0.1601 -0.0228
10411WAT    EPW42366   2.425   3.893   1.176 -0.0858 -0.0310 -0.0153
10412WAT      O42367   0.974   6.743   6.409  0.1840 -0.3173  0.3823
10412WAT     H142368   1.036   6.804   6.404 -1.0828  1.0085  0.1644
10412WAT     H242369   1.008   6.683   6.462  1.6523  0.3567  0.2426
10412WAT    EPW42370   0.988   6.743   6.416  0.2138 -0.0219  0.3295
10413WAT      O42371   0.848   4.772   2.456  0.3838  0.6028 -0.0679
10413WAT     H142372   0.875   4.854   2.469 -2.9280  1.7584  0.2898
10413WAT     H242373   0.840   4.740   2.537 -0.7753  0.8386 -0.0754
10413WAT    EPW42374   0.851   4.779   2.470 -0.2767  0.8083 -0.0162
10414WAT      O42375   0.972   4.496   1.155  0.2736 -0.3309  0.0837
10414WAT     H142376   0.935   4.495   1.076 -1.7586 -1.0056  0.9870
10414WAT     H242377   0.961   4.414   1.183  0.8776 -0.0679  1.1123
10414WAT    EPW42378   0.965   4.484   1.147  0.0626 -0.3917  0.3691
10415WAT      O42379   1.361   5.423   7.834  0.6602  0.3847 -0.1317
10415WAT     H142380   1.417   5.427   7.901  2.0667 -1.4437 -1.1217
10415WAT     H242381   1.412   5.415   7.764 -0.7460 -2.3455 -1.0090
10415WAT    EPW42382   1.377   5.422   7.834  0.6603 -0.2887 -0.4076
10416WAT      O42383   0.884   6.502   2.179  0.3413 -0.5184  0.1785
10416WAT     H142384   0.879   6.418   2.157 -0.6233 -1.0227  2.1602
10416WAT     H242385   0.851   6.505   2.259  1.6155  1.5493  0.7159
10416WAT    EPW42386   0.879   6.490   2.187  0.3870 -0.2875  0.5506
10417WAT      O42387   1.581   5.783   0.469 -0.1901 -0.1264  0.5897
10417WAT     H142388   1.654   5.831   0.472  1.1983 -1.9616 -1.0995
10417WAT     H242389   1.603   5.709   0.509 -1.1122 -0.6967  0.0834
10417WAT    EPW42390   1.595   5.779   0.475 -0.1212 -0.4817  0.2654
10418WAT      O42391   2.258   7.620   1.384  1.1220 -0.5831  0.4692
10418WAT     H142392   2.211   7.683   1.423  0.8142 -0.9848  0.7584
10418WAT     H242393   2.312   7.664   1.332 -0.9843 -0.1474 -1.4854
10418WAT    EPW42394   2.259   7.636   1.382  0.7654 -0.5781  0.2232
10419WAT      O42395   0.926   5.302   1.672  0.6085  0.5887  0.2221
10419WAT     H142396   0.984   5.253   1.715 -0.0305 -0.0518  0.3696
10419WAT     H242397   0.849   5.275   1.703  0.1184 -0.0738 -1.5114
10419WAT    EPW42398   0.923   5.291   1.683  0.4417  0.3962 -0.0122
10420WAT      O42399   1.532   6.542   0.041 -0.2505 -0.1765 -0.6902
10420WAT     H142400   1.598   6.594   0.017 -1.0995  1.2346 -0.0883
10420WAT     H242401   1.564   6.498   0.109 -0.2279  1.2786  0.2875
10420WAT    EPW42402   1.547   6.544   0.047 -0.3726  0.2469 -0.4568
10421WAT      O42403   0.801   3.879   0.007  0.3050  0.0627 -0.0451
10421WAT     H142404   0.879   3.847  -0.015 -0.6481 -3.2058  0.7694
10421WAT     H242405   0.746   3.815  -0.013 -2.4460  2.6705 -1.7037
10421WAT    EPW42406   0.804   3.865   0.001 -0.2422 -0.0349 -0.1698
10422WAT      O42407   0.758   5.372   1.011 -0.1028 -0.0556  0.2101
10422WAT     H142408   0.842   5.388   1.032  0.1451  0.2102 -0.8943
10422WAT     H242409   0.728   5.326   1.079  0.4028  1.4471  1.5202
10422WAT    EPW42410   0.766   5.368   1.024  0.0085  0.2057  0.2405
10423WAT      O42411   0.992   6.671   7.776 -0.0955 -0.8989  0.9256
10423WAT     H142412   0.980   6.650   7.692  0.2069 -0.5095  0.7823
10423WAT     H242413   1.058   6.619   7.801  1.6576  0.8288  0.1693
10423WAT    EPW42414   1.000   6.660   7.767  0.2082 -0.5862  0.7927
10424WAT      O42415   0.918   5.241   7.762 -0.1841 -0.1054  0.4641
10424WAT     H142416   0.967   5.304   7.798  2.3971 -2.0072  0.5766
10424WAT     H242417   0.929   5.173   7.815  0.2297 -1.7314 -1.5450
10424WAT    EPW42418   0.927   5.241   7.775  0.2584 -0.6265  0.1840
10425WAT      O42419   0.932   6.087   7.069  0.4777 -0.6995 -0.1456
10425WAT     H142420   0.970   6.157   7.034  0.1527 -1.0751 -1.3149
10425WAT     H242421   0.947   6.095   7.154 -0.0605  1.1039 -0.1790
10425WAT    EPW42422   0.940   6.098   7.076  0.3502 -0.4886 -0.3232
10426WAT      O42423   2.287   6.382   1.029  0.2014  0.1194 -0.2345
10426WAT     H142424   2.233   6.444   1.057  1.1544  1.2166 -0.7696
10426WAT     H242425   2.290   6.395   0.943  2.2535  0.8826 -0.0868
10426WAT    EPW42426   2.279   6.393   1.021  0.6453  0.3942 -0.2917
10427WAT      O42427   3.037   5.447   7.515  0.0084 -0.0193 -0.7378
10427WAT     H142428   3.042   5.530   7.488 -1.4689 -0.0964 -1.3429
10427WAT     H242429   3.111   5.411   7.486  0.2178  0.8499 -1.3157
10427WAT    EPW42430   3.049   5.454   7.507 -0.1789  0.0977 -0.9126
10428WAT      O42431   0.979   5.492   1.202  0.6319  0.4084 -0.3351
10428WAT     H142432   1.029   5.561   1.222  0.5002  0.1532  0.9376
10428WAT     H242433   0.941   5.471   1.278 -0.4923 -0.1431 -1.0251
10428WAT    EPW42434   0.981   5.499   1.216  0.4464  0.2892 -0.2490
10429WAT      O42435   1.929   4.806   2.162 -0.3169  0.5470 -0.0431
10429WAT     H142436   1.880   4.871   2.195  2.2884  2.9271 -0.4510
10429WAT     H242437   1.974   4.777   2.231  0.1424  0.7645 -0.2450
10429WAT    EPW42438   1.928   4.812   2.177  0.1358  0.9307 -0.1332
10430WAT      O42439   3.421   5.855   1.465  0.4779 -0.4479 -0.0353
10430WAT     H142440   3.444   5.899   1.393 -1.2780  1.3093  0.3793
10430WAT     H242441   3.345   5.819   1.444 -0.2982  0.4737  1.0276
10430WAT    EPW42442   3.413   5.856   1.451  0.1038 -0.0522  0.1830
10431WAT      O42443   1.386   6.995   1.646  0.9038  0.0862 -0.2781
10431WAT     H142444   1.452   6.986   1.702  0.5309  0.1826  0.1957
10431WAT     H242445   1.418   6.966   1.570  1.3718 -0.2015  0.0240
10431WAT    EPW42446   1.400   6.990   1.643  0.9179  0.0579 -0.1635
10432WAT      O42447   1.531   5.453   0.196 -0.2823 -0.3887  0.7278
10432WAT     H142448   1.577   5.409   0.256  1.0105 -2.1149 -1.3707
10432WAT     H242449   1.580   5.523   0.180  1.5674 -1.9800 -1.1474
10432WAT    EPW42450   1.545   5.457   0.202  0.1819 -0.8787  0.1408
10433WAT      O42451   1.194   4.751   7.131 -0.1101  0.2661 -0.1924
10433WAT     H142452   1.248   4.684   7.115 -0.5972  0.1180 -1.3206
10433WAT     H242453   1.217   4.777   7.211 -0.3119 -1.6497  0.5596
10433WAT    EPW42454   1.205   4.745   7.141 -0.2118 -0.0388 -0.2480
10434WAT      O42455   2.007   5.420   2.307  0.4005  0.0876  0.2145
10434WAT     H142456   2.068   5.481   2.298  0.0023  0.2348 -2.0231
10434WAT     H242457   2.043   5.349   2.271 -0.3113 -0.1342 -0.0851
10434WAT    EPW42458   2.021   5.418   2.300  0.2365  0.0766 -0.1603
10435WAT      O42459   2.906   5.250   0.133 -0.1739 -0.8013 -0.0258
10435WAT     H142460   2.925   5.299   0.063 -0.4135  3.0014  2.3212
10435WAT     H242461   2.819   5.245   0.131 -0.1467 -1.3169 -0.3032
10435WAT    EPW42462   2.896   5.257   0.122 -0.2053 -0.3157  0.2799
10436WAT      O42463   1.552   5.351   0.681  0.4959  0.5151  0.2667
10436WAT     H142464   1.558   5.270   0.651  0.9092  0.8064 -0.4600
10436WAT     H242465   1.607   5.352   0.749 -0.2017 -0.0578  0.8498
10436WAT    EPW42466   1.561   5.340   0.687  0.4539  0.4735  0.2455
10437WAT      O42467   2.100   4.908   7.713 -0.1450 -0.3599  0.1292
10437WAT     H142468   2.183   4.886   7.699 -0.2469 -2.6925  2.3346
10437WAT     H242469   2.064   4.907   7.634  1.9719  1.2746 -0.9581
10437WAT    EPW42470   2.106   4.905   7.699  0.1527 -0.4630  0.2944
10438WAT      O42471   1.973   4.408   0.905 -0.1141 -0.1670 -0.5596
10438WAT     H142472   1.899   4.448   0.882 -1.4763 -2.5848 -0.7738
10438WAT     H242473   2.035   4.463   0.880 -1.6804  0.1676 -4.4589
10438WAT    EPW42474   1.971   4.422   0.898 -0.5467 -0.4747 -1.1673
10439WAT      O42475   1.709   4.366   1.276 -0.8449 -0.6453 -0.1554
10439WAT     H142476   1.653   4.432   1.280 -1.6543 -1.3879  1.6450
10439WAT     H242477   1.726   4.348   1.359  3.0667  0.3328 -0.5470
10439WAT    EPW42478   1.704   4.373   1.289 -0.3867 -0.6105  0.0527
10440WAT      O42479   0.756   6.604   7.034  0.2493 -0.3329 -0.0944
10440WAT     H142480   0.792   6.552   6.974  0.3957  0.6787 -0.8949
10440WAT     H242481   0.670   6.597   7.018  0.0885 -1.8802  1.1124
10440WAT    EPW42482   0.749   6.595   7.023  0.2472 -0.4120 -0.0344
10441WAT      O42483   1.282   5.514   0.322  0.5965 -0.7650 -0.6512
10441WAT     H142484   1.363   5.484   0.304  0.4233 -0.5383 -1.9637
10441WAT     H242485   1.295   5.568   0.388  1.6237 -0.3487 -1.1542
10441WAT    EPW42486   1.296   5.518   0.329  0.7226 -0.6700 -0.9194
10442WAT      O42487   2.172   5.614   1.514  0.3512  0.0044 -0.2609
10442WAT     H142488   2.135   5.679   1.559  1.4542  0.8878 -0.6006
10442WAT     H242489   2.138   5.622   1.434  0.4172  0.1106 -0.2786
10442WAT    EPW42490   2.161   5.624   1.509  0.5239  0.1506 -0.3137
10443WAT      O42491   0.790   3.611   1.366  0.1301  0.0070  0.3307
10443WAT     H142492   0.754   3.531   1.363  0.4636 -0.1444  0.3318
10443WAT     H242493   0.834   3.616   1.291 -1.2131  0.8226 -0.4247
10443WAT    EPW42494   0.791   3.600   1.355 -0.0191  0.1051  0.2193
10444WAT      O42495   3.169   4.732   1.453  0.0509  0.2966  0.0678
10444WAT     H142496   3.136   4.813   1.451 -0.9576 -0.1025 -0.8775
10444WAT     H242497   3.146   4.700   1.375  0.3357 -0.9375  0.4783
10444WAT    EPW42498   3.161   4.739   1.441 -0.0560  0.0553 -0.0112
10445WAT      O42499   1.283   4.668   0.153 -0.0152  0.2984  0.4607
10445WAT     H142500   1.290   4.640   0.236 -0.0329 -0.6793  0.1480
10445WAT     H242501   1.354   4.636   0.115 -1.0996 -1.2113 -0.4167
10445WAT    EPW42502   1.294   4.659   0.160 -0.1780 -0.0690  0.2849
10446WAT      O42503   1.524   5.240   1.846 -0.3472 -0.3892  0.5840
10446WAT     H142504   1.486   5.298   1.899  0.1798  0.9541 -0.4735
10446WAT     H242505   1.609   5.247   1.866 -0.1097  0.3269 -0.6020
10446WAT    EPW42506   1.531   5.249   1.857 -0.2343 -0.0850  0.2526
10447WAT      O42507   1.922   6.593   7.661 -0.7471  0.0944  0.2323
10447WAT     H142508   1.865   6.628   7.717 -0.3580 -0.7085  1.1566
10447WAT     H242509   1.886   6.516   7.642 -0.2968 -0.1344  0.3051
10447WAT    EPW42510   1.908   6.587   7.666 -0.6231 -0.0580  0.3796
10448WAT      O42511   1.733   6.287   3.341 -0.0658  0.5770 -0.1823
10448WAT     H142512   1.722   6.225   3.401  1.8799 -0.4700 -0.8198
10448WAT     H242513   1.784   6.346   3.380  0.5816  0.2608 -0.5249
10448WAT    EPW42514   1.739   6.287   3.356  0.3172  0.3756 -0.3271
10449WAT      O42515   2.425   5.171   1.284  0.2550 -0.3764 -0.1092
10449WAT     H142516   2.381   5.107   1.324  0.7055 -0.8374 -0.3368
10449WAT     H242517   2.404   5.243   1.330 -0.1962 -0.6972  0.1935
10449WAT    EPW42518   2.416   5.172   1.297  0.2549 -0.4919 -0.0981
10450WAT      O42519   2.827   4.994   6.956 -0.4877  0.3971 -0.2060
10450WAT     H142520   2.776   5.007   7.025 -0.4574 -1.6816  0.2738
10450WAT     H242521   2.886   5.058   6.962 -1.6376  1.4233  0.5619
10450WAT    EPW42522   2.828   5.005   6.967 -0.6531  0.2416 -0.0217
10451WAT      O42523   0.942   6.712   1.046  0.5393 -0.4739 -0.1479
10451WAT     H142524   0.927   6.626   1.054 -0.5994 -0.1864  1.2951
10451WAT     H242525   0.862   6.747   1.052  1.1766  0.8121  1.7271
10451WAT    EPW42526   0.928   6.704   1.048  0.4652 -0.2415  0.3422
10452WAT      O42527   1.138   5.270   7.209  0.4146 -0.1498  0.6705
10452WAT     H142528   1.193   5.321   7.254  1.6720 -1.0939  0.2641
10452WAT     H242529   1.191   5.221   7.160 -0.7836 -1.3845  0.5544
10452WAT    EPW42530   1.154   5.270   7.208  0.4234 -0.4716  0.5933
10453WAT      O42531   2.726   4.608   2.054 -0.2596 -0.2580 -0.0262
10453WAT     H142532   2.752   4.691   2.044 -1.6228  0.0953 -1.1620
10453WAT     H242533   2.781   4.563   2.004 -0.1275  0.1184 -0.2264
10453WAT    EPW42534   2.738   4.614   2.045 -0.4415 -0.1502 -0.2235
10454WAT      O42535   0.879   6.533   2.915 -0.6288  0.2315 -0.0192
10454WAT     H142536   0.932   6.469   2.941 -2.0096 -1.5541 -1.3374
10454WAT     H242537   0.929   6.581   2.861  0.1514 -0.3327  0.1870
10454WAT    EPW42538   0.894   6.531   2.911 -0.7175 -0.1156 -0.1835
10455WAT      O42539   1.196   4.042   7.516 -0.0922  0.3459  0.4019
10455WAT     H142540   1.214   4.120   7.551 -1.3589  1.8113 -2.0288
10455WAT     H242541   1.111   4.046   7.498 -0.0537 -1.3689 -0.3320
10455WAT    EPW42542   1.186   4.054   7.519 -0.2736  0.3091 -0.0656
10456WAT      O42543   2.256   6.631   2.013  0.3875 -0.5781 -0.1953
10456WAT     H142544   2.175   6.606   1.992 -0.0717 -0.1628  0.9937
10456WAT     H242545   2.306   6.565   1.984 -0.4076 -0.9905 -0.6534
10456WAT    EPW42546   2.252   6.617   2.005  0.2022 -0.5777 -0.0873
10457WAT      O42547   1.459   4.142   7.396  0.8136 -0.9792 -0.4612
10457WAT     H142548   1.394   4.097   7.432  0.4442  0.5482  0.8833
10457WAT     H242549   1.479   4.095   7.325 -3.8150 -0.0232 -2.7809
10457WAT    EPW42550   1.452   4.128   7.391  0.0753 -0.6123 -0.6052
10458WAT      O42551   0.853   5.450   1.436 -0.3152 -0.5639  0.1932
10458WAT     H142552   0.835   5.534   1.453 -0.0355 -0.7908  1.7474
10458WAT     H242553   0.871   5.417   1.514 -1.3668 -2.3169 -0.2515
10458WAT    EPW42554   0.853   5.457   1.450 -0.4292 -0.8564  0.3571
10459WAT      O42555   1.200   4.421   1.469  0.0242 -0.4290 -1.1669
10459WAT     H142556   1.212   4.368   1.400 -3.5353  0.6838 -2.8647
10459WAT     H242557   1.150   4.373   1.523 -0.9355  0.2167 -1.4633
10459WAT    EPW42558   1.194   4.406   1.467 -0.6434 -0.1692 -1.4615
10460WAT      O42559   3.247   4.916   0.750  0.3444  0.0305  0.1993
10460WAT     H142560   3.185   4.890   0.694  2.0351 -1.1830 -1.2271
10460WAT     H242561   3.258   4.846   0.801 -0.5239  0.8087  1.5198
10460WAT    EPW42562   3.239   4.902   0.749  0.4659 -0.0338  0.1837
10461WAT      O42563   2.507   5.064   0.829 -0.7521 -0.1729  0.2366
10461WAT     H142564   2.558   5.070   0.758 -1.2686  0.8022 -0.0776
10461WAT     H242565   2.540   4.996   0.872  0.0660 -0.3021 -0.5497
10461WAT    EPW42566   2.519   5.055   0.825 -0.7075 -0.0479  0.0740
10462WAT      O42567   0.806   5.963   0.257  0.2545  0.0932 -0.0878
10462WAT     H142568   0.793   5.883   0.288 -0.5340  0.7006  1.2083
10462WAT     H242569   0.841   6.006   0.324  1.5456  0.6113 -1.0583
10462WAT    EPW42570   0.809   5.958   0.271  0.3287  0.2595 -0.0397
10463WAT      O42571   1.290   5.711   0.510  0.1001  0.2119  0.0507
10463WAT     H142572   1.249   5.782   0.541 -0.4621 -0.5920  1.2533
10463WAT     H242573   1.371   5.738   0.497 -0.6530  1.7335 -1.9189
10463WAT    EPW42574   1.296   5.725   0.513 -0.0942  0.3179 -0.0626
10464WAT      O42575   3.170   5.074   2.207  0.0951  0.2558  0.2682
10464WAT     H142576   3.212   5.025   2.266 -0.3521  0.8971  1.1487
10464WAT     H242577   3.125   5.131   2.256 -0.1790  0.9035 -0.7012
10464WAT    EPW42578   3.169   5.075   2.223 -0.0115  0.4462  0.2551
10465WAT      O42579   0.993   0.115   7.568 -0.2611 -0.0406  0.7368
10465WAT     H142580   1.041   0.049   7.599  0.4081  0.6486  1.1839
10465WAT     H242581   1.019   0.121   7.485 -1.6165 -1.4873  0.1463
10465WAT    EPW42582   1.004   0.106   7.560 -0.3625 -0.1525  0.7156
10466WAT      O42583   1.680   4.215   0.994  0.1587 -0.1415  0.1175
10466WAT     H142584   1.614   4.160   1.008 -1.1988  1.4324  0.1669
10466WAT     H242585   1.701   4.244   1.073 -1.1765  1.6321 -0.1202
10466WAT    EPW42586   1.674   4.211   1.007 -0.2391  0.3530  0.0897
10467WAT      O42587   2.213   5.578   2.219 -0.4507 -0.2570  0.0054
10467WAT     H142588   2.199   5.623   2.145 -0.2504 -0.0757  0.0779
10467WAT     H242589   2.266   5.630   2.265 -2.0255  0.4876  1.0813
10467WAT    EPW42590   2.219   5.593   2.215 -0.6537 -0.1202  0.1751
10468WAT      O42591   2.472   6.499   2.405  0.0565 -0.7537  0.0475
10468WAT     H142592   2.476   6.425   2.359 -1.5671 -0.7298 -0.2163
10468WAT     H242593   2.554   6.528   2.406  0.7990 -2.7296  0.4637
10468WAT    EPW42594   2.484   6.492   2.399 -0.0737 -1.0421  0.0700
10469WAT      O42595   3.488   4.392   0.013 -0.0283 -0.4954 -0.0756
10469WAT     H142596   3.481   4.306   0.000 -0.3437 -0.6162  0.8651
10469WAT     H242597   3.408   4.422  -0.001 -0.2730 -0.5687  1.1106
10469WAT    EPW42598   3.475   4.384   0.009 -0.1110 -0.5241  0.2386
10470WAT      O42599   1.162   7.516   7.361 -0.0336 -0.0331 -0.2130
10470WAT     H142600   1.217   7.521   7.293 -0.5995 -0.0142 -0.6774
10470WAT     H242601   1.117   7.443   7.345  2.1081 -1.9786  1.9037
10470WAT    EPW42602   1.163   7.506   7.349  0.1992 -0.3177  0.0311
10471WAT      O42603   3.182   5.567   0.147 -0.0381  0.1038 -0.2282
10471WAT     H142604   3.267   5.580   0.132 -0.0128  1.4824  0.8929
10471WAT     H242605   3.180   5.497   0.200  0.3904  0.0117 -0.3355
10471WAT    EPW42606   3.194   5.559   0.153  0.0289  0.2938 -0.0785
10472WAT      O42607   3.231   5.310   7.783 -0.0102 -0.2780  0.6754
10472WAT     H142608   3.267   5.317   7.862 -0.0855  0.1899  0.6743
10472WAT     H242609   3.151   5.342   7.794 -0.1604 -0.5847  0.4983
10472WAT    EPW42610   3.225   5.316   7.796 -0.0435 -0.2542  0.6491
10473WAT      O42611   1.829   5.799   2.093  0.1788  0.0274 -0.6246
10473WAT     H142612   1.775   5.738   2.064 -0.2358  0.5139 -0.8885
10473WAT     H242613   1.786   5.874   2.080 -0.1199  0.2729  1.3873
10473WAT    EPW42614   1.815   5.801   2.087  0.0734  0.1355 -0.3664
10474WAT      O42615   1.883   6.556   1.590 -0.2742 -0.2052  0.5625
10474WAT     H142616   1.833   6.560   1.519  0.0980 -0.6277  0.2640
10474WAT     H242617   1.961   6.530   1.559 -0.5713 -2.2276  1.3168
10474WAT    EPW42618   1.887   6.552   1.575 -0.2631 -0.5663  0.6298
10475WAT      O42619   2.137   4.227   7.778 -0.3766 -0.1069  0.0342
10475WAT     H142620   2.218   4.194   7.783 -0.3237 -0.2937 -1.4452
10475WAT     H242621   2.111   4.231   7.861  0.0641 -2.7309  0.3749
10475WAT    EPW42622   2.145   4.223   7.791 -0.3037 -0.5221 -0.1340
10476WAT      O42623   0.970   6.694   7.471  0.0256 -0.1007  0.1746
10476WAT     H142624   0.915   6.657   7.414 -0.1690 -0.2028  0.4240
10476WAT     H242625   0.964   6.779   7.454  1.6725 -0.2546 -1.4879
10476WAT    EPW42626   0.961   6.701   7.460  0.2401 -0.1385 -0.0341
10477WAT      O42627   2.249   7.075   1.846  0.1252 -0.3430 -0.0381
10477WAT     H142628   2.271   7.047   1.926  3.1645  2.8810  0.5128
10477WAT     H242629   2.325   7.078   1.803 -0.8741  1.2504 -1.8800
10477WAT    EPW42630   2.263   7.072   1.852  0.4265  0.3687 -0.2288
10478WAT      O42631   1.846   5.943   2.909 -0.1956 -0.0796 -0.4944
10478WAT     H142632   1.824   6.005   2.967 -1.8746 -1.9092  0.9890
10478WAT     H242633   1.931   5.930   2.923  0.2543  1.9348 -0.9772
10478WAT    EPW42634   1.855   5.950   2.919 -0.3772 -0.0523 -0.3466
10479WAT      O42635   2.157   3.327   2.808  0.0587  0.1635  0.0855
10479WAT     H142636   2.164   3.412   2.789  1.3743  0.8209  2.9190
10479WAT     H242637   2.091   3.325   2.865  1.1181 -0.3986  1.3325
10479WAT    EPW42638   2.148   3.339   2.814  0.4096  0.1776  0.6883
10480WAT      O42639   1.054   4.888   7.712  0.3649 -0.1967 -0.2034
10480WAT     H142640   1.055   4.949   7.648  0.0780  0.2236  0.1859
10480WAT     H242641   1.056   4.936   7.785 -0.8343 -0.6221  0.1204
10480WAT    EPW42642   1.054   4.904   7.713  0.1454 -0.1974 -0.0980
10481WAT      O42643   1.543   6.338   1.323 -0.3143  0.3461  0.0108
10481WAT     H142644   1.521   6.260   1.291 -2.3959  0.6219  0.6464
10481WAT     H242645   1.622   6.324   1.357  0.0400 -1.0535 -1.3097
10481WAT    EPW42646   1.552   6.324   1.324 -0.5694  0.1801 -0.0904
10482WAT      O42647   1.092   5.754   0.864 -0.7367 -0.3182 -0.1516
10482WAT     H142648   1.140   5.687   0.892 -0.2180 -0.0114 -0.2926
10482WAT     H242649   1.065   5.727   0.785  1.6635  0.6530 -1.4072
10482WAT    EPW42650   1.095   5.740   0.856 -0.3055 -0.1294 -0.3579
10483WAT      O42651   1.485   6.644   2.299  0.6176  0.5194 -0.4320
10483WAT     H142652   1.541   6.638   2.233  3.0363  1.8916  1.3528
10483WAT     H242653   1.503   6.575   2.348  1.1136  1.2033  0.3752
10483WAT    EPW42654   1.496   6.633   2.296  1.0481  0.8232 -0.0491
10484WAT      O42655   1.829   4.506   6.777 -0.6613  0.3417 -0.3624
10484WAT     H142656   1.889   4.558   6.813 -1.3784  1.2776 -0.4873
10484WAT     H242657   1.865   4.482   6.701  0.1030 -0.1842  0.1529
10484WAT    EPW42658   1.843   4.510   6.771 -0.6544  0.4023 -0.3047
10485WAT      O42659   1.021   5.083   0.087  0.2510  0.3012 -0.5335
10485WAT     H142660   0.971   5.071   0.158  0.2467 -0.8584 -0.7194
10485WAT     H242661   1.097   5.111   0.120 -0.1547  1.0241 -0.1763
10485WAT    EPW42662   1.025   5.086   0.103  0.1905  0.2367 -0.5082
10486WAT      O42663   1.074   6.228   2.333 -0.2254 -0.6649 -0.5120
10486WAT     H142664   1.104   6.310   2.336 -0.2877 -0.6111 -1.1766
10486WAT     H242665   1.044   6.220   2.251  2.0241 -2.1286 -1.2791
10486WAT    EPW42666   1.074   6.239   2.321  0.0977 -0.8732 -0.7235
10487WAT      O42667   1.731   3.072   0.841 -0.4353 -0.1370  0.0631
10487WAT     H142668   1.704   3.108   0.766 -1.0895 -0.2990  0.2117
10487WAT     H242669   1.758   3.141   0.888 -0.2241 -0.0137 -0.2366
10487WAT    EPW42670   1.731   3.088   0.837 -0.5008 -0.1427  0.0408
10488WAT      O42671   1.360   7.449   7.622  0.2105 -0.0814 -0.6311
10488WAT     H142672   1.370   7.454   7.535  0.4548 -0.6475 -0.6391
10488WAT     H242673   1.296   7.390   7.632 -0.3436  0.5323 -0.4435
10488WAT    EPW42674   1.352   7.441   7.611  0.1647 -0.0743 -0.6046
10489WAT      O42675   1.566   5.004   0.166  0.1576 -0.3064 -0.0910
10489WAT     H142676   1.596   4.985   0.246 -1.6330 -0.7771  0.5182
10489WAT     H242677   1.594   5.086   0.153  2.5256 -1.0333 -0.0465
10489WAT    EPW42678   1.574   5.014   0.176  0.2429 -0.4833  0.0056
10490WAT      O42679   3.164   5.725   1.455  0.1657 -0.2436 -0.2124
10490WAT     H142680   3.129   5.728   1.535  0.3246 -1.2376 -0.0851
10490WAT     H242681   3.094   5.725   1.402 -0.1062 -2.5185  0.0515
10490WAT    EPW42682   3.149   5.725   1.459  0.1490 -0.7265 -0.1546
10491WAT      O42683   1.996   5.522   2.911  0.2799  0.2132  0.4926
10491WAT     H142684   2.079   5.551   2.909  0.8236 -1.2768 -0.3526
10491WAT     H242685   1.998   5.458   2.970 -0.0466 -0.4001 -0.1461
10491WAT    EPW42686   2.009   5.517   2.919  0.3120 -0.0975  0.2734
10492WAT      O42687   4.295   5.668   2.057  0.7146 -0.3992  0.0396
10492WAT     H142688   4.273   5.740   2.102  0.6410  0.7932 -1.8052
10492WAT     H242689   4.336   5.699   1.987 -0.3276 -2.0694 -1.4044
10492WAT    EPW42690   4.298   5.683   2.053  0.5498 -0.4698 -0.4462
10493WAT      O42691   1.127   4.692   1.504  0.3446 -0.0290 -0.3650
10493WAT     H142692   1.125   4.742   1.432  2.2232  0.9809  0.2289
10493WAT     H242693   1.180   4.626   1.481  1.3655  0.5622  0.2104
10493WAT    EPW42694   1.135   4.690   1.490  0.7729  0.2075 -0.1923
10494WAT      O42695   1.303   4.743   2.495 -0.1637 -0.0889 -0.0677
10494WAT     H142696   1.316   4.675   2.440 -1.5280  0.2961 -0.9053
10494WAT     H242697   1.271   4.705   2.566  2.8513 -0.7621  1.0875
10494WAT    EPW42698   1.300   4.727   2.497  0.0802 -0.1315 -0.0208
10495WAT      O42699   1.397   4.860   1.007  0.1109 -0.0071  0.5103
10495WAT     H142700   1.361   4.783   1.026 -2.1173  0.6497 -0.6644
10495WAT     H242701   1.357   4.916   1.061  2.7637  0.2351  2.4008
10495WAT    EPW42702   1.386   4.857   1.017  0.1736  0.1257  0.6160
10496WAT      O42703   0.941   7.051   1.803 -0.5025 -0.4878 -0.2273
10496WAT     H142704   0.886   7.005   1.753  0.5350 -0.4278 -1.4853
10496WAT     H242705   1.010   7.062   1.751 -0.4675  1.9868  0.2249
10496WAT    EPW42706   0.943   7.046   1.788 -0.3441 -0.1134 -0.3463
10497WAT      O42707   0.908   5.539   2.327  0.1091  0.2190  0.6386
10497WAT     H142708   0.851   5.603   2.343 -2.1538 -1.6071  0.2463
10497WAT     H242709   0.980   5.582   2.303 -1.3468  2.6063  0.2516
10497WAT    EPW42710   0.910   5.555   2.326 -0.4402  0.3019  0.5235
10498WAT      O42711   1.236   5.153   0.680  0.0907  0.0518 -0.2734
10498WAT     H142712   1.160   5.190   0.701 -0.8108 -1.7363 -0.2181
10498WAT     H242713   1.244   5.172   0.595 -1.4096 -1.2866 -0.7743
10498WAT    EPW42714   1.226   5.162   0.670 -0.2641 -0.4101 -0.3392
10499WAT      O42715   0.848   4.757   7.441 -0.0287  0.5370  0.2646
10499WAT     H142716   0.843   4.761   7.354  2.3293 -0.9735 -0.0216
10499WAT     H242717   0.860   4.840   7.464 -0.2395  0.9044 -0.8768
10499WAT    EPW42718   0.849   4.770   7.432  0.2885  0.3681  0.0537
10500WAT      O42719   2.406   5.352   7.531 -0.2674 -0.1358  0.0407
10500WAT     H142720   2.416   5.397   7.457 -2.5897 -2.3626 -1.8050
10500WAT     H242721   2.427   5.270   7.508  1.3311 -0.5519  2.5767
10500WAT    EPW42722   2.411   5.346   7.516 -0.3743 -0.5262  0.1427
10501WAT      O42723   1.580   6.168   2.834 -0.0441 -0.3421  0.1391
10501WAT     H142724   1.512   6.123   2.805  0.0225 -0.5344  0.2811
10501WAT     H242725   1.633   6.172   2.764 -0.3380  0.0794 -0.0634
10501WAT    EPW42726   1.578   6.162   2.819 -0.0777 -0.3082  0.1301
10502WAT      O42727   3.603   6.511   2.072  0.3680 -0.7300 -0.1915
10502WAT     H142728   3.688   6.528   2.081  0.5208 -1.4268 -0.2561
10502WAT     H242729   3.596   6.481   1.991  0.0495 -0.6255 -0.2043
10502WAT    EPW42730   3.615   6.509   2.061  0.3435 -0.8175 -0.2030
10503WAT      O42731   0.969   5.702   0.629 -0.5014 -0.4453 -0.4614
10503WAT     H142732   0.991   5.702   0.544  1.5923 -1.9308 -0.0087
10503WAT     H242733   0.964   5.617   0.648 -1.9418 -0.1405  0.7195
10503WAT    EPW42734   0.971   5.689   0.619 -0.4049 -0.6197 -0.2201
10504WAT      O42735   0.915   4.908   0.764  0.0759 -0.5725 -0.3374
10504WAT     H142736   0.962   4.909   0.690  0.3667  0.0944 -0.1462
10504WAT     H242737   0.889   4.825   0.770 -0.6088 -0.4716 -1.6066
10504WAT    EPW42738   0.918   4.896   0.754  0.0177 -0.4591 -0.4966
10505WAT      O42739   1.399   5.407   2.046 -0.3247 -0.4562  0.4764
10505WAT     H142740   1.467   5.448   2.082 -0.3276  0.6977 -0.7932
10505WAT     H242741   1.364   5.364   2.114 -0.4203  1.7359  1.9142
10505WAT    EPW42742   1.404   5.406   2.062 -0.3392  0.0381  0.5013
10506WAT      O42743   1.078   4.237   2.707  0.3335 -0.3813  0.8408
10506WAT     H142744   1.029   4.211   2.640 -0.3899 -1.1728  1.6563
10506WAT     H242745   1.160   4.225   2.677  0.0254 -1.3430  0.3212
10506WAT    EPW42746   1.083   4.231   2.693  0.1811 -0.6403  0.8845
10507WAT      O42747   1.564   6.396   2.458  0.1007 -0.2165  0.2185
10507WAT     H142748   1.621   6.426   2.517  1.2765 -2.0875  0.0992
10507WAT     H242749   1.509   6.348   2.505 -1.5983  1.7167  0.3618
10507WAT    EPW42750   1.565   6.393   2.474  0.0234 -0.2073  0.2221
10508WAT      O42751   1.353   5.693   2.476 -0.5394 -0.3920 -0.0538
10508WAT     H142752   1.273   5.721   2.454 -0.2567  0.2393 -0.3187
10508WAT     H242753   1.342   5.608   2.493 -1.2928 -0.2752  0.0618
10508WAT    EPW42754   1.339   5.685   2.475 -0.6089 -0.2815 -0.0759
10509WAT      O42755   1.599   6.193   1.692  0.0754  0.2803 -0.7867
10509WAT     H142756   1.630   6.115   1.714  0.2698  0.3339 -0.8702
10509WAT     H242757   1.656   6.249   1.728 -0.0492  0.3842 -0.7458
10509WAT    EPW42758   1.612   6.190   1.701  0.0857  0.3036 -0.7930
10510WAT      O42759   2.214   5.842   7.818 -0.0491 -0.5746 -0.5605
10510WAT     H142760   2.252   5.912   7.854 -1.3160 -0.3029  0.3547
10510WAT     H242761   2.158   5.876   7.761 -0.8052 -0.8041  0.0214
10510WAT    EPW42762   2.211   5.857   7.815 -0.3479 -0.5684 -0.3393
10511WAT      O42763   2.030   3.237   1.975 -0.0369 -0.4882 -0.0600
10511WAT     H142764   1.977   3.183   2.018 -1.2965  1.4374  0.9470
10511WAT     H242765   1.982   3.263   1.907  0.6473 -0.7914 -0.6720
10511WAT    EPW42766   2.015   3.233   1.972 -0.1219 -0.2486 -0.0016
10512WAT      O42767   1.398   4.736   0.556 -0.6625 -0.1828  0.2641
10512WAT     H142768   1.385   4.798   0.615  0.2570 -0.0833  0.3737
10512WAT     H242769   1.334   4.678   0.572 -0.6213  0.0030  1.1324
10512WAT    EPW42770   1.387   4.736   0.567 -0.5206 -0.1407  0.4086
10513WAT      O42771   1.804   5.950   0.557 -0.2745 -0.1637 -0.1155
10513WAT     H142772   1.776   5.954   0.640  0.5954  0.2851  0.1664
10513WAT     H242773   1.888   5.929   0.565  0.2151  1.4152 -0.8135
10513WAT    EPW42774   1.812   5.947   0.571 -0.0737  0.1358 -0.1770
10514WAT      O42775   3.306   5.456   2.397  0.0953 -0.0399  0.4605
10514WAT     H142776   3.330   5.388   2.446  1.2279  1.0329  1.4518
10514WAT     H242777   3.223   5.438   2.376  0.7828 -2.3988 -0.5266
10514WAT    EPW42778   3.297   5.443   2.401  0.3642 -0.2299  0.4611
10515WAT      O42779   1.707   5.704   7.760  0.0344 -0.4201  0.0578
10515WAT     H142780   1.622   5.700   7.743  0.4844 -2.4322 -2.2630
10515WAT     H242781   1.728   5.787   7.741 -1.6039  0.5567  2.2034
10515WAT    EPW42782   1.698   5.716   7.755 -0.1412 -0.5730  0.0319
10516WAT      O42783   0.712   4.053   1.297  0.2745 -1.0073 -0.8961
10516WAT     H142784   0.768   4.000   1.339  1.3271  0.2624 -0.6218
10516WAT     H242785   0.688   4.006   1.228 -0.0378 -2.4294  0.1322
10516WAT    EPW42786   0.717   4.038   1.293  0.3838 -1.0298 -0.7037
10517WAT      O42787   0.955   5.446   2.651  0.0019 -0.4062  0.2912
10517WAT     H142788   0.926   5.402   2.582  1.1136 -0.1387 -0.3719
10517WAT     H242789   1.029   5.405   2.672 -0.4519 -0.6548  1.5141
10517WAT    EPW42790   0.962   5.434   2.644  0.0991 -0.4034  0.3739
10518WAT      O42791   1.665   5.221   0.058 -0.3266 -0.1170  0.9817
10518WAT     H142792   1.740   5.184   0.036 -0.2809 -0.1703  1.2223
10518WAT     H242793   1.681   5.307   0.050 -0.3232 -0.1375  0.7727
10518WAT    EPW42794   1.679   5.228   0.054 -0.3194 -0.1279  0.9864
10519WAT      O42795   2.218   5.152   7.838  0.0418  0.0702 -0.1463
10519WAT     H142796   2.264   5.173   7.767  1.2552 -0.8573  0.3395
10519WAT     H242797   2.199   5.067   7.826 -0.7587  0.1975  0.1087
10519WAT    EPW42798   2.222   5.142   7.826  0.1028 -0.0480 -0.0369
10520WAT      O42799   1.232   5.894   7.763  0.0193 -0.2426 -0.1687
10520WAT     H142800   1.264   5.960   7.810 -1.1294 -0.8225  1.5431
10520WAT     H242801   1.146   5.909   7.764 -0.2507 -1.6897  0.1542
10520WAT    EPW42802   1.224   5.906   7.770 -0.1903 -0.5420  0.1319
10521WAT      O42803   1.781   3.829   0.310 -0.1334 -0.5281  0.4774
10521WAT     H142804   1.777   3.902   0.359  1.8085 -0.9905  1.4110
10521WAT     H242805   1.823   3.856   0.238 -0.2633 -0.5225  0.4036
10521WAT    EPW42806   1.787   3.844   0.306  0.1343 -0.5956  0.6044
10522WAT      O42807   1.058   5.435   0.020 -0.2919 -0.2105 -0.2879
10522WAT     H142808   1.027   5.490  -0.040  0.2978 -1.3865 -1.7193
10522WAT     H242809   1.138   5.416  -0.008  0.0099 -0.7847  0.8945
10522WAT    EPW42810   1.065   5.440   0.007 -0.1602 -0.4691 -0.3247
10523WAT      O42811   2.997   6.183   0.410 -0.5164  0.3036  0.1211
10523WAT     H142812   3.068   6.172   0.460  0.8092 -0.2730 -1.7559
10523WAT     H242813   2.944   6.118   0.435 -0.2982  0.5690  1.3610
10523WAT    EPW42814   3.000   6.172   0.421 -0.2883  0.2576  0.0270
10524WAT      O42815   0.986   6.000   3.275  0.3518  0.1053 -0.0702
10524WAT     H142816   0.946   5.959   3.341 -1.0137  0.6447 -0.5405
10524WAT     H242817   0.922   6.044   3.235  1.1204 -0.2512 -1.8010
10524WAT    EPW42818   0.971   6.000   3.279  0.2636  0.1323 -0.3954
10525WAT      O42819   1.783   5.696   3.638  0.1539 -0.6843 -0.0465
10525WAT     H142820   1.815   5.716   3.560 -0.4324 -1.3312 -0.4621
10525WAT     H242821   1.825   5.750   3.692 -1.0776  1.3861 -1.0561
10525WAT    EPW42822   1.794   5.707   3.635 -0.1146 -0.4740 -0.2570
10526WAT      O42823   1.369   4.399   1.940 -0.0659  0.5531  0.5765
10526WAT     H142824   1.293   4.364   1.916  0.1115 -0.0508  0.8862
10526WAT     H242825   1.419   4.330   1.960  0.2053  0.9815  1.4458
10526WAT    EPW42826   1.366   4.384   1.940  0.0004  0.5271  0.7507
10527WAT      O42827   2.470   5.740   0.211  0.5627 -0.1080  0.4696
10527WAT     H142828   2.531   5.800   0.227  0.4047 -0.1122  1.0957
10527WAT     H242829   2.484   5.719   0.127 -0.8189  2.4898 -0.5476
10527WAT    EPW42830   2.481   5.746   0.201  0.3353  0.2751  0.4119
10528WAT      O42831   1.234   6.580   0.045 -0.4565 -0.0088  0.3999
10528WAT     H142832   1.320   6.575   0.039 -0.3792  0.7593  0.7530
10528WAT     H242833   1.220   6.595   0.130 -0.9267  0.0627  0.3128
10528WAT    EPW42834   1.244   6.581   0.057 -0.5145  0.1152  0.4392
10529WAT      O42835   1.723   6.303   0.934 -0.4114  0.3352  0.4789
10529WAT     H142836   1.652   6.252   0.936 -0.0440 -0.1532  1.4947
10529WAT     H242837   1.783   6.252   0.897 -0.1393  0.1614  1.1627
10529WAT    EPW42838   1.721   6.288   0.929 -0.3170  0.2374  0.7300
10530WAT      O42839   1.440   5.814   0.861  0.4468  0.4851 -0.1920
10530WAT     H142840   1.384   5.835   0.924 -1.1275  3.0792 -2.1995
10530WAT     H242841   1.425   5.729   0.847  1.0207 -0.2437  2.9196
10530WAT    EPW42842   1.429   5.805   0.868  0.2990  0.7607 -0.0289
10531WAT      O42843   1.442   4.894   1.803 -0.8643 -0.2806 -0.1735
10531WAT     H142844   1.371   4.939   1.780  0.0704  1.3826  0.0435
10531WAT     H242845   1.421   4.861   1.880 -1.5032 -0.0068 -0.2226
10531WAT    EPW42846   1.428   4.896   1.811 -0.8206  0.0056 -0.1487
10532WAT      O42847   1.526   6.048   2.312  0.2808  0.0051 -0.2107
10532WAT     H142848   1.541   5.966   2.339  0.7170  0.7374  1.9850
10532WAT     H242849   1.451   6.069   2.352  0.5644  0.9262 -0.1380
10532WAT    EPW42850   1.517   6.039   2.322  0.3872  0.2494  0.1244
10533WAT      O42851   1.871   5.395   3.340  0.3174  0.2310  0.0538
10533WAT     H142852   1.798   5.440   3.354 -0.9456 -2.0161  1.2201
10533WAT     H242853   1.856   5.318   3.378  2.4497 -1.1296 -1.5999
10533WAT    EPW42854   1.858   5.391   3.348  0.4458 -0.3020 -0.0182
10534WAT      O42855   1.841   6.200   1.900  0.0101 -0.8195 -0.5834
10534WAT     H142856   1.785   6.156   1.951  1.1337  0.6559  2.1076
10534WAT     H242857   1.800   6.274   1.883  0.7769 -0.0516  0.7644
10534WAT    EPW42858   1.827   6.204   1.905  0.2894 -0.4881  0.0132
10535WAT      O42859   2.002   5.718   2.514 -0.1796  0.3152  0.5121
10535WAT     H142860   2.065   5.757   2.561  0.9309  0.4223 -1.0159
10535WAT     H242861   1.989   5.773   2.448 -0.5512 -0.5952 -0.1939
10535WAT    EPW42862   2.009   5.732   2.511 -0.0705  0.1965  0.1821
10536WAT      O42863   3.300   6.669   1.750  0.4666  0.0444 -0.1231
10536WAT     H142864   3.310   6.680   1.836 -0.2887  1.1366 -0.1700
10536WAT     H242865   3.262   6.590   1.744 -3.4519  1.6366  0.8478
10536WAT    EPW42866   3.296   6.659   1.762 -0.2239  0.4410  0.0134
10537WAT      O42867   1.940   5.577   0.381 -0.0779  0.2381  0.0906
10537WAT     H142868   2.007   5.634   0.383  1.0920 -1.0144 -1.0778
10537WAT     H242869   1.881   5.617   0.332  1.1133  0.1167 -1.5323
10537WAT    EPW42870   1.941   5.591   0.374  0.2709  0.0352 -0.3218
10538WAT      O42871   1.049   3.914   1.938  0.2558  0.6324  0.0859
10538WAT     H142872   1.008   3.969   1.991 -0.5376  1.0698 -0.9441
10538WAT     H242873   1.099   3.867   1.991 -1.7557 -0.0978  1.4230
10538WAT    EPW42874   1.050   3.916   1.953 -0.1586  0.5891  0.1312
10539WAT      O42875   2.367   6.256   0.347  0.2670 -0.0415 -0.0269
10539WAT     H142876   2.398   6.326   0.390  0.7154 -1.3636  1.9404
10539WAT     H242877   2.281   6.259   0.363  0.2915  0.0445  0.0891
10539WAT    EPW42878   2.359   6.267   0.356  0.3368 -0.2241  0.2809
10540WAT      O42879   1.050   3.528   3.564 -0.0407  0.2187  0.1944
10540WAT     H142880   1.076   3.542   3.647 -0.6997 -0.3191  0.5039
10540WAT     H242881   1.124   3.526   3.520  0.2655  2.0906  0.5015
10540WAT    EPW42882   1.065   3.530   3.570 -0.0928  0.4158  0.2855
10541WAT      O42883   2.198   5.042   0.838 -0.5362 -0.0529 -0.4558
10541WAT     H142884   2.282   5.049   0.815 -0.9188  0.3866 -1.7395
10541WAT     H242885   2.175   5.124   0.857 -0.9798 -0.0052 -1.1913
10541WAT    EPW42886   2.207   5.055   0.838 -0.6582  0.0191 -0.7541
10542WAT      O42887   1.726   5.556   0.575  0.0074  0.1268 -0.1087
10542WAT     H142888   1.682   5.481   0.564  2.1316 -1.4662  1.3092
10542WAT     H242889   1.796   5.546   0.524  1.7314 -0.2049  2.1496
10542WAT    EPW42890   1.730   5.544   0.566  0.5759 -0.1575  0.4344
10543WAT      O42891   1.399   4.772   1.330  0.2523  0.0996  0.1602
10543WAT     H142892   1.328   4.822   1.324 -1.2628 -1.9743 -0.5637
10543WAT     H242893   1.421   4.777   1.414 -0.9700  0.5431  0.4749
10543WAT    EPW42894   1.392   4.780   1.341 -0.1521 -0.1412  0.0997
10544WAT      O42895   1.771   4.533   2.189  0.2575  0.1865  0.3842
10544WAT     H142896   1.718   4.465   2.195 -0.4792  0.7892  0.8498
10544WAT     H242897   1.723   4.600   2.218  1.0378  0.8655  0.1618
10544WAT    EPW42898   1.756   4.533   2.195  0.2639  0.3759  0.4202
10545WAT      O42899   1.231   3.278   0.425  0.1897 -0.1255 -0.1672
10545WAT     H142900   1.190   3.353   0.406  0.7891 -0.0216 -1.0629
10545WAT     H242901   1.259   3.291   0.507 -0.2970  0.3685 -0.0735
10545WAT    EPW42902   1.229   3.291   0.434  0.2063 -0.0372 -0.2857
10546WAT      O42903   1.620   0.348   7.294 -0.3056 -0.0917  0.7248
10546WAT     H142904   1.678   0.289   7.320 -1.5000 -1.4705  0.4281
10546WAT     H242905   1.633   0.353   7.208 -0.3917 -0.1520  0.7076
10546WAT    EPW42906   1.630   0.340   7.285 -0.4947 -0.3043  0.6784
10547WAT      O42907   2.998   4.345   1.305  0.3087  0.1670 -0.5251
10547WAT     H142908   3.046   4.272   1.296 -1.1729 -1.1598  1.5856
10547WAT     H242909   2.947   4.344   1.234  0.1010 -1.0490 -0.3833
10547WAT    EPW42910   2.998   4.334   1.293  0.0591 -0.2086 -0.1924
10548WAT      O42911   1.562   5.105   0.586  0.7874 -0.5261 -0.4958
10548WAT     H142912   1.603   5.044   0.539  0.2862 -1.8349  0.7219
10548WAT     H242913   1.527   5.061   0.652  1.4553  1.2405  1.1416
10548WAT    EPW42914   1.563   5.090   0.589  0.8120 -0.4585 -0.0740
10549WAT      O42915   3.284   5.270   7.511 -0.2417 -0.3035  0.3962
10549WAT     H142916   3.352   5.323   7.498 -0.1013 -0.5267  0.2229
10549WAT     H242917   3.267   5.279   7.596  1.1390 -1.6051  0.8429
10549WAT    EPW42918   3.292   5.279   7.522 -0.0170 -0.5287  0.4366
10550WAT      O42919   1.959   0.157   0.896 -0.1046 -0.0608  0.0970
10550WAT     H142920   1.996   0.147   0.818 -1.7327 -0.6011 -0.6504
10550WAT     H242921   1.976   0.081   0.936 -0.2082 -0.2096 -0.1429
10550WAT    EPW42922   1.967   0.144   0.891 -0.3604 -0.1626 -0.0489
10551WAT      O42923   0.510   7.319   6.792  0.6303 -0.1079 -0.1662
10551WAT     H142924   0.530   7.403   6.798  0.8753 -0.2516  1.4191
10551WAT     H242925   0.424   7.319   6.775  0.6375  0.4451 -0.2081
10551WAT    EPW42926   0.500   7.331   6.790  0.6676 -0.0475  0.0618
10552WAT      O42927   0.998   6.362   0.422  0.2270 -0.0891  0.0429
10552WAT     H142928   1.077   6.387   0.449  0.3122 -0.6682  0.3332
10552WAT     H242929   1.001   6.275   0.425 -0.2590 -0.1290 -0.4148
10552WAT    EPW42930   1.010   6.353   0.427  0.1678 -0.1805  0.0182
10553WAT      O42931   0.739   5.254   0.495 -0.2906  0.3812  0.2448
10553WAT     H142932   0.744   5.184   0.444 -0.5246 -0.2711  1.0851
10553WAT     H242933   0.766   5.225   0.573 -1.3479  0.9498  0.8522
10553WAT    EPW42934   0.744   5.240   0.499 -0.4813  0.3688  0.4587
10554WAT      O42935   3.625   4.104   1.195  0.3765  0.3526  0.0662
10554WAT     H142936   3.633   4.175   1.145 -1.1766  0.0449 -0.6831
10554WAT     H242937   3.608   4.041   1.137 -0.6133 -0.1702  0.8974
10554WAT    EPW42938   3.623   4.105   1.179  0.0009  0.2299  0.0783
10555WAT      O42939   1.783   3.389   2.227 -0.6312 -0.0699  0.5498
10555WAT     H142940   1.760   3.305   2.219 -0.5338 -0.1695  1.3136
10555WAT     H242941   1.746   3.414   2.302 -0.7168  0.5932  0.2985
10555WAT    EPW42942   1.774   3.381   2.237 -0.6295  0.0134  0.6255
10556WAT      O42943   1.798   6.544   1.028 -0.0837 -0.2379 -0.2008
10556WAT     H142944   1.779   6.475   0.977 -0.4325 -0.0522 -0.3270
10556WAT     H242945   1.765   6.521   1.106 -0.9194  0.1201 -0.4407
10556WAT    EPW42946   1.790   6.530   1.032 -0.2587 -0.1576 -0.2549
10557WAT      O42947   1.472   5.183   4.586 -0.2107 -0.0197 -0.1257
10557WAT     H142948   1.512   5.117   4.547  0.3648  1.1410 -1.6351
10557WAT     H242949   1.435   5.227   4.519 -4.5282 -1.2446  1.1339
10557WAT    EPW42950   1.472   5.180   4.570 -0.7634 -0.0292 -0.1626
10558WAT      O42951   1.361   4.004   2.190  0.0919 -0.0940  0.1467
10558WAT     H142952   1.304   3.942   2.167 -0.6655  0.9708 -0.9639
10558WAT     H242953   1.321   4.045   2.256 -1.4865  2.0026 -1.9839
10558WAT    EPW42954   1.347   4.001   2.196 -0.2531  0.3730 -0.3321
10559WAT      O42955   1.063   5.747   1.308 -0.1083 -0.3039  0.1532
10559WAT     H142956   0.986   5.781   1.287 -0.7566 -0.2476  2.3420
10559WAT     H242957   1.082   5.784   1.385  2.3531  0.0458 -0.5392
10559WAT    EPW42958   1.055   5.757   1.317  0.1595 -0.2439  0.3742
10560WAT      O42959   0.630   6.294   2.592 -0.3364  0.0628  0.3093
10560WAT     H142960   0.619   6.340   2.666  0.1247  1.5152 -0.4958
10560WAT     H242961   0.548   6.279   2.566 -0.5613  2.1680 -0.4189
10560WAT    EPW42962   0.616   6.299   2.599 -0.3015  0.5883  0.0828
10561WAT      O42963   1.778   6.789   1.673  0.2068 -0.4352  0.2339
10561WAT     H142964   1.832   6.724   1.653 -0.8569 -1.4110  0.4638
10561WAT     H242965   1.761   6.826   1.596 -0.1731 -1.2187 -0.0620
10561WAT    EPW42966   1.784   6.785   1.659 -0.0065 -0.6951  0.2242
10562WAT      O42967   1.148   3.938   1.679 -0.1446 -0.1945 -0.0041
10562WAT     H142968   1.135   3.934   1.765 -1.8334  3.1539  0.0399
10562WAT     H242969   1.235   3.926   1.671  0.3559  1.1940  2.3735
10562WAT    EPW42970   1.159   3.936   1.691 -0.3202  0.5052  0.3536
10563WAT      O42971   1.920   4.352   0.284 -0.4051  0.1931  0.1218
10563WAT     H142972   1.939   4.355   0.369  1.1407 -0.3594 -0.1662
10563WAT     H242973   1.964   4.282   0.255 -1.2753  0.0918 -1.0471
10563WAT    EPW42974   1.929   4.342   0.292 -0.3053  0.0965 -0.0935
10564WAT      O42975   2.604   5.612   0.412  0.3750 -0.3654  0.1125
10564WAT     H142976   2.590   5.530   0.436  1.6175 -0.9522 -1.0640
10564WAT     H242977   2.554   5.623   0.342  1.0805 -0.4971 -0.4184
10564WAT    EPW42978   2.595   5.602   0.405  0.6628 -0.4715 -0.1397
10565WAT      O42979   1.214   5.250   7.587 -0.2051 -0.3862 -0.0697
10565WAT     H142980   1.190   5.333   7.574  0.4487 -0.1642  0.1365
10565WAT     H242981   1.300   5.255   7.598  0.0125 -1.2386 -1.2594
10565WAT    EPW42982   1.223   5.263   7.586 -0.0764 -0.4793 -0.2149
10566WAT      O42983   0.783   5.718   1.172 -0.3305 -0.0066 -0.0257
10566WAT     H142984   0.742   5.668   1.232 -0.2543  0.8433  0.7607
10566WAT     H242985   0.818   5.660   1.118  0.5529 -0.8743  1.3900
10566WAT    EPW42986   0.782   5.702   1.173 -0.1887 -0.0092  0.2996
10567WAT      O42987   1.309   6.572   2.928 -0.0908 -0.4047 -0.2566
10567WAT     H142988   1.334   6.612   3.002  0.8467 -1.2775 -0.0793
10567WAT     H242989   1.366   6.602   2.870 -0.7757  0.2150 -0.6281
10567WAT    EPW42990   1.321   6.583   2.931 -0.0535 -0.4421 -0.2852
10568WAT      O42991   1.872   5.078   7.784 -0.1853 -0.0955  0.2917
10568WAT     H142992   1.850   4.994   7.776 -0.6613 -0.5448  4.1461
10568WAT     H242993   1.957   5.079   7.768 -0.1922 -1.2974  0.1028
10568WAT    EPW42994   1.881   5.066   7.781 -0.2566 -0.3394  0.8332
10569WAT      O42995   0.643   0.044   6.621  0.0933  0.1386 -0.1193
10569WAT     H142996   0.717   0.047   6.573  0.6259  1.2241  0.7202
10569WAT     H242997   0.600  -0.024   6.587  1.2797 -0.2597 -0.9236
10569WAT    EPW42998   0.648   0.035   6.609  0.3472  0.2401 -0.1141
10570WAT      O42999   1.335   5.084   1.459  0.0994 -0.0769 -0.0638
10570WAT     H143000   1.262   5.130   1.444 -0.4126 -1.1411 -0.9858
10570WAT     H243001   1.370   5.075   1.380  1.0508  0.1096  0.3267
10570WAT    EPW43002   1.329   5.089   1.445  0.1643 -0.2065 -0.1423
10571WAT      O43003   2.265   6.796   6.841 -0.8024  0.1051  0.0907
10571WAT     H143004   2.291   6.715   6.861  0.3444  0.3163 -0.5327
10571WAT     H243005   2.319   6.821   6.778 -3.5354 -0.0530 -2.5125
10571WAT    EPW43006   2.277   6.787   6.835 -1.0367  0.1130 -0.3860
10572WAT      O43007   2.318   5.174   2.654 -0.0952  0.0462  0.5164
10572WAT     H143008   2.342   5.147   2.733 -1.8767 -1.6053  0.5547
10572WAT     H243009   2.337   5.259   2.655  3.2774 -0.5417  1.3563
10572WAT    EPW43010   2.325   5.183   2.666  0.1398 -0.2846  0.6461
10573WAT      O43011   0.916   6.045   0.509 -0.2605  0.4662  0.3882
10573WAT     H143012   0.870   6.094   0.565  0.7251  1.2226  0.5524
10573WAT     H243013   0.980   6.011   0.558  0.1375  0.4910 -0.1052
10573WAT    EPW43014   0.918   6.047   0.524 -0.0561  0.5816  0.3396
10574WAT      O43015   1.947   4.762   0.048  0.3212 -0.0264 -0.5754
10574WAT     H143016   1.951   4.738  -0.036  0.3735 -1.7465 -0.1194
10574WAT     H243017   1.865   4.745   0.070 -0.7194  3.5853 -1.0894
10574WAT    EPW43018   1.936   4.756   0.039  0.1752  0.2530 -0.5839
10575WAT      O43019   2.304   4.873   0.514  0.1513  0.3108  0.5630
10575WAT     H143020   2.327   4.905   0.436 -3.9856 -1.7648 -1.8277
10575WAT     H243021   2.234   4.919   0.535  1.0370  0.6485  3.0578
10575WAT    EPW43022   2.297   4.884   0.506 -0.3290  0.0541  0.5784
10576WAT      O43023   0.823   5.707   1.510  0.2047 -0.1429  0.3259
10576WAT     H143024   0.777   5.692   1.582 -0.0932  0.0907  0.1857
10576WAT     H243025   0.903   5.722   1.540 -0.4116  2.6272  0.8586
10576WAT    EPW43026   0.828   5.707   1.525  0.0697  0.3008  0.3839
10577WAT      O43027   2.292   6.145   2.029  0.0119 -0.5079 -0.5963
10577WAT     H143028   2.307   6.104   1.954 -1.0269  1.4946 -1.9874
10577WAT     H243029   2.324   6.225   2.016  1.0440 -0.4494  1.6389
10577WAT    EPW43030   2.299   6.151   2.016  0.0109 -0.2034 -0.4716
10578WAT      O43031   0.817   6.940   2.272  0.0012 -0.1099 -0.2892
10578WAT     H143032   0.768   6.892   2.219  2.1014 -1.3056 -1.2597
10578WAT     H243033   0.872   6.980   2.219  0.0684  1.2660  0.7593
10578WAT    EPW43034   0.818   6.939   2.256  0.3214 -0.0833 -0.2777
10579WAT      O43035   0.771   6.412   0.584  0.6513  0.5060 -0.0374
10579WAT     H143036   0.842   6.391   0.537  1.0850  0.0734  0.7846
10579WAT     H243037   0.705   6.402   0.528  1.0385 -1.1724 -0.2526
10579WAT    EPW43038   0.772   6.407   0.569  0.7725  0.1941  0.0522
10580WAT      O43039   1.799   0.219   1.529  0.2374 -0.6305  0.0936
10580WAT     H143040   1.741   0.164   1.493  0.5925 -1.1113  0.2377
10580WAT     H243041   1.874   0.174   1.526  0.5654 -0.0904  0.0839
10580WAT    EPW43042   1.802   0.204   1.523  0.3383 -0.6217  0.1135
10581WAT      O43043   1.882   3.365   6.294  0.2245 -0.5274 -0.0442
10581WAT     H143044   1.848   3.408   6.226 -0.4199 -0.5505  0.2648
10581WAT     H243045   1.896   3.428   6.353 -0.7569 -0.7415  0.4232
10581WAT    EPW43046   1.879   3.381   6.292 -0.0157 -0.5624  0.0705
10582WAT      O43047   1.179   3.884   7.219 -0.1947 -0.6594 -0.2175
10582WAT     H143048   1.223   3.958   7.203 -1.2045 -0.6368 -3.7458
10582WAT     H243049   1.222   3.849   7.286  1.3344  2.3086  0.5309
10582WAT    EPW43050   1.192   3.890   7.227 -0.1180 -0.2176 -0.6282
10583WAT      O43051   2.434   3.661   5.770  0.4817 -1.2653 -0.4305
10583WAT     H143052   2.362   3.693   5.734  0.6724  0.0098  0.2770
10583WAT     H243053   2.437   3.698   5.849  1.1947 -2.3549  0.0905
10583WAT    EPW43054   2.424   3.671   5.776  0.6152 -1.2379 -0.2490
10584WAT      O43055   0.996   3.969   5.173 -0.3944  0.4615  0.0630
10584WAT     H143056   1.022   3.887   5.156 -0.0307  0.4127  0.7991
10584WAT     H243057   1.050   3.994   5.237 -0.1490  1.4705 -0.5169
10584WAT    EPW43058   1.008   3.960   5.180 -0.3044  0.6033  0.0861
10585WAT      O43059   1.808   4.162   7.264 -0.4385  0.5128 -0.3321
10585WAT     H143060   1.793   4.212   7.334  2.6748  1.4136 -0.1743
10585WAT     H243061   1.782   4.212   7.197  0.3985  1.3770 -0.0244
10585WAT    EPW43062   1.802   4.177   7.264  0.1451  0.7735 -0.2634
10586WAT      O43063   1.483   3.060   6.349 -0.5203  0.1982  0.4890
10586WAT     H143064   1.529   3.100   6.287 -1.2989  1.4290  0.6730
10586WAT     H243065   1.508   3.100   6.422  0.2577 -1.1172  0.9729
10586WAT    EPW43066   1.493   3.072   6.351 -0.5204  0.1857  0.5877
10587WAT      O43067   1.200   4.956   6.493  0.3533 -0.2771 -0.1934
10587WAT     H143068   1.283   4.965   6.519  0.4806 -1.2844 -0.2196
10587WAT     H243069   1.198   5.000   6.417  1.2778 -1.5169 -0.9724
10587WAT    EPW43070   1.212   4.964   6.486  0.5087 -0.6091 -0.3123
10588WAT      O43071   1.638   4.571   5.279  0.1091  0.0156 -0.0243
10588WAT     H143072   1.588   4.599   5.345 -0.2634  1.9500 -1.0657
10588WAT     H243073   1.587   4.513   5.238 -0.8533  1.1063 -0.3985
10588WAT    EPW43074   1.623   4.566   5.283 -0.0881  0.4625 -0.2335
10589WAT      O43075   0.844   2.534   7.158 -0.1772 -0.5686  0.3565
10589WAT     H143076   0.926   2.503   7.162 -0.2389 -0.6546  1.9285
10589WAT     H243077   0.805   2.483   7.100  0.1759 -2.3948  1.6306
10589WAT    EPW43078   0.850   2.522   7.150 -0.1341 -0.8511  0.7769
10590WAT      O43079   0.629   4.207   5.955  0.1027  0.0396 -0.1566
10590WAT     H143080   0.660   4.162   5.886 -0.2949 -0.2574 -0.1446
10590WAT     H243081   0.566   4.156   5.986  0.4725  0.0315  0.6131
10590WAT    EPW43082   0.624   4.193   5.949  0.0986 -0.0054 -0.0411
10591WAT      O43083   0.939   3.053   0.811  0.7786  0.6428 -0.0209
10591WAT     H143084   0.868   3.048   0.862  0.2128  1.8244 -0.6706
10591WAT     H243085   0.996   3.098   0.860  0.1873  1.8999 -0.4616
10591WAT    EPW43086   0.937   3.059   0.826  0.6077  1.0031 -0.1820
10592WAT      O43087   1.612   4.592   7.582 -0.4873 -0.1069 -0.5172
10592WAT     H143088   1.585   4.675   7.573  0.1295  0.1977  0.2232
10592WAT     H243089   1.547   4.545   7.551 -0.9359  0.6647 -0.7711
10592WAT    EPW43090   1.599   4.598   7.576 -0.4625  0.0521 -0.4453
10593WAT      O43091   3.210   4.140   7.145 -0.6830  0.0222  0.2519
10593WAT     H143092   3.176   4.214   7.176 -0.4288  0.0913  0.3706
10593WAT     H243093   3.141   4.096   7.117 -0.8442  0.2721  0.2525
10593WAT    EPW43094   3.195   4.145   7.145 -0.6693  0.0693  0.2695
10594WAT      O43095   1.444   4.812   7.584  0.0325 -0.5845  0.1605
10594WAT     H143096   1.386   4.756   7.615 -1.7632  0.4141 -1.1944
10594WAT     H243097   1.426   4.886   7.628  0.0087 -0.1719 -0.5306
10594WAT    EPW43098   1.433   4.815   7.595 -0.2363 -0.3760 -0.1417
10595WAT      O43099   1.350   5.837   6.397  0.8185  0.7661 -0.0138
10595WAT     H143100   1.334   5.763   6.441 -0.0866  0.8503 -0.1657
10595WAT     H243101   1.352   5.898   6.460 -0.0415  0.8259 -0.0308
10595WAT    EPW43102   1.348   5.835   6.413  0.5578  0.7874 -0.0388
10596WAT      O43103   2.328   3.790   7.526 -0.0439 -0.5841 -0.3622
10596WAT     H143104   2.389   3.806   7.465  2.3731  1.0591  2.2183
10596WAT     H243105   2.263   3.843   7.504  0.3149 -0.8103 -2.0712
10596WAT    EPW43106   2.328   3.800   7.514  0.3661 -0.3748 -0.2335
10597WAT      O43107   3.324   2.177   5.533  0.1096 -0.3076  0.0364
10597WAT     H143108   3.327   2.205   5.451  0.3809 -1.5898 -0.4078
10597WAT     H243109   3.256   2.220   5.567  0.4312  0.7613 -0.6452
10597WAT    EPW43110   3.314   2.188   5.526  0.1972 -0.3391 -0.1299
10598WAT      O43111   1.326   3.089   7.489  0.7241  0.3853 -0.8081
10598WAT     H143112   1.374   3.061   7.556  0.6037  0.2149 -0.7941
10598WAT     H243113   1.249   3.050   7.500  0.5461  0.7411 -0.7739
10598WAT    EPW43114   1.322   3.079   7.501  0.6800  0.4127 -0.8010
10599WAT      O43115   1.818   3.144   7.092 -0.3333 -0.3326 -0.0996
10599WAT     H143116   1.851   3.106   7.163 -0.5450  0.7015  0.5914
10599WAT     H243117   1.883   3.143   7.035 -0.1795 -1.2426  0.0895
10599WAT    EPW43118   1.832   3.138   7.094 -0.3418 -0.3143  0.0304
10600WAT      O43119   2.737   3.589   6.035 -0.3251 -0.3889 -0.0514
10600WAT     H143120   2.737   3.585   6.122 -2.0714  0.2705  0.0050
10600WAT     H243121   2.679   3.528   6.012 -0.9202  0.4034 -0.6829
10600WAT    EPW43122   2.729   3.579   6.045 -0.6710 -0.1744 -0.1364
10601WAT      O43123   1.400   3.788   5.289 -0.2731 -0.0639 -0.4204
10601WAT     H143124   1.345   3.792   5.221 -0.7656 -3.2446 -0.3426
10601WAT     H243125   1.473   3.757   5.254 -1.3813 -4.6123  0.6962
10601WAT    EPW43126   1.403   3.784   5.273 -0.5095 -1.2057 -0.2439
10602WAT      O43127   2.318   5.307   6.612 -0.5681 -0.0968 -0.3381
10602WAT     H143128   2.251   5.282   6.562 -0.2326 -0.3757 -0.6621
10602WAT     H243129   2.298   5.274   6.691 -1.2093  0.5395 -0.2268
10602WAT    EPW43130   2.305   5.298   6.616 -0.6133 -0.0440 -0.3695
10603WAT      O43131   1.058   5.804   6.349  0.5830 -0.2339 -0.1558
10603WAT     H143132   1.000   5.803   6.414 -1.5186  1.5929 -1.8467
10603WAT     H243133   1.123   5.854   6.379 -0.6791  1.1547  0.3299
10603WAT    EPW43134   1.059   5.811   6.363  0.0861  0.2411 -0.3339
10604WAT      O43135   1.858   3.357   6.774  0.3437 -0.0726 -0.3660
10604WAT     H143136   1.896   3.381   6.699  0.9950 -0.2328 -0.0921
10604WAT     H243137   1.863   3.429   6.823 -1.7398  0.6302 -1.0930
10604WAT    EPW43138   1.865   3.371   6.770  0.1321  0.0075 -0.4329
10605WAT      O43139   1.472   4.542   4.699 -0.4435 -0.1931 -0.1854
10605WAT     H143140   1.542   4.491   4.690  1.1061  0.9601  3.3811
10605WAT     H243141   1.406   4.485   4.707  0.6945 -1.5176  0.2034
10605WAT    EPW43142   1.472   4.526   4.699 -0.0465 -0.2184  0.3989
10606WAT      O43143   2.315   2.801   6.111  0.0124 -0.7539  0.3074
10606WAT     H143144   2.269   2.727   6.105  1.1266 -1.3777 -1.2067
10606WAT     H243145   2.301   2.827   6.193 -2.3626 -1.3190  0.1716
10606WAT    EPW43146   2.306   2.794   6.122 -0.1738 -0.9295  0.0636
10607WAT      O43147   4.141   3.520   0.216  0.2313 -0.4773 -0.1156
10607WAT     H143148   4.090   3.489   0.152  1.1322 -1.5729 -0.3280
10607WAT     H243149   4.202   3.566   0.173  0.6900 -1.0048 -0.0435
10607WAT    EPW43150   4.143   3.522   0.200  0.4322 -0.7170 -0.1363
10608WAT      O43151   1.601   3.742   5.823  0.6179 -0.1834 -0.2327
10608WAT     H143152   1.516   3.721   5.815  0.5925 -0.3139  0.3275
10608WAT     H243153   1.637   3.705   5.753  0.1029  0.5137 -0.8907
10608WAT    EPW43154   1.594   3.733   5.811  0.5380 -0.0997 -0.2472
10609WAT      O43155   0.750   2.701   7.671  0.2855  0.0525  0.3705
10609WAT     H143156   0.826   2.736   7.645  1.2045 -2.8096 -1.2243
10609WAT     H243157   0.724   2.656   7.601 -3.8911  2.2812  0.2153
10609WAT    EPW43158   0.758   2.700   7.657 -0.1957 -0.0411  0.1120
10610WAT      O43159   1.203   4.759   5.676  0.4454 -0.2619 -0.2235
10610WAT     H143160   1.286   4.786   5.674  0.6002 -0.7432 -0.3773
10610WAT     H243161   1.186   4.738   5.593  0.0538  0.1699 -0.2578
10610WAT    EPW43162   1.212   4.760   5.664  0.4104 -0.2692 -0.2513
10611WAT      O43163   0.986   3.512   6.360 -0.2654 -0.1323  0.4125
10611WAT     H143164   0.912   3.529   6.316 -0.2764 -0.5340  0.2758
10611WAT     H243165   1.044   3.495   6.296  0.2491  1.2900  0.4455
10611WAT    EPW43166   0.984   3.512   6.344 -0.1910  0.0185  0.3972
10612WAT      O43167   1.729   3.462   7.387  0.0811 -0.0842 -0.3558
10612WAT     H143168   1.681   3.428   7.323 -0.9256 -0.0643  0.3617
10612WAT     H243169   1.737   3.396   7.444  0.2742  0.1280 -0.1341
10612WAT    EPW43170   1.723   3.447   7.386 -0.0391 -0.0499 -0.2170
10613WAT      O43171   2.669   3.949   7.155 -0.0297  0.0609 -0.5091
10613WAT     H143172   2.729   3.920   7.098 -2.0703 -1.3746 -2.0357
10613WAT     H243173   2.702   4.026   7.180  2.2947 -0.5064 -1.5119
10613WAT    EPW43174   2.683   3.956   7.150  0.0122 -0.2350 -0.8828
10614WAT      O43175   1.221   3.133   7.123  0.5663  0.2007  0.0837
10614WAT     H143176   1.220   3.123   7.037 -0.2311 -0.1555  0.1270
10614WAT     H243177   1.172   3.203   7.137  2.1552  1.3570  0.1388
10614WAT    EPW43178   1.214   3.142   7.113  0.6832  0.3189  0.0982
10615WAT      O43179   0.812   5.056   7.384 -0.1548 -0.5642 -0.6390
10615WAT     H143180   0.777   5.107   7.446 -1.1310 -1.3720 -0.4996
10615WAT     H243181   0.790   5.096   7.310  1.9709  1.0312 -0.5268
10615WAT    EPW43182   0.804   5.070   7.382  0.0150 -0.4478 -0.6019
10616WAT      O43183   1.262   3.354   7.493 -0.2384 -0.0602 -0.0711
10616WAT     H143184   1.265   3.267   7.481  0.8205  0.0912 -1.0672
10616WAT     H243185   1.318   3.368   7.558 -0.5887 -0.1338  0.2530
10616WAT    EPW43186   1.271   3.343   7.501 -0.1337 -0.0487 -0.1704
10617WAT      O43187   2.290   3.566   7.676  0.0794  0.6901  0.3172
10617WAT     H143188   2.303   3.649   7.650 -0.8099  0.7263 -0.0517
10617WAT     H243189   2.369   3.530   7.669  0.5510  1.5923  0.8025
10617WAT    EPW43190   2.304   3.573   7.671  0.0177  0.8287  0.3344
10618WAT      O43191   1.342   5.409   6.949 -0.1401  0.3552  0.4596
10618WAT     H143192   1.255   5.418   6.938  0.0170  0.2170 -1.1192
10618WAT     H243193   1.361   5.470   7.009 -1.4904 -0.4259  1.7654
10618WAT    EPW43194   1.332   5.419   6.956 -0.3163  0.2194  0.4193
10619WAT      O43195   1.362   3.448   5.867  0.0160 -0.4061 -0.4611
10619WAT     H143196   1.289   3.404   5.847  0.6052 -1.8353  0.3177
10619WAT     H243197   1.334   3.530   5.880 -1.6626 -1.1168  0.8980
10619WAT    EPW43198   1.347   3.453   5.866 -0.1450 -0.7222 -0.1453
10620WAT      O43199   6.697   3.080   5.652 -0.5741  0.4393 -0.9046
10620WAT     H143200   6.642   3.041   5.708 -0.0908 -0.7438 -1.2409
10620WAT     H243201   6.643   3.111   5.590 -1.0934  1.5807  0.0751
10620WAT    EPW43202   6.681   3.079   5.651 -0.5794  0.4331 -0.8095
10621WAT      O43203   0.798   5.095   6.725  0.4201  0.0416 -0.0957
10621WAT     H143204   0.843   5.049   6.665  1.6870  1.4647 -0.2711
10621WAT     H243205   0.808   5.049   6.798  0.5048 -0.6818 -0.5504
10621WAT    EPW43206   0.806   5.081   6.727  0.6198  0.1450 -0.1888
10622WAT      O43207   2.176   2.574   6.160  0.6705 -0.4931  0.6480
10622WAT     H143208   2.089   2.573   6.166  0.6264  0.5251  0.4746
10622WAT     H243209   2.203   2.577   6.243  0.5242 -0.3858  0.6913
10622WAT    EPW43210   2.167   2.574   6.173  0.6423 -0.3269  0.6288
10623WAT      O43211   1.168   4.287   7.120  0.2614 -0.3685  0.1712
10623WAT     H143212   1.214   4.361   7.117 -1.2778  0.6280  0.2734
10623WAT     H243213   1.111   4.300   7.184 -0.5243 -1.3431 -0.2989
10623WAT    EPW43214   1.166   4.299   7.129 -0.0820 -0.3653  0.1169
10624WAT      O43215   1.522   4.590   5.954  0.1826 -0.1964  0.2914
10624WAT     H143216   1.515   4.603   6.040 -0.8711  0.6176  0.1053
10624WAT     H243217   1.450   4.544   5.934  1.3702 -2.0750  0.1228
10624WAT    EPW43218   1.510   4.585   5.964  0.2024 -0.3537  0.2390
10625WAT      O43219   3.587   4.122   6.392 -0.2881 -0.2064 -0.0123
10625WAT     H143220   3.578   4.142   6.477 -0.0823  3.4875 -0.6625
10625WAT     H243221   3.673   4.114   6.382 -0.3444 -1.1351  0.1862
10625WAT    EPW43222   3.598   4.124   6.403 -0.2660  0.2021 -0.0790
10626WAT      O43223   1.060   4.755   5.905  0.3013  0.4262  0.6394
10626WAT     H143224   1.101   4.754   5.828 -1.2462  1.9111 -0.2746
10626WAT     H243225   1.118   4.793   5.958  0.7241  1.0515 -0.2433
10626WAT    EPW43226   1.075   4.761   5.901  0.1352  0.7379  0.3740
10627WAT      O43227   1.781   4.827   7.482 -0.3559 -0.0705 -0.1720
10627WAT     H143228   1.835   4.760   7.493  0.0540  0.0849 -1.0803
10627WAT     H243229   1.762   4.853   7.563  0.5951 -0.3951  0.1594
10627WAT    EPW43230   1.786   4.821   7.495 -0.1548 -0.0955 -0.2572
10628WAT      O43231   1.315   3.541   7.832 -0.7921 -0.4017  0.6186
10628WAT     H143232   1.358   3.617   7.831 -3.5415  1.2884  0.1434
10628WAT     H243233   1.275   3.540   7.755  1.4986 -3.9371 -0.7888
10628WAT    EPW43234   1.316   3.552   7.820 -0.8599 -0.6743  0.3405
10629WAT      O43235   1.989   1.718   6.649 -0.2327 -0.1110  0.0746
10629WAT     H143236   1.989   1.705   6.563  0.4902  0.9578 -0.0978
10629WAT     H243237   2.025   1.645   6.681 -0.5701 -0.5395 -0.5111
10629WAT    EPW43238   1.994   1.705   6.641 -0.1758 -0.0164 -0.0374
10630WAT      O43239   1.470   3.872   6.647  0.0220 -0.3817  0.6322
10630WAT     H143240   1.538   3.924   6.629 -0.4260  0.6732  1.8045
10630WAT     H243241   1.457   3.884   6.733 -1.6827 -0.4959  0.4314
10630WAT    EPW43242   1.478   3.882   6.657 -0.2960 -0.2428  0.7757
10631WAT      O43243   0.860   3.282   6.432 -0.3364  0.2659 -0.4507
10631WAT     H143244   0.853   3.242   6.354 -1.2265 -1.2549  0.3569
10631WAT     H243245   0.891   3.361   6.412 -0.2280 -0.2017 -2.3152
10631WAT    EPW43246   0.863   3.288   6.417 -0.4518 -0.0278 -0.6068
10632WAT      O43247   1.412   5.229   6.682  0.1931 -0.2876  0.1553
10632WAT     H143248   1.455   5.266   6.749  1.5379 -0.1016 -0.7735
10632WAT     H243249   1.330   5.225   6.711  0.7545 -0.3378  1.8693
10632WAT    EPW43250   1.406   5.234   6.696  0.4747 -0.2676  0.2713
10633WAT      O43251   1.062   4.110   6.334  0.2102  0.1713  0.7859
10633WAT     H143252   1.065   4.194   6.357  0.4478  0.0238  1.3071
10633WAT     H243253   1.048   4.069   6.409  0.4686 -0.2812  0.5888
10633WAT    EPW43254   1.060   4.117   6.349  0.2835  0.0827  0.8338
10634WAT      O43255   1.750   4.243   5.783 -0.2937  0.4891 -0.6640
10634WAT     H143256   1.745   4.302   5.847 -0.9362  1.3292 -1.4547
10634WAT     H243257   1.708   4.281   5.717  0.1477 -0.4495 -1.5164
10634WAT    EPW43258   1.743   4.257   5.782 -0.3234  0.4746 -0.9067
10635WAT      O43259   1.354   2.570   7.328  0.7144  0.1848 -0.2375
10635WAT     H143260   1.397   2.641   7.301 -2.3634  1.7664 -1.5457
10635WAT     H243261   1.324   2.592   7.406  2.6675 -1.1692  0.9781
10635WAT    EPW43262   1.356   2.584   7.335  0.5483  0.2185 -0.2512
10636WAT      O43263   2.148   1.501   6.766 -0.3228 -0.8723  0.3173
10636WAT     H143264   2.100   1.450   6.818 -1.2147 -0.4918 -0.1259
10636WAT     H243265   2.229   1.492   6.798 -0.5208 -2.2697  0.4774
10636WAT    EPW43266   2.153   1.492   6.778 -0.4838 -1.0225  0.2755
10637WAT      O43267   2.189   3.323   5.963  0.2541  0.5848 -0.1600
10637WAT     H143268   2.255   3.272   5.987 -0.4290  0.7668  2.3873
10637WAT     H243269   2.119   3.285   5.998 -1.0997  0.4120 -2.7579
10637WAT    EPW43270   2.189   3.310   5.972 -0.0468  0.5862 -0.1675
10638WAT      O43271   1.564   3.135   6.591  0.4572  0.1149  0.0643
10638WAT     H143272   1.526   3.201   6.633  0.6086  0.4736 -0.3451
10638WAT     H243273   1.543   3.065   6.638 -1.0365  0.2426 -0.3599
10638WAT    EPW43274   1.556   3.135   6.604  0.2589  0.1867 -0.0588
10639WAT      O43275   1.554   5.024   7.075 -0.6365 -0.2531 -0.6572
10639WAT     H143276   1.629   5.003   7.036 -0.2391 -0.1051  0.0036
10639WAT     H243277   1.551   4.970   7.143 -0.4484  0.6384  0.0819
10639WAT    EPW43278   1.565   5.013   7.079 -0.5500 -0.0996 -0.4504
10640WAT      O43279   1.917   2.734   6.753  0.5622  0.4927  0.0351
10640WAT     H143280   1.911   2.649   6.735  0.1981  0.1180  1.7305
10640WAT     H243281   1.857   2.770   6.700 -1.2490 -0.6591  1.1650
10640WAT    EPW43282   1.907   2.727   6.743  0.2409  0.2672  0.4525
10641WAT      O43283   3.188   3.870   7.486 -0.4312 -0.0381  0.6931
10641WAT     H143284   3.245   3.878   7.421  0.6884 -3.7548  0.9645
10641WAT     H243285   3.233   3.894   7.556  0.9651 -2.8579  0.8903
10641WAT    EPW43286   3.203   3.875   7.487 -0.0596 -1.0036  0.7623
10642WAT      O43287   0.920   3.471   6.947  0.0193 -0.0560 -0.1072
10642WAT     H143288   0.897   3.387   6.937  1.4609 -0.4414 -0.4506
10642WAT     H243289   1.002   3.466   6.978 -1.0442  1.1986  3.3799
10642WAT    EPW43290   0.929   3.457   6.950  0.0752  0.0724  0.3572
10643WAT      O43291   1.049   3.743   5.868  0.1946  0.0036 -0.2826
10643WAT     H143292   1.027   3.827   5.868 -0.7131 -0.2256 -0.5279
10643WAT     H243293   0.994   3.707   5.810 -0.0946 -0.9255  0.5510
10643WAT    EPW43294   1.037   3.750   5.859  0.0178 -0.1675 -0.1957
10644WAT      O43295   3.166   1.516   5.244 -0.3535 -0.5028  0.3773
10644WAT     H143296   3.142   1.600   5.241  2.5745  0.4302  0.1147
10644WAT     H243297   3.175   1.494   5.160  0.2301 -0.6488  0.4751
10644WAT    EPW43298   3.164   1.525   5.231  0.1652 -0.3865  0.3529
10645WAT      O43299   3.664   4.081   6.815  0.3395 -0.6872 -0.0326
10645WAT     H143300   3.740   4.048   6.788  2.0637  1.0879  2.1844
10645WAT     H243301   3.653   4.046   6.895 -1.4558 -1.2414 -0.4728
10645WAT    EPW43302   3.674   4.071   6.823  0.3290 -0.5069  0.2299
10646WAT      O43303   1.343   4.228   6.465  0.2425  0.4069 -0.0607
10646WAT     H143304   1.322   4.144   6.452 -1.3766  0.5045  1.5242
10646WAT     H243305   1.426   4.232   6.440 -0.0040 -1.3755 -1.3655
10646WAT    EPW43306   1.352   4.216   6.460 -0.0331  0.1581 -0.0194
10647WAT      O43307   1.626   3.331   7.155  0.1883  0.4117  0.0946
10647WAT     H143308   1.697   3.296   7.119  1.0660  1.7126  0.4922
10647WAT     H243309   1.584   3.262   7.188  1.0325 -0.4328 -0.5346
10647WAT    EPW43310   1.631   3.316   7.155  0.4427  0.4791  0.0604
10648WAT      O43311   0.571   6.248   6.080  0.1212  0.0426 -0.3059
10648WAT     H143312   0.644   6.202   6.094  0.4246  0.5800 -0.0577
10648WAT     H243313   0.521   6.194   6.034  0.9751 -0.0729 -1.1283
10648WAT    EPW43314   0.575   6.233   6.075  0.2922  0.1049 -0.3907
10649WAT      O43315   1.295   4.620   6.735 -0.3372  0.7024  0.1949
10649WAT     H143316   1.221   4.643   6.775 -0.5192  1.9459 -0.8199
10649WAT     H243317   1.351   4.684   6.755  0.4276 -0.1313  0.7985
10649WAT    EPW43318   1.292   4.633   6.744 -0.2511  0.7630  0.1341
10650WAT      O43319   1.340   4.367   0.444 -0.6356 -0.1945  0.2827
10650WAT     H143320   1.318   4.339   0.364  1.2106 -1.6391  0.2175
10650WAT     H243321   1.426   4.383   0.438 -0.4201 -0.4666  2.0099
10650WAT    EPW43322   1.349   4.365   0.431 -0.3310 -0.4481  0.5282
10651WAT      O43323   1.171   3.606   6.110  0.2370 -0.1041  0.0070
10651WAT     H143324   1.232   3.657   6.146 -0.6782  0.6483  0.5313
10651WAT     H243325   1.130   3.659   6.054  0.4014 -0.7525 -0.7498
10651WAT    EPW43326   1.174   3.621   6.107  0.1261 -0.0888 -0.0274
10652WAT      O43327   2.160   5.392   6.865 -0.5187  0.2519 -0.1399
10652WAT     H143328   2.150   5.423   6.784 -0.2280  0.0338 -0.2630
10652WAT     H243329   2.086   5.414   6.905 -0.1394  1.5130 -0.0924
10652WAT    EPW43330   2.148   5.400   6.859 -0.4198  0.4060 -0.1511
10653WAT      O43331   1.027   3.379   0.044  0.4459 -0.4483 -0.6124
10653WAT     H143332   1.069   3.304   0.056 -0.4960 -0.9199 -0.1970
10653WAT     H243333   1.037   3.395  -0.041  2.1225 -0.1389 -0.3955
10653WAT    EPW43334   1.034   3.371   0.034  0.5545 -0.4723 -0.5190
10654WAT      O43335   0.757   3.557   6.236  0.2428  0.0352  0.1558
10654WAT     H143336   0.712   3.604   6.294  1.9832  0.0228  1.5916
10654WAT     H243337   0.780   3.616   6.175 -0.4076  0.3293  0.1854
10654WAT    EPW43338   0.754   3.573   6.235  0.4038  0.0768  0.3723
10655WAT      O43339   2.128   2.575   6.993 -0.0074 -0.5582  0.4982
10655WAT     H143340   2.155   2.656   6.978 -1.4750 -0.1925 -0.3179
10655WAT     H243341   2.056   2.585   7.041  0.6958 -1.4703  1.8388
10655WAT    EPW43342   2.122   2.588   6.998 -0.1203 -0.6389  0.5757
10656WAT      O43343   2.697   4.406   6.986  0.6047 -0.5168 -0.6925
10656WAT     H143344   2.632   4.463   6.997  0.9685 -0.0827 -0.7357
10656WAT     H243345   2.765   4.446   7.024  1.2556 -0.1682 -2.1528
10656WAT    EPW43346   2.698   4.421   6.993  0.7546 -0.4012 -0.9146
10657WAT      O43347   0.929   4.106   7.463 -0.2588 -0.4676  0.2515
10657WAT     H143348   0.933   4.174   7.408 -1.7871 -1.3344 -1.0217
10657WAT     H243349   0.920   4.037   7.410  2.2739 -1.8768  1.4264
10657WAT    EPW43350   0.929   4.106   7.447 -0.1104 -0.8038  0.2370
10658WAT      O43351   1.793   3.848   6.229  0.8921 -0.0317 -0.3650
10658WAT     H143352   1.731   3.801   6.188  0.1000  1.3872 -0.8463
10658WAT     H243353   1.858   3.852   6.171 -0.7707  3.1943 -2.2562
10658WAT    EPW43354   1.793   3.841   6.215  0.5295  0.6545 -0.7155
10659WAT      O43355   2.306   5.021   5.985 -0.5990  0.0292  0.2788
10659WAT     H143356   2.318   5.079   5.921 -2.7932  1.2989  0.9572
10659WAT     H243357   2.223   4.997   5.976 -0.1523 -2.0002  0.9106
10659WAT    EPW43358   2.296   5.026   5.974 -0.8572 -0.0831  0.4724
10660WAT      O43359   1.417   3.338   6.949 -0.3566 -0.1403 -0.4419
10660WAT     H143360   1.464   3.338   6.876 -1.1338  0.4096 -0.9619
10660WAT     H243361   1.476   3.321   7.012  0.4170 -0.0488 -1.1268
10660WAT    EPW43362   1.433   3.335   6.948 -0.3571 -0.0456 -0.6199
10661WAT      O43363   2.567   2.937   7.301  0.1713  0.0168 -0.2470
10661WAT     H143364   2.529   2.868   7.338 -0.2963  0.9834  1.1667
10661WAT     H243365   2.500   2.992   7.286  0.5841  0.3436 -0.9874
10661WAT    EPW43366   2.551   2.935   7.304  0.1632  0.2079 -0.1476
10662WAT      O43367   1.285   3.790   7.470 -0.4133  0.3704 -0.9303
10662WAT     H143368   1.245   3.863   7.498 -1.7200 -0.0800 -1.5690
10662WAT     H243369   1.339   3.770   7.536  0.1703  2.0449 -0.8386
10662WAT    EPW43370   1.287   3.798   7.484 -0.5201  0.5512 -1.0111
10663WAT      O43371   1.587   4.523   6.925 -0.6151  0.0714  0.2099
10663WAT     H143372   1.627   4.556   6.995 -1.1326  0.0304  0.5373
10663WAT     H243373   1.650   4.483   6.881 -0.0410  1.1917 -0.0016
10663WAT    EPW43374   1.602   4.522   6.929 -0.6068  0.2308  0.2270
10664WAT      O43375   2.308   5.048   0.291  0.2879  1.0907 -0.2634
10664WAT     H143376   2.339   5.121   0.326  0.5191  0.9816 -0.2388
10664WAT     H243377   2.233   5.073   0.253 -0.4516  1.0421  1.0952
10664WAT    EPW43378   2.301   5.062   0.290  0.2128  1.0674 -0.0590
10665WAT      O43379   0.889   1.492   6.933  0.1734 -0.4440  0.3384
10665WAT     H143380   0.911   1.562   6.980  0.4613  0.6718 -1.3662
10665WAT     H243381   0.899   1.519   6.850 -0.0714 -2.3891 -0.3773
10665WAT    EPW43382   0.894   1.506   6.927  0.1797 -0.5665 -0.0191
10666WAT      O43383   1.133   2.313   6.569 -0.0245 -0.0613 -0.0668
10666WAT     H143384   1.171   2.392   6.565  2.1366 -0.8270  2.3004
10666WAT     H243385   1.111   2.297   6.486  0.5391  2.5251 -0.8121
10666WAT    EPW43386   1.136   2.323   6.556  0.3780  0.2077  0.1728
10667WAT      O43387   1.431   1.880   5.909  0.7912 -0.1641  0.2093
10667WAT     H143388   1.452   1.959   5.877  0.7097 -0.4653 -0.6188
10667WAT     H243389   1.507   1.839   5.914  1.1161  0.5841  2.4825
10667WAT    EPW43390   1.445   1.886   5.905  0.8272 -0.0980  0.4228
10668WAT      O43391   1.055   3.037   7.569  0.0838  0.5317 -0.1426
10668WAT     H143392   1.013   2.977   7.617  0.9369  0.0331  0.0001
10668WAT     H243393   0.993   3.066   7.515 -0.6993  0.5592  0.7472
10668WAT    EPW43394   1.040   3.032   7.568  0.0941  0.4621  0.0099
10669WAT      O43395   2.730   4.283   7.527  0.5133 -0.1591 -1.1017
10669WAT     H143396   2.716   4.338   7.460  1.6264  0.8187 -0.5780
10669WAT     H243397   2.817   4.286   7.538  0.3266  0.0468  0.6406
10669WAT    EPW43398   2.741   4.292   7.519  0.6502  0.0157 -0.7670
10670WAT      O43399   1.001   4.497   5.823 -0.0690  0.4266 -0.0208
10670WAT     H143400   1.012   4.559   5.883  1.6533 -1.1455  1.3969
10670WAT     H243401   0.940   4.445   5.858 -0.2455  0.3733 -0.3978
10670WAT    EPW43402   0.993   4.499   5.837  0.1593  0.1865  0.1329
10671WAT      O43403   0.968   4.333   7.296  0.3657  0.2520 -0.0186
10671WAT     H143404   0.973   4.396   7.356 -0.7532  0.5698 -0.2357
10671WAT     H243405   0.943   4.374   7.223  1.1253 -0.2181 -0.5626
10671WAT    EPW43406   0.965   4.348   7.294  0.3126  0.2295 -0.1311
10672WAT      O43407   1.001   5.322   6.147 -0.0026  0.2853  0.1052
10672WAT     H143408   0.920   5.348   6.131 -0.2106 -0.4037  0.0192
10672WAT     H243409   0.993   5.236   6.162  0.8461  0.0006 -0.9729
10672WAT    EPW43410   0.988   5.313   6.147  0.0920  0.1414 -0.0668
10673WAT      O43411   2.381   3.564   7.327  0.1960  0.1885  0.0740
10673WAT     H143412   2.306   3.599   7.353  1.1469  1.7191  0.9050
10673WAT     H243413   2.423   3.548   7.402  1.5624  1.4158 -0.3773
10673WAT    EPW43414   2.376   3.567   7.342  0.5383  0.5959  0.1301
10674WAT      O43415   2.295   3.541   6.850  0.8663 -0.0702  0.3100
10674WAT     H143416   2.357   3.598   6.825 -0.1591  1.3874  0.9079
10674WAT     H243417   2.221   3.580   6.825  0.1502 -1.6017 -0.0615
10674WAT    EPW43418   2.293   3.556   6.843  0.6090 -0.0811  0.3434
10675WAT      O43419   1.602   3.626   6.588  0.0998  0.5332  0.0254
10675WAT     H143420   1.566   3.621   6.509 -0.2614 -2.4815  0.2782
10675WAT     H243421   1.572   3.702   6.619  0.6536  2.0752 -2.8266
10675WAT    EPW43422   1.593   3.637   6.581  0.1283  0.3156 -0.3586
10676WAT      O43423   1.801   3.761   7.419 -0.1031  0.3324 -0.5514
10676WAT     H143424   1.780   3.677   7.406  1.2648  0.0577 -1.1834
10676WAT     H243425   1.788   3.798   7.342 -2.5104  1.1732  0.1729
10676WAT    EPW43426   1.796   3.754   7.406 -0.2567  0.4160 -0.5378
10677WAT      O43427   1.597   5.366   5.681  0.2344  0.3163  0.5682
10677WAT     H143428   1.545   5.420   5.726  0.4517  0.0215  1.1771
10677WAT     H243429   1.656   5.421   5.646  0.4404  0.4943  1.1652
10677WAT    EPW43430   1.598   5.382   5.683  0.2969  0.2991  0.7463
10678WAT      O43431   2.689   5.530   7.489  0.3092  0.2283  0.4828
10678WAT     H143432   2.721   5.449   7.496  0.8292  0.3428 -0.4585
10678WAT     H243433   2.755   5.580   7.515  0.1658  0.3752  0.5661
10678WAT    EPW43434   2.703   5.525   7.494  0.3648  0.2669  0.3560
10679WAT      O43435   1.228   4.125   5.827  0.7192 -0.5843  0.2764
10679WAT     H143436   1.240   4.120   5.913  2.4734 -0.3309  0.0718
10679WAT     H243437   1.198   4.207   5.816 -0.5035 -0.9524  0.7225
10679WAT    EPW43438   1.225   4.137   5.838  0.7977 -0.6013  0.3121
10680WAT      O43439   2.189   3.244   5.638  0.3334 -0.0887  0.3548
10680WAT     H143440   2.146   3.170   5.655  1.1616 -0.1978  2.1648
10680WAT     H243441   2.193   3.284   5.716  2.4149  0.4976 -0.0056
10680WAT    EPW43442   2.183   3.239   5.652  0.7632 -0.0182  0.5689
10681WAT      O43443   2.561   3.847   5.577  0.2989 -0.8437 -0.2109
10681WAT     H143444   2.512   3.793   5.625 -1.5104  0.5522 -0.4120
10681WAT     H243445   2.564   3.807   5.499  0.2753 -1.3734  0.0510
10681WAT    EPW43446   2.554   3.833   5.573  0.0282 -0.7157 -0.2019
10682WAT      O43447   0.890   3.889   0.337  0.3034  0.5282  0.2382
10682WAT     H143448   0.863   3.845   0.408  2.0620  0.1539  0.7161
10682WAT     H243449   0.905   3.827   0.278  1.9152  0.5374  0.6135
10682WAT    EPW43450   0.888   3.874   0.339  0.8013  0.4743  0.3642
10683WAT      O43451   2.143   2.925   7.240 -0.5037  0.1078  0.6926
10683WAT     H143452   2.112   2.855   7.282 -2.3923  0.8124  0.5285
10683WAT     H243453   2.156   2.895   7.159 -1.8067  0.0387  0.4858
10683WAT    EPW43454   2.141   2.910   7.234 -0.9751  0.2017  0.6378
10684WAT      O43455   0.908   5.418   7.246  0.0342 -0.0097 -0.1533
10684WAT     H143456   0.841   5.370   7.218 -0.7252  0.3647  0.9599
10684WAT     H243457   0.977   5.366   7.237 -0.3549 -0.3192 -1.5502
10684WAT    EPW43458   0.909   5.404   7.241 -0.1354 -0.0001 -0.1952
10685WAT      O43459   1.755   4.145   6.185 -0.0334 -0.0674 -0.2130
10685WAT     H143460   1.718   4.175   6.112  3.0602 -1.4708 -2.6158
10685WAT     H243461   1.740   4.059   6.182  3.4883 -0.8222 -1.6447
10685WAT    EPW43462   1.747   4.136   6.174  0.9438 -0.3862 -0.7795
10686WAT      O43463   1.720   4.434   0.817 -0.0996 -0.1356 -0.3337
10686WAT     H143464   1.696   4.373   0.875  1.8784 -0.7131 -0.0328
10686WAT     H243465   1.675   4.504   0.841 -0.3478 -0.7376  1.0587
10686WAT    EPW43466   1.710   4.435   0.829  0.1560 -0.3099 -0.0836
10687WAT      O43467   2.558   4.489   5.590 -0.0764  0.1853  0.9810
10687WAT     H143468   2.634   4.484   5.634 -0.0806  4.0334  1.7523
10687WAT     H243469   2.506   4.532   5.644 -1.6733  0.7904 -0.9373
10687WAT    EPW43470   2.562   4.495   5.604 -0.3129  0.8432  0.8116
10688WAT      O43471   1.606   3.621   6.066  0.1569  0.2112 -0.1160
10688WAT     H143472   1.522   3.643   6.067  0.2378  0.5306 -0.0588
10688WAT     H243473   1.637   3.664   5.996  0.6406  1.5181  0.8698
10688WAT    EPW43474   1.598   3.631   6.056  0.2403  0.4515  0.0381
10689WAT      O43475   2.843   2.531   5.219  0.7546  0.4969  0.0752
10689WAT     H143476   2.850   2.449   5.192 -0.9573  0.4926 -0.4269
10689WAT     H243477   2.895   2.534   5.290  1.1020 -0.9044 -0.1072
10689WAT    EPW43478   2.852   2.520   5.226  0.5530  0.2893 -0.0259
10690WAT      O43479   2.090   4.162   7.324 -0.1299  0.9631  0.4100
10690WAT     H143480   2.010   4.170   7.290 -0.9647 -0.7906  1.7816
10690WAT     H243481   2.102   4.076   7.328  0.6910  1.1160  2.7098
10690WAT    EPW43482   2.080   4.151   7.320 -0.1320  0.7266  0.9523
10691WAT      O43483   0.636   3.075   0.159  0.4010  0.2060 -0.2686
10691WAT     H143484   0.639   3.047   0.242 -3.2267 -0.1631 -0.1074
10691WAT     H243485   0.683   3.016   0.116  4.4638  1.6717  1.6123
10691WAT    EPW43486   0.644   3.062   0.165  0.4653  0.3680  0.0331
10692WAT      O43487   0.956   4.150   7.852 -0.1664  0.8620 -0.5351
10692WAT     H143488   0.953   4.152   7.765  2.0197 -0.4911 -0.7327
10692WAT     H243489   0.907   4.081   7.873  0.0628  0.6174 -0.7910
10692WAT    EPW43490   0.948   4.140   7.842  0.1904  0.6260 -0.6021
10693WAT      O43491   3.130   3.945   6.330  0.3635 -0.1367  0.3927
10693WAT     H143492   3.182   4.015   6.337 -0.3580  0.4837 -0.2311
10693WAT     H243493   3.128   3.929   6.244 -0.6853  0.0341  0.3678
10693WAT    EPW43494   3.137   3.953   6.318  0.1020 -0.0198  0.2969
10694WAT      O43495   2.512   3.438   7.559 -0.3681  0.8696  0.0296
10694WAT     H143496   2.508   3.360   7.520  0.4524 -0.2431  2.0541
10694WAT     H243497   2.580   3.476   7.521  1.2373 -0.7053  1.1748
10694WAT    EPW43498   2.521   3.432   7.548 -0.0097  0.4726  0.4979
10695WAT      O43499   2.704   4.352   0.828 -0.9104 -0.0815 -0.1216
10695WAT     H143500   2.631   4.397   0.812 -2.1364 -1.5794  0.8676
10695WAT     H243501   2.713   4.357   0.915  1.6819  2.2029 -0.4051
10695WAT    EPW43502   2.694   4.359   0.838 -0.7086  0.0347 -0.0173
10696WAT      O43503   3.011   3.415   5.378 -0.1131 -0.0311  0.4613
10696WAT     H143504   3.030   3.500   5.384 -0.9794  0.2291 -0.3396
10696WAT     H243505   3.088   3.379   5.356 -0.0699  0.7490 -0.7723
10696WAT    EPW43506   3.025   3.422   5.376 -0.2347  0.1226  0.1607
10697WAT      O43507   2.154   2.843   6.663  0.1841  1.0292 -0.8378
10697WAT     H143508   2.082   2.818   6.706  0.5947 -2.4023 -1.8427
10697WAT     H243509   2.128   2.913   6.619 -2.8635 -0.5084 -1.7792
10697WAT    EPW43510   2.139   2.850   6.663 -0.2054  0.2951 -1.1253
10698WAT      O43511   1.937   4.608   6.001  0.4339 -0.3835  0.4941
10698WAT     H143512   1.985   4.626   6.072  0.9544  0.9520 -0.1554
10698WAT     H243513   1.996   4.607   5.936 -0.0087 -1.7475  0.0824
10698WAT    EPW43514   1.953   4.611   6.002  0.4454 -0.3877  0.3373
10699WAT      O43515   1.710   4.408   5.993 -0.0709 -0.1052  0.3912
10699WAT     H143516   1.657   4.468   5.958 -0.8307 -1.1008 -0.2060
10699WAT     H243517   1.778   4.455   6.021 -0.4156  0.9784 -0.5216
10699WAT    EPW43518   1.712   4.424   5.992 -0.2340 -0.0922  0.1681
10700WAT      O43519   1.243   5.933   7.108 -0.3160  0.5282  0.8071
10700WAT     H143520   1.308   5.991   7.102 -1.2502  1.6715  1.3219
10700WAT     H243521   1.171   5.983   7.108 -1.4454 -0.7821 -2.7836
10700WAT    EPW43522   1.242   5.949   7.107 -0.6208  0.5035  0.3527
10701WAT      O43523   0.749   2.886   0.365  0.3290  0.2309 -0.0305
10701WAT     H143524   0.765   2.813   0.411 -0.7426 -0.1091 -0.1696
10701WAT     H243525   0.763   2.861   0.282 -0.9153 -0.0843 -0.1578
10701WAT    EPW43526   0.753   2.871   0.359 -0.0131  0.1341 -0.0699
10702WAT      O43527   4.057   2.128   7.524  0.2367  0.2189 -0.6345
10702WAT     H143528   3.997   2.135   7.461 -0.4524  0.4695  0.0320
10702WAT     H243529   4.078   2.044   7.523 -1.3469 -0.2238  0.2109
10702WAT    EPW43530   4.051   2.117   7.514 -0.0991  0.1905 -0.4111
10703WAT      O43531   1.713   5.408   7.365  0.9673 -0.0993  0.1719
10703WAT     H143532   1.725   5.324   7.388  0.9354 -0.0569  0.3445
10703WAT     H243533   1.662   5.403   7.295  1.4126 -0.2519 -0.1504
10703WAT    EPW43534   1.707   5.395   7.358  1.0283 -0.1156  0.1498
10704WAT      O43535   0.710   3.990   5.254  0.2369 -0.3926 -0.0510
10704WAT     H143536   0.689   4.075   5.253 -0.0193 -0.4552  0.0479
10704WAT     H243537   0.795   3.990   5.233 -0.0320 -0.1921 -1.2025
10704WAT    EPW43538   0.719   4.003   5.251  0.1593 -0.3722 -0.2065
10705WAT      O43539   0.912   3.930   7.235  0.4801 -0.2939  0.3729
10705WAT     H143540   0.997   3.913   7.230  0.4611 -0.6030  1.0995
10705WAT     H243541   0.878   3.883   7.169  1.1801  2.1277 -1.8959
10705WAT    EPW43542   0.919   3.921   7.224  0.5807  0.0182  0.1451
10706WAT      O43543   1.033   3.018   5.568 -0.1868  0.2295  0.2831
10706WAT     H143544   1.115   2.995   5.548 -0.7108 -0.3664 -1.3456
10706WAT     H243545   1.022   2.988   5.649  1.5610  1.3331  0.9841
10706WAT    EPW43546   1.043   3.011   5.577 -0.0060  0.3045  0.1460
10707WAT      O43547   2.201   3.364   5.375  0.1411 -0.2412  0.1675
10707WAT     H143548   2.287   3.377   5.378  0.0835  0.1790  0.0774
10707WAT     H243549   2.183   3.323   5.449  0.5076 -0.8706 -0.0822
10707WAT    EPW43550   2.211   3.360   5.386  0.1868 -0.2721  0.1173
10708WAT      O43551   0.647   5.122   5.076  0.3831 -0.0470 -0.2634
10708WAT     H143552   0.627   5.046   5.114  0.8131 -0.6645 -1.2391
10708WAT     H243553   0.589   5.129   5.011  1.2925 -0.2903 -1.1175
10708WAT    EPW43554   0.635   5.112   5.072  0.5810 -0.1741 -0.5337
10709WAT      O43555   0.872   3.544   7.589 -0.0257  0.1242 -0.2923
10709WAT     H143556   0.843   3.568   7.510 -2.1108 -0.2396  0.3121
10709WAT     H243557   0.896   3.461   7.577 -0.7421 -0.0662 -0.4717
10709WAT    EPW43558   0.871   3.535   7.575 -0.4396  0.0423 -0.2295
10710WAT      O43559   1.475   4.797   6.841 -0.1213 -0.0518 -0.0415
10710WAT     H143560   1.486   4.850   6.909 -1.3041  0.9766 -0.6206
10710WAT     H243561   1.514   4.723   6.867  0.9662  0.8465  1.0575
10710WAT    EPW43562   1.483   4.794   6.855 -0.1354  0.2329  0.0353
10711WAT      O43563   0.649   3.764   5.801  0.1037 -0.0787 -0.0359
10711WAT     H143564   0.570   3.774   5.766  0.0880  2.1603  0.4747
10711WAT     H243565   0.699   3.740   5.733 -1.1528 -2.8811 -0.1276
10711WAT    EPW43566   0.645   3.762   5.786 -0.0842 -0.1619  0.0260
10712WAT      O43567   1.715   3.917   6.923 -0.5058 -0.3375  0.0391
10712WAT     H143568   1.697   3.832   6.929 -0.4735 -0.2190  2.6431
10712WAT     H243569   1.644   3.950   6.885 -0.8530 -1.4071 -0.2744
10712WAT    EPW43570   1.702   3.910   6.918 -0.5523 -0.4780  0.3775
10713WAT      O43571   1.253   3.162   6.845 -0.1557  0.0299 -0.1974
10713WAT     H143572   1.315   3.204   6.889  0.3829 -0.5432 -0.3962
10713WAT     H243573   1.258   3.195   6.764 -1.5169  1.4877  0.2625
10713WAT    EPW43574   1.263   3.173   6.839 -0.2772  0.1606 -0.1589
10714WAT      O43575   0.882   4.276   0.615 -0.2643 -0.3478  0.1974
10714WAT     H143576   0.901   4.233   0.542 -3.3618 -3.2915  0.8755
10714WAT     H243577   0.836   4.345   0.587  1.8160  0.7456 -0.7225
10714WAT    EPW43578   0.878   4.280   0.600 -0.4146 -0.6212  0.1617
10715WAT      O43579   1.084   4.019   6.599 -0.1575  0.2358  0.0665
10715WAT     H143580   1.057   4.071   6.664 -0.0939  0.8574 -0.3958
10715WAT     H243581   1.098   3.943   6.639  0.5104  0.7737  0.9185
10715WAT    EPW43582   1.082   4.016   6.615 -0.0495  0.4071  0.1241
10716WAT      O43583   1.624   4.085   0.108 -0.0775  0.1717 -0.0436
10716WAT     H143584   1.614   4.088   0.195  0.5997  0.2140  0.0350
10716WAT     H243585   1.641   4.168   0.087  0.9807 -0.0377 -0.0603
10716WAT    EPW43586   1.625   4.098   0.118  0.1789  0.1470 -0.0345
10717WAT      O43587   1.261   4.379   4.712  0.0830 -0.0424  0.3629
10717WAT     H143588   1.220   4.425   4.651  1.6672  0.2185 -0.5572
10717WAT     H243589   1.210   4.310   4.724  0.2409 -0.6835 -2.0956
10717WAT    EPW43590   1.248   4.375   4.705  0.3404 -0.0986 -0.1362
10718WAT      O43591   1.261   3.284   6.590  0.1257  0.2253 -0.2268
10718WAT     H143592   1.239   3.368   6.582  0.5272  0.2848 -0.7926
10718WAT     H243593   1.225   3.247   6.519 -1.7256 -0.4570  0.9986
10718WAT    EPW43594   1.252   3.291   6.578 -0.0885  0.1333 -0.1294
10719WAT      O43595   1.489   3.945   6.001  0.1574 -0.3995  0.1602
10719WAT     H143596   1.480   3.954   5.915  0.9147 -1.4491 -0.0529
10719WAT     H243597   1.513   4.024   6.028  4.4542 -0.9570 -1.2642
10719WAT    EPW43598   1.491   3.958   5.992  0.9040 -0.6369 -0.0817
10720WAT      O43599   1.400   5.325   5.494  0.3778 -0.4128 -0.3343
10720WAT     H143600   1.376   5.409   5.487  1.2004 -0.2875 -2.2922
10720WAT     H243601   1.473   5.329   5.543  0.5901  0.0614 -0.6766
10720WAT    EPW43602   1.407   5.338   5.500  0.5307 -0.3242 -0.6741
10721WAT      O43603   3.276   3.354   6.920 -0.4533  0.4024 -0.7800
10721WAT     H143604   3.252   3.292   6.976 -1.9545  0.4304 -1.3260
10721WAT     H243605   3.259   3.428   6.963 -0.3790  0.4296 -0.7972
10721WAT    EPW43606   3.270   3.356   6.935 -0.6641  0.4106 -0.8632
10722WAT      O43607   0.881   6.445   6.803  0.2931 -0.8000 -0.0434
10722WAT     H143608   0.938   6.409   6.858  2.1909 -0.9050 -1.9107
10722WAT     H243609   0.846   6.377   6.761 -0.0981 -0.6753  0.0764
10722WAT    EPW43610   0.884   6.430   6.805  0.5157 -0.7971 -0.3015
10723WAT      O43611   0.849   3.541   7.271 -0.4876 -0.2946  0.2512
10723WAT     H143612   0.933   3.560   7.259 -0.5939 -0.4900 -0.9523
10723WAT     H243613   0.808   3.592   7.212 -1.2611  0.1896  1.1824
10723WAT    EPW43614   0.855   3.551   7.260 -0.6176 -0.2519  0.2109
10724WAT      O43615   0.916   3.528   6.666  0.5053  0.6479 -0.2545
10724WAT     H143616   0.896   3.508   6.749  0.0083 -0.6777 -0.6615
10724WAT     H243617   0.889   3.458   6.622 -0.2072  1.7688 -1.6772
10724WAT    EPW43618   0.909   3.515   6.672  0.3266  0.6177 -0.5248
10725WAT      O43619   2.109   4.663   7.193 -0.6803 -0.0796 -0.3103
10725WAT     H143620   2.183   4.619   7.181 -0.3199  0.8351 -1.7024
10725WAT     H243621   2.134   4.735   7.234 -0.9752 -0.2878  0.2406
10725WAT    EPW43622   2.124   4.667   7.197 -0.6706  0.0247 -0.4346
10726WAT      O43623   2.482   5.093   7.466  0.0611 -0.2226 -0.2253
10726WAT     H143624   2.429   5.035   7.504 -1.4603  0.6587 -0.9095
10726WAT     H243625   2.550   5.097   7.520 -0.7294 -1.1516  0.8811
10726WAT    EPW43626   2.484   5.085   7.480 -0.2804 -0.2297 -0.1629
10727WAT      O43627   0.774   3.324   0.207 -0.2611 -0.2235 -0.1818
10727WAT     H143628   0.845   3.327   0.157  0.7938  0.8934  1.2877
10727WAT     H243629   0.741   3.245   0.191 -0.9802  0.6427 -3.8663
10727WAT    EPW43630   0.780   3.313   0.197 -0.2115  0.0695 -0.5090
10728WAT      O43631   2.890   2.755   7.077 -0.3962  0.1060 -0.3067
10728WAT     H143632   2.832   2.711   7.126 -0.2575 -1.2777 -1.3033
10728WAT     H243633   2.882   2.718   6.998 -1.1420  2.7268 -1.5793
10728WAT    EPW43634   2.880   2.743   7.073 -0.4859  0.2888 -0.6419
10729WAT      O43635   1.289   4.850   5.115 -0.0959 -0.1713 -0.6690
10729WAT     H143636   1.335   4.922   5.095  0.1212  0.2581  1.2238
10729WAT     H243637   1.211   4.865   5.077  0.1135  0.8209 -0.7408
10729WAT    EPW43638   1.284   4.863   5.106 -0.0329  0.0387 -0.4000
10730WAT      O43639   1.015   4.706   0.195  0.4084 -0.2879  0.0959
10730WAT     H143640   0.990   4.657   0.127  1.1301  0.2282 -0.5584
10730WAT     H243641   1.102   4.713   0.185  0.4889  0.0095  0.9243
10730WAT    EPW43642   1.024   4.700   0.184  0.5269 -0.1677  0.1216
10731WAT      O43643   2.029   4.130   0.172 -0.0188  0.1595  0.6263
10731WAT     H143644   2.115   4.116   0.164  0.0180  0.4158  0.5490
10731WAT     H243645   1.993   4.072   0.118  0.2007  1.5115 -1.0625
10731WAT    EPW43646   2.037   4.120   0.163  0.0190  0.3971  0.3654
10732WAT      O43647   1.989   4.565   6.545  0.0398  0.0845  0.0441
10732WAT     H143648   2.062   4.611   6.559 -0.5805  0.5995  1.8300
10732WAT     H243649   2.018   4.483   6.533  0.9547  0.3717  0.2578
10732WAT    EPW43650   2.004   4.559   6.545  0.0833  0.2030  0.3395
10733WAT      O43651   0.875   2.199   0.228 -0.3946 -0.4884 -0.1036
10733WAT     H143652   0.867   2.157   0.304  0.3576 -0.0006  0.2529
10733WAT     H243653   0.825   2.152   0.174 -1.9614 -0.1485  0.9574
10733WAT    EPW43654   0.866   2.186   0.231 -0.5149 -0.3661  0.1058
10734WAT      O43655   0.898   4.737   7.170  0.2252 -0.5370  0.0882
10734WAT     H143656   0.896   4.658   7.135 -2.3597 -1.1120  1.2305
10734WAT     H243657   0.982   4.751   7.187  0.9534 -2.2263 -1.8011
10734WAT    EPW43658   0.910   4.727   7.168 -0.0491 -0.8715 -0.0221
10735WAT      O43659   1.753   3.393   6.037 -0.0944  0.6016  0.1098
10735WAT     H143660   1.751   3.382   5.950  0.2817  0.8310  0.0701
10735WAT     H243661   1.699   3.460   6.050 -1.2404 -0.3089  0.2043
10735WAT    EPW43662   1.745   3.402   6.026 -0.2081  0.5010  0.1179
10736WAT      O43663   0.904   3.624   0.154  0.1877  0.1726 -0.2313
10736WAT     H143664   0.833   3.604   0.108  0.4113  0.3849 -0.6798
10736WAT     H243665   0.939   3.547   0.173 -1.4794 -0.0902  2.1705
10736WAT    EPW43666   0.899   3.610   0.150 -0.0255  0.1651  0.0572
10737WAT      O43667   1.056   4.428   6.630 -0.1319  0.3469 -0.3590
10737WAT     H143668   1.050   4.358   6.683  0.5725  0.0594 -0.6404
10737WAT     H243669   1.115   4.478   6.669 -0.7808  0.8897 -0.0572
10737WAT    EPW43670   1.064   4.425   6.644 -0.1237  0.3846 -0.3560
10738WAT      O43671   2.610   3.809   0.358  0.2658 -0.9015  0.4605
10738WAT     H143672   2.534   3.797   0.316  0.7612  0.4589 -0.9199
10738WAT     H243673   2.615   3.740   0.411 -1.0548 -1.9989 -0.7611
10738WAT    EPW43674   2.600   3.797   0.359  0.1439 -0.8627  0.0762
10739WAT      O43675   1.008   3.164   6.655  0.4731  0.6916  0.1855
10739WAT     H143676   0.958   3.203   6.595  0.2521  0.5100  0.2512
10739WAT     H243677   1.089   3.179   6.626  0.3803  0.9646  0.0658
10739WAT    EPW43678   1.013   3.172   6.642  0.4267  0.7051  0.1776
10740WAT      O43679   1.828   5.155   4.888  0.3833 -0.1519 -0.0914
10740WAT     H143680   1.849   5.196   4.813  0.3677  0.3203  0.1561
10740WAT     H243681   1.800   5.077   4.861 -0.2435  0.2415 -0.6358
10740WAT    EPW43682   1.827   5.150   4.873  0.2884 -0.0241 -0.1353
10741WAT      O43683   0.926   2.275   7.468  0.0597 -0.3152 -0.3667
10741WAT     H143684   1.011   2.284   7.452 -0.1479 -0.7346 -1.7894
10741WAT     H243685   0.895   2.356   7.460  0.4368  0.0094  1.0845
10741WAT    EPW43686   0.934   2.288   7.464  0.0847 -0.3292 -0.3625
10742WAT      O43687   3.608   2.395   6.252  0.4610  0.3717  0.3042
10742WAT     H143688   3.635   2.478   6.249 -0.0156  0.5373  0.4899
10742WAT     H243689   3.682   2.350   6.265  0.7494  0.7451 -0.0048
10742WAT    EPW43690   3.623   2.400   6.253  0.4332  0.4513  0.2860
10743WAT      O43691   1.642   5.084   5.673 -0.0774  0.0878 -0.1524
10743WAT     H143692   1.624   5.163   5.704  0.3604 -0.1835  0.8420
10743WAT     H243693   1.696   5.100   5.606 -1.1964  0.6987 -0.9255
10743WAT    EPW43694   1.647   5.098   5.668 -0.1780  0.1380 -0.1197
10744WAT      O43695   1.476   1.824   7.045 -0.0249  0.0489  0.1146
10744WAT     H143696   1.525   1.843   6.975  0.9758 -0.4124  0.6754
10744WAT     H243697   1.458   1.902   7.080 -0.3457  0.2679 -0.5208
10744WAT    EPW43698   1.480   1.838   7.040  0.0756  0.0131  0.1035
10745WAT      O43699   2.411   3.781   0.176  0.2785  0.8797  0.2501
10745WAT     H143700   2.374   3.855   0.202  0.4152  0.4182  1.8949
10745WAT     H243701   2.356   3.719   0.204 -0.0688  0.3416 -1.5041
10745WAT    EPW43702   2.398   3.783   0.184  0.2474  0.7320  0.2340
10746WAT      O43703   1.524   3.691   7.184 -0.3045  0.0170 -0.1195
10746WAT     H143704   1.565   3.674   7.109  0.2776  0.6511  0.0354
10746WAT     H243705   1.580   3.662   7.244 -0.3027  0.4423  0.0873
10746WAT    EPW43706   1.539   3.684   7.182 -0.2183  0.1735 -0.0660
10747WAT      O43707   2.785   4.115   0.636  0.2064  0.1825  0.2030
10747WAT     H143708   2.739   4.154   0.699  0.6093 -0.6681  1.0440
10747WAT     H243709   2.849   4.075   0.679  0.0082 -1.1198 -0.6476
10747WAT    EPW43710   2.788   4.115   0.652  0.2367 -0.1355  0.2016
10748WAT      O43711   1.232   4.130   6.095  0.1862  0.9038  0.1084
10748WAT     H143712   1.187   4.097   6.162  1.5470 -1.9407 -0.2021
10748WAT     H243713   1.309   4.152   6.130  0.2860  1.0276 -0.1824
10748WAT    EPW43714   1.237   4.128   6.110  0.4020  0.5019  0.0196
10749WAT      O43715   0.954   4.659   5.330  0.3085  0.0215  0.0869
10749WAT     H143716   0.944   4.580   5.365  1.9280  0.9091  2.8690
10749WAT     H243717   0.873   4.690   5.325 -0.2939 -1.5450 -0.5173
10749WAT    EPW43718   0.940   4.652   5.334  0.4588 -0.0788  0.4086
10750WAT      O43719   3.277   2.935   7.344  0.1651 -0.0609 -0.2346
10750WAT     H143720   3.348   2.890   7.321 -0.6464 -1.7463  0.3775
10750WAT     H243721   3.213   2.896   7.301 -0.5339  0.8712 -0.0790
10750WAT    EPW43722   3.278   2.923   7.335 -0.0580 -0.1722 -0.1212
10751WAT      O43723   0.851   4.162   7.016 -0.0909 -0.1840  0.0502
10751WAT     H143724   0.769   4.152   6.986  0.0099  0.0437 -0.3057
10751WAT     H243725   0.855   4.104   7.081 -1.0175  0.8506  1.0813
10751WAT    EPW43726   0.839   4.152   7.021 -0.2129  0.0025  0.1500
10752WAT      O43727   1.437   3.774   7.704 -0.1632 -0.2012 -0.0961
10752WAT     H143728   1.522   3.752   7.710  0.2827  1.1956 -0.8995
10752WAT     H243729   1.436   3.859   7.723 -0.9115  0.5568 -3.0889
10752WAT    EPW43730   1.450   3.783   7.708 -0.2078  0.1171 -0.6569
10753WAT      O43731   1.437   4.832   6.325 -0.3266 -0.6240  0.5312
10753WAT     H143732   1.440   4.902   6.378 -1.1563 -0.3549  0.2470
10753WAT     H243733   1.395   4.772   6.373  0.9330 -1.1659  1.0098
10753WAT    EPW43734   1.431   4.834   6.340 -0.2631 -0.6643  0.5599
10754WAT      O43735   1.435   5.745   1.643 -0.1395  1.0808 -0.6537
10754WAT     H143736   1.390   5.676   1.614  1.7426  0.3484 -2.0730
10754WAT     H243737   1.454   5.723   1.725  1.6589 -0.8851 -1.4892
10754WAT    EPW43738   1.431   5.732   1.651  0.4042  0.6822 -0.9868
10755WAT      O43739   2.004   3.837   0.626  0.4344 -0.1445 -0.3160
10755WAT     H143740   1.965   3.851   0.702  0.0164 -0.1261 -0.5328
10755WAT     H243741   2.033   3.916   0.603 -0.9820  0.1929 -1.0196
10755WAT    EPW43742   2.003   3.851   0.634  0.1634 -0.0920 -0.4519
10756WAT      O43743   1.701   3.791   5.442  0.6601  0.0308  0.1934
10756WAT     H143744   1.686   3.774   5.358  1.5840 -1.8379  0.3686
10756WAT     H243745   1.757   3.858   5.439  1.7218 -0.8597 -0.7402
10756WAT    EPW43746   1.707   3.799   5.429  0.9534 -0.3768  0.0814
10757WAT      O43747   2.039   5.007   7.458 -0.2856 -0.0890 -0.3238
10757WAT     H143748   2.076   5.083   7.479  0.4777 -0.7559  0.9577
10757WAT     H243749   1.970   5.029   7.411  1.2291  1.2776 -2.0387
10757WAT    EPW43750   2.035   5.021   7.454  0.0509  0.0144 -0.3878
10758WAT      O43751   0.636   4.349   6.903 -0.4274  0.3161 -0.7743
10758WAT     H143752   0.667   4.396   6.836 -0.8974 -0.2659 -1.4155
10758WAT     H243753   0.554   4.380   6.913 -0.4270  0.2617 -0.6000
10758WAT    EPW43754   0.628   4.360   6.894 -0.4967  0.2221 -0.8433
10759WAT      O43755   3.132   3.163   7.073 -0.3539  0.0695  0.2311
10759WAT     H143756   3.127   3.089   7.027 -2.8763  1.2285 -1.5680
10759WAT     H243757   3.062   3.160   7.125  0.3498  0.5551  1.2472
10759WAT    EPW43758   3.121   3.152   7.074 -0.6226  0.3124  0.1155
10760WAT      O43759   0.759   1.692   7.849 -0.2999 -0.0857  0.3667
10760WAT     H143760   0.712   1.626   7.882  0.9939 -1.0994  0.2519
10760WAT     H243761   0.838   1.657   7.837  0.3182  1.3890 -0.0662
10760WAT    EPW43762   0.764   1.677   7.852 -0.0175 -0.0176  0.2858
10761WAT      O43763   1.806   3.153   6.463 -0.4940 -0.0103  0.3403
10761WAT     H143764   1.732   3.164   6.507 -0.3782  3.8514 -0.1191
10761WAT     H243765   1.807   3.220   6.407  3.0023 -0.2744 -0.1333
10761WAT    EPW43766   1.796   3.164   6.462  0.0396  0.5212  0.2025
10762WAT      O43767   0.670   5.676   6.272  0.5064  0.0582 -0.2621
10762WAT     H143768   0.657   5.733   6.207  2.0134 -1.6183 -2.1796
10762WAT     H243769   0.754   5.655   6.265  0.4910 -0.9134  1.6727
10762WAT    EPW43770   0.681   5.681   6.261  0.7268 -0.3330 -0.2596
10763WAT      O43771   1.531   2.921   6.756  0.0665 -0.3413 -0.1332
10763WAT     H143772   1.558   2.952   6.833  0.8215  0.2627 -0.6267
10763WAT     H243773   1.537   2.835   6.766 -1.8503 -0.3741  1.1802
10763WAT    EPW43774   1.536   2.913   6.769 -0.1051 -0.2569 -0.0121
10764WAT      O43775   2.037   3.840   4.868 -0.2525 -0.0358 -0.5002
10764WAT     H143776   2.003   3.920   4.863  1.7124  0.8771 -0.1320
10764WAT     H243777   2.075   3.830   4.790  1.7736  0.5133  0.3729
10764WAT    EPW43778   2.037   3.850   4.855  0.3370  0.1801 -0.3168
10765WAT      O43779   1.540   4.092   1.193 -0.3584 -0.4411  0.2590
10765WAT     H143780   1.538   4.016   1.149 -2.0629 -0.5359  0.4435
10765WAT     H243781   1.607   4.082   1.247  0.1647 -1.3607 -0.5161
10765WAT    EPW43782   1.550   4.079   1.194 -0.5329 -0.5909  0.1718
10766WAT      O43783   0.983   4.979   6.156  0.0484  0.1935  0.0958
10766WAT     H143784   0.939   4.904   6.158  1.1778 -0.4825  1.8484
10766WAT     H243785   1.066   4.953   6.150  0.3596  1.4050 -2.1785
10766WAT    EPW43786   0.989   4.964   6.155  0.2612  0.2726  0.0187
10767WAT      O43787   1.316   3.738   5.745  0.2343  0.1020 -0.6970
10767WAT     H143788   1.237   3.733   5.780  0.5123 -0.2312 -0.0984
10767WAT     H243789   1.332   3.824   5.740  0.0971  0.1564 -0.2146
10767WAT    EPW43790   1.307   3.750   5.749  0.2551  0.0608 -0.5373
10768WAT      O43791   2.575   4.597   6.645 -0.1878  0.0156 -0.5348
10768WAT     H143792   2.633   4.633   6.591  0.0431 -0.2763 -0.4797
10768WAT     H243793   2.604   4.620   6.724 -1.7986  2.4765 -0.5353
10768WAT    EPW43794   2.588   4.606   6.649 -0.3916  0.3360 -0.5267
10769WAT      O43795   0.938   3.624   5.183 -0.0009 -0.2870 -0.2370
10769WAT     H143796   0.979   3.581   5.247 -0.4884 -1.2111 -0.5275
10769WAT     H243797   0.906   3.694   5.224  0.5089 -0.3675  0.3272
10769WAT    EPW43798   0.939   3.628   5.199  0.0024 -0.4354 -0.1966
10770WAT      O43799   2.211   3.265   6.922 -0.6016  0.5494  0.0500
10770WAT     H143800   2.210   3.352   6.912  0.7425  0.5486 -0.3737
10770WAT     H243801   2.263   3.253   6.991 -1.6570  0.1061  0.7911
10770WAT    EPW43802   2.218   3.276   6.931 -0.5590  0.4838  0.0969
10771WAT      O43803   1.994   3.774   5.783  1.0431 -0.0368 -0.0767
10771WAT     H143804   1.918   3.814   5.767 -0.4318 -2.8069 -0.6558
10771WAT     H243805   2.019   3.807   5.860 -0.4571  1.3359 -0.1304
10771WAT    EPW43806   1.987   3.785   5.792  0.6036 -0.2432 -0.1702
10772WAT      O43807   3.886   3.762   0.008 -0.5638  0.0397 -0.7932
10772WAT     H143808   3.827   3.824  -0.008  1.5266  2.3641 -0.1874
10772WAT     H243809   3.865   3.734   0.088  0.1154  2.2115  0.2491
10772WAT    EPW43810   3.874   3.767   0.018 -0.1547  0.7039 -0.5498
10773WAT      O43811   1.520   2.786   7.242 -0.0815 -0.3288  0.3452
10773WAT     H143812   1.599   2.803   7.275 -1.3756  0.4386  3.3035
10773WAT     H243813   1.475   2.859   7.257 -0.7352  0.4602 -3.9693
10773WAT    EPW43814   1.525   2.799   7.249 -0.3692 -0.0989  0.1449
10774WAT      O43815   1.565   2.934   0.263  0.6221  0.4615  0.5785
10774WAT     H143816   1.522   2.903   0.333  0.8223  1.1549  1.0122
10774WAT     H243817   1.532   3.014   0.252 -0.0150  0.0584 -0.6499
10774WAT    EPW43818   1.554   2.941   0.272  0.5576  0.5044  0.4611
10775WAT      O43819   2.317   2.121   0.984  0.5855 -0.0255  0.4762
10775WAT     H143820   2.395   2.120   0.945 -0.3440  2.7703 -1.7889
10775WAT     H243821   2.283   2.197   0.959 -3.2380 -1.4964  0.6346
10775WAT    EPW43822   2.324   2.132   0.975 -0.1166  0.1702  0.1650
10776WAT      O43823   0.868   4.596   1.601  0.4469  0.0774 -0.3197
10776WAT     H143824   0.834   4.551   1.535  1.2478 -1.2201  0.1372
10776WAT     H243825   0.944   4.624   1.571  1.8872 -2.4222  0.7104
10776WAT    EPW43826   0.874   4.594   1.587  0.7779 -0.4835 -0.1000
10777WAT      O43827   0.745   4.451   5.955  0.4177 -0.3918 -0.0274
10777WAT     H143828   0.701   4.377   5.966 -0.1901 -0.1524 -0.7487
10777WAT     H243829   0.795   4.457   6.026 -3.2621  1.0936  2.7709
10777WAT    EPW43830   0.746   4.441   5.967 -0.2157 -0.1370  0.2794
10778WAT      O43831   0.641   4.679   5.865  0.0166  0.1918  0.5148
10778WAT     H143832   0.660   4.662   5.782  0.8493  0.7706  0.5736
10778WAT     H243833   0.678   4.614   5.909 -0.5547 -0.1971  0.4304
10778WAT    EPW43834   0.649   4.667   5.859  0.0552  0.2199  0.5110
10779WAT      O43835   1.832   3.405   4.868  0.1880 -0.1434 -0.2679
10779WAT     H143836   1.785   3.442   4.805  0.0453  1.9909  1.0092
10779WAT     H243837   1.863   3.472   4.914  0.6706 -1.5829  1.6808
10779WAT    EPW43838   1.830   3.420   4.866  0.2382 -0.0408  0.2086
10780WAT      O43839   1.906   4.553   4.625  0.1778  0.1349  0.1894
10780WAT     H143840   1.951   4.539   4.551 -0.4192  1.0719 -0.3673
10780WAT     H243841   1.963   4.530   4.687  1.7355  1.9357 -0.4596
10780WAT    EPW43842   1.921   4.548   4.623  0.3197  0.5393  0.0113
10781WAT      O43843   2.667   4.669   4.299  0.4000 -0.7630 -0.2943
10781WAT     H143844   2.637   4.730   4.353 -0.8592 -1.0442 -0.6411
10781WAT     H243845   2.744   4.701   4.272  0.3757  0.0375  0.5531
10781WAT    EPW43846   2.674   4.683   4.303  0.2104 -0.6863 -0.2204
10782WAT      O43847   1.008   2.517   3.860 -0.8039 -0.0885  0.2616
10782WAT     H143848   0.999   2.588   3.910  0.0491 -0.4605  0.9680
10782WAT     H243849   0.951   2.531   3.796  1.0203  2.4315 -1.0026
10782WAT    EPW43850   0.999   2.530   3.858 -0.4085  0.2288  0.1792
10783WAT      O43851   2.913   3.543   4.952  0.0882  0.2094  0.2138
10783WAT     H143852   2.860   3.610   4.969  0.0420  0.7650 -1.8292
10783WAT     H243853   2.879   3.508   4.880  0.5950 -1.5135  0.7733
10783WAT    EPW43854   2.900   3.548   4.944  0.1563  0.0370 -0.0053
10784WAT      O43855   1.302   2.186   4.118 -0.8355 -0.2130 -0.6245
10784WAT     H143856   1.389   2.198   4.116 -0.9173  0.9026  0.7076
10784WAT     H243857   1.276   2.213   4.040 -0.0174 -0.1410 -0.8842
10784WAT    EPW43858   1.311   2.192   4.106 -0.7267 -0.0376 -0.4661
10785WAT      O43859   1.249   3.888   3.702 -0.2054 -0.7959  0.4011
10785WAT     H143860   1.297   3.881   3.774  0.9832  0.8847 -0.1675
10785WAT     H243861   1.184   3.942   3.726  0.8462  0.7345 -0.0353
10785WAT    EPW43862   1.246   3.895   3.716  0.1255 -0.3216  0.2526
10786WAT      O43863   0.671   3.562   5.417 -0.3316 -0.1743 -0.1813
10786WAT     H143864   0.621   3.633   5.423 -0.1001 -0.1077  2.2162
10786WAT     H243865   0.630   3.513   5.358 -1.6653  1.0723 -0.3593
10786WAT    EPW43866   0.657   3.565   5.409 -0.4944  0.0197  0.1466
10787WAT      O43867   1.796   4.283   7.004 -0.1433  0.0358  0.7857
10787WAT     H143868   1.838   4.346   6.962 -1.4917  2.3769  2.7031
10787WAT     H243869   1.730   4.263   6.950 -1.0182  1.9584  1.0582
10787WAT    EPW43870   1.792   4.289   6.989 -0.4717  0.6656  1.1092
10788WAT      O43871   1.222   2.752   5.577  0.0356 -0.1722  0.0790
10788WAT     H143872   1.286   2.796   5.537 -0.7988  0.5269 -0.5030
10788WAT     H243873   1.175   2.719   5.511 -1.5625  1.2896  0.4274
10788WAT    EPW43874   1.225   2.753   5.561 -0.3237  0.1470  0.0445
10789WAT      O43875   1.120   4.244   5.214  0.1939  0.7058  0.0580
10789WAT     H143876   1.052   4.270   5.263  0.5003 -0.0044  0.8941
10789WAT     H243877   1.150   4.318   5.179  0.1008  1.2833  1.1449
10789WAT    EPW43878   1.114   4.259   5.216  0.2254  0.6862  0.3421
10790WAT      O43879   1.439   3.918   3.920 -0.2579 -0.1698 -0.5045
10790WAT     H143880   1.404   3.846   3.956 -2.7342 -0.0371 -2.3941
10790WAT     H243881   1.505   3.887   3.872 -1.2541 -1.2486 -1.2479
10790WAT    EPW43882   1.443   3.903   3.918 -0.7709 -0.3096 -0.8935
10791WAT      O43883   1.131   3.454   4.765  0.0480  0.5258 -0.4568
10791WAT     H143884   1.140   3.427   4.848  1.0543  1.2264 -0.3249
10791WAT     H243885   1.062   3.506   4.769 -0.4090 -0.0839 -0.2234
10791WAT    EPW43886   1.122   3.458   4.778  0.1291  0.5393 -0.4029
10792WAT      O43887   2.118   5.346   5.281  0.3581 -0.2353  0.2502
10792WAT     H143888   2.090   5.296   5.215  0.2058 -1.0705  0.9234
10792WAT     H243889   2.044   5.362   5.325  0.5041  0.0659  0.3806
10792WAT    EPW43890   2.103   5.341   5.278  0.3572 -0.3142  0.3689
10793WAT      O43891   2.514   4.438   3.620 -0.7546 -0.3844  0.4686
10793WAT     H143892   2.461   4.450   3.552 -2.8033 -0.9993  1.8850
10793WAT     H243893   2.500   4.508   3.670  2.4646  1.2988 -0.6636
10793WAT    EPW43894   2.504   4.450   3.618 -0.5817 -0.2266  0.5106
10794WAT      O43895   1.653   4.749   6.572  0.5821  0.1627 -0.0310
10794WAT     H143896   1.668   4.680   6.622  0.6043  0.5769  0.5366
10794WAT     H243897   1.614   4.715   6.502 -1.9771 -0.1343  1.4319
10794WAT    EPW43898   1.650   4.734   6.569  0.2073  0.1800  0.2689
10795WAT      O43899   1.471   3.387   4.945 -0.3719 -0.8772 -0.6411
10795WAT     H143900   1.487   3.471   4.957  0.0661 -0.7674 -1.8626
10795WAT     H243901   1.538   3.347   4.985 -0.8078 -0.6835  0.3167
10795WAT    EPW43902   1.483   3.393   4.953 -0.3716 -0.8324 -0.6800
10796WAT      O43903   3.601   2.036   5.417  0.3193  0.0979 -0.0490
10796WAT     H143904   3.653   2.086   5.466 -1.2075  0.1023  1.6628
10796WAT     H243905   3.521   2.058   5.443 -0.4738 -1.7258 -0.7595
10796WAT    EPW43906   3.597   2.047   5.428 -0.0234 -0.1708  0.0989
10797WAT      O43907   0.945   2.745   4.438  0.2683 -0.2011 -0.7665
10797WAT     H143908   0.983   2.806   4.388  0.2410  0.2005 -0.3030
10797WAT     H243909   0.982   2.670   4.411 -2.2809 -0.5810 -3.9740
10797WAT    EPW43910   0.956   2.743   4.426 -0.1123 -0.1979 -1.1718
10798WAT      O43911   1.511   2.861   3.215  0.3143 -0.0115 -0.7837
10798WAT     H143912   1.526   2.831   3.135  1.0070 -0.2152 -0.5861
10798WAT     H243913   1.591   2.880   3.245  0.3730 -2.3220  0.7885
10798WAT    EPW43914   1.525   2.860   3.207  0.4253 -0.3829 -0.5222
10799WAT      O43915   1.142   4.539   3.429  0.0626  0.0774 -0.1018
10799WAT     H143916   1.092   4.556   3.498 -1.6471 -0.3182 -1.1703
10799WAT     H243917   1.161   4.455   3.437  0.4157  0.1857  0.2146
10799WAT    EPW43918   1.137   4.529   3.440 -0.1378  0.0349 -0.2129
10800WAT      O43919   1.742   4.920   4.778 -0.3253  0.0600 -0.5767
10800WAT     H143920   1.781   4.900   4.703 -3.1271  0.0239 -2.1530
10800WAT     H243921   1.657   4.926   4.757 -1.1087  1.2798  2.3357
10800WAT    EPW43922   1.735   4.918   4.764 -0.8549  0.2348 -0.3793
10801WAT      O43923   0.787   4.705   3.015 -0.5634 -0.5159 -0.1735
10801WAT     H143924   0.789   4.672   3.096 -2.6238 -0.8212 -0.1883
10801WAT     H243925   0.730   4.654   2.973 -0.7058  0.5729 -1.3875
10801WAT    EPW43926   0.779   4.693   3.021 -0.8888 -0.4002 -0.3550
10802WAT      O43927   1.531   2.695   5.946 -0.3933  0.7577 -0.5794
10802WAT     H143928   1.463   2.672   5.898 -0.3985  0.8004 -0.5928
10802WAT     H243929   1.502   2.764   5.991 -0.3483  0.7964 -0.6097
10802WAT    EPW43930   1.517   2.702   5.946 -0.3874  0.7697 -0.5858
10803WAT      O43931   0.680   4.765   5.367 -0.0411 -0.7811  0.1238
10803WAT     H143932   0.725   4.814   5.424  1.0069 -0.8016 -0.6469
10803WAT     H243933   0.635   4.711   5.418  0.4227 -0.4100  0.9512
10803WAT    EPW43934   0.680   4.764   5.383  0.1822 -0.7293  0.1321
10804WAT      O43935   1.941   3.539   4.097  0.1696  0.0295  0.1813
10804WAT     H143936   1.860   3.511   4.078 -0.3302  2.0568 -0.9983
10804WAT     H243937   1.938   3.553   4.183 -0.9353  0.5879  0.0701
10804WAT    EPW43938   1.929   3.537   4.107 -0.0674  0.4115 -0.0094
10805WAT      O43939   1.884   4.919   3.887 -0.5611  0.1489  0.0812
10805WAT     H143940   1.920   4.979   3.835  1.2909 -0.6785  0.3372
10805WAT     H243941   1.798   4.929   3.873 -0.2458  1.8154 -1.0038
10805WAT    EPW43942   1.876   4.930   3.877 -0.2410  0.2729 -0.0413
10806WAT      O43943   2.590   4.254   4.987  0.0655 -0.2056 -0.2544
10806WAT     H143944   2.648   4.193   4.968  0.9575  0.0033  1.5390
10806WAT     H243945   2.632   4.329   4.971 -0.0836 -0.0592  0.0189
10806WAT    EPW43946   2.605   4.256   4.982  0.1753 -0.1531  0.0509
10807WAT      O43947   2.396   3.723   5.351  0.3881  0.2348  0.4916
10807WAT     H143948   2.316   3.689   5.349 -0.8688  2.9717 -0.6138
10807WAT     H243949   2.433   3.693   5.278 -0.5359  0.8683 -0.2558
10807WAT    EPW43950   2.390   3.714   5.340  0.0660  0.7326  0.2179
10808WAT      O43951   1.385   5.789   4.222 -0.0098 -0.3487 -0.3132
10808WAT     H143952   1.397   5.729   4.160  0.8330 -2.6925  1.9657
10808WAT     H243953   1.455   5.782   4.273 -0.2718  2.0623  0.5425
10808WAT    EPW43954   1.397   5.779   4.221  0.0760 -0.3388  0.1498
10809WAT      O43955   1.289   5.461   3.537  0.0934  0.2970 -0.3489
10809WAT     H143956   1.303   5.537   3.497  0.3451 -0.4068 -1.6675
10809WAT     H243957   1.352   5.409   3.505 -1.4897 -1.1151 -1.3736
10809WAT    EPW43958   1.300   5.464   3.526 -0.1033 -0.0156 -0.6951
10810WAT      O43959   3.500   1.733   5.690 -0.3104  0.1772 -0.3206
10810WAT     H143960   3.424   1.776   5.690 -0.5473 -0.0926 -2.9034
10810WAT     H243961   3.476   1.650   5.703 -0.2773  0.2748  0.4075
10810WAT    EPW43962   3.485   1.727   5.692 -0.3405  0.1518 -0.5946
10811WAT      O43963   0.590   3.368   5.226 -0.4036 -0.0330  0.5831
10811WAT     H143964   0.619   3.408   5.155 -1.0581 -0.5526  0.0149
10811WAT     H243965   0.657   3.317   5.249 -0.2838 -0.0480  0.2061
10811WAT    EPW43966   0.604   3.367   5.219 -0.4826 -0.1120  0.4435
10812WAT      O43967   2.342   4.749   2.926  0.2184  0.1938  0.1427
10812WAT     H143968   2.298   4.749   3.001  2.1160 -0.5570  1.3368
10812WAT     H243969   2.414   4.703   2.944  1.2866  0.9456 -1.8268
10812WAT    EPW43970   2.346   4.742   2.940  0.6565  0.1939  0.0281
10813WAT      O43971   1.004   5.086   4.489  0.0752  0.3702  0.1167
10813WAT     H143972   1.066   5.033   4.521  0.9105  1.1639 -0.1279
10813WAT     H243973   0.953   5.101   4.558 -0.0721 -0.5800  0.2406
10813WAT    EPW43974   1.006   5.080   4.504  0.1768  0.3471  0.0989
10814WAT      O43975   1.106   2.629   5.355 -0.0116 -0.0656  0.3397
10814WAT     H143976   1.075   2.554   5.387 -0.4307 -0.5941 -1.2189
10814WAT     H243977   1.057   2.642   5.283 -0.4396  2.0826  0.9540
10814WAT    EPW43978   1.094   2.620   5.349 -0.1368  0.1737  0.2002
10815WAT      O43979   1.234   3.965   4.659 -0.1388 -0.1851 -0.3036
10815WAT     H143980   1.276   4.010   4.721  0.8920 -1.6213  0.0931
10815WAT     H243981   1.242   4.015   4.588  1.2275  0.1385  0.0544
10815WAT    EPW43982   1.242   3.979   4.658  0.2153 -0.3495 -0.1921
10816WAT      O43983   2.287   4.292   7.507  0.0073 -0.2276  0.2700
10816WAT     H143984   2.237   4.261   7.443  1.9294  1.7927 -2.4629
10816WAT     H243985   2.354   4.237   7.510  0.5368  0.3638 -0.4037
10816WAT    EPW43986   2.289   4.279   7.498  0.3694  0.1582 -0.2332
10817WAT      O43987   1.547   2.852   3.725 -0.2357 -0.1210  0.3984
10817WAT     H143988   1.534   2.938   3.718  0.1261 -0.0795  0.2150
10817WAT     H243989   1.615   2.845   3.779  0.8137 -0.2121 -0.8551
10817WAT    EPW43990   1.555   2.863   3.732 -0.0272 -0.1283  0.1862
10818WAT      O43991   2.529   3.410   3.908 -0.1233  0.0464  0.0531
10818WAT     H143992   2.560   3.357   3.970 -1.6231  0.2507  1.0284
10818WAT     H243993   2.593   3.468   3.897  0.0041  0.2914  1.7920
10818WAT    EPW43994   2.543   3.411   3.915 -0.3260  0.1128  0.4540
10819WAT      O43995   1.696   1.185   3.502 -0.5544 -0.1706  0.0183
10819WAT     H143996   1.631   1.240   3.522 -0.2513  0.4541 -0.6945
10819WAT     H243997   1.767   1.234   3.506 -0.1665 -0.7378  0.2844
10819WAT    EPW43998   1.697   1.200   3.506 -0.4523 -0.1621 -0.0477
10820WAT      O43999   0.977   3.327   3.386  0.3149  0.2366 -0.3730
10820WAT     H144000   0.992   3.379   3.455 -1.1627  0.7785 -0.4235
10820WAT     H244001   0.927   3.264   3.419  2.2314 -1.3305 -0.2742
10820WAT    EPW44002   0.972   3.325   3.401  0.3798  0.0852 -0.3659
10821WAT      O44003   1.497   2.764   2.943  0.4807 -0.8046 -0.5901
10821WAT     H144004   1.577   2.773   2.910  0.9616 -0.8268  0.5414
10821WAT     H244005   1.445   2.789   2.877  1.4636  0.9276 -0.7631
10821WAT    EPW44006   1.501   2.769   2.928  0.6969 -0.5520 -0.4485
10822WAT      O44007   2.077   3.468   3.867 -0.0954  0.3062 -0.3298
10822WAT     H144008   2.026   3.504   3.928 -2.0088 -0.5617 -1.3295
10822WAT     H244009   2.076   3.383   3.887 -0.4142  0.0697 -1.3225
10822WAT    EPW44010   2.069   3.461   3.879 -0.4251  0.1430 -0.6241
10823WAT      O44011   1.165   3.366   4.140  0.1107 -0.5805 -0.4028
10823WAT     H144012   1.119   3.306   4.183  0.5820 -0.4872  0.2488
10823WAT     H244013   1.219   3.398   4.201 -0.2472  0.6261 -0.6805
10823WAT    EPW44014   1.166   3.362   4.155  0.1274 -0.3885 -0.3475
10824WAT      O44015   1.092   4.480   4.529  0.4415 -0.3587  0.4294
10824WAT     H144016   1.023   4.530   4.550  2.1517  1.3764  2.5033
10824WAT     H244017   1.092   4.479   4.442 -1.9285 -0.0914  0.3650
10824WAT    EPW44018   1.082   4.487   4.519  0.3441 -0.0629  0.7263
10825WAT      O44019   1.285   3.042   5.427  0.0442  0.8465  0.0410
10825WAT     H144020   1.244   3.106   5.383 -0.4942  1.1178  0.9019
10825WAT     H244021   1.307   2.985   5.365 -1.3838  0.8445 -0.5152
10825WAT    EPW44022   1.282   3.043   5.411 -0.2463  0.8863  0.0860
10826WAT      O44023   0.716   4.689   4.394 -0.5630  0.2946 -0.1338
10826WAT     H144024   0.742   4.629   4.452 -2.0745 -0.2383  0.0251
10826WAT     H244025   0.790   4.713   4.355  0.4204  0.2649  1.6286
10826WAT    EPW44026   0.731   4.683   4.397 -0.6410  0.2115  0.1500
10827WAT      O44027   2.316   4.953   6.763  0.0083  0.0322 -0.4514
10827WAT     H144028   2.360   4.936   6.690 -0.4230  1.3103 -1.0474
10827WAT     H244029   2.349   5.030   6.789  1.6470 -1.3498  1.8948
10827WAT    EPW44030   2.328   4.962   6.756  0.1867  0.0168 -0.1928
10828WAT      O44031   2.747   0.511   2.722  0.1505 -0.6296  0.1376
10828WAT     H144032   2.706   0.437   2.746  1.0544 -0.8335  1.1816
10828WAT     H244033   2.711   0.531   2.645  0.6105 -2.7394 -0.6923
10828WAT    EPW44034   2.735   0.503   2.715  0.3520 -0.9714  0.1693
10829WAT      O44035   1.384   3.966   4.347 -1.0476  0.3271  0.5254
10829WAT     H144036   1.323   4.028   4.358  0.1891  1.7504 -0.2832
10829WAT     H244037   1.424   3.990   4.274  0.0580 -0.9542  0.6803
10829WAT    EPW44038   1.381   3.979   4.338 -0.7016  0.3481  0.4288
10830WAT      O44039   0.765   5.186   5.863 -0.0233 -0.2103  0.4905
10830WAT     H144040   0.851   5.197   5.855 -0.3286  0.9535 -2.0491
10830WAT     H244041   0.753   5.103   5.841  0.2596  0.3007 -1.8359
10830WAT    EPW44042   0.776   5.175   5.859 -0.0266  0.0371 -0.2283
10831WAT      O44043   0.910   2.786   4.702 -0.1374 -0.0325  0.4892
10831WAT     H144044   0.828   2.793   4.731 -0.3205 -2.4183  0.7689
10831WAT     H244045   0.900   2.770   4.616  0.0928  0.5026  0.3575
10831WAT    EPW44046   0.897   2.784   4.693 -0.1304 -0.3059  0.5111
10832WAT      O44047   1.348   4.474   3.853  0.2384  0.1734  0.0301
10832WAT     H144048   1.282   4.503   3.901  0.8177 -0.5587  1.2977
10832WAT     H244049   1.344   4.388   3.860 -0.3644 -0.0611 -2.2224
10832WAT    EPW44050   1.338   4.466   3.861  0.2349  0.0307 -0.1154
10833WAT      O44051   2.686   1.212   4.769  0.5557 -0.1998  0.5439
10833WAT     H144052   2.663   1.296   4.774 -0.8326 -0.5496  0.4481
10833WAT     H244053   2.656   1.178   4.844  2.0129 -0.4357  1.0651
10833WAT    EPW44054   2.679   1.220   4.781  0.5659 -0.2863  0.6067
10834WAT      O44055   3.135   2.684   5.176  0.4222  0.2747 -0.2880
10834WAT     H144056   3.108   2.636   5.108 -1.0222 -0.3448  0.6656
10834WAT     H244057   3.088   2.653   5.243  1.3705  1.2619  0.8851
10834WAT    EPW44058   3.124   2.673   5.176  0.3489  0.3290  0.0261
10835WAT      O44059   2.690   2.416   3.711 -0.2131 -0.2597 -0.0421
10835WAT     H144060   2.760   2.366   3.698 -0.3159 -1.1665  2.4077
10835WAT     H244061   2.721   2.497   3.704  1.2020 -0.6402  1.2930
10835WAT    EPW44062   2.705   2.421   3.708 -0.0193 -0.4499  0.5170
10836WAT      O44063   2.788   6.150   3.869  0.0548 -0.1096  0.0449
10836WAT     H144064   2.815   6.074   3.835  1.8322  0.2855  0.4695
10836WAT     H244065   2.736   6.125   3.934  1.4798 -1.0418  0.8936
10836WAT    EPW44066   2.785   6.135   3.873  0.5279 -0.1889  0.2330
10837WAT      O44067   2.251   4.053   5.560  0.0357 -0.0876 -0.4897
10837WAT     H144068   2.274   3.976   5.593  3.1971  0.2591 -1.6112
10837WAT     H244069   2.186   4.033   5.505 -1.2887 -1.4536  1.4438
10837WAT    EPW44070   2.244   4.039   5.557  0.3070 -0.2382 -0.3697
10838WAT      O44071   1.047   3.807   4.350  0.5663  0.3228  0.0001
10838WAT     H144072   1.002   3.747   4.306  0.6874  0.2463 -0.0209
10838WAT     H244073   1.114   3.762   4.382 -0.1321  0.1249  1.2438
10838WAT    EPW44074   1.050   3.792   4.348  0.4810  0.2822  0.1807
10839WAT      O44075   1.329   2.554   5.758  0.9748 -0.0858 -0.5234
10839WAT     H144076   1.289   2.482   5.788  1.9811  0.0385  1.2193
10839WAT     H244077   1.269   2.589   5.705 -0.7971 -0.5162  1.0708
10839WAT    EPW44078   1.314   2.548   5.755  0.8617 -0.1310 -0.0305
10840WAT      O44079   2.651   4.899   5.535 -0.5662 -0.4738  0.4201
10840WAT     H144080   2.618   4.890   5.454  1.8197  2.8983 -1.1874
10840WAT     H244081   2.598   4.957   5.572  0.5489  1.0455 -0.2836
10840WAT    EPW44082   2.638   4.906   5.528 -0.0490  0.2487  0.0787
10841WAT      O44083   1.891   2.745   6.088  0.2309 -0.3435  0.3099
10841WAT     H144084   1.880   2.728   6.173 -0.0448  0.5430  0.4625
10841WAT     H244085   1.835   2.691   6.049  0.6084 -1.0093  0.6544
10841WAT    EPW44086   1.881   2.734   6.095  0.2460 -0.3109  0.3833
10842WAT      O44087   1.042   1.067   4.522  0.3756 -0.1364  0.1436
10842WAT     H144088   1.123   1.048   4.548  0.2212 -1.6058 -0.3631
10842WAT     H244089   0.997   0.995   4.543 -0.8251  0.6903  0.4908
10842WAT    EPW44090   1.048   1.054   4.529  0.1754 -0.2314  0.1200
10843WAT      O44091   2.371   1.549   4.321  0.3453 -0.0773 -0.4097
10843WAT     H144092   2.331   1.616   4.283  0.4848  0.5734  0.5672
10843WAT     H244093   2.455   1.572   4.319  0.3176  0.1772  0.6630
10843WAT    EPW44094   2.378   1.562   4.315  0.3618  0.0564 -0.1069
10844WAT      O44095   0.890   4.860   4.191  0.5064  0.3871 -0.1198
10844WAT     H144096   0.873   4.946   4.186  0.6635  0.3716 -3.0869
10844WAT     H244097   0.972   4.855   4.161  0.0509 -0.8833 -1.2120
10844WAT    EPW44098   0.899   4.872   4.186  0.4623  0.1972 -0.7194
10845WAT      O44099   2.062   3.042   5.091 -0.0545 -0.0111 -0.3242
10845WAT     H144100   2.061   3.071   5.174  0.7583  0.6236 -0.5208
10845WAT     H244101   2.107   2.968   5.095 -2.8764 -1.8478  0.3291
10845WAT    EPW44102   2.068   3.036   5.104 -0.3513 -0.1886 -0.2568
10846WAT      O44103   2.916   2.970   4.176  0.1457  0.1046 -0.4182
10846WAT     H144104   2.886   3.022   4.113 -0.0130  1.0960  0.4407
10846WAT     H244105   2.975   3.020   4.217 -0.5405 -0.1168  0.8938
10846WAT    EPW44106   2.920   2.985   4.173  0.0209  0.2183 -0.0975
10847WAT      O44107   1.638   4.641   3.715 -0.4598 -0.0808 -0.0311
10847WAT     H144108   1.559   4.632   3.678 -0.8046  0.1326  0.6216
10847WAT     H244109   1.661   4.559   3.733 -1.3145 -0.0617  1.3119
10847WAT    EPW44110   1.630   4.627   3.713 -0.6370 -0.0465  0.2637
10848WAT      O44111   1.104   1.987   6.112  0.0641 -0.2299  0.0177
10848WAT     H144112   1.048   1.990   6.045 -0.8947  1.0271  0.8279
10848WAT     H244113   1.160   2.052   6.094  0.3980 -0.5322 -0.0473
10848WAT    EPW44114   1.104   1.997   6.099 -0.0282 -0.0889  0.1278
10849WAT      O44115   1.375   4.391   4.167 -0.3385 -0.1743 -0.1121
10849WAT     H144116   1.406   4.361   4.243 -0.6384 -1.5237 -0.4854
10849WAT     H244117   1.366   4.318   4.119 -1.3759  0.5030 -0.9946
10849WAT    EPW44118   1.378   4.375   4.171 -0.5360 -0.2736 -0.2976
10850WAT      O44119   1.955   5.137   4.480 -0.0915 -0.2699  0.2407
10850WAT     H144120   1.925   5.056   4.493  0.5417 -0.8433 -1.4811
10850WAT     H244121   2.034   5.124   4.445 -0.5592  1.0280 -1.4623
10850WAT    EPW44122   1.962   5.123   4.477 -0.0671 -0.1629 -0.2652
10851WAT      O44123   1.026   2.135   4.839 -0.1951  0.2197  0.2903
10851WAT     H144124   0.982   2.079   4.890 -0.3932  0.8133  0.7848
10851WAT     H244125   1.069   2.083   4.784  0.0802 -0.4431  1.1055
10851WAT    EPW44126   1.026   2.119   4.838 -0.1837  0.2095  0.4838
10852WAT      O44127   2.513   4.861   5.276  0.0396 -0.2135 -0.3507
10852WAT     H144128   2.578   4.841   5.222  1.9826  2.6414  0.6757
10852WAT     H244129   2.444   4.874   5.223  0.6475 -1.8773 -1.6078
10852WAT    EPW44130   2.512   4.860   5.260  0.4164 -0.0375 -0.3848
10853WAT      O44131   0.973   3.807   5.413  0.5304 -0.5976  0.1367
10853WAT     H144132   1.023   3.878   5.407  1.3660 -1.0066  1.7009
10853WAT     H244133   1.020   3.753   5.462  0.1233 -2.4317 -1.3800
10853WAT    EPW44134   0.987   3.809   5.419  0.5937 -0.9290  0.1437
10854WAT      O44135   1.788   4.282   5.392  0.0009 -0.1697  0.0606
10854WAT     H144136   1.735   4.314   5.454 -0.0044 -0.1146  0.0282
10854WAT     H244137   1.809   4.203   5.421 -0.7066 -0.4946 -0.2939
10854WAT    EPW44138   1.783   4.275   5.406 -0.1044 -0.2095  0.0035
10855WAT      O44139   0.831   4.339   3.798 -0.0405  0.0996  0.1734
10855WAT     H144140   0.821   4.424   3.781 -0.2679 -0.0893 -0.6828
10855WAT     H244141   0.830   4.336   3.885 -0.4978  0.9260  0.2143
10855WAT    EPW44142   0.829   4.352   3.808 -0.1417  0.1938  0.0530
10856WAT      O44143   1.488   3.338   4.221  0.0471  0.6064 -0.1810
10856WAT     H144144   1.564   3.373   4.194  1.0889 -0.3699  1.3085
10856WAT     H244145   1.471   3.277   4.161  0.8576  0.3233 -0.1439
10856WAT    EPW44146   1.497   3.334   4.208  0.3207  0.4204  0.0445
10857WAT      O44147   1.078   3.491   5.389 -0.4454  0.0919  0.0619
10857WAT     H144148   1.063   3.446   5.463 -0.7770 -0.9128 -0.5871
10857WAT     H244149   1.130   3.556   5.414  1.7647 -1.8068  0.7170
10857WAT    EPW44150   1.083   3.494   5.404 -0.1679 -0.3370  0.0628
10858WAT      O44151   0.955   4.401   5.397  0.0972  0.1110 -0.0679
10858WAT     H144152   0.876   4.385   5.431  0.5385  0.2710  1.0614
10858WAT     H244153   1.010   4.371   5.457  0.9106  0.6475 -0.5250
10858WAT    EPW44154   0.951   4.394   5.411  0.2825  0.2139  0.0314
10859WAT      O44155   0.931   4.129   2.488 -0.5168  0.1732  0.0920
10859WAT     H144156   0.926   4.046   2.516  1.7421 -0.3598 -0.8946
10859WAT     H244157   0.849   4.147   2.465 -1.6227 -0.8155  2.8174
10859WAT    EPW44158   0.918   4.119   2.489 -0.3465 -0.0516  0.3489
10860WAT      O44159   1.365   2.137   6.064 -0.6815 -0.1588  0.7779
10860WAT     H144160   1.397   2.132   6.145 -1.6947  0.2695  1.2319
10860WAT     H244161   1.312   2.207   6.067 -0.0114  0.4558 -0.5287
10860WAT    EPW44162   1.362   2.147   6.076 -0.7322 -0.0047  0.6519
10861WAT      O44163   2.790   2.456   4.090  0.3353  0.1266  0.1595
10861WAT     H144164   2.835   2.513   4.042 -0.5916 -0.0074 -0.9011
10861WAT     H244165   2.834   2.381   4.081  0.0743  0.0653 -0.6215
10861WAT    EPW44166   2.803   2.453   4.082  0.1598  0.0977 -0.1125
10862WAT      O44167   1.489   4.381   4.430  0.1088  0.1005  0.6562
10862WAT     H144168   1.530   4.306   4.447  0.6554 -0.2568 -1.7994
10862WAT     H244169   1.548   4.427   4.385 -1.9867 -0.4243 -3.0314
10862WAT    EPW44170   1.504   4.377   4.426 -0.1200 -0.0298 -0.2513
10863WAT      O44171   2.718   3.746   5.312 -0.3924 -0.5790  0.1784
10863WAT     H144172   2.660   3.741   5.247 -0.1529  1.4488 -0.2892
10863WAT     H244173   2.772   3.810   5.285  0.6531 -0.7983  1.6578
10863WAT    EPW44174   2.718   3.755   5.298 -0.2026 -0.3119  0.3279
10864WAT      O44175   2.329   4.129   6.328  0.0172 -0.3171 -0.0157
10864WAT     H144176   2.323   4.161   6.409 -1.4602  0.1729 -0.2912
10864WAT     H244177   2.380   4.187   6.287 -0.2817  0.1326  0.2415
10864WAT    EPW44178   2.336   4.142   6.334 -0.2452 -0.1783 -0.0184
10865WAT      O44179   1.666   2.657   5.136  0.0634 -0.1963  0.7173
10865WAT     H144180   1.636   2.726   5.092 -0.5935 -2.2387 -2.3980
10865WAT     H244181   1.595   2.608   5.150  0.5306 -0.4026  2.6436
10865WAT    EPW44182   1.651   2.660   5.131  0.0354 -0.5285  0.5417
10866WAT      O44183   1.190   3.723   5.059  0.8030 -0.0171  0.0665
10866WAT     H144184   1.243   3.684   5.002  1.2500  0.2838  0.2733
10866WAT     H244185   1.133   3.660   5.081 -0.0040  0.1154 -1.4630
10866WAT    EPW44186   1.189   3.708   5.054  0.7498  0.0469 -0.1289
10867WAT      O44187   3.155   6.558   4.629  0.6339  0.0292 -0.7987
10867WAT     H144188   3.202   6.577   4.558  0.2752 -0.9785 -1.3178
10867WAT     H244189   3.157   6.471   4.634 -0.3360  0.0133 -0.2704
10867WAT    EPW44190   3.162   6.548   4.619  0.4376 -0.1220 -0.7973
10868WAT      O44191   1.579   5.069   3.708  0.4614 -0.4994 -0.5222
10868WAT     H144192   1.514   5.051   3.652 -0.8239 -0.5194  0.9286
10868WAT     H244193   1.626   5.129   3.665 -0.8762 -0.0156 -1.3636
10868WAT    EPW44194   1.577   5.075   3.693  0.0740 -0.4309 -0.4322
10869WAT      O44195   1.848   4.012   5.482  0.2653  0.3232  0.1437
10869WAT     H144196   1.844   4.023   5.569  0.9534  0.5693  0.1521
10869WAT     H244197   1.934   4.001   5.467  0.0647 -0.5667 -0.4041
10869WAT    EPW44198   1.860   4.012   5.493  0.3373  0.2281  0.0640
10870WAT      O44199   0.813   6.691   4.116  0.4460 -0.7479 -0.4640
10870WAT     H144200   0.800   6.763   4.163 -1.1510 -1.3118  0.0318
10870WAT     H244201   0.899   6.678   4.120  0.6481  0.6512  0.1306
10870WAT    EPW44202   0.824   6.700   4.123  0.2399 -0.6245 -0.3029
10871WAT      O44203   0.818   1.960   3.265 -0.2690  0.4825  0.4127
10871WAT     H144204   0.836   1.875   3.271 -1.1658  0.1740 -0.8116
10871WAT     H244205   0.783   1.979   3.342  0.7131 -0.0587  1.0047
10871WAT    EPW44206   0.815   1.950   3.277 -0.2564  0.3570  0.3193
10872WAT      O44207   1.226   4.997   2.682  0.0454  0.2823 -0.0653
10872WAT     H144208   1.223   4.956   2.759 -2.0054 -0.4284 -0.4581
10872WAT     H244209   1.261   4.937   2.629  0.8485  0.5411  0.1497
10872WAT    EPW44210   1.231   4.982   2.686 -0.1389  0.2155 -0.0916
10873WAT      O44211   2.110   3.617   5.417 -0.5756  0.3925 -0.2561
10873WAT     H144212   2.052   3.651   5.362 -1.0178  1.6777  0.9430
10873WAT     H244213   2.125   3.538   5.385 -1.0977  0.9505 -1.9960
10873WAT    EPW44214   2.104   3.611   5.404 -0.7181  0.6648 -0.3360
10874WAT      O44215   2.284   4.126   7.140 -0.4956  0.7716 -0.3998
10874WAT     H144216   2.209   4.134   7.185 -0.1026 -0.5803  0.5763
10874WAT     H244217   2.344   4.159   7.194  0.0804 -1.5236  0.4868
10874WAT    EPW44218   2.281   4.132   7.155 -0.3525  0.2328 -0.1246
10875WAT      O44219   2.989   3.540   5.959  0.1303  0.1910  0.3639
10875WAT     H144220   2.906   3.544   5.986  0.5772  0.4515  1.7966
10875WAT     H244221   3.004   3.620   5.927 -0.0212  0.3017  0.5657
10875WAT    EPW44222   2.979   3.552   5.958  0.1739  0.2458  0.6053
10876WAT      O44223   2.472   4.681   4.100  0.6733  0.4200  0.5313
10876WAT     H144224   2.525   4.668   4.168  1.5674 -1.2971 -0.4069
10876WAT     H244225   2.419   4.612   4.101  0.5357  0.4954 -0.3643
10876WAT    EPW44226   2.472   4.669   4.110  0.7851  0.1775  0.2604
10877WAT      O44227   1.453   4.037   5.423  0.6880 -0.5733 -0.5940
10877WAT     H144228   1.454   3.954   5.398  0.5809 -0.2411 -1.7407
10877WAT     H244229   1.483   4.080   5.354 -0.1181  0.4263 -0.3496
10877WAT    EPW44230   1.458   4.031   5.409  0.5531 -0.3766 -0.7273
10878WAT      O44231   2.244   4.087   5.068 -0.3977  0.2862 -0.2006
10878WAT     H144232   2.270   4.015   5.027  1.1586  0.9108 -0.3849
10878WAT     H244233   2.186   4.123   5.013 -0.6592 -0.4463 -0.4139
10878WAT    EPW44234   2.239   4.082   5.054 -0.2064  0.2702 -0.2593
10879WAT      O44235   2.781   4.727   4.589  0.2902  0.7300  1.3181
10879WAT     H144236   2.798   4.656   4.542 -0.8402 -0.1349  2.1867
10879WAT     H244237   2.694   4.735   4.584  0.1530  0.7058  3.0933
10879WAT    EPW44238   2.771   4.718   4.582  0.1029  0.5987  1.7087
10880WAT      O44239   1.136   1.149   4.001  0.1546  0.8060  0.4320
10880WAT     H144240   1.146   1.116   3.921  3.5493  0.2036  0.9548
10880WAT     H244241   1.117   1.078   4.049 -0.8801  1.0177  0.3670
10880WAT    EPW44242   1.134   1.133   3.996  0.5032  0.7483  0.4996
10881WAT      O44243   2.266   3.478   4.634 -0.0959  0.5358  0.2413
10881WAT     H144244   2.206   3.421   4.662  1.2243 -1.0769 -0.0922
10881WAT     H244245   2.342   3.436   4.645  0.9454  2.2558  0.0298
10881WAT    EPW44246   2.268   3.463   4.640  0.2530  0.5516  0.1608
10882WAT      O44247   2.787   4.548   4.004  0.3522  0.1884  0.0480
10882WAT     H144248   2.770   4.629   3.976  1.4181  0.0682 -1.0384
10882WAT     H244249   2.835   4.561   4.076 -0.5010  0.5041  0.5794
10882WAT    EPW44250   2.791   4.562   4.010  0.3836  0.2173 -0.0340
10883WAT      O44251   2.416   4.291   5.478  0.1275  0.3252  0.2519
10883WAT     H144252   2.453   4.345   5.535 -0.2883 -1.2585  2.1358
10883WAT     H244253   2.384   4.226   5.528 -2.8023  0.2325 -1.4704
10883WAT    EPW44254   2.417   4.289   5.494 -0.3667  0.0776  0.2758
10884WAT      O44255   1.359   5.001   3.566 -0.5473  0.5702 -0.0393
10884WAT     H144256   1.306   5.044   3.512 -2.5571 -0.4916  0.9664
10884WAT     H244257   1.381   4.930   3.520 -1.1682  0.3292  0.0152
10884WAT    EPW44258   1.354   4.997   3.551 -0.9359  0.3778  0.1173
10885WAT      O44259   2.625   6.088   4.344 -0.1916  0.3432 -0.3342
10885WAT     H144260   2.590   6.014   4.372  0.7390 -0.0934 -0.2903
10885WAT     H244261   2.575   6.150   4.380 -0.4636 -0.2498  0.3197
10885WAT    EPW44262   2.612   6.086   4.353 -0.0943  0.1911 -0.2311
10886WAT      O44263   1.105   2.060   4.414  0.6690  0.5132 -0.8081
10886WAT     H144264   1.156   2.068   4.344  2.2942 -0.4398  0.2164
10886WAT     H244265   1.097   1.974   4.424  0.0720  0.6414 -0.0643
10886WAT    EPW44266   1.111   2.049   4.405  0.8209  0.3914 -0.5469
10887WAT      O44267   1.775   3.752   4.813 -0.0302 -0.2883 -0.3932
10887WAT     H144268   1.753   3.759   4.729 -0.1375 -2.3655 -0.5959
10887WAT     H244269   1.859   3.774   4.815  0.0962 -0.6827 -1.1349
10887WAT    EPW44270   1.784   3.756   4.801 -0.0274 -0.6534 -0.5327
10888WAT      O44271   1.832   4.127   4.530 -0.3346 -0.0312 -0.8013
10888WAT     H144272   1.847   4.086   4.606 -0.3601  0.8768 -0.2855
10888WAT     H244273   1.892   4.094   4.476 -0.0298 -0.3790 -0.2565
10888WAT    EPW44274   1.843   4.116   4.534 -0.2934  0.0516 -0.6446
10889WAT      O44275   1.114   4.443   4.251 -0.7086 -0.3544 -0.0083
10889WAT     H144276   1.068   4.387   4.203 -1.2664 -1.5154  1.7814
10889WAT     H244277   1.194   4.439   4.216 -1.3317 -0.3508 -1.4732
10889WAT    EPW44278   1.119   4.434   4.239 -0.8831 -0.5253  0.0397
10890WAT      O44279   1.498   5.373   5.171  0.0853 -0.4105 -0.0719
10890WAT     H144280   1.437   5.326   5.130  1.6586 -1.7458 -0.9973
10890WAT     H244281   1.498   5.342   5.252 -0.8018 -0.0237  0.0915
10890WAT    EPW44282   1.489   5.362   5.177  0.1867 -0.5506 -0.1844
10891WAT      O44283   0.760   3.988   4.959 -0.0898  0.0029 -0.2346
10891WAT     H144284   0.845   3.978   4.979  0.0895  1.5529 -0.1055
10891WAT     H244285   0.722   3.997   5.037 -0.2259  0.2794 -0.3321
10891WAT    EPW44286   0.767   3.988   4.973 -0.0834  0.2727 -0.2299
10892WAT      O44287   2.334   2.174   5.797 -0.3194 -0.0788  0.3449
10892WAT     H144288   2.247   2.172   5.795 -0.4096  0.9532  1.7381
10892WAT     H244289   2.354   2.253   5.768  0.0170  0.4612  1.9235
10892WAT    EPW44290   2.324   2.185   5.793 -0.2830  0.1534  0.7839
10893WAT      O44291   0.660   2.986   6.342  0.1766 -0.1603  0.3972
10893WAT     H144292   0.600   3.031   6.387  1.5540  0.0887  2.0927
10893WAT     H244293   0.689   2.928   6.400  0.5542 -1.2710 -0.8500
10893WAT    EPW44294   0.655   2.984   6.357  0.4358 -0.2876  0.4634
10894WAT      O44295   2.612   5.610   4.185 -0.5342  0.1338 -0.1204
10894WAT     H144296   2.698   5.620   4.175 -0.8506  1.1939 -2.9151
10894WAT     H244297   2.599   5.525   4.171  0.0581 -0.0528  0.4478
10894WAT    EPW44298   2.623   5.599   4.181 -0.4935  0.2628 -0.4493
10895WAT      O44299   1.043   3.879   4.882 -0.1078 -0.2631 -0.0322
10895WAT     H144300   1.086   3.908   4.812  0.0155 -0.6817 -0.1318
10895WAT     H244301   1.100   3.824   4.919 -0.1383  0.0130  0.4409
10895WAT    EPW44302   1.058   3.875   4.877 -0.0941 -0.2841  0.0230
10896WAT      O44303   1.957   3.502   5.649  0.1967 -0.1217  0.5860
10896WAT     H144304   1.980   3.574   5.692  0.1683 -0.4840  1.2161
10896WAT     H244305   1.991   3.514   5.569  0.0176  0.6733  0.6210
10896WAT    EPW44306   1.966   3.514   5.643  0.1661 -0.0578  0.6843
10897WAT      O44307   1.767   2.720   3.372  0.0833 -0.2589  0.0129
10897WAT     H144308   1.694   2.715   3.420 -0.8182 -2.3721 -1.4374
10897WAT     H244309   1.831   2.713   3.431 -0.9544 -1.5036  1.0399
10897WAT    EPW44310   1.765   2.719   3.388 -0.2031 -0.7549 -0.0496
10898WAT      O44311   2.294   4.036   4.268  0.0093  0.2934 -0.1426
10898WAT     H144312   2.312   3.987   4.198  3.7469  1.1863  0.0221
10898WAT     H244313   2.277   4.115   4.233  0.3882  0.3950 -0.0918
10898WAT    EPW44314   2.294   4.041   4.252  0.6174  0.4403 -0.1107
10899WAT      O44315   3.704   2.434   5.972  0.2921  0.7748  0.1585
10899WAT     H144316   3.785   2.406   5.985  0.0274 -0.7932 -1.1785
10899WAT     H244317   3.685   2.478   6.045  1.1203 -1.7732  2.0567
10899WAT    EPW44318   3.713   2.436   5.984  0.3753  0.1668  0.2414
10900WAT      O44319   2.781   4.205   7.207 -0.3521  0.4433  1.0971
10900WAT     H144320   2.749   4.258   7.145  0.3998  0.8672  1.0660
10900WAT     H244321   2.824   4.144   7.162 -3.0231 -1.5727  0.9593
10900WAT    EPW44322   2.783   4.203   7.191 -0.6356  0.2081  1.0722
10901WAT      O44323   2.057   4.255   4.941  0.4051 -0.1304  0.2197
10901WAT     H144324   2.095   4.326   4.907 -0.5664  0.0317 -0.5596
10901WAT     H244325   2.027   4.283   5.018 -1.1772  0.7293 -0.6521
10901WAT    EPW44326   2.059   4.269   4.947  0.0278  0.0205 -0.0242
10902WAT      O44327   2.500   4.616   4.566 -0.2937  0.2425  0.1506
10902WAT     H144328   2.444   4.673   4.533 -1.0407 -0.2919  0.4521
10902WAT     H244329   2.452   4.543   4.576  0.0292  0.2053  1.8446
10902WAT    EPW44330   2.484   4.613   4.563 -0.3564  0.1580  0.4454
10903WAT      O44331   1.882   4.073   4.835  0.0539 -0.3934 -0.0639
10903WAT     H144332   1.833   4.045   4.901 -0.8349 -0.0969 -0.5711
10903WAT     H244333   1.920   4.145   4.866 -0.1974 -0.3705  0.1903
10903WAT    EPW44334   1.880   4.080   4.849 -0.1145 -0.3462 -0.1013
10904WAT      O44335   2.355   3.290   3.698 -0.0796  0.1665 -0.3293
10904WAT     H144336   2.311   3.241   3.755  2.3576 -2.3584 -0.4102
10904WAT     H244337   2.415   3.330   3.748  0.0595  0.4415 -0.7128
10904WAT    EPW44338   2.357   3.289   3.714  0.3009 -0.1659 -0.3979
10905WAT      O44339   1.607   3.043   5.243 -0.3675 -0.0371 -0.2497
10905WAT     H144340   1.639   3.100   5.186 -0.3260  0.0170 -0.1730
10905WAT     H244341   1.541   3.087   5.281  0.2125  0.2783  0.4274
10905WAT    EPW44342   1.602   3.058   5.241 -0.2757  0.0175 -0.1384
10906WAT      O44343   1.025   3.257   4.600  0.4562 -0.5775  0.3261
10906WAT     H144344   1.004   3.189   4.651 -0.1553  0.0344  0.9135
10906WAT     H244345   1.067   3.311   4.654 -0.8343  0.4058  0.4013
10906WAT    EPW44346   1.028   3.255   4.616  0.1752 -0.3418  0.4240
10907WAT      O44347   1.000   5.632   4.832  0.1489  0.4119 -0.2168
10907WAT     H144348   0.988   5.713   4.802 -0.6643  1.1101  1.8242
10907WAT     H244349   1.041   5.644   4.908  1.8711 -1.2573 -0.7926
10907WAT    EPW44350   1.004   5.645   4.839  0.2832  0.2685 -0.0004
10908WAT      O44351   3.308   3.078   6.602  0.0126 -0.2745 -0.5144
10908WAT     H144352   3.362   3.086   6.670 -0.8904 -3.5633  0.7946
10908WAT     H244353   3.238   3.124   6.625  0.3820  0.0234  0.0349
10908WAT    EPW44354   3.306   3.086   6.615 -0.0662 -0.7163 -0.2399
10909WAT      O44355   1.945   3.790   6.462 -0.3970 -0.1014  0.2713
10909WAT     H144356   1.982   3.868   6.470 -0.6384  0.0520 -0.0982
10909WAT     H244357   1.877   3.804   6.410 -0.8960 -0.4055  0.8165
10909WAT    EPW44358   1.940   3.803   6.456 -0.5063 -0.1236  0.2972
10910WAT      O44359   1.802   4.694   4.945  0.2654 -0.0182  0.0847
10910WAT     H144360   1.768   4.756   4.894 -0.3067 -0.1827  0.2587
10910WAT     H244361   1.803   4.730   5.024  0.3649 -0.0661  0.1056
10910WAT    EPW44362   1.797   4.709   4.949  0.1955 -0.0496  0.1135
10911WAT      O44363   2.332   4.298   6.561 -0.3387  0.3500  0.1323
10911WAT     H144364   2.417   4.317   6.556 -0.4139  0.7266  0.2228
10911WAT     H244365   2.319   4.279   6.645 -0.0776 -1.0468 -0.1220
10911WAT    EPW44366   2.343   4.298   6.572 -0.3112  0.1993  0.1081
10912WAT      O44367   3.815   3.420   7.033  0.0237 -0.0048 -0.6261
10912WAT     H144368   3.813   3.349   6.982  1.6879 -1.0337  0.6489
10912WAT     H244369   3.767   3.397   7.102 -0.0699  0.4221 -0.5429
10912WAT    EPW44370   3.807   3.406   7.035  0.2557 -0.0937 -0.4254
10913WAT      O44371   2.244   3.573   5.081  0.2350 -0.3348  0.1081
10913WAT     H144372   2.227   3.489   5.061  0.2277 -0.5651  1.0204
10913WAT     H244373   2.320   3.589   5.042 -0.5630 -0.2376 -1.4821
10913WAT    EPW44374   2.253   3.563   5.072  0.1160 -0.3545  0.0080
10914WAT      O44375   1.499   2.689   4.551 -0.4667  0.2325 -0.7101
10914WAT     H144376   1.470   2.700   4.633  4.8060  2.6025  1.3233
10914WAT     H244377   1.458   2.751   4.506 -1.9233  0.3208  0.6592
10914WAT    EPW44378   1.489   2.700   4.557  0.0970  0.5956 -0.2074
10915WAT      O44379   0.703   3.904   5.517  0.2184 -0.2167  0.4568
10915WAT     H144380   0.780   3.866   5.501 -0.4536 -1.7366  0.6474
10915WAT     H244381   0.676   3.928   5.437 -0.2456 -2.0121  0.0312
10915WAT    EPW44382   0.710   3.902   5.503  0.0506 -0.7065  0.4221
10916WAT      O44383   1.496   3.238   4.674 -0.4462 -0.3550 -0.4177
10916WAT     H144384   1.459   3.270   4.746 -0.4940 -0.1533 -0.5311
10916WAT     H244385   1.569   3.201   4.703 -0.1716  0.2404 -0.3456
10916WAT    EPW44386   1.501   3.237   4.689 -0.4127 -0.2373 -0.4238
10917WAT      O44387   0.715   5.501   5.402  0.3216 -0.0695 -0.7755
10917WAT     H144388   0.742   5.478   5.322 -1.0071  0.6978 -1.4892
10917WAT     H244389   0.722   5.427   5.448  1.0691 -0.5369 -1.6004
10917WAT    EPW44390   0.720   5.487   5.397  0.2358 -0.0252 -1.0028
10918WAT      O44391   1.693   3.480   4.637  0.4779 -0.4458 -0.0696
10918WAT     H144392   1.635   3.418   4.656 -1.2195  0.6575 -1.3953
10918WAT     H244393   1.747   3.440   4.581  0.6312 -1.2840  0.6419
10918WAT    EPW44394   1.693   3.465   4.631  0.2498 -0.4066 -0.1603
10919WAT      O44395   1.119   2.844   5.823  0.1086  0.0385 -0.0165
10919WAT     H144396   1.193   2.856   5.869  0.0980  3.0081 -0.5426
10919WAT     H244397   1.148   2.821   5.744  0.3943 -0.2506  0.1697
10919WAT    EPW44398   1.134   2.842   5.818  0.1492  0.4345 -0.0667
10920WAT      O44399   1.115   2.965   5.044  0.2691 -0.2998  0.4220
10920WAT     H144400   1.124   3.048   5.070 -0.3479  0.6146 -2.0231
10920WAT     H244401   1.063   2.971   4.975  1.5890 -2.5569 -0.8721
10920WAT    EPW44402   1.109   2.978   5.038  0.3730 -0.4981 -0.1304
10921WAT      O44403   1.307   3.725   4.557 -0.3515 -0.0419  0.4815
10921WAT     H144404   1.389   3.727   4.529 -0.5346  1.5117 -0.0617
10921WAT     H244405   1.295   3.804   4.592 -0.8181 -1.1596  3.0723
10921WAT    EPW44406   1.317   3.737   4.558 -0.4475  0.0225  0.7839
10922WAT      O44407   2.498   4.292   6.187 -0.1231 -0.1297  0.3809
10922WAT     H144408   2.452   4.343   6.133 -1.4223 -2.0462 -0.4437
10922WAT     H244409   2.555   4.347   6.224 -0.4265  1.6131 -1.5524
10922WAT    EPW44410   2.500   4.308   6.184 -0.3598 -0.1554 -0.0265
10923WAT      O44411   1.438   4.965   4.381 -0.3230 -0.2319 -0.7570
10923WAT     H144412   1.351   4.973   4.376 -0.5839  1.1073  2.8562
10923WAT     H244413   1.449   4.884   4.412 -0.4139 -0.0029 -0.1004
10923WAT    EPW44414   1.427   4.954   4.385 -0.3750 -0.0002 -0.1263
10924WAT      O44415   1.938   5.745   4.298 -0.8706 -0.8118 -0.0770
10924WAT     H144416   1.948   5.832   4.304  0.8560 -1.0208  0.7288
10924WAT     H244417   1.972   5.726   4.220 -1.5119 -0.7369 -0.3769
10924WAT    EPW44418   1.945   5.755   4.287 -0.7103 -0.8316 -0.0022
10925WAT      O44419   2.208   5.041   4.410  0.2116  0.6980 -0.2562
10925WAT     H144420   2.229   5.044   4.326  0.7946 -0.0768 -0.1471
10925WAT     H244421   2.202   4.955   4.427 -2.4802  0.8183 -0.1257
10925WAT    EPW44422   2.210   5.029   4.400 -0.0999  0.6013 -0.2208
10926WAT      O44423   1.019   4.050   4.223  0.0821  0.3052  0.4102
10926WAT     H144424   0.964   4.081   4.283 -1.0238 -0.1226 -0.3411
10926WAT     H244425   1.047   3.975   4.258 -0.8418 -0.1285  0.2678
10926WAT    EPW44426   1.015   4.043   4.237 -0.2178  0.1780  0.2782
10927WAT      O44427   1.382   5.634   5.106 -0.1412 -0.7515  0.3658
10927WAT     H144428   1.413   5.579   5.045  0.7327 -0.6288  0.6815
10927WAT     H244429   1.453   5.679   5.130 -0.8949  0.6955 -0.0614
10927WAT    EPW44430   1.397   5.632   5.101 -0.1234 -0.5197  0.3493
10928WAT      O44431   2.076   2.187   5.788 -0.0275 -0.1928  0.2605
10928WAT     H144432   1.991   2.183   5.806  0.1864  0.0625  1.4171
10928WAT     H244433   2.087   2.270   5.762 -0.3250 -0.5390 -0.9980
10928WAT    EPW44434   2.065   2.199   5.787 -0.0398 -0.2062  0.2455
10929WAT      O44435   1.192   3.439   5.027  0.0170  0.2608 -0.1686
10929WAT     H144436   1.267   3.398   5.008  0.5600 -0.6405  3.3025
10929WAT     H244437   1.134   3.374   5.032  0.1104  0.2834  1.8482
10929WAT    EPW44438   1.194   3.423   5.025  0.1110  0.1310  0.6421
10930WAT      O44439   1.597   3.751   4.593 -0.2072  0.1874  0.2751
10930WAT     H144440   1.610   3.665   4.601  1.0438  0.4376  1.2564
10930WAT     H244441   1.660   3.775   4.537  0.3783  0.6634  1.1144
10930WAT    EPW44442   1.608   3.742   4.586  0.0641  0.2946  0.5440
10931WAT      O44443   1.993   3.811   4.107 -0.4245  0.1465 -0.0329
10931WAT     H144444   2.076   3.838   4.104 -0.6186  0.8180  0.3611
10931WAT     H244445   1.999   3.724   4.105  0.4358  0.0641  2.3002
10931WAT    EPW44446   2.006   3.802   4.107 -0.3261  0.2335  0.3700
10932WAT      O44447   1.541   4.575   4.058  0.8666 -0.5921 -0.2181
10932WAT     H144448   1.593   4.521   4.014  0.3961 -0.2742 -1.1995
10932WAT     H244449   1.488   4.521   4.102  0.7096 -0.9420 -0.8195
10932WAT    EPW44450   1.541   4.559   4.058  0.7739 -0.5968 -0.4519
10933WAT      O44451   1.485   3.384   5.610  0.0303  0.3462  0.5036
10933WAT     H144452   1.448   3.407   5.686  2.0030  0.7677  1.4199
10933WAT     H244453   1.546   3.445   5.598  1.5899 -1.2201  0.0213
10933WAT    EPW44454   1.489   3.396   5.619  0.5521  0.1771  0.5677
10934WAT      O44455   2.286   3.837   4.064  0.2042 -0.0337 -0.5331
10934WAT     H144456   2.347   3.857   4.004 -0.3930  0.4079 -1.0079
10934WAT     H244457   2.282   3.750   4.062  1.8082 -0.1853  0.5096
10934WAT    EPW44458   2.295   3.827   4.055  0.3530  0.0092 -0.4492
10935WAT      O44459   1.337   1.850   5.660  0.0973  0.0588  0.1885
10935WAT     H144460   1.351   1.933   5.637 -1.6330  0.5947  0.8720
10935WAT     H244461   1.347   1.851   5.746 -0.6434 -0.2630  0.2832
10935WAT    EPW44462   1.340   1.863   5.669 -0.2677  0.0905  0.3035
10936WAT      O44463   1.920   2.971   4.040 -0.2027 -0.4364  0.4423
10936WAT     H144464   1.989   2.948   3.992 -0.0277 -0.8924  0.9026
10936WAT     H244465   1.900   3.051   4.010  0.0821 -0.5866 -0.1807
10936WAT    EPW44466   1.927   2.979   4.028 -0.1348 -0.5260  0.4182
10937WAT      O44467   2.458   3.916   4.479  0.2765 -0.3084 -0.5958
10937WAT     H144468   2.403   3.969   4.437  2.0968  1.2296 -1.1533
10937WAT     H244469   2.479   3.856   4.418  0.1380 -0.1875 -0.7643
10937WAT    EPW44470   2.453   3.915   4.464  0.5249 -0.0633 -0.7030
10938WAT      O44471   1.655   3.598   6.950 -0.3478 -0.8245 -0.1931
10938WAT     H144472   1.625   3.518   6.964  0.5401 -1.1965 -0.3691
10938WAT     H244473   1.740   3.592   6.971 -0.2653  0.0538 -0.2438
10938WAT    EPW44474   1.663   3.586   6.955 -0.2044 -0.7497 -0.2266
10939WAT      O44475   1.308   3.536   3.410 -0.8464  0.1576 -0.2176
10939WAT     H144476   1.308   3.601   3.351  1.1716  0.9245  0.5421
10939WAT     H244477   1.339   3.574   3.482  1.1589 -1.8008  0.0520
10939WAT    EPW44478   1.313   3.551   3.412 -0.2521 -0.0184 -0.0656
10940WAT      O44479   2.401   3.788   6.019 -0.1788  0.2790 -0.5496
10940WAT     H144480   2.335   3.740   6.049 -0.9055  2.1803  1.1638
10940WAT     H244481   2.467   3.768   6.072 -0.4399  0.9857  0.0678
10940WAT    EPW44482   2.401   3.778   6.031 -0.3247  0.6643 -0.2053
10941WAT      O44483   1.375   4.353   5.468 -0.6507 -0.2290  0.5596
10941WAT     H144484   1.381   4.354   5.381 -1.4350 -1.9821  0.4304
10941WAT     H244485   1.369   4.437   5.489 -1.6961  0.1914 -1.1925
10941WAT    EPW44486   1.375   4.365   5.458 -0.9210 -0.4259  0.2817
10942WAT      O44487   1.331   3.882   2.561  0.2031 -0.3673  0.0205
10942WAT     H144488   1.343   3.874   2.647  0.5977  0.3494  0.0359
10942WAT     H244489   1.375   3.814   2.527  0.6699 -0.2248  0.3394
10942WAT    EPW44490   1.339   3.871   2.568  0.3304 -0.2404  0.0699
10943WAT      O44491   1.163   4.015   5.373 -0.1477  0.1456 -0.0029
10943WAT     H144492   1.172   4.094   5.337 -0.1713  0.1396 -0.0228
10943WAT     H244493   1.243   3.996   5.401  0.0788 -0.2498 -0.8820
10943WAT    EPW44494   1.176   4.024   5.372 -0.1177  0.0863 -0.1357
10944WAT      O44495   2.148   5.410   4.620  0.4946 -0.4754 -0.3104
10944WAT     H144496   2.115   5.466   4.563 -0.4894 -0.3062  0.3944
10944WAT     H244497   2.230   5.437   4.630  0.1103  0.6985 -0.1750
10944WAT    EPW44498   2.155   5.422   4.613  0.2925 -0.2770 -0.1863
10945WAT      O44499   0.547   5.319   4.199 -0.1508  0.0723 -0.4572
10945WAT     H144500   0.543   5.235   4.175  1.1112 -0.4783  1.0878
10945WAT     H244501   0.555   5.314   4.286 -2.9328  1.8778  0.0241
10945WAT    EPW44502   0.547   5.306   4.208 -0.3753  0.2577 -0.1579
10946WAT      O44503   1.044   2.416   5.682  0.0343  0.6160  0.0426
10946WAT     H144504   1.006   2.404   5.604 -1.4508  0.9534  0.6947
10946WAT     H244505   1.100   2.349   5.687  0.2965  0.6913 -1.3860
10946WAT    EPW44506   1.047   2.404   5.671 -0.1464  0.6770 -0.0721
10947WAT      O44507   1.777   3.207   3.936 -0.2209  0.0534  0.7247
10947WAT     H144508   1.833   3.207   3.869  2.3330  0.5822  2.6723
10947WAT     H244509   1.745   3.288   3.936 -1.6762 -0.4593 -0.8362
10947WAT    EPW44510   1.781   3.219   3.926 -0.0586  0.0558  0.7818
10948WAT      O44511   1.312   3.565   4.310  0.3845  0.0274  0.1747
10948WAT     H144512   1.379   3.510   4.323  1.5023  1.2111 -0.3978
10948WAT     H244513   1.298   3.599   4.389  0.5227 -0.1544  0.2786
10948WAT    EPW44514   1.320   3.562   4.324  0.5701  0.1754  0.1055
10949WAT      O44515   1.052   3.207   4.331 -0.3038  0.1172  0.2135
10949WAT     H144516   1.095   3.132   4.324 -1.8338 -0.8573  0.7378
10949WAT     H244517   1.056   3.225   4.417 -0.2008  0.4778  0.1340
10949WAT    EPW44518   1.059   3.199   4.343 -0.5146  0.0265  0.2792
10950WAT      O44519   1.300   2.368   4.315  0.5576  0.3401  0.3070
10950WAT     H144520   1.229   2.417   4.303  0.0602  0.0724  1.8907
10950WAT     H244521   1.287   2.300   4.262 -1.3599 -0.6708  1.9471
10950WAT    EPW44522   1.288   2.365   4.305  0.2009  0.1512  0.7833
10951WAT      O44523   1.694   3.573   5.616 -0.3840 -0.0161 -0.2410
10951WAT     H144524   1.779   3.550   5.620 -0.2723  0.3418 -0.5319
10951WAT     H244525   1.693   3.635   5.555 -0.4858  1.6038  1.3303
10951WAT    EPW44526   1.707   3.579   5.608 -0.3826  0.2760 -0.0518
10952WAT      O44527   1.869   5.296   4.675  0.7639 -0.0881  0.4206
10952WAT     H144528   1.949   5.326   4.688  0.6780 -0.2382  1.3115
10952WAT     H244529   1.878   5.243   4.607  1.4654 -0.3028  0.6797
10952WAT    EPW44530   1.882   5.293   4.667  0.8548 -0.1420  0.5905
10953WAT      O44531   1.803   2.213   5.875  0.0773 -0.0196 -0.0794
10953WAT     H144532   1.745   2.257   5.827 -0.2095 -3.5415 -3.5132
10953WAT     H244533   1.759   2.193   5.947 -2.0271 -0.1035 -1.2957
10953WAT    EPW44534   1.788   2.216   5.878 -0.2759 -0.5523 -0.7663
10954WAT      O44535   2.979   6.590   3.085  0.0243  0.3014 -0.3225
10954WAT     H144536   3.031   6.524   3.109  1.5669  1.8180  0.6890
10954WAT     H244537   3.028   6.636   3.030 -0.9154  0.7925 -0.7702
10954WAT    EPW44538   2.994   6.587   3.080  0.1134  0.5980 -0.2392
10955WAT      O44539   2.443   5.403   5.382  0.0674  0.3713 -0.0936
10955WAT     H144540   2.513   5.382   5.430 -0.0233 -0.4313 -0.2971
10955WAT     H244541   2.395   5.330   5.383 -0.7728  0.9088  0.0440
10955WAT    EPW44542   2.446   5.389   5.389 -0.0701  0.3321 -0.1034
10956WAT      O44543   1.382   4.368   5.195 -0.2557  0.5032 -0.2595
10956WAT     H144544   1.363   4.429   5.135 -1.3394 -1.1312 -1.6773
10956WAT     H244545   1.420   4.305   5.148 -2.0607 -1.2817  0.5468
10956WAT    EPW44546   1.385   4.368   5.179 -0.6824 -0.0019 -0.3498
10957WAT      O44547   1.221   1.595   4.364  0.4889 -0.0786 -0.6079
10957WAT     H144548   1.252   1.664   4.321  0.1924  0.8614  0.6322
10957WAT     H244549   1.142   1.582   4.329 -0.0759  1.1750  0.1482
10957WAT    EPW44550   1.214   1.603   4.353  0.3616  0.2455 -0.3130
10958WAT      O44551   1.972   4.026   6.882 -0.4152 -0.5625  0.0755
10958WAT     H144552   1.945   3.943   6.882  0.9017 -1.1611  3.6419
10958WAT     H244553   1.911   4.067   6.929  0.3622 -0.1347  0.7300
10958WAT    EPW44554   1.959   4.019   6.889 -0.1058 -0.5877  0.6990
10959WAT      O44555   1.991   4.969   5.269  0.5318  0.1944 -0.3698
10959WAT     H144556   1.934   4.913   5.233  0.2001 -0.2209  0.7593
10959WAT     H244557   2.020   5.015   5.201 -0.3903 -0.2770 -1.1066
10959WAT    EPW44558   1.987   4.968   5.254  0.3466  0.0634 -0.3118
10960WAT      O44559   2.816   3.876   5.687  0.0495 -0.4787  0.3008
10960WAT     H144560   2.847   3.956   5.670  0.4836 -0.4326  1.2395
10960WAT     H244561   2.744   3.871   5.638  0.4514  0.1782 -0.3846
10960WAT    EPW44562   2.810   3.887   5.677  0.1730 -0.3749  0.3382
10961WAT      O44563   1.534   3.112   5.570  0.0719  0.2039  0.3505
10961WAT     H144564   1.511   3.192   5.542  0.5329  0.2377  0.0558
10961WAT     H244565   1.472   3.060   5.539  1.0977  0.0808 -1.6621
10961WAT    EPW44566   1.521   3.116   5.561  0.2915  0.1907  0.0096
10962WAT      O44567   0.871   4.045   6.140 -0.0240 -0.1080 -0.0937
10962WAT     H144568   0.808   4.104   6.127 -0.4134 -1.0223 -3.1799
10962WAT     H244569   0.910   4.072   6.213 -1.0460  3.1810 -0.6122
10962WAT    EPW44570   0.868   4.058   6.149 -0.2325  0.2428 -0.6262
10963WAT      O44571   0.752   3.744   6.618 -0.1760 -0.4464  0.2364
10963WAT     H144572   0.756   3.776   6.537 -0.5248 -0.8602  0.0494
10963WAT     H244573   0.801   3.672   6.615  0.0640 -0.2952  0.4779
10963WAT    EPW44574   0.760   3.738   6.606 -0.1921 -0.4852  0.2444
10964WAT      O44575   1.934   4.486   4.173 -0.6876  0.3399  0.1856
10964WAT     H144576   1.914   4.404   4.154  1.5206 -0.2509  0.2282
10964WAT     H244577   1.918   4.529   4.099 -0.4396 -0.3920 -0.2961
10964WAT    EPW44578   1.928   4.480   4.159 -0.3248  0.1445  0.1207
10965WAT      O44579   1.798   1.656   3.824  0.4281 -0.2384 -0.7896
10965WAT     H144580   1.855   1.665   3.759  0.6464  1.6064 -0.4043
10965WAT     H244581   1.721   1.649   3.783  0.6913 -0.3511 -1.2701
10965WAT    EPW44582   1.795   1.657   3.808  0.4992  0.0175 -0.8037
10966WAT      O44583   2.215   5.661   3.455  0.0328  0.1692  0.2923
10966WAT     H144584   2.146   5.692   3.412  1.0909  1.2765 -0.6711
10966WAT     H244585   2.232   5.723   3.514  0.8071  0.3934 -0.1534
10966WAT    EPW44586   2.208   5.675   3.458  0.3035  0.3659  0.0841
10967WAT      O44587   2.023   2.504   6.477  0.1267 -0.0157 -0.2126
10967WAT     H144588   2.029   2.493   6.564 -0.7918  1.9144  0.1303
10967WAT     H244589   1.976   2.435   6.451  0.5052 -0.6760  0.7873
10967WAT    EPW44590   2.017   2.492   6.486  0.0469  0.1719 -0.0142
10968WAT      O44591   1.716   4.407   3.889  0.4750  0.1418 -0.3852
10968WAT     H144592   1.711   4.354   3.819  3.5008 -0.2540 -0.4122
10968WAT     H244593   1.744   4.355   3.953 -2.2085  0.5118  1.2313
10968WAT    EPW44594   1.719   4.391   3.888  0.5256  0.1379 -0.1504
10969WAT      O44595   1.130   1.321   4.722 -0.2627  0.5067 -0.5065
10969WAT     H144596   1.159   1.322   4.640  0.5346 -2.5976 -0.3923
10969WAT     H244597   1.048   1.292   4.714  0.0835 -0.6039 -0.1971
10969WAT    EPW44598   1.122   1.317   4.709 -0.0937 -0.1159 -0.4440
10970WAT      O44599   2.973   4.524   4.497  0.0966  0.4265  0.2835
10970WAT     H144600   3.031   4.466   4.469 -1.9055 -0.6485 -2.0431
10970WAT     H244601   3.022   4.591   4.526  2.4560 -0.4047 -1.5064
10970WAT    EPW44602   2.989   4.526   4.497  0.1493  0.1449 -0.3246
10971WAT      O44603   2.433   3.517   6.584  0.2586 -0.8185  0.4932
10971WAT     H144604   2.369   3.463   6.609 -0.8107  0.2241  0.0818
10971WAT     H244605   2.401   3.596   6.600  1.8212 -0.2735  1.1434
10971WAT    EPW44606   2.419   3.521   6.590  0.3315 -0.5839  0.5285
10972WAT      O44607   1.774   5.464   4.097 -0.1892  1.0422  0.4803
10972WAT     H144608   1.812   5.396   4.058 -0.8468  0.8588  0.1529
10972WAT     H244609   1.771   5.440   4.181  0.9846  1.3271  0.6300
10972WAT    EPW44610   1.779   5.451   4.104 -0.1129  1.0572  0.4541
10973WAT      O44611   1.361   4.324   6.748  0.4698  0.4442 -0.0601
10973WAT     H144612   1.344   4.300   6.666 -1.5670 -0.0719  0.4761
10973WAT     H244613   1.367   4.411   6.742 -1.4790  0.5881 -0.4981
10973WAT    EPW44614   1.360   4.333   6.735 -0.1189  0.3892 -0.0456
10974WAT      O44615   1.753   2.897   6.543 -0.9163  0.1652  0.2783
10974WAT     H144616   1.754   2.979   6.512 -1.6525 -0.1604 -0.6494
10974WAT     H244617   1.698   2.902   6.611  0.6253  0.8595  1.5602
10974WAT    EPW44618   1.745   2.910   6.549 -0.7973  0.2197  0.3306
10975WAT      O44619   1.472   4.840   5.663 -0.6705  0.0346 -0.1508
10975WAT     H144620   1.462   4.843   5.750  0.5795 -2.0209  0.1245
10975WAT     H244621   1.533   4.901   5.648 -1.2171  0.7176  0.3425
10975WAT    EPW44622   1.480   4.849   5.674 -0.5666 -0.1682 -0.0373
10976WAT      O44623   2.803   4.424   5.687  0.2053 -0.8887  0.5336
10976WAT     H144624   2.850   4.480   5.640  1.3052 -2.3499 -0.2053
10976WAT     H244625   2.827   4.346   5.656 -2.5166 -1.7698  0.3103
10976WAT    EPW44626   2.813   4.420   5.675 -0.0343 -1.2347  0.3915
10977WAT      O44627   1.475   4.105   4.124  0.0582  0.7436 -0.2428
10977WAT     H144628   1.451   4.050   4.061  1.2580 -0.9201  0.6791
10977WAT     H244629   1.561   4.093   4.129  0.1733  1.8482  0.8226
10977WAT    EPW44630   1.484   4.095   4.115  0.2524  0.6610  0.0508
10978WAT      O44631   1.316   5.076   5.382  0.0260  0.0214  0.0371
10978WAT     H144632   1.362   5.127   5.435 -0.5175  0.3357  0.2072
10978WAT     H244633   1.315   5.120   5.307  2.4546 -1.2944 -0.8700
10978WAT    EPW44634   1.323   5.090   5.379  0.3044 -0.1265 -0.0718
10979WAT      O44635   0.906   2.991   3.992  0.4586 -0.0714  0.4339
10979WAT     H144636   0.836   3.043   3.991  1.2695  1.3241 -3.5154
10979WAT     H244637   0.973   3.046   4.002  1.1568 -1.1924  2.4402
10979WAT    EPW44638   0.906   3.007   3.993  0.6815 -0.0308  0.1468
10980WAT      O44639   1.382   3.180   1.458 -0.2592 -0.2039  0.4184
10980WAT     H144640   1.464   3.174   1.428  0.2527 -1.2519  1.9049
10980WAT     H244641   1.366   3.100   1.490 -0.6128  0.8707  3.1583
10980WAT    EPW44642   1.392   3.167   1.458 -0.2358 -0.2000  1.0427
10981WAT      O44643   1.121   3.624   3.821 -0.2584 -0.2124  0.0769
10981WAT     H144644   1.109   3.709   3.837  2.7954  0.6092 -1.2639
10981WAT     H244645   1.201   3.608   3.854  1.5083 -1.1357 -4.0644
10981WAT    EPW44646   1.131   3.634   3.828  0.4537 -0.2274 -0.7329
10982WAT      O44647   2.182   4.244   1.229  0.3446  0.0301 -0.1711
10982WAT     H144648   2.188   4.268   1.313  1.2884  3.0551 -0.9922
10982WAT     H244649   2.111   4.286   1.201 -0.2025 -1.2794 -0.8603
10982WAT    EPW44650   2.172   4.253   1.238  0.4032  0.2835 -0.3942
10983WAT      O44651   0.660   3.318   0.885  0.4865 -0.0410  0.2320
10983WAT     H144652   0.583   3.320   0.844  0.1294  0.6695  0.9232
10983WAT     H244653   0.714   3.353   0.826  0.1915 -0.0673 -0.0617
10983WAT    EPW44654   0.657   3.323   0.870  0.3902  0.0600  0.2907
10984WAT      O44655   1.880   1.861   4.507 -0.2602 -0.0903  0.0433
10984WAT     H144656   1.939   1.800   4.488  0.6530  0.3225  1.4340
10984WAT     H244657   1.817   1.847   4.449 -0.3663 -2.7558  0.6999
10984WAT    EPW44658   1.879   1.850   4.496 -0.1410 -0.4231  0.3457
10985WAT      O44659   1.608   4.995   2.507  0.1717 -0.0031 -0.0469
10985WAT     H144660   1.624   5.073   2.471  0.0878  0.7156  1.3925
10985WAT     H244661   1.687   4.960   2.516  0.2423  0.0685 -0.4025
10985WAT    EPW44662   1.622   5.002   2.503  0.1697  0.1137  0.1132
10986WAT      O44663   1.549   2.514   3.004 -0.1555  0.3141  0.4570
10986WAT     H144664   1.526   2.595   2.978 -0.2665 -0.1194 -0.9205
10986WAT     H244665   1.607   2.528   3.067  1.0991  1.5223 -0.8797
10986WAT    EPW44666   1.554   2.528   3.009  0.0135  0.4285  0.0560
10987WAT      O44667   1.122   4.181   3.207 -0.5848  0.2414  0.1849
10987WAT     H144668   1.094   4.122   3.264  1.5740 -0.3710  0.6964
10987WAT     H244669   1.087   4.155   3.131 -0.4890 -1.0890  0.5798
10987WAT    EPW44670   1.112   4.169   3.204 -0.2518 -0.0456  0.3188
10988WAT      O44671   1.478   3.366   3.676 -0.5897 -0.1823  0.1060
10988WAT     H144672   1.456   3.425   3.616  1.2927  0.2729 -0.1800
10988WAT     H244673   1.477   3.411   3.751  1.5443  0.4557 -0.1994
10988WAT    EPW44674   1.474   3.381   3.678  0.0036 -0.0208  0.0187
10989WAT      O44675   1.041   4.452   3.190 -0.1381  0.1544 -0.1329
10989WAT     H144676   1.074   4.373   3.203  1.0613  0.7409  0.4763
10989WAT     H244677   1.068   4.498   3.259 -0.7461  1.1282 -0.5139
10989WAT    EPW44678   1.050   4.447   3.202 -0.0508  0.3849 -0.0992
10990WAT      O44679   2.862   5.641   3.352 -0.2176  0.0824 -0.1129
10990WAT     H144680   2.905   5.712   3.328  1.0574 -1.1075 -1.5712
10990WAT     H244681   2.925   5.582   3.365 -1.3174 -1.4093 -1.2007
10990WAT    EPW44682   2.878   5.643   3.350 -0.1917 -0.3137 -0.4890
10991WAT      O44683   0.912   5.702   2.997  0.2415 -0.4306  0.2263
10991WAT     H144684   0.902   5.686   3.082 -0.5915  0.0631  0.2318
10991WAT     H244685   0.994   5.678   2.981  0.6216  0.0929  1.3097
10991WAT    EPW44686   0.923   5.696   3.007  0.1746 -0.2804  0.3872
10992WAT      O44687   1.069   3.953   3.369 -0.2451 -0.2524  0.4804
10992WAT     H144688   1.024   3.886   3.401  1.3169 -1.8244 -0.4505
10992WAT     H244689   1.101   3.993   3.440  0.9220 -2.0635  1.0412
10992WAT    EPW44690   1.067   3.949   3.384  0.1580 -0.7521  0.4257
10993WAT      O44691   2.434   3.295   2.927 -0.2488 -0.2958 -0.3985
10993WAT     H144692   2.349   3.307   2.943  0.3288 -0.0726  3.3551
10993WAT     H244693   2.456   3.366   2.880 -2.0110 -0.1098 -0.9987
10993WAT    EPW44694   2.425   3.307   2.922 -0.4238 -0.2354  0.0673
10994WAT      O44695   1.854   3.863   3.857 -0.0258 -0.1399 -0.0867
10994WAT     H144696   1.913   3.808   3.823  0.8510 -0.1159  1.3383
10994WAT     H244697   1.851   3.841   3.941  0.6341  2.1951  0.6198
10994WAT    EPW44698   1.862   3.851   3.864  0.2012  0.2086  0.2282
10995WAT      O44699   2.192   4.216   4.059 -0.5006  0.2632  0.7273
10995WAT     H144700   2.141   4.160   4.015  0.4133 -2.4388  2.8469
10995WAT     H244701   2.256   4.234   4.002 -0.0931 -2.0263  0.3554
10995WAT    EPW44702   2.194   4.211   4.044 -0.3054 -0.4741  0.9854
10996WAT      O44703   1.328   4.161   2.945  0.0325 -0.0918  0.2486
10996WAT     H144704   1.371   4.134   3.017 -0.2351  1.5245  1.0454
10996WAT     H244705   1.367   4.236   2.924  1.4359 -1.4336 -2.5422
10996WAT    EPW44706   1.340   4.168   2.953  0.2003 -0.0512 -0.0459
10997WAT      O44707   1.754   1.529   3.264  0.0533  0.1915 -0.1552
10997WAT     H144708   1.680   1.496   3.299 -0.1348  0.0488 -0.6824
10997WAT     H244709   1.793   1.567   3.332 -1.3965  1.9192 -0.2076
10997WAT    EPW44710   1.749   1.530   3.280 -0.1887  0.4257 -0.2408
10998WAT      O44711   2.801   1.811   1.198 -0.1225  0.7210  0.4402
10998WAT     H144712   2.818   1.775   1.276  0.5906  0.7075  0.2886
10998WAT     H244713   2.839   1.889   1.203  1.6029  0.0144 -0.5310
10998WAT    EPW44714   2.809   1.817   1.211  0.2377  0.6146  0.2744
10999WAT      O44715   0.863   3.898   1.047  0.0008 -0.0120 -0.3925
10999WAT     H144716   0.885   3.814   1.056 -0.6019 -0.1401 -0.0693
10999WAT     H244717   0.935   3.940   1.070 -0.0274 -0.4242  0.4863
10999WAT    EPW44718   0.877   3.891   1.051 -0.0924 -0.0918 -0.2150
11000WAT      O44719   1.656   5.298   2.882 -0.1155  0.1346  0.2854
11000WAT     H144720   1.736   5.302   2.848  0.1668  1.5859  1.0070
11000WAT     H244721   1.626   5.221   2.856  1.8964 -0.9088  0.8517
11000WAT    EPW44722   1.664   5.287   2.873  0.2234  0.1948  0.4756
11001WAT      O44723   2.177   5.331   0.993  0.9453  0.0247  0.2134
11001WAT     H144724   2.131   5.327   0.919  0.0659 -0.2481  0.7658
11001WAT     H244725   2.163   5.254   1.031  2.8028 -0.5311 -0.1430
11001WAT    EPW44726   2.168   5.319   0.988  1.0898 -0.0977  0.2424
11002WAT      O44727   2.349   5.375   1.455  0.3891 -0.4030  0.1993
11002WAT     H144728   2.272   5.416   1.450  0.2547 -0.6465  0.2635
11002WAT     H244729   2.366   5.374   1.541  1.8793  2.2578  0.0444
11002WAT    EPW44730   2.340   5.381   1.467  0.5894 -0.0459  0.1859
11003WAT      O44731   0.823   4.992   3.500  0.3430 -0.0837  0.4458
11003WAT     H144732   0.789   5.056   3.549  1.0775  1.1725 -0.6256
11003WAT     H244733   0.794   5.009   3.420  0.6611 -1.0334  0.1112
11003WAT    EPW44734   0.814   5.004   3.495  0.4985 -0.0384  0.2381
11004WAT      O44735   1.133   2.940   4.301  0.2388 -0.0280  0.4213
11004WAT     H144736   1.211   2.913   4.328 -0.5719 -1.1493  1.7444
11004WAT     H244737   1.136   2.926   4.215  0.1376 -3.9054  0.8867
11004WAT    EPW44738   1.145   2.934   4.292  0.1041 -0.7664  0.6855
11005WAT      O44739   1.855   5.023   2.844  0.1843 -0.3665  0.3123
11005WAT     H144740   1.859   5.042   2.929 -0.0753 -1.1015  0.4943
11005WAT     H244741   1.864   5.101   2.805 -0.1608  0.0356  1.0222
11005WAT    EPW44742   1.857   5.037   2.851  0.0950 -0.4157  0.4441
11006WAT      O44743   1.993   2.523   3.788 -0.1589 -0.7650 -0.4934
11006WAT     H144744   1.909   2.512   3.809 -0.2539 -0.4847 -0.7147
11006WAT     H244745   1.990   2.585   3.726  0.3891  0.9606  1.1315
11006WAT    EPW44746   1.980   2.531   3.782 -0.0920 -0.4687 -0.2861
11007WAT      O44747   2.878   5.736   3.596 -0.2858  0.2119 -0.0276
11007WAT     H144748   2.878   5.698   3.518  1.9846  1.1502 -0.5656
11007WAT     H244749   2.929   5.685   3.644 -0.6714  0.3088  0.4964
11007WAT    EPW44750   2.886   5.723   3.592 -0.0074  0.3648 -0.0297
11008WAT      O44751   0.847   3.888   4.522  0.1691 -0.0383 -0.0313
11008WAT     H144752   0.911   3.861   4.469 -0.5424 -0.5287 -0.6655
11008WAT     H244753   0.786   3.826   4.514 -0.0291 -0.0486  1.2563
11008WAT    EPW44754   0.847   3.875   4.513  0.0347 -0.1123  0.0652
11009WAT      O44755   0.989   5.062   2.501 -0.1593  0.1220  0.0831
11009WAT     H144756   0.933   5.096   2.559 -0.7829  0.0793 -0.4745
11009WAT     H244757   1.059   5.042   2.549  0.0877  1.8362  0.4916
11009WAT    EPW44758   0.991   5.064   2.517 -0.2149  0.3690  0.0611
11010WAT      O44759   1.482   3.579   2.195  0.7961 -0.3479  0.3389
11010WAT     H144760   1.531   3.649   2.176  1.3159 -1.2297 -1.8948
11010WAT     H244761   1.469   3.586   2.281  0.7373  2.5113  0.1927
11010WAT    EPW44762   1.488   3.590   2.205  0.8642 -0.0558 -0.0127
11011WAT      O44763   1.345   1.725   3.669 -0.6101  0.0695  0.2872
11011WAT     H144764   1.285   1.719   3.731 -0.8157  2.3327  0.3988
11011WAT     H244765   1.364   1.810   3.667  0.3264 -0.1149 -1.8724
11011WAT    EPW44766   1.339   1.737   3.678 -0.5021  0.3766 -0.0153
11012WAT      O44767   1.314   3.418   2.484 -0.1542  0.5377 -0.1248
11012WAT     H144768   1.320   3.354   2.425  0.8264  1.1290 -0.6957
11012WAT     H244769   1.342   3.380   2.557 -0.2136  0.1369 -0.3042
11012WAT    EPW44770   1.319   3.403   2.486 -0.0181  0.5658 -0.2356
11013WAT      O44771   2.019   3.882   1.869 -0.1582  0.6132 -0.1320
11013WAT     H144772   2.026   3.825   1.935 -0.8199 -0.3431 -0.8640
11013WAT     H244773   2.087   3.936   1.882  0.5284 -0.3673  0.5528
11013WAT    EPW44774   2.030   3.882   1.880 -0.1545  0.3271 -0.1390
11014WAT      O44775   2.468   4.208   3.384  0.2971 -0.0713  0.3249
11014WAT     H144776   2.441   4.285   3.353  0.1639 -0.1483  0.2498
11014WAT     H244777   2.548   4.200   3.350 -0.3210 -0.7293 -1.0493
11014WAT    EPW44778   2.476   4.218   3.374  0.1861 -0.1799  0.1108
11015WAT      O44779   0.944   4.182   4.496 -0.1244  0.2257  0.5265
11015WAT     H144780   0.921   4.114   4.545 -2.1085  0.3234 -0.1725
11015WAT     H244781   0.881   4.241   4.512 -0.1041  0.7409 -1.0914
11015WAT    EPW44782   0.931   4.180   4.506 -0.4145  0.3163  0.1842
11016WAT      O44783   2.683   4.455   2.278  0.1206  0.2275  0.2380
11016WAT     H144784   2.688   4.501   2.205 -1.3389  0.1066  0.0232
11016WAT     H244785   2.750   4.400   2.273 -0.8480 -0.8554 -1.7967
11016WAT    EPW44786   2.694   4.454   2.267 -0.2381  0.0497 -0.0943
11017WAT      O44787   2.162   5.176   3.478 -0.2360 -0.1392 -0.5258
11017WAT     H144788   2.223   5.157   3.537 -0.0882 -1.4780 -1.0765
11017WAT     H244789   2.140   5.258   3.497 -2.2470 -1.2844  3.1982
11017WAT    EPW44790   2.168   5.185   3.489 -0.5112 -0.5061 -0.0570
11018WAT      O44791   1.375   3.451   3.038  0.1658 -0.3169  0.3445
11018WAT     H144792   1.440   3.491   3.080 -0.9242  0.2618  1.5673
11018WAT     H244793   1.321   3.426   3.102 -2.3781  1.9885 -0.6550
11018WAT    EPW44794   1.376   3.453   3.054 -0.3710  0.1091  0.3775
11019WAT      O44795   1.162   3.292   1.339  0.0274 -0.2439  0.2084
11019WAT     H144796   1.229   3.273   1.392  0.0437 -0.5091  0.0935
11019WAT     H244797   1.117   3.352   1.383  0.9800  0.8137 -0.2027
11019WAT    EPW44798   1.166   3.298   1.353  0.1705 -0.1269  0.1307
11020WAT      O44799   1.188   2.614   2.590  0.0962  0.2830  0.1644
11020WAT     H144800   1.259   2.662   2.573  1.3595 -2.0904 -1.8354
11020WAT     H244801   1.204   2.582   2.670  0.7296  0.7156  0.2187
11020WAT    EPW44802   1.201   2.616   2.599  0.3764 -0.0037 -0.1230
11021WAT      O44803   0.836   5.197   2.702 -0.1925  0.2829  0.4967
11021WAT     H144804   0.863   5.173   2.781  1.7412 -1.4929 -0.5894
11021WAT     H244805   0.779   5.262   2.718 -2.5731 -2.2550  3.4753
11021WAT    EPW44806   0.832   5.203   2.716 -0.2586 -0.3543  0.7763
11022WAT      O44807   1.627   3.597   3.043  0.1692  0.0467  0.3952
11022WAT     H144808   1.603   3.674   3.010 -0.4167 -0.7923 -1.2366
11022WAT     H244809   1.652   3.617   3.125 -1.3814  1.7322  0.5232
11022WAT    EPW44810   1.627   3.611   3.050 -0.1464  0.1718  0.1731
11023WAT      O44811   1.594   5.559   2.153  0.4765 -0.0474  0.2221
11023WAT     H144812   1.629   5.519   2.223 -1.3254 -2.0684  0.0885
11023WAT     H244813   1.563   5.634   2.185  1.9549  0.2681  1.0024
11023WAT    EPW44814   1.595   5.564   2.168  0.4287 -0.2993  0.3177
11024WAT      O44815   1.148   1.743   1.322  0.1844  0.0952 -0.0003
11024WAT     H144816   1.167   1.776   1.401  1.6697  0.0051 -0.2795
11024WAT     H244817   1.220   1.698   1.301  0.3484  1.1106 -1.9137
11024WAT    EPW44818   1.162   1.741   1.331  0.4281  0.2319 -0.3242
11025WAT      O44819   0.908   4.696   1.991 -0.2281  0.4535 -0.3741
11025WAT     H144820   0.916   4.759   1.932 -2.2061  0.0215 -1.1524
11025WAT     H244821   0.989   4.688   2.023  0.2803  2.6832 -0.9439
11025WAT    EPW44822   0.921   4.704   1.987 -0.4452  0.7191 -0.5733
11026WAT      O44823   1.306   3.178   3.971 -0.0252  0.0883  0.2319
11026WAT     H144824   1.290   3.247   4.021  1.3034 -0.2133  1.1443
11026WAT     H244825   1.271   3.199   3.894  0.4283  1.8067  0.4583
11026WAT    EPW44826   1.298   3.191   3.967  0.2381  0.2976  0.4001
11027WAT      O44827   2.033   3.246   2.581 -0.5353  0.3013 -0.5856
11027WAT     H144828   2.067   3.263   2.660 -0.8133 -1.8169  0.0434
11027WAT     H244829   1.949   3.230   2.598 -1.1595  2.1812 -1.6795
11027WAT    EPW44830   2.026   3.246   2.595 -0.6685  0.2661 -0.6543
11028WAT      O44831   1.683   4.558   4.300  0.5834  0.1706 -0.0117
11028WAT     H144832   1.760   4.525   4.275 -0.7757 -2.3534 -1.2141
11028WAT     H244833   1.654   4.599   4.229  0.4616  0.4291  0.1871
11028WAT    EPW44834   1.690   4.559   4.286  0.3646 -0.1641 -0.1599
11029WAT      O44835   1.024   2.500   2.381 -0.8076 -0.0259 -0.2828
11029WAT     H144836   1.095   2.533   2.420  0.9326 -1.5364 -1.9734
11029WAT     H244837   0.993   2.569   2.336  1.1267  0.1239 -1.5354
11029WAT    EPW44838   1.030   2.515   2.380 -0.2648 -0.2269 -0.7176
11030WAT      O44839   1.116   3.319   2.875 -0.3034 -0.5064 -0.0563
11030WAT     H144840   1.080   3.366   2.939  0.5387 -1.8250  1.4786
11030WAT     H244841   1.100   3.366   2.803 -0.3786  1.5776  1.2400
11030WAT    EPW44842   1.108   3.333   2.874 -0.1901 -0.3933  0.3620
11031WAT      O44843   2.116   5.586   4.413  0.9028  0.1938 -0.5093
11031WAT     H144844   2.054   5.639   4.381  2.0036  2.7651  1.2557
11031WAT     H244845   2.189   5.615   4.375  1.6214  0.5014  0.9995
11031WAT    EPW44846   2.118   5.598   4.403  1.1716  0.6190 -0.0257
11032WAT      O44847   1.463   5.292   3.399  0.4841 -0.0969 -0.2488
11032WAT     H144848   1.431   5.223   3.356 -0.7236  0.7980 -0.8666
11032WAT     H244849   1.448   5.358   3.344 -0.8802  1.0512  1.4052
11032WAT    EPW44850   1.456   5.291   3.384  0.1042  0.2049 -0.0957
11033WAT      O44851   1.727   4.811   3.351  0.0342  0.1674 -0.7054
11033WAT     H144852   1.769   4.810   3.427 -1.8987  0.7024  0.4383
11033WAT     H244853   1.779   4.860   3.300  1.6781 -0.7405  0.0159
11033WAT    EPW44854   1.741   4.818   3.355 -0.0085  0.1123 -0.4299
11034WAT      O44855   1.905   1.796   2.083  0.2285 -0.0341 -0.1427
11034WAT     H144856   1.883   1.753   2.156  0.0614  0.8256  0.3281
11034WAT     H244857   1.851   1.865   2.083  2.6699  2.0847  0.9681
11034WAT    EPW44858   1.894   1.800   2.094  0.5645  0.4059  0.0910
11035WAT      O44859   2.786   2.452   2.891  0.1110 -0.5525 -0.3029
11035WAT     H144860   2.759   2.453   2.808  0.9108  2.0259 -0.6297
11035WAT     H244861   2.819   2.532   2.902  2.3170 -1.6237  1.7716
11035WAT    EPW44862   2.787   2.464   2.880  0.5551 -0.3299 -0.0447
11036WAT      O44863   0.984   2.260   2.565 -0.3982 -0.2833  0.3991
11036WAT     H144864   0.933   2.309   2.514 -0.7355 -0.3355  0.6755
11036WAT     H244865   1.013   2.316   2.625 -1.1051 -0.4804  0.9538
11036WAT    EPW44866   0.981   2.276   2.567 -0.5525 -0.3201  0.5219
11037WAT      O44867   2.699   5.118   3.194  0.1805 -0.6124  0.3152
11037WAT     H144868   2.688   5.110   3.107 -0.7208 -0.7208  0.4267
11037WAT     H244869   2.726   5.039   3.218  0.1837 -0.6574  0.1683
11037WAT    EPW44870   2.701   5.105   3.185  0.0478 -0.6351  0.3100
11038WAT      O44871   1.810   2.507   4.933 -0.0958  0.1781  0.7261
11038WAT     H144872   1.856   2.557   4.878  0.3658  0.1139  1.0486
11038WAT     H244873   1.785   2.563   4.995  0.4626  0.0144  1.1133
11038WAT    EPW44874   1.813   2.523   4.934  0.0549  0.1444  0.8309
11039WAT      O44875   2.107   4.697   3.594 -0.0937 -0.4416  0.5330
11039WAT     H144876   2.026   4.729   3.589  0.2763  0.3777 -1.0734
11039WAT     H244877   2.133   4.720   3.674 -1.9180 -2.0151  1.6445
11039WAT    EPW44878   2.099   4.705   3.605 -0.3085 -0.5530  0.4599
11040WAT      O44879   1.151   5.229   3.170  0.3450  0.7042  0.1881
11040WAT     H144880   1.170   5.263   3.092 -0.8954  1.7436  0.2974
11040WAT     H244881   1.189   5.150   3.168 -0.3705  0.3399 -1.8102
11040WAT    EPW44882   1.160   5.222   3.158  0.0561  0.8039 -0.0910
11041WAT      O44883   2.794   4.876   3.264  0.2748  0.1297 -0.2337
11041WAT     H144884   2.874   4.904   3.285 -0.2025  0.6243  1.0334
11041WAT     H244885   2.769   4.831   3.334 -0.0301 -1.2202 -1.1807
11041WAT    EPW44886   2.802   4.874   3.278  0.1593  0.0034 -0.1864
11042WAT      O44887   1.827   3.867   2.761  0.3883  0.1335 -0.0371
11042WAT     H144888   1.837   3.853   2.675 -0.9164  0.0417 -0.2048
11042WAT     H244889   1.844   3.789   2.796 -0.7712 -0.2957 -0.3908
11042WAT    EPW44890   1.831   3.853   2.754  0.0243  0.0565 -0.1141
11043WAT      O44891   0.994   3.177   1.892  0.6542  0.8297  0.4173
11043WAT     H144892   0.978   3.135   1.966 -2.2002  0.8803 -0.0661
11043WAT     H244893   0.950   3.252   1.901  1.7802  1.6608 -0.6097
11043WAT    EPW44894   0.985   3.182   1.904  0.3989  0.9600  0.1942
11044WAT      O44895   1.488   4.377   3.320 -0.8171 -0.3958 -0.1331
11044WAT     H144896   1.472   4.360   3.404 -0.4718 -2.1790 -0.3951
11044WAT     H244897   1.482   4.299   3.282 -0.1811  0.2651 -1.6402
11044WAT    EPW44898   1.485   4.363   3.327 -0.6721 -0.5616 -0.3944
11045WAT      O44899   0.888   3.162   2.960 -0.3871 -0.3822 -0.0349
11045WAT     H144900   0.895   3.076   2.944  0.5373 -0.3425  0.1132
11045WAT     H244901   0.965   3.193   2.936  0.4943 -0.0516  2.8476
11045WAT    EPW44902   0.900   3.154   2.954 -0.1204 -0.3275  0.4128
11046WAT      O44903   1.908   2.885   3.104 -0.4268 -0.0142  0.3267
11046WAT     H144904   1.978   2.937   3.108  0.0276 -0.6660  2.1242
11046WAT     H244905   1.943   2.805   3.093 -0.9257 -0.2687  0.5474
11046WAT    EPW44906   1.924   2.881   3.103 -0.4334 -0.1481  0.6248
11047WAT      O44907   1.099   2.372   2.157 -0.2326 -0.0900  0.3031
11047WAT     H144908   1.176   2.413   2.159 -0.0781 -0.2658 -1.0090
11047WAT     H244909   1.060   2.398   2.230  0.2459  1.6537 -0.0168
11047WAT    EPW44910   1.105   2.382   2.168 -0.1391  0.1417  0.0620
11048WAT      O44911   2.204   3.861   7.827  0.2308  0.1834 -0.4264
11048WAT     H144912   2.200   3.914   7.758 -0.8729  1.5525  0.6307
11048WAT     H244913   2.283   3.874   7.860  0.6429 -0.2372 -1.2150
11048WAT    EPW44914   2.215   3.871   7.821  0.1287  0.3235 -0.3867
11049WAT      O44915   1.088   4.218   1.609  0.8585  0.1037  0.6064
11049WAT     H144916   1.063   4.223   1.693 -0.0719  0.8325  0.2950
11049WAT     H244917   1.129   4.140   1.605 -0.8750 -0.8917  1.2793
11049WAT    EPW44918   1.091   4.207   1.621  0.4650  0.0643  0.6598
11050WAT      O44919   1.433   2.778   1.855  0.2860 -0.2863 -0.3717
11050WAT     H144920   1.360   2.771   1.807  0.3307  1.2900 -0.7054
11050WAT     H244921   1.497   2.774   1.796  0.4615 -0.9964 -0.1448
11050WAT    EPW44922   1.431   2.776   1.839  0.3186 -0.1584 -0.3875
11051WAT      O44923   1.236   3.331   3.268 -0.2469  0.5110 -0.0448
11051WAT     H144924   1.157   3.311   3.301 -0.5232  0.2828 -0.8344
11051WAT     H244925   1.264   3.394   3.322 -0.4029 -0.3024  1.0173
11051WAT    EPW44926   1.228   3.337   3.281 -0.3108  0.3571 -0.0046
11052WAT      O44927   0.456   5.073   3.894 -0.0296 -0.1927 -0.3504
11052WAT     H144928   0.485   5.076   3.976 -1.4733  0.0870  0.1763
11052WAT     H244929   0.492   5.144   3.857  0.4718 -0.2162  0.0852
11052WAT    EPW44930   0.466   5.084   3.901 -0.1688 -0.1549 -0.2082
11053WAT      O44931   2.113   4.815   4.716  0.2994  0.2892 -0.0494
11053WAT     H144932   2.100   4.746   4.769 -1.7406  1.4613  1.1147
11053WAT     H244933   2.034   4.829   4.682  0.6551  2.0764 -0.2062
11053WAT    EPW44934   2.099   4.807   4.719  0.0506  0.7264  0.0994
11054WAT      O44935   0.837   3.661   4.225  0.0148  0.0015  0.1854
11054WAT     H144936   0.785   3.613   4.277  0.0041 -0.5751 -0.3606
11054WAT     H244937   0.866   3.605   4.166  1.7152  0.1975  0.7981
11054WAT    EPW44938   0.833   3.646   4.224  0.2644 -0.0547  0.1953
11055WAT      O44939   1.134   2.273   3.419  0.5879  0.5031  0.5347
11055WAT     H144940   1.091   2.249   3.491  0.1801  0.2450  0.2127
11055WAT     H244941   1.154   2.198   3.381 -1.2813  0.6183 -0.8235
11055WAT    EPW44942   1.130   2.259   3.424  0.2515  0.4820  0.2865
11056WAT      O44943   1.282   3.056   2.528 -0.2988 -0.0043  0.4257
11056WAT     H144944   1.278   2.983   2.576 -0.4761 -0.0907  0.2778
11056WAT     H244945   1.331   3.110   2.577  2.2789 -1.1552 -0.6838
11056WAT    EPW44946   1.289   3.053   2.542  0.0558 -0.1871  0.2400
11057WAT      O44947   1.164   4.195   3.518  0.0449 -0.4999 -0.4121
11057WAT     H144948   1.247   4.211   3.540  0.3101  0.0257 -1.6564
11057WAT     H244949   1.121   4.199   3.593  0.9741  0.4917  0.0920
11057WAT    EPW44950   1.170   4.198   3.532  0.2214 -0.2758 -0.5214
11058WAT      O44951   1.046   4.119   3.759 -0.3810  0.0180 -0.3896
11058WAT     H144952   0.968   4.155   3.773 -0.2068  0.4587 -0.5333
11058WAT     H244953   1.089   4.133   3.833  0.4193  2.0346 -1.1775
11058WAT    EPW44954   1.041   4.126   3.772 -0.2371  0.3810 -0.5272
11059WAT      O44955   1.398   4.127   3.220  0.4209 -0.0306 -0.3760
11059WAT     H144956   1.391   4.041   3.225 -2.6541  0.1116 -0.6342
11059WAT     H244957   1.316   4.155   3.214  1.3267  2.8520 -1.5181
11059WAT    EPW44958   1.385   4.119   3.220  0.1005  0.4162 -0.5828
11060WAT      O44959   1.972   4.357   3.119 -0.0211  0.2173 -0.2795
11060WAT     H144960   1.964   4.401   3.044 -1.5410  1.3267  0.4743
11060WAT     H244961   1.900   4.378   3.163 -0.0473 -1.8462  0.7815
11060WAT    EPW44962   1.960   4.367   3.114 -0.2495  0.0764 -0.0114
11061WAT      O44963   2.823   4.276   3.076  0.6952  0.0737  0.0888
11061WAT     H144964   2.899   4.284   3.034  0.9718  0.9775  0.7485
11061WAT     H244965   2.817   4.350   3.123 -0.9157  0.3588 -0.4957
11061WAT    EPW44966   2.833   4.288   3.076  0.4981  0.2493  0.0999
11062WAT      O44967   1.296   1.778   0.929  0.3256  0.0657  0.0772
11062WAT     H144968   1.286   1.851   0.976  1.4405 -0.1640  0.7218
11062WAT     H244969   1.228   1.728   0.955  0.3249  0.3545  0.6618
11062WAT    EPW44970   1.284   1.781   0.940  0.4902  0.0744  0.2588
11063WAT      O44971   1.386   2.484   4.913 -0.3570  0.1852  0.1767
11063WAT     H144972   1.334   2.422   4.947  0.1130 -0.6644 -0.5991
11063WAT     H244973   1.348   2.503   4.837 -0.2312  0.5052  0.1928
11063WAT    EPW44974   1.373   2.477   4.907 -0.2690  0.1070  0.0645
11064WAT      O44975   0.717   4.742   3.523 -0.5460  0.3468  0.3829
11064WAT     H144976   0.757   4.815   3.493 -0.7010  0.5425  0.6538
11064WAT     H244977   0.644   4.772   3.559 -1.5679 -0.1194 -1.2024
11064WAT    EPW44978   0.712   4.757   3.524 -0.7199  0.3068  0.1888
11065WAT      O44979   1.777   5.437   3.711  0.4811 -0.2799 -0.3902
11065WAT     H144980   1.707   5.436   3.764  0.6097 -0.5985 -0.2272
11065WAT     H244981   1.782   5.521   3.686  1.1603  0.1470  1.0881
11065WAT    EPW44982   1.767   5.449   3.715  0.6004 -0.2639 -0.1477
11066WAT      O44983   1.427   3.256   2.681 -0.0101  0.3813 -0.0248
11066WAT     H144984   1.435   3.333   2.722 -0.7052  0.3743  0.1266
11066WAT     H244985   1.485   3.205   2.722  0.8853  0.9727 -0.5164
11066WAT    EPW44986   1.437   3.260   2.693  0.0195  0.4676 -0.0750
11067WAT      O44987   1.159   2.959   2.249  0.2276 -0.2016  0.6145
11067WAT     H144988   1.212   3.002   2.303  2.4908  0.4243 -1.9253
11067WAT     H244989   1.212   2.902   2.209 -1.8285 -2.2994  0.6566
11067WAT    EPW44990   1.175   2.957   2.251  0.2582 -0.4190  0.2455
11068WAT      O44991   2.417   6.321   3.481 -0.3780  0.0618 -0.4278
11068WAT     H144992   2.494   6.279   3.478 -1.5534 -2.2193 -1.0485
11068WAT     H244993   2.398   6.334   3.397 -1.4622 -1.0013 -0.3643
11068WAT    EPW44994   2.426   6.317   3.468 -0.7117 -0.4322 -0.5101
11069WAT      O44995   2.336   5.050   2.938 -0.6148  0.0538 -0.2408
11069WAT     H144996   2.315   5.061   3.022 -1.0451 -0.1869 -0.3159
11069WAT     H244997   2.343   4.963   2.929 -0.8518  0.0605 -0.5199
11069WAT    EPW44998   2.334   5.039   2.949 -0.7133  0.0193 -0.2931
11070WAT      O44999   2.777   4.835   3.931 -0.3365  0.2135  0.0606
11070WAT     H145000   2.831   4.886   3.976 -1.3580  1.9165 -0.5442
11070WAT     H245001   2.706   4.885   3.920 -0.2440 -0.1739 -3.1625
11070WAT    EPW45002   2.775   4.850   3.936 -0.4737  0.4079 -0.5049
11071WAT      O45003   1.420   4.678   1.989 -0.6035 -0.0331 -0.0707
11071WAT     H145004   1.336   4.672   2.012 -0.4335 -1.2431  0.2892
11071WAT     H245005   1.431   4.613   1.932  0.3647 -0.6773  0.8100
11071WAT    EPW45006   1.409   4.668   1.984 -0.4354 -0.3070  0.1126
11072WAT      O45007   2.035   2.698   1.016 -0.7468 -0.0412 -0.1849
11072WAT     H145008   1.952   2.724   1.026 -0.6659  1.3662 -2.3525
11072WAT     H245009   2.030   2.611   1.021 -2.5613 -0.0635 -1.3736
11072WAT    EPW45010   2.022   2.689   1.018 -1.0029  0.1634 -0.6807
11073WAT      O45011   0.868   4.641   2.725  0.3759 -0.1635 -0.6899
11073WAT     H145012   0.857   4.685   2.800 -0.8007  0.2111 -1.0660
11073WAT     H245013   0.884   4.560   2.752  0.3667  0.0474 -0.0252
11073WAT    EPW45014   0.869   4.636   2.740  0.2007 -0.0770 -0.6473
11074WAT      O45015   2.534   4.964   4.159  0.2613 -0.0342 -0.0793
11074WAT     H145016   2.548   4.998   4.080  0.0689 -0.6351 -0.3744
11074WAT     H245017   2.544   4.878   4.147  2.6634  0.0074  1.0500
11074WAT    EPW45018   2.538   4.956   4.146  0.5877 -0.1168  0.0439
11075WAT      O45019   3.473   6.170   4.097  0.1107  0.4633 -0.2619
11075WAT     H145020   3.497   6.242   4.053 -0.9646  0.2262 -1.3030
11075WAT     H245021   3.477   6.108   4.036  0.8120 -0.3182  0.5750
11075WAT    EPW45022   3.477   6.172   4.081  0.0555  0.3128 -0.2921
11076WAT      O45023   2.003   2.581   4.515 -0.1207 -0.1196  0.2351
11076WAT     H145024   1.968   2.609   4.440 -0.7940 -1.6959 -0.0940
11076WAT     H245025   2.063   2.523   4.489  0.2615 -0.0357  0.9073
11076WAT    EPW45026   2.007   2.576   4.500 -0.1637 -0.3401  0.2857
11077WAT      O45027   1.210   3.074   2.979  0.2026 -0.3798 -0.3603
11077WAT     H145028   1.138   3.026   2.972 -0.7775  0.8624  0.5954
11077WAT     H245029   1.189   3.149   2.939  1.4183 -0.4338 -1.1686
11077WAT    EPW45030   1.196   3.078   2.972  0.2374 -0.2043 -0.3385
11078WAT      O45031   1.784   4.481   3.272  0.4895 -0.1237 -0.0567
11078WAT     H145032   1.786   4.568   3.262  1.4796  0.2884  2.8978
11078WAT     H245033   1.698   4.463   3.273  0.2719  0.6366 -1.4847
11078WAT    EPW45034   1.772   4.491   3.271  0.6036  0.0495  0.1688
11079WAT      O45035   1.207   2.822   1.278  0.3560 -0.0920  0.1734
11079WAT     H145036   1.156   2.888   1.304 -2.0327 -1.4547 -0.7071
11079WAT     H245037   1.222   2.840   1.194  0.9513  0.0362  0.2999
11079WAT    EPW45038   1.202   2.835   1.270  0.0910 -0.2744  0.0620
11080WAT      O45039   2.341   5.318   2.086  0.0538 -0.2602  0.0262
11080WAT     H145040   2.321   5.332   2.170 -1.7408 -0.7600 -0.2797
11080WAT     H245041   2.364   5.396   2.057  2.2292 -0.3332  1.3266
11080WAT    EPW45042   2.341   5.332   2.094  0.1101 -0.3448  0.1731
11081WAT      O45043   2.069   3.129   0.506  0.0239  0.2542 -0.0972
11081WAT     H145044   2.002   3.097   0.459  0.7529 -2.4686  0.5567
11081WAT     H245045   2.054   3.099   0.587  1.0462  1.2370  0.4908
11081WAT    EPW45046   2.057   3.120   0.511  0.2826 -0.0028  0.0863
11082WAT      O45047   2.102   5.349   4.253  0.6290  0.1475  0.0638
11082WAT     H145048   2.087   5.428   4.219  0.1563  0.3389  0.7009
11082WAT     H245049   2.128   5.366   4.335  1.7245 -0.3063 -0.1714
11082WAT    EPW45050   2.104   5.363   4.260  0.7210  0.1087  0.1231
11083WAT      O45051   1.643   4.765   2.976  0.1172 -0.1157  0.1300
11083WAT     H145052   1.601   4.704   3.022  0.2556 -0.6879 -0.4747
11083WAT     H245053   1.594   4.774   2.905  1.0978 -0.9699 -0.7041
11083WAT    EPW45054   1.630   4.757   2.972  0.2825 -0.3264 -0.0825
11084WAT      O45055   1.848   4.900   4.295  0.0839 -0.9116  0.6272
11084WAT     H145056   1.895   4.953   4.245 -0.5213 -2.8344 -2.2650
11084WAT     H245057   1.766   4.920   4.275 -0.1572 -2.3397 -0.0051
11084WAT    EPW45058   1.843   4.911   4.285 -0.0411 -1.4066  0.1065
11085WAT      O45059   1.951   2.599   2.988  0.0641  0.3698 -0.2680
11085WAT     H145060   2.034   2.576   3.006 -0.4065 -1.5685 -0.3665
11085WAT     H245061   1.907   2.575   3.059 -0.6944 -0.4033 -0.9819
11085WAT    EPW45062   1.957   2.592   3.001 -0.1174 -0.0307 -0.3880
11086WAT      O45063   1.958   6.154   1.628  0.3101  0.1812 -0.1925
11086WAT     H145064   1.926   6.174   1.707  1.6665  2.1512 -0.0769
11086WAT     H245065   1.903   6.192   1.573 -0.4507 -0.9130 -0.2123
11086WAT    EPW45066   1.945   6.162   1.632  0.3981  0.3106 -0.1783
11087WAT      O45067   0.535   5.483   3.581 -0.0823  0.8305  0.1440
11087WAT     H145068   0.485   5.512   3.515  0.0210 -0.3469 -0.4811
11087WAT     H245069   0.593   5.547   3.591 -0.3809  1.2433 -0.5995
11087WAT    EPW45070   0.536   5.497   3.572 -0.1112  0.7176 -0.0582
11088WAT      O45071   1.519   5.805   3.183  0.8006  0.0505 -0.1727
11088WAT     H145072   1.580   5.773   3.129 -0.7596 -0.9866 -1.4174
11088WAT     H245073   1.507   5.886   3.154  2.6081  0.8347  1.0617
11088WAT    EPW45074   1.527   5.812   3.171  0.8371  0.0131 -0.1742
11089WAT      O45075   1.949   2.950   2.390  0.1616  0.1642 -0.5112
11089WAT     H145076   1.904   3.005   2.441  0.8458  1.2124 -0.9892
11089WAT     H245077   1.960   2.880   2.440  0.3340  0.9439  0.5860
11089WAT    EPW45078   1.944   2.948   2.405  0.2882  0.4342 -0.4197
11090WAT      O45079   1.747   5.224   3.957  0.0818  0.4988 -0.0330
11090WAT     H145080   1.708   5.167   4.010  0.9469  0.4646  0.5923
11090WAT     H245081   1.825   5.188   3.943  0.8713  1.8193  0.8692
11090WAT    EPW45082   1.753   5.210   3.962  0.3262  0.6888  0.1927
11091WAT      O45083   2.479   5.394   2.935  0.0798 -0.1406 -0.5732
11091WAT     H145084   2.453   5.422   2.857 -0.5811 -2.8086 -1.4183
11091WAT     H245085   2.413   5.416   2.988 -0.3846 -0.0716 -1.1735
11091WAT    EPW45086   2.466   5.402   2.931 -0.0864 -0.5245 -0.7867
11092WAT      O45087   1.623   2.120   0.332  0.0628 -0.7713 -0.0874
11092WAT     H145088   1.557   2.125   0.389  1.4165 -0.0862  1.4978
11092WAT     H245089   1.694   2.117   0.382  1.4014  0.8835 -1.7222
11092WAT    EPW45090   1.624   2.120   0.347  0.4605 -0.4257 -0.0947
11093WAT      O45091   1.280   3.822   3.272 -0.1396  0.3839 -0.0286
11093WAT     H145092   1.258   3.788   3.194  1.7337 -1.3940  0.1335
11093WAT     H245093   1.211   3.872   3.292 -1.0773  0.2229 -2.4064
11093WAT    EPW45094   1.266   3.824   3.263 -0.0014  0.0975 -0.3559
11094WAT      O45095   2.319   3.180   2.500  0.4620 -0.1072 -0.4498
11094WAT     H145096   2.233   3.193   2.506  0.5679  0.6157 -0.4822
11094WAT     H245097   2.345   3.176   2.584  0.4750  0.2083 -0.4378
11094WAT    EPW45098   2.310   3.181   2.514  0.4796  0.0462 -0.4528
11095WAT      O45099   2.295   6.118   2.857 -0.5251 -0.0149  0.6207
11095WAT     H145100   2.274   6.201   2.840  2.0761  0.6190 -0.0199
11095WAT     H245101   2.271   6.076   2.784 -0.6861  0.4154  0.4234
11095WAT    EPW45102   2.289   6.124   2.843 -0.1646  0.1423  0.4969
11096WAT      O45103   2.372   2.554   4.103  0.2462 -0.3269  0.6612
11096WAT     H145104   2.440   2.609   4.100  0.8890 -1.1113  0.2298
11096WAT     H245105   2.409   2.476   4.090 -0.8178 -0.7222 -0.1003
11096WAT    EPW45106   2.388   2.550   4.101  0.1840 -0.5012  0.4850
11097WAT      O45107   2.544   2.772   4.072  0.0500  0.5038  0.4634
11097WAT     H145108   2.626   2.744   4.060 -0.0007 -1.0026  2.9136
11097WAT     H245109   2.554   2.844   4.122 -0.0809 -0.9521  2.7394
11097WAT    EPW45110   2.557   2.779   4.078  0.0231  0.0662  1.1616
11098WAT      O45111   1.002   4.424   2.885  0.4858  0.1693  0.3468
11098WAT     H145112   1.008   4.376   2.958  3.2901  3.1654  2.3620
11098WAT     H245113   1.042   4.375   2.826  4.4663  0.2494  2.6289
11098WAT    EPW45114   1.009   4.410   2.887  1.4880  0.6237  0.9816
11099WAT      O45115   0.896   3.196   3.666  0.6774 -0.0421  0.1840
11099WAT     H145116   0.834   3.206   3.726  0.5957  1.7566 -0.1500
11099WAT     H245117   0.897   3.110   3.653 -1.4590 -0.1841  0.5021
11099WAT    EPW45118   0.887   3.185   3.673  0.3497  0.2026  0.1816
11100WAT      O45119   1.689   1.814   4.317  0.0645 -0.0914  0.7435
11100WAT     H145120   1.646   1.887   4.337 -0.0719 -0.4536  1.7975
11100WAT     H245121   1.742   1.840   4.252 -0.2926  0.8322  0.7940
11100WAT    EPW45122   1.691   1.829   4.310 -0.0084 -0.0085  0.9066
11101WAT      O45123   2.230   3.869   3.670  0.3950  0.1234  0.0758
11101WAT     H145124   2.280   3.874   3.599  1.2160 -0.9163  0.5679
11101WAT     H245125   2.284   3.889   3.735  0.4076 -1.7160  0.6922
11101WAT    EPW45126   2.245   3.873   3.669  0.5181 -0.3019  0.2395
11102WAT      O45127   0.819   3.397   1.868  0.0790 -0.0071  0.6325
11102WAT     H145128   0.845   3.480   1.871  0.1498 -0.0385  0.9253
11102WAT     H245129   0.741   3.398   1.907 -0.0543 -0.0285  0.3683
11102WAT    EPW45130   0.811   3.409   1.874  0.0698 -0.0149  0.6368
11103WAT      O45131   1.385   4.195   3.855  0.1222  0.3019  0.2716
11103WAT     H145132   1.331   4.165   3.916 -0.4903 -0.3969 -0.5956
11103WAT     H245133   1.459   4.150   3.869  0.1096  0.4218  0.7309
11103WAT    EPW45134   1.388   4.184   3.866  0.0298  0.2164  0.2113
11104WAT      O45135   1.488   4.569   3.106 -0.9125 -0.5092 -0.2817
11104WAT     H145136   1.408   4.605   3.104 -0.7911 -0.0479  1.2559
11104WAT     H245137   1.490   4.528   3.183  0.5530  0.0446  0.0143
11104WAT    EPW45138   1.476   4.568   3.117 -0.6781 -0.3592 -0.0108
11105WAT      O45139   1.952   4.097   3.171  0.1826 -0.6920  0.3376
11105WAT     H145140   2.030   4.059   3.175  1.0273  0.9640  0.4894
11105WAT     H245141   1.971   4.182   3.158 -1.5544 -0.1226  1.2373
11105WAT    EPW45142   1.966   4.104   3.170  0.0508 -0.3633  0.4929
11106WAT      O45143   2.547   2.355   3.996  0.0405 -0.3460 -0.3651
11106WAT     H145144   2.543   2.389   3.916  1.2303  0.8994  0.0576
11106WAT     H245145   2.622   2.388   4.028 -1.0002  0.1593  1.6896
11106WAT    EPW45146   2.558   2.365   3.989  0.0625 -0.0874  0.0009
11107WAT      O45147   1.211   2.924   3.603  0.4703 -0.8819  0.0394
11107WAT     H145148   1.266   2.934   3.536  0.9379 -2.4138  0.1517
11107WAT     H245149   1.206   2.837   3.613 -1.1884 -0.7608  0.6890
11107WAT    EPW45150   1.218   2.912   3.595  0.2944 -1.0903  0.1520
11108WAT      O45151   2.258   3.602   0.297  0.3383 -0.4200  0.0842
11108WAT     H145152   2.216   3.525   0.299 -2.2557  0.7838 -1.9430
11108WAT     H245153   2.241   3.637   0.375 -1.0655 -0.6650 -0.0913
11108WAT    EPW45154   2.250   3.596   0.309 -0.2522 -0.2784 -0.2412
11109WAT      O45155   2.702   2.720   2.646  0.3282  0.3283  0.4066
11109WAT     H145156   2.718   2.636   2.629  0.3894  0.3021  0.5962
11109WAT     H245157   2.717   2.760   2.569  3.9770  0.7176  1.1767
11109WAT    EPW45158   2.706   2.714   2.632  0.8762  0.3820  0.5484
11110WAT      O45159   2.454   2.022   4.388  0.8095 -0.1981 -0.1362
11110WAT     H145160   2.507   1.984   4.446  1.1843  0.5361  0.0206
11110WAT     H245161   2.386   2.049   4.436 -0.2184 -1.9806 -0.4791
11110WAT    EPW45162   2.452   2.020   4.404  0.7130 -0.3529 -0.1637
11111WAT      O45163   1.239   4.967   2.980 -0.3653  0.0677 -0.3670
11111WAT     H145164   1.276   4.889   2.961 -0.1211  0.3422 -1.0786
11111WAT     H245165   1.194   4.951   3.053 -0.4243 -0.7801 -0.5694
11111WAT    EPW45166   1.238   4.953   2.988 -0.3379 -0.0170 -0.5020
11112WAT      O45167   0.947   4.317   4.078 -0.0337 -0.4847 -0.9461
11112WAT     H145168   0.887   4.268   4.117  2.2266 -3.0647 -0.3994
11112WAT     H245169   0.921   4.399   4.094 -2.4886 -1.4701  0.5871
11112WAT    EPW45170   0.934   4.322   4.086 -0.0625 -1.0114 -0.6389
11113WAT      O45171   1.565   4.123   4.504  0.5567  0.4701 -0.1265
11113WAT     H145172   1.651   4.108   4.510  0.0915 -2.3578  1.0232
11113WAT     H245173   1.534   4.050   4.468 -1.5089  0.7212  0.9850
11113WAT    EPW45174   1.574   4.110   4.500  0.1829  0.0894  0.2075
11114WAT      O45175   2.739   4.399   3.390 -0.1542  0.4058  0.1350
11114WAT     H145176   2.804   4.349   3.361 -0.3417  1.0834 -1.5934
11114WAT     H245177   2.689   4.344   3.435  0.2527 -0.7200 -0.7457
11114WAT    EPW45178   2.741   4.384   3.392 -0.1218  0.3396 -0.2504
11115WAT      O45179   1.302   3.339   0.695 -0.2004  0.5021  0.3464
11115WAT     H145180   1.331   3.294   0.764 -0.1906 -0.2910 -0.1650
11115WAT     H245181   1.356   3.408   0.693  0.6117 -0.1101  0.3888
11115WAT    EPW45182   1.314   3.342   0.705 -0.0790  0.2945  0.2771
11116WAT      O45183   1.090   1.669   3.555 -0.0403  0.5207  0.2134
11116WAT     H145184   1.048   1.631   3.622 -0.9081  0.5461 -0.3126
11116WAT     H245185   1.174   1.667   3.581 -0.0624 -1.6143  0.2660
11116WAT    EPW45186   1.096   1.663   3.569 -0.1717  0.2090  0.1435
11117WAT      O45187   2.035   2.777   5.487  0.2137  0.0209  0.1720
11117WAT     H145188   1.967   2.722   5.488 -1.6788  2.1660 -0.4168
11117WAT     H245189   2.074   2.761   5.411  1.2057 -2.0768  1.0433
11117WAT    EPW45190   2.031   2.767   5.476  0.0807  0.0279  0.2137
11118WAT      O45191   1.432   2.265   2.714 -0.4773  0.2258 -0.2018
11118WAT     H145192   1.396   2.210   2.772  1.1192 -0.8501 -0.1803
11118WAT     H245193   1.517   2.260   2.730 -0.1518  1.3824 -1.3792
11118WAT    EPW45194   1.439   2.256   2.725 -0.1934  0.2377 -0.3725
11119WAT      O45195   1.670   6.390   4.114  0.5939 -0.0428 -0.4995
11119WAT     H145196   1.725   6.411   4.050 -1.3379  1.2558 -1.8128
11119WAT     H245197   1.598   6.365   4.073  0.0731 -1.4726  1.1701
11119WAT    EPW45198   1.668   6.390   4.099  0.2316 -0.0622 -0.4469
11120WAT      O45199   0.827   3.533   2.442  0.4720  0.4308 -0.4630
11120WAT     H145200   0.742   3.542   2.462  0.1275 -0.1154 -1.5816
11120WAT     H245201   0.827   3.473   2.379  1.6581  0.7349 -0.7795
11120WAT    EPW45202   0.814   3.525   2.435  0.5963  0.3950 -0.6750
11121WAT      O45203   1.258   2.876   2.812 -0.0464 -0.0057  0.3004
11121WAT     H145204   1.259   2.955   2.847  1.5564  0.1057  0.0469
11121WAT     H245205   1.181   2.844   2.837  0.6195  0.3821  3.1884
11121WAT    EPW45206   1.247   2.883   2.821  0.2888  0.0680  0.6895
11122WAT      O45207   1.980   2.694   2.513 -0.0379 -0.5158 -0.4931
11122WAT     H145208   1.936   2.642   2.459  0.7301 -2.6187  0.7844
11122WAT     H245209   2.061   2.662   2.510  0.0882 -0.5360  1.6395
11122WAT    EPW45210   1.986   2.681   2.504  0.0942 -0.8294  0.0107
11123WAT      O45211   3.245   3.263   2.546  0.3946 -0.0061 -0.2411
11123WAT     H145212   3.222   3.191   2.590 -1.2461  0.1834 -0.7007
11123WAT     H245213   3.266   3.320   2.608 -1.5267  0.1378  0.3364
11123WAT    EPW45214   3.244   3.261   2.562 -0.1316  0.0431 -0.2237
11124WAT      O45215   3.042   4.608   3.869  0.4172 -0.8891 -0.1011
11124WAT     H145216   3.016   4.643   3.793  0.4573  0.4463  0.4630
11124WAT     H245217   2.972   4.566   3.897 -1.0151  1.9368  0.9796
11124WAT    EPW45218   3.028   4.607   3.862  0.2115 -0.2744  0.1419
11125WAT      O45219   2.080   4.785   2.628  0.1279 -0.3335 -0.4282
11125WAT     H145220   2.120   4.720   2.671  0.2863  0.9061  1.4318
11125WAT     H245221   2.114   4.780   2.548 -1.1500 -3.5714 -0.9060
11125WAT    EPW45222   2.091   4.775   2.623 -0.0375 -0.6287 -0.2240
11126WAT      O45223   0.992   3.131   2.555  0.0603 -0.0262  0.1456
11126WAT     H145224   1.078   3.113   2.551  0.0595 -0.2376  0.8397
11126WAT     H245225   0.987   3.191   2.618 -0.4660 -1.2575  1.3421
11126WAT    EPW45226   1.004   3.137   2.564 -0.0176 -0.2393  0.4249
11127WAT      O45227   1.909   4.727   2.965 -0.0702 -0.3178 -0.4227
11127WAT     H145228   1.952   4.775   3.025 -0.7679  0.4871 -0.5442
11127WAT     H245229   1.825   4.747   2.979 -0.2234  0.1624 -1.8877
11127WAT    EPW45230   1.903   4.737   2.976 -0.1959 -0.1280 -0.6571
11128WAT      O45231   2.516   4.554   2.986  0.2157 -0.3219  0.0527
11128WAT     H145232   2.453   4.506   3.023  1.2069 -0.7916  1.2225
11128WAT     H245233   2.549   4.599   3.053  1.1176 -0.0823 -0.5341
11128WAT    EPW45234   2.512   4.553   3.002  0.4953 -0.3559  0.1388
11129WAT      O45235   1.552   5.041   3.011 -0.0052  0.7852  0.0273
11129WAT     H145236   1.600   4.970   2.993 -1.0551 -0.1814  0.8713
11129WAT     H245237   1.508   5.055   2.937  0.2726  0.6126 -0.1719
11129WAT    EPW45238   1.553   5.032   2.997 -0.1193  0.6169  0.1226
11130WAT      O45239   2.831   3.842   2.478  0.6470  0.2909  0.1395
11130WAT     H145240   2.814   3.925   2.455 -0.4577 -0.4560 -2.0000
11130WAT     H245241   2.828   3.799   2.402  0.2726 -1.8766  1.3101
11130WAT    EPW45242   2.828   3.848   2.463  0.4285 -0.1396 -0.0036
11131WAT      O45243   1.369   3.081   3.328 -0.0786  0.0553  0.0258
11131WAT     H145244   1.427   3.046   3.274 -0.0780 -0.6061  0.4461
11131WAT     H245245   1.325   3.137   3.277  0.4727  0.0607 -0.4514
11131WAT    EPW45246   1.371   3.084   3.313  0.0029 -0.0416  0.0174
11132WAT      O45247   1.718   2.813   3.943 -0.0311  0.4131  0.1325
11132WAT     H145248   1.788   2.853   3.977  0.5044  1.0173 -1.5684
11132WAT     H245249   1.664   2.805   4.010  2.0896 -1.1204  1.7971
11132WAT    EPW45250   1.720   2.818   3.958  0.3612  0.2758  0.1271
11133WAT      O45251   1.654   4.115   3.884 -0.1823 -0.1571  0.2138
11133WAT     H145252   1.676   4.131   3.801  0.6953  2.7407  0.8939
11133WAT     H245253   1.668   4.029   3.892  3.9576  0.1051 -1.4919
11133WAT    EPW45254   1.659   4.104   3.873  0.5589  0.3097  0.0623
11134WAT      O45255   3.304   5.767   4.090  0.1622  0.3209  0.0675
11134WAT     H145256   3.365   5.738   4.146 -0.1100  0.6480  0.5461
11134WAT     H245257   3.245   5.805   4.142 -2.8162 -3.7568  0.1931
11134WAT    EPW45258   3.304   5.768   4.106 -0.3180 -0.2331  0.1568
11135WAT      O45259   0.554   5.311   3.801  0.1137  0.6545 -0.3482
11135WAT     H145260   0.531   5.363   3.735 -0.9882 -0.5165 -0.9275
11135WAT     H245261   0.541   5.361   3.872 -1.1904  1.0929 -0.8598
11135WAT    EPW45262   0.549   5.326   3.802 -0.2417  0.5463 -0.5093
11136WAT      O45263   2.552   5.239   4.890 -0.4710 -0.2517  0.4198
11136WAT     H145264   2.522   5.202   4.963  1.2029  1.0899  1.8659
11136WAT     H245265   2.620   5.189   4.868 -0.9645 -0.6454 -0.2338
11136WAT    EPW45266   2.558   5.226   4.898 -0.2966 -0.1117  0.5369
11137WAT      O45267   1.073   5.383   3.382 -0.0024 -0.1760 -0.0238
11137WAT     H145268   1.141   5.421   3.420  1.1104  0.0918 -2.1651
11137WAT     H245269   1.108   5.337   3.317 -1.8763  0.4781 -1.6003
11137WAT    EPW45270   1.088   5.382   3.378 -0.1148 -0.0398 -0.5730
11138WAT      O45271   1.735   2.866   4.597  0.0332 -0.7349 -0.3536
11138WAT     H145272   1.672   2.812   4.570 -0.2261  0.1121 -1.5404
11138WAT     H245273   1.786   2.815   4.646 -1.8647 -1.2921  1.1231
11138WAT    EPW45274   1.733   2.851   4.600 -0.2854 -0.6921 -0.3108
11139WAT      O45275   2.064   4.167   3.657 -0.3933 -0.2820  0.4595
11139WAT     H145276   2.096   4.247   3.667 -0.9885 -0.0915  0.8637
11139WAT     H245277   2.135   4.116   3.656  0.0065  0.2818 -0.1802
11139WAT    EPW45278   2.079   4.171   3.658 -0.4222 -0.1706  0.4247
11140WAT      O45279   1.738   2.851   2.233 -0.2579  0.2579  0.2464
11140WAT     H145280   1.793   2.820   2.173  1.4712  0.3874  1.6757
11140WAT     H245281   1.791   2.887   2.292 -1.9753  1.6905  0.9960
11140WAT    EPW45282   1.754   2.852   2.233 -0.2562  0.4886  0.5683
11141WAT      O45283   0.903   3.687   1.858 -0.6203 -0.2391 -0.4150
11141WAT     H145284   0.884   3.702   1.774 -2.5502  0.3694  0.0809
11141WAT     H245285   0.936   3.763   1.886 -0.7952 -0.1654 -0.4090
11141WAT    EPW45286   0.905   3.700   1.850 -0.9312 -0.1383 -0.3409
11142WAT      O45287   1.479   3.195   3.055  0.2081  0.2668 -0.2338
11142WAT     H145288   1.415   3.139   3.034  1.1773 -0.4571 -1.3823
11142WAT     H245289   1.447   3.272   3.031 -0.9188  0.1732  0.8319
11142WAT    EPW45290   1.465   3.198   3.048  0.1848  0.1460 -0.2461
11143WAT      O45291   2.592   4.615   3.274  0.1090  0.1303 -0.2648
11143WAT     H145292   2.643   4.552   3.307  0.6418 -0.2011 -1.6762
11143WAT     H245293   2.583   4.670   3.341 -1.2162 -1.9088  1.3758
11143WAT    EPW45294   2.598   4.614   3.289 -0.0081 -0.2199 -0.2309
11144WAT      O45295   1.732   2.680   0.864  0.0566 -0.1640  0.0756
11144WAT     H145296   1.744   2.731   0.934 -1.0712 -0.7912  0.7563
11144WAT     H245297   1.744   2.599   0.895 -1.9369 -0.5638 -0.0624
11144WAT    EPW45298   1.736   2.675   0.879 -0.4044 -0.3157  0.1558
11145WAT      O45299   2.197   2.952   4.285 -0.5769  0.0137 -0.5456
11145WAT     H145300   2.144   2.906   4.233 -0.9709  0.7035 -0.7574
11145WAT     H245301   2.159   3.030   4.291 -0.2072  0.1479  0.2687
11145WAT    EPW45302   2.184   2.956   4.278 -0.5805  0.1354 -0.4566
11146WAT      O45303   1.080   0.685   4.112  0.4296 -0.1172 -0.1751
11146WAT     H145304   1.025   0.618   4.121  0.8995 -0.6219 -0.9090
11146WAT     H245305   1.045   0.748   4.161 -0.7970 -0.4221 -0.6225
11146WAT    EPW45306   1.067   0.685   4.121  0.3178 -0.2368 -0.3496
11147WAT      O45307   1.362   3.805   2.815 -0.1577  0.1985  0.9859
11147WAT     H145308   1.296   3.821   2.870  1.2317  1.1323  2.4817
11147WAT     H245309   1.430   3.841   2.855  1.3654 -1.1691 -0.2562
11147WAT    EPW45310   1.362   3.813   2.829  0.2726  0.1344  1.0234
11148WAT      O45311   2.531   1.138   4.290  0.1173 -0.0756  0.0687
11148WAT     H145312   2.560   1.213   4.257  0.1107  0.1274  0.5150
11148WAT     H245313   2.449   1.133   4.262  0.2567 -0.1446 -0.3410
11148WAT    EPW45314   2.523   1.149   4.281  0.1369 -0.0558  0.0741
11149WAT      O45315   1.143   2.104   3.751  0.2384 -0.4284 -0.3070
11149WAT     H145316   1.190   2.055   3.697 -0.9638 -2.3965  0.3342
11149WAT     H245317   1.134   2.054   3.822  1.8713  2.0891  1.8838
11149WAT    EPW45318   1.149   2.090   3.754  0.3021 -0.3472  0.1113
11150WAT      O45319   3.194   4.536   3.575  0.1947  0.2648  0.0928
11150WAT     H145320   3.281   4.527   3.583  0.1282  0.4724  1.2999
11150WAT     H245321   3.177   4.500   3.498  1.4397  0.8012 -0.4661
11150WAT    EPW45322   3.204   4.529   3.565  0.3688  0.3747  0.1885
11151WAT      O45323   2.326   3.855   2.655  0.1968  0.0242 -0.0010
11151WAT     H145324   2.394   3.850   2.601  0.1259  2.6693 -0.4642
11151WAT     H245325   2.257   3.846   2.601  0.1460  0.5223 -0.0179
11151WAT    EPW45326   2.326   3.853   2.639  0.1788  0.4885 -0.0719
11152WAT      O45327   0.773   3.936   4.088 -0.2622 -0.5027  0.1564
11152WAT     H145328   0.784   3.864   4.136  0.0935  0.2105  1.1856
11152WAT     H245329   0.853   3.972   4.087 -0.5830  0.2177  0.2188
11152WAT    EPW45330   0.787   3.931   4.095 -0.2570 -0.2910  0.3177
11153WAT      O45331   2.093   4.541   3.325 -0.5143  0.6718 -0.0104
11153WAT     H145332   2.029   4.589   3.359 -1.3689  0.6528 -1.4974
11153WAT     H245333   2.051   4.484   3.274  0.6808  0.9173 -1.3497
11153WAT    EPW45334   2.077   4.540   3.322 -0.4640  0.7053 -0.4279
11154WAT      O45335   2.188   4.419   3.627  0.0256  0.1214 -0.1951
11154WAT     H145336   2.137   4.488   3.638 -0.7633 -0.2308 -1.3866
11154WAT     H245337   2.222   4.431   3.548  1.5001  0.1472  0.4168
11154WAT    EPW45338   2.185   4.431   3.617  0.1269  0.0732 -0.2807
11155WAT      O45339   1.845   3.819   2.496  0.3466  0.0495  0.2254
11155WAT     H145340   1.803   3.747   2.472 -0.5088  0.1941  1.2513
11155WAT     H245341   1.792   3.883   2.471 -0.0889  0.2331  1.5536
11155WAT    EPW45342   1.831   3.818   2.488  0.1559  0.0980  0.5731
11156WAT      O45343   1.711   3.117   2.183 -0.1251 -0.1319  0.4246
11156WAT     H145344   1.669   3.127   2.259  1.2178  0.2666  1.1406
11156WAT     H245345   1.727   3.032   2.179  1.0477  0.0199  1.3139
11156WAT    EPW45346   1.707   3.106   2.194  0.2466 -0.0506  0.6617
11157WAT      O45347   2.475   5.975   3.739  0.2804 -0.3089 -0.5558
11157WAT     H145348   2.517   5.924   3.796 -0.6859 -1.3409 -0.7216
11157WAT     H245349   2.528   5.976   3.669 -0.2219 -2.1337 -1.0112
11157WAT    EPW45350   2.489   5.968   3.737  0.0634 -0.7309 -0.6475
11158WAT      O45351   1.120   4.598   3.993  0.2561 -0.2098 -0.3000
11158WAT     H145352   1.039   4.606   4.024  0.5507  2.0910  0.0950
11158WAT     H245353   1.170   4.617   4.062  1.0200  0.9698 -1.1369
11158WAT    EPW45354   1.116   4.602   4.008  0.4124  0.3043 -0.3653
11159WAT      O45355   0.943   1.062   3.293 -0.3417 -0.6041  0.3402
11159WAT     H145356   0.936   1.138   3.335 -0.5517 -0.2204 -0.3875
11159WAT     H245357   0.957   1.005   3.358  1.3655  0.2496  0.8066
11159WAT    EPW45358   0.944   1.065   3.309 -0.1205 -0.4213  0.3016
11160WAT      O45359   0.992   1.463   1.629  0.5889  0.4654 -0.1862
11160WAT     H145360   1.032   1.533   1.660 -0.5951  0.5477  1.2726
11160WAT     H245361   0.965   1.488   1.550 -0.1219  1.8094  0.4412
11160WAT    EPW45362   0.994   1.477   1.622  0.3090  0.6761  0.1220
11161WAT      O45363   1.142   4.258   5.564 -0.8595  0.0402 -0.1256
11161WAT     H145364   1.227   4.271   5.547 -0.1473 -0.0504  2.8056
11161WAT     H245365   1.132   4.172   5.551  0.2674 -0.4923  1.9801
11161WAT    EPW45366   1.153   4.247   5.560 -0.5878 -0.0518  0.6184
11162WAT      O45367   2.807   5.236   1.763 -0.0874  0.0540  0.1094
11162WAT     H145368   2.800   5.322   1.747  0.7005 -0.0331 -0.7822
11162WAT     H245369   2.863   5.209   1.702 -0.3935 -1.1141  0.3362
11162WAT    EPW45370   2.814   5.245   1.752 -0.0162 -0.1314  0.0112
11163WAT      O45371   1.382   2.929   4.475 -0.3581 -0.0465  0.2699
11163WAT     H145372   1.418   3.001   4.441 -0.8820 -0.2727 -0.8337
11163WAT     H245373   1.334   2.960   4.541  0.8239  0.3942  0.9467
11163WAT    EPW45374   1.380   2.944   4.480 -0.2609 -0.0148  0.2068
11164WAT      O45375   2.589   2.056   3.707  0.5228  0.2534 -0.2763
11164WAT     H145376   2.596   2.055   3.794 -0.5794 -0.5927 -0.1780
11164WAT     H245377   2.609   1.974   3.684 -0.0670  0.2298 -0.7290
11164WAT    EPW45378   2.593   2.044   3.717  0.2729  0.1249 -0.3287
11165WAT      O45379   1.024   3.866   2.552  0.6924  0.8378  0.3049
11165WAT     H145380   1.031   3.814   2.483 -0.7639 -0.4788  1.0862
11165WAT     H245381   1.106   3.890   2.568  1.2499 -0.2048 -0.8286
11165WAT    EPW45382   1.037   3.862   2.544  0.5597  0.4893  0.2529
11166WAT      O45383   1.379   3.639   3.655 -0.3370 -0.0233  0.1998
11166WAT     H145384   1.327   3.704   3.680  0.3448  0.8688 -0.6518
11166WAT     H245385   1.460   3.670   3.668  0.0821 -1.8840  2.8360
11166WAT    EPW45386   1.384   3.653   3.661 -0.1743 -0.1663  0.4635
11167WAT      O45387   1.963   4.076   2.882 -0.1652  0.3636 -0.6168
11167WAT     H145388   1.977   4.065   2.967 -0.0773  0.8857 -0.5602
11167WAT     H245389   1.940   3.997   2.854 -0.9051  0.3494  0.0250
11167WAT    EPW45390   1.962   4.063   2.890 -0.2615  0.4386 -0.5136
11168WAT      O45391   0.950   3.482   4.021  0.1361 -0.2739  0.0522
11168WAT     H145392   0.988   3.539   3.967  2.0405 -1.9360 -0.4720
11168WAT     H245393   1.017   3.445   4.063 -1.0211 -2.1141  0.3969
11168WAT    EPW45394   0.966   3.485   4.020  0.2464 -0.7913  0.0257
11169WAT      O45395   2.058   3.506   3.074  0.3062 -0.7356 -0.4736
11169WAT     H145396   2.141   3.529   3.093  0.0678  0.0496 -0.3278
11169WAT     H245397   2.048   3.430   3.115  0.8030 -0.5880 -0.0658
11169WAT    EPW45398   2.069   3.498   3.083  0.3444 -0.5978 -0.3918
11170WAT      O45399   0.941   3.976   1.464 -0.0870 -0.8839 -0.0878
11170WAT     H145400   0.972   3.939   1.536  0.9983  0.2389  0.0652
11170WAT     H245401   0.934   4.060   1.486 -0.6292 -0.6742 -1.0040
11170WAT    EPW45402   0.944   3.983   1.478 -0.0067 -0.6871 -0.2005
11171WAT      O45403   1.881   4.126   3.458 -0.1844  0.1801  0.1887
11171WAT     H145404   1.951   4.128   3.510 -0.9333 -1.3250  1.3675
11171WAT     H245405   1.914   4.128   3.378  0.9645  4.1489  0.5837
11171WAT    EPW45406   1.896   4.127   3.454 -0.1253  0.5440  0.4211
11172WAT      O45407   1.775   2.488   2.067  0.0716  0.3857  0.2654
11172WAT     H145408   1.692   2.494   2.041  0.6944 -1.6695 -2.6530
11172WAT     H245409   1.810   2.564   2.043 -0.3381  0.1081 -1.3113
11172WAT    EPW45410   1.768   2.500   2.060  0.1031  0.0411 -0.3986
11173WAT      O45411   2.116   5.585   4.103  0.3355  0.3870 -0.4417
11173WAT     H145412   2.188   5.629   4.082  1.9857 -1.4305  0.9997
11173WAT     H245413   2.094   5.545   4.029  0.3993  1.4357 -1.0504
11173WAT    EPW45414   2.123   5.586   4.089  0.5887  0.2734 -0.3187
11174WAT      O45415   2.271   4.396   3.051 -0.3333 -0.3028 -0.1292
11174WAT     H145416   2.187   4.400   3.072 -0.8447 -0.1998 -2.0584
11174WAT     H245417   2.292   4.313   3.069 -0.4133  0.0561  1.7741
11174WAT    EPW45418   2.262   4.384   3.057 -0.4206 -0.2346 -0.1330
11175WAT      O45419   1.744   3.130   4.710 -0.0815  0.4504  0.3049
11175WAT     H145420   1.774   3.090   4.782  0.4950 -0.8997 -0.6549
11175WAT     H245421   1.740   3.067   4.651 -0.1212  1.6212 -1.0042
11175WAT    EPW45422   1.748   3.115   4.712 -0.0022  0.4239 -0.0303
11176WAT      O45423   2.423   2.893   3.850 -0.1157 -0.4979  0.0534
11176WAT     H145424   2.461   2.874   3.774  0.2617  0.0585  0.0966
11176WAT     H245425   2.461   2.838   3.907  0.1709 -0.3778 -0.0202
11176WAT    EPW45426   2.435   2.882   3.848 -0.0176 -0.3980  0.0489
11177WAT      O45427   1.666   3.788   2.160 -0.5809  0.2875  0.0856
11177WAT     H145428   1.671   3.795   2.073 -0.8847 -0.1611  0.0289
11177WAT     H245429   1.743   3.754   2.182 -0.2035  1.1038  0.0766
11177WAT    EPW45430   1.678   3.784   2.150 -0.5700  0.3418  0.0759
11178WAT      O45431   2.262   5.592   5.190  0.0566 -0.1251  0.4971
11178WAT     H145432   2.255   5.511   5.221  0.8011  0.1286  1.3550
11178WAT     H245433   2.284   5.640   5.260  2.2209  0.3832 -0.4274
11178WAT    EPW45434   2.264   5.587   5.205  0.4863 -0.0126  0.4873
11179WAT      O45435   2.220   4.578   2.747 -0.0558 -0.4918 -0.7788
11179WAT     H145436   2.145   4.553   2.785  1.5986 -0.9075  2.6560
11179WAT     H245437   2.257   4.628   2.808  1.0762  2.5258 -3.6752
11179WAT    EPW45438   2.215   4.581   2.762  0.3558 -0.1074 -0.6993
11180WAT      O45439   2.754   4.781   2.335  0.2973 -0.1775  0.5544
11180WAT     H145440   2.688   4.819   2.292 -0.5234 -2.1205  0.0246
11180WAT     H245441   2.822   4.834   2.318 -0.7632  1.0117 -0.1888
11180WAT    EPW45442   2.755   4.795   2.326  0.0194 -0.2889  0.3664
11181WAT      O45443   1.363   2.738   3.903  0.2320 -0.0937  0.1754
11181WAT     H145444   1.425   2.684   3.931  0.1474  0.3345  1.2674
11181WAT     H245445   1.407   2.799   3.859  0.6199  0.2125  0.9503
11181WAT    EPW45446   1.379   2.739   3.901  0.2768  0.0148  0.4512
11182WAT      O45447   1.846   3.570   1.165  0.4405  0.2531  0.2842
11182WAT     H145448   1.883   3.557   1.087 -0.6629  0.1262 -0.2367
11182WAT     H245449   1.864   3.497   1.209 -0.2845 -0.3628 -0.4142
11182WAT    EPW45450   1.854   3.558   1.160  0.1704  0.1434  0.1041
11183WAT      O45451   1.096   5.248   1.422 -0.1307 -0.3902 -0.4237
11183WAT     H145452   1.089   5.320   1.374 -0.8656 -1.6175 -2.2967
11183WAT     H245453   1.080   5.275   1.504 -1.1628  1.4190 -1.1744
11183WAT    EPW45454   1.092   5.263   1.427 -0.3917 -0.3042 -0.8113
11184WAT      O45455   1.407   4.419   7.480 -0.1961  0.0953 -0.0669
11184WAT     H145456   1.410   4.340   7.443 -2.9927  0.2085 -0.7643
11184WAT     H245457   1.343   4.411   7.539 -0.5534  1.8408 -0.1713
11184WAT    EPW45458   1.398   4.406   7.483 -0.6620  0.3699 -0.1853
11185WAT      O45459   1.410   4.035   7.809  0.3777 -0.2649  0.0971
11185WAT     H145460   1.475   4.039   7.867 -0.3900  1.9417  0.8682
11185WAT     H245461   1.343   4.006   7.855  0.3510 -0.8357 -0.2872
11185WAT    EPW45462   1.410   4.031   7.824  0.2603 -0.0233  0.1543
11186WAT      O45463   3.907   3.920   0.341  0.0897 -0.3361 -0.0361
11186WAT     H145464   3.821   3.923   0.354 -0.0407 -2.6309  0.0619
11186WAT     H245465   3.938   3.891   0.417  0.9852  0.6032 -0.0229
11186WAT    EPW45466   3.899   3.916   0.354  0.2027 -0.5363 -0.0197
11187WAT      O45467   1.258   2.007   1.074  0.0075  0.2795  0.7055
11187WAT     H145468   1.279   2.019   1.158  0.7619 -1.3914  0.8050
11187WAT     H245469   1.189   2.059   1.062  0.1748  0.9055  2.2244
11187WAT    EPW45470   1.251   2.016   1.085  0.1437  0.1252  0.9446
11188WAT      O45471   1.705   4.130   0.394 -0.3744 -0.0172  0.2999
11188WAT     H145472   1.658   4.152   0.464 -0.2266  1.4356 -0.0359
11188WAT     H245473   1.767   4.190   0.390  0.2802 -0.7111 -0.4713
11188WAT    EPW45474   1.707   4.142   0.404 -0.2559  0.0949  0.1364
11189WAT      O45475   0.723   5.182   7.116  0.1116  0.0845 -0.5386
11189WAT     H145476   0.700   5.229   7.047  0.1771  0.8625 -0.0447
11189WAT     H245477   0.777   5.121   7.083 -1.4190 -0.8182 -1.4602
11189WAT    EPW45478   0.728   5.180   7.101 -0.1048  0.0661 -0.6018
11190WAT      O45479   1.473   3.636   2.475 -0.0793  0.0111 -0.0706
11190WAT     H145480   1.545   3.603   2.513  0.0252 -1.8942 -1.7692
11190WAT     H245481   1.413   3.576   2.490 -0.6830  0.4202 -0.8124
11190WAT    EPW45482   1.475   3.623   2.483 -0.1530 -0.2100 -0.4311
11191WAT      O45483   1.382   3.614   0.940 -0.0748 -0.0475 -0.3182
11191WAT     H145484   1.399   3.569   0.867 -1.6278  0.8884 -1.3407
11191WAT     H245485   1.322   3.672   0.913 -0.8068  0.2197  1.7457
11191WAT    EPW45486   1.375   3.616   0.925 -0.4124  0.1302 -0.1643
11192WAT      O45487   0.888   3.399   1.121  0.1967 -0.5175 -0.2198
11192WAT     H145488   0.817   3.375   1.076  0.0326  1.6213 -1.2103
11192WAT     H245489   0.934   3.325   1.128 -1.9720 -1.9081  0.2359
11192WAT    EPW45490   0.885   3.384   1.116 -0.1479 -0.4070 -0.2988
11193WAT      O45491   2.225   3.550   1.044  0.4887 -0.0411 -0.2905
11193WAT     H145492   2.232   3.596   1.117 -0.3213 -0.4409  0.0504
11193WAT     H245493   2.299   3.567   1.002  2.0229 -1.5699  1.6266
11193WAT    EPW45494   2.237   3.559   1.048  0.5957 -0.3260  0.0430
11194WAT      O45495   2.708   2.642   7.499  0.5069 -0.5685 -0.4551
11194WAT     H145496   2.761   2.705   7.528 -2.9208  1.6756  1.5402
11194WAT     H245497   2.690   2.595   7.571 -1.7317  0.0201 -0.5600
11194WAT    EPW45498   2.713   2.644   7.514 -0.3302 -0.1501 -0.1759
11195WAT      O45499   1.204   2.234   0.759  0.0849 -0.0593  0.5094
11195WAT     H145500   1.206   2.148   0.774  1.1906 -0.1884 -0.2584
11195WAT     H245501   1.119   2.253   0.758 -0.2829 -1.5113 -1.1940
11195WAT    EPW45502   1.192   2.224   0.761  0.1939 -0.2929  0.1443
11196WAT      O45503   2.689   5.145   7.663 -0.5494 -0.0204  0.0422
11196WAT     H145504   2.723   5.068   7.683  1.9468  0.7628 -0.7891
11196WAT     H245505   2.656   5.174   7.739  1.7140 -0.3986  1.2320
11196WAT    EPW45506   2.689   5.138   7.677  0.1537  0.0394  0.0951
11197WAT      O45507   2.420   3.753   0.939  0.0532  0.1584 -0.2831
11197WAT     H145508   2.358   3.795   0.893 -0.8784 -0.2193  0.5936
11197WAT     H245509   2.493   3.771   0.895 -0.3247  2.5001 -0.1059
11197WAT    EPW45510   2.422   3.762   0.925 -0.1403  0.4485 -0.1274
11198WAT      O45511   1.037   1.141   0.696  0.2623  0.8596  0.1956
11198WAT     H145512   1.095   1.122   0.633  0.9024  1.0961  0.7014
11198WAT     H245513   0.995   1.066   0.709 -0.7897  1.1224 -1.4291
11198WAT    EPW45514   1.039   1.127   0.688  0.2014  0.9334  0.0303
11199WAT      O45515   3.104   2.112   0.759 -0.1106  0.2095  0.2721
11199WAT     H145516   3.159   2.170   0.795 -0.4875  1.0391 -0.4479
11199WAT     H245517   3.156   2.063   0.709  0.3480 -0.6715  1.5652
11199WAT    EPW45518   3.120   2.114   0.757 -0.0985  0.2019  0.3567
11200WAT      O45519   1.650   3.461   0.438 -0.3672  0.2430 -0.4092
11200WAT     H145520   1.636   3.444   0.353 -0.2524 -1.3805 -0.1496
11200WAT     H245521   1.732   3.491   0.439  0.0071 -0.6892 -0.8061
11200WAT    EPW45522   1.660   3.463   0.426 -0.2950 -0.1345 -0.4295
11201WAT      O45523   1.220   4.658   7.704 -0.9793 -0.1044  0.4379
11201WAT     H145524   1.215   4.623   7.784  0.3893  1.0813  1.0874
11201WAT     H245525   1.171   4.730   7.710 -0.1299  0.4797  0.5095
11201WAT    EPW45526   1.212   4.664   7.716 -0.6516  0.1570  0.5444
11202WAT      O45527   1.848   4.275   7.718  0.3179 -0.3631 -0.2921
11202WAT     H145528   1.924   4.237   7.700  0.2791 -1.1230  1.0440
11202WAT     H245529   1.792   4.238   7.663  0.8584  0.0713 -1.1595
11202WAT    EPW45530   1.851   4.264   7.707  0.3920 -0.4112 -0.2229
11203WAT      O45531   1.001   5.631   7.095  0.0969 -0.0752 -0.4786
11203WAT     H145532   0.947   5.697   7.111 -0.1810 -0.5042  0.4291
11203WAT     H245533   0.975   5.570   7.151  2.2922  0.1290  0.8470
11203WAT    EPW45534   0.989   5.632   7.105  0.3802 -0.1084 -0.1487
11204WAT      O45535   1.114   3.540   0.410 -0.0983 -0.0425 -0.1473
11204WAT     H145536   1.042   3.492   0.425 -1.0168  1.2299 -0.3317
11204WAT     H245537   1.107   3.606   0.466  2.5061 -1.3893  2.0145
11204WAT    EPW45538   1.102   3.543   0.421  0.1507 -0.0535  0.1448
11205WAT      O45539   1.134   2.441   1.675  0.3534 -0.5232  0.1727
11205WAT     H145540   1.111   2.493   1.741 -1.8782 -0.1397 -0.8000
11205WAT     H245541   1.118   2.489   1.605  1.0103 -1.5367 -0.6952
11205WAT    EPW45542   1.128   2.456   1.675  0.1208 -0.6163 -0.0992
11206WAT      O45543   1.486   3.779   0.275  0.1947 -0.0081  0.2070
11206WAT     H145544   1.571   3.769   0.293  0.1934  0.1134  0.2825
11206WAT     H245545   1.459   3.698   0.260  0.2626 -0.0758  0.4539
11206WAT    EPW45546   1.495   3.765   0.275  0.2045 -0.0001  0.2547
11207WAT      O45547   2.006   2.458   0.281 -0.3109  0.0123  0.3854
11207WAT     H145548   2.079   2.483   0.322  0.7820  2.1127 -2.4499
11207WAT     H245549   2.033   2.398   0.224 -0.9242  0.1625 -0.0837
11207WAT    EPW45550   2.021   2.453   0.279 -0.2401  0.3448 -0.1028
11208WAT      O45551   1.420   3.282   7.750 -0.5130  0.5303 -0.2435
11208WAT     H145552   1.425   3.359   7.791  0.6412 -0.0200  0.7108
11208WAT     H245553   1.338   3.256   7.768 -0.8764  1.4587 -0.4741
11208WAT    EPW45554   1.409   3.289   7.759 -0.3962  0.5862 -0.1366
11209WAT      O45555   1.408   2.785   2.556 -1.0138 -0.6079  0.5129
11209WAT     H145556   1.478   2.734   2.540 -0.0977  0.6670  0.2966
11209WAT     H245557   1.394   2.824   2.480 -1.3083 -0.0599  0.8445
11209WAT    EPW45558   1.417   2.783   2.542 -0.9220 -0.3386  0.5299
11210WAT      O45559   2.220   5.763   1.194  0.2942  0.3203 -0.2003
11210WAT     H145560   2.209   5.845   1.223  3.2655  0.0919  2.0639
11210WAT     H245561   2.207   5.770   1.108 -1.0860  2.7919  0.1098
11210WAT    EPW45562   2.216   5.776   1.186  0.5292  0.6517  0.1800
11211WAT      O45563   2.472   4.451   0.721  0.3956 -0.2663 -0.2469
11211WAT     H145564   2.399   4.402   0.716  0.4554 -0.4447  0.5707
11211WAT     H245565   2.441   4.532   0.728  0.2159 -0.4825  1.9467
11211WAT    EPW45566   2.456   4.456   0.721  0.3779 -0.3246  0.1979
11212WAT      O45567   1.059   2.632   1.888 -0.0578 -0.2813  0.0273
11212WAT     H145568   1.105   2.639   1.962 -2.1296 -0.2669  1.3969
11212WAT     H245569   0.996   2.576   1.908 -0.0465 -1.1511 -2.1136
11212WAT    EPW45570   1.056   2.625   1.902 -0.3622 -0.4076 -0.0866
11213WAT      O45571   0.820   3.773   7.031  0.4769  0.0232  0.2353
11213WAT     H145572   0.868   3.710   6.994 -1.2637 -0.9001 -0.5354
11213WAT     H245573   0.763   3.795   6.969  0.4420  1.7249  0.8177
11213WAT    EPW45574   0.819   3.767   7.017  0.2146  0.1382  0.2075
11214WAT      O45575   1.052   2.677   6.195 -0.2313  0.1046 -0.1145
11214WAT     H145576   1.137   2.672   6.211 -0.4703 -3.0540  1.0324
11214WAT     H245577   1.044   2.647   6.113 -0.2755 -1.3801  0.3884
11214WAT    EPW45578   1.063   2.672   6.185 -0.2732 -0.5813  0.1292
11215WAT      O45579   3.183   5.015   6.819 -0.5457 -0.1179  0.0405
11215WAT     H145580   3.158   5.080   6.872 -0.3210 -1.2583  1.6313
11215WAT     H245581   3.265   5.036   6.798 -1.4993  1.7369 -2.1652
11215WAT    EPW45582   3.192   5.027   6.824 -0.6534 -0.0124 -0.0503
11216WAT      O45583   1.595   3.870   2.938  0.8603 -0.1936  0.0512
11216WAT     H145584   1.607   3.944   2.983  0.2128  0.3151 -0.5950
11216WAT     H245585   1.650   3.878   2.871  0.1784  0.0983 -0.4815
11216WAT    EPW45586   1.605   3.882   2.935  0.6639 -0.0753 -0.1230
11217WAT      O45587   1.467   1.403   1.485  0.2330  0.0567 -0.3971
11217WAT     H145588   1.437   1.374   1.408 -3.4026  0.4565  0.6817
11217WAT     H245589   1.506   1.478   1.464 -0.7526  0.2003 -1.9148
11217WAT    EPW45590   1.468   1.410   1.470 -0.4497  0.1369 -0.4619
11218WAT      O45591   1.569   3.807   1.528 -0.1320 -0.4277  0.3795
11218WAT     H145592   1.599   3.827   1.608 -1.1650  0.9187  0.4714
11218WAT     H245593   1.630   3.839   1.475 -0.3276  0.3669  0.6104
11218WAT    EPW45594   1.583   3.815   1.532 -0.3135 -0.1114  0.4271
11219WAT      O45595   1.434   5.450   7.576  0.5564 -0.2032  0.1886
11219WAT     H145596   1.466   5.531   7.573  1.8018 -0.6669  0.2603
11219WAT     H245597   1.405   5.436   7.495  0.6614  0.1953  0.0799
11219WAT    EPW45598   1.435   5.460   7.564  0.7559 -0.2128  0.1831
11220WAT      O45599   2.448   3.450   0.812 -0.4804  0.0571  0.5208
11220WAT     H145600   2.485   3.384   0.769 -0.2373  0.7363 -0.3668
11220WAT     H245601   2.466   3.519   0.761 -3.6902  0.3359 -0.4894
11220WAT    EPW45602   2.456   3.451   0.798 -0.9186  0.1986  0.2405
11221WAT      O45603   1.996   4.732   0.391 -0.1898  0.2604 -0.0905
11221WAT     H145604   1.912   4.728   0.367  0.2850  0.8541 -2.1074
11221WAT     H245605   2.038   4.696   0.323  1.1628 -0.6977  1.2000
11221WAT    EPW45606   1.990   4.726   0.377  0.0801  0.2066 -0.1978
11222WAT      O45607   1.613   3.809   1.880 -0.0721 -0.2634  0.7320
11222WAT     H145608   1.681   3.849   1.842 -0.1498  1.3095  2.1296
11222WAT     H245609   1.544   3.855   1.853 -0.8089 -2.4850 -1.5244
11222WAT    EPW45610   1.613   3.822   1.870 -0.1924 -0.3592  0.6051
11223WAT      O45611   1.346   2.936   7.719  0.4198 -0.6215 -0.2162
11223WAT     H145612   1.303   2.888   7.660  0.2560 -0.7434  0.0012
11223WAT     H245613   1.413   2.884   7.742  0.2685 -0.7263 -0.0147
11223WAT    EPW45614   1.350   2.921   7.714  0.3732 -0.6550 -0.1543
11224WAT      O45615   2.150   3.991   1.139 -0.2408  0.0920 -0.7232
11224WAT     H145616   2.228   3.952   1.139 -1.1060 -1.7571 -0.3149
11224WAT     H245617   2.162   4.059   1.192  0.9421 -0.5464 -0.1140
11224WAT    EPW45618   2.163   3.995   1.147 -0.1939 -0.2754 -0.5729
11225WAT      O45619   0.503   3.419   0.057 -0.1839 -0.1723  0.1748
11225WAT     H145620   0.582   3.413   0.093 -0.7504 -0.0979  1.4604
11225WAT     H245621   0.471   3.338   0.064 -0.7153  0.0897  0.8265
11225WAT    EPW45622   0.510   3.406   0.063 -0.3461 -0.1226  0.4610
11226WAT      O45623   1.297   5.869   1.094  0.0959  0.8825  0.0131
11226WAT     H145624   1.309   5.948   1.128 -0.0152  1.6269 -1.5923
11226WAT     H245625   1.211   5.855   1.104 -0.6380  2.5828 -2.8541
11226WAT    EPW45626   1.286   5.878   1.100 -0.0289  1.2436 -0.6476
11227WAT      O45627   1.064   2.601   0.630  0.0501 -0.2739  0.6650
11227WAT     H145628   1.068   2.567   0.710  1.3756  1.5759  1.4606
11227WAT     H245629   1.109   2.676   0.637  1.1818 -0.5557 -2.0704
11227WAT    EPW45630   1.071   2.607   0.642  0.4131 -0.0423  0.3784
11228WAT      O45631   1.151   4.600   0.438 -0.0644 -0.1682 -0.1277
11228WAT     H145632   1.188   4.546   0.496  2.6172 -0.6021 -2.0375
11228WAT     H245633   1.104   4.546   0.388  0.1895 -0.3115 -0.2191
11228WAT    EPW45634   1.150   4.584   0.439  0.3692 -0.2534 -0.4233
11229WAT      O45635   1.311   3.406   1.599 -0.1780  0.0244  0.0917
11229WAT     H145636   1.257   3.375   1.660  1.5613 -0.1825  1.5876
11229WAT     H245637   1.327   3.336   1.549 -2.5760  0.4635 -1.4698
11229WAT    EPW45638   1.305   3.391   1.601 -0.2753  0.0587  0.0820
11230WAT      O45639   2.670   1.296   6.948  0.0480 -0.5528 -0.0769
11230WAT     H145640   2.735   1.353   6.955  0.4540 -0.9916 -0.2085
11230WAT     H245641   2.602   1.345   6.925  0.9227 -0.4074 -2.6370
11230WAT    EPW45642   2.670   1.312   6.945  0.2372 -0.5962 -0.4745
11231WAT      O45643   0.825   5.166   0.744 -0.3481  0.2336 -0.4561
11231WAT     H145644   0.858   5.086   0.747 -1.0034 -0.0500 -0.5561
11231WAT     H245645   0.785   5.174   0.821 -1.2114  0.0443 -0.8728
11231WAT    EPW45646   0.824   5.155   0.756 -0.5725  0.1637 -0.5324
11232WAT      O45647   1.602   4.341   2.273 -0.1602  0.1611 -0.5600
11232WAT     H145648   1.576   4.303   2.348  3.1193  1.2916  1.3417
11232WAT     H245649   1.597   4.276   2.215 -1.0887 -1.2894  1.0345
11232WAT    EPW45650   1.597   4.326   2.275  0.1871  0.1138 -0.0435
11233WAT      O45651   1.380   2.952   1.616 -0.1066  0.2424  0.2265
11233WAT     H145652   1.309   2.903   1.633 -0.6452  0.6621 -0.7162
11233WAT     H245653   1.423   2.905   1.556  0.1627  0.2058  0.4512
11233WAT    EPW45654   1.376   2.938   1.609 -0.1464  0.2990  0.1204
11234WAT      O45655   2.894   4.457   1.038  0.0655 -0.5141  0.3169
11234WAT     H145656   2.807   4.454   1.037  0.0655 -0.5667  0.4532
11234WAT     H245657   2.912   4.540   1.021 -0.0172 -0.4372  0.5921
11234WAT    EPW45658   2.884   4.469   1.035  0.0533 -0.5105  0.3777
11235WAT      O45659   1.732   2.638   7.553  0.4843  0.0435 -0.4662
11235WAT     H145660   1.683   2.584   7.504  0.0560  0.6650 -0.7454
11235WAT     H245661   1.799   2.589   7.578  0.7086 -0.2883 -1.6870
11235WAT    EPW45662   1.734   2.623   7.549  0.4541  0.0863 -0.6878
11236WAT      O45663   1.421   4.352   1.082 -0.7061 -0.6102  0.4783
11236WAT     H145664   1.468   4.285   1.112 -0.0681  0.1274  1.1720
11236WAT     H245665   1.420   4.407   1.149 -0.4929  0.4525 -0.3731
11236WAT    EPW45666   1.427   4.350   1.096 -0.5804 -0.3443  0.4550
11237WAT      O45667   0.811   4.366   2.174  0.0065 -0.3070 -0.4524
11237WAT     H145668   0.855   4.426   2.219  0.9940 -0.1267 -1.5943
11237WAT     H245669   0.825   4.389   2.091 -0.3506 -1.5868 -0.8927
11237WAT    EPW45670   0.820   4.378   2.168  0.0996 -0.4694 -0.6861
11238WAT      O45671   3.566   4.403   0.283 -0.2003 -0.0049  0.0876
11238WAT     H145672   3.626   4.340   0.293 -0.1384 -0.0059 -0.2972
11238WAT     H245673   3.547   4.401   0.198 -2.0876 -1.2432  0.4771
11238WAT    EPW45674   3.572   4.393   0.272 -0.4699 -0.1880  0.0883
11239WAT      O45675   1.787   3.988   1.751  0.5416  0.5056  0.2052
11239WAT     H145676   1.763   4.050   1.808  0.0518  0.8043 -0.3172
11239WAT     H245677   1.868   3.967   1.777  0.4251  0.8166  0.8531
11239WAT    EPW45678   1.795   3.994   1.763  0.4520  0.5957  0.2237
11240WAT      O45679   1.065   4.018   1.203 -0.4035  0.3930  0.0071
11240WAT     H145680   1.122   3.954   1.186 -1.2892 -0.2843 -0.5146
11240WAT     H245681   1.038   4.001   1.284  2.1449  2.3203  1.3875
11240WAT    EPW45682   1.069   4.006   1.212 -0.1579  0.5776  0.1340
11241WAT      O45683   2.157   3.707   1.285  0.0164 -0.3109  0.1336
11241WAT     H145684   2.152   3.770   1.345  0.5411  0.3254 -0.4753
11241WAT     H245685   2.237   3.673   1.297 -0.2683 -0.8694  0.4679
11241WAT    EPW45686   2.168   3.711   1.295  0.0519 -0.2994  0.0931
11242WAT      O45687   3.002   5.197   1.543  0.1981 -0.0356  0.3793
11242WAT     H145688   3.069   5.240   1.579 -0.2503  0.0966  1.0906
11242WAT     H245689   3.039   5.127   1.506  0.9993  1.1393 -1.1666
11242WAT    EPW45690   3.017   5.193   1.543  0.2502  0.1575  0.2560
11243WAT      O45691   0.890   2.524   0.231 -0.5651 -0.4510 -0.3502
11243WAT     H145692   0.897   2.559   0.151 -2.4113  0.6501 -0.1036
11243WAT     H245693   0.882   2.439   0.216  1.7790 -0.5961 -1.1264
11243WAT    EPW45694   0.890   2.517   0.217 -0.4915 -0.3098 -0.4284
11244WAT      O45695   1.011   4.381   0.830 -0.0469  0.0960  0.1280
11244WAT     H145696   1.083   4.332   0.842  1.5056  1.6737 -2.0268
11244WAT     H245697   0.966   4.337   0.769 -0.3293 -0.2938  0.6127
11244WAT    EPW45698   1.015   4.367   0.823  0.1407  0.2715 -0.1187
11245WAT      O45699   1.591   3.409   0.164  0.4328 -0.7586 -1.0658
11245WAT     H145700   1.518   3.442   0.200  1.7525  1.3240 -0.1252
11245WAT     H245701   1.567   3.329   0.139 -1.7919 -0.6553  0.4691
11245WAT    EPW45702   1.577   3.402   0.166  0.2992 -0.4357 -0.7001
11246WAT      O45703   1.191   2.381   1.326 -0.2445  0.5192  0.4355
11246WAT     H145704   1.234   2.402   1.253 -2.8380  1.4106 -0.9902
11246WAT     H245705   1.157   2.457   1.352 -1.2008 -0.1689  1.2707
11246WAT    EPW45706   1.192   2.396   1.319 -0.7688  0.5493  0.3483
11247WAT      O45707   1.755   3.090   3.596  0.1129 -0.0480 -0.0333
11247WAT     H145708   1.672   3.069   3.582  0.3856 -0.3999 -1.2217
11247WAT     H245709   1.754   3.177   3.603 -0.5366 -0.1461  1.4382
11247WAT    EPW45710   1.743   3.100   3.595  0.0572 -0.1145  0.0085
11248WAT      O45711   3.366   3.025   7.688  0.1559 -0.1253  0.1237
11248WAT     H145712   3.432   3.048   7.636 -0.1328 -1.4379 -0.8834
11248WAT     H245713   3.296   3.033   7.637 -0.2263 -0.6409  0.5491
11248WAT    EPW45714   3.365   3.029   7.673  0.0568 -0.3954  0.0378
11249WAT      O45715   2.455   4.146   0.497 -0.1370  0.1766  0.0317
11249WAT     H145716   2.415   4.211   0.538  1.2649  1.2433 -0.2236
11249WAT     H245717   2.453   4.081   0.555 -0.4027  0.8589  0.8052
11249WAT    EPW45718   2.449   4.146   0.511  0.0309  0.4350  0.1083
11250WAT      O45719   1.226   2.050   1.827  0.6263 -0.0416  0.6330
11250WAT     H145720   1.141   2.037   1.810  0.4445 -0.8376  1.9605
11250WAT     H245721   1.256   1.969   1.842  0.9306  0.4404  3.0245
11250WAT    EPW45722   1.217   2.036   1.827  0.6444 -0.0880  1.1824
11251WAT      O45723   2.256   2.943   7.554  0.1487 -0.1766  0.2566
11251WAT     H145724   2.215   3.006   7.599  1.3974  0.4068  0.6055
11251WAT     H245725   2.272   2.981   7.477  1.2762  0.0987  0.6128
11251WAT    EPW45726   2.252   2.958   7.549  0.4997 -0.0498  0.3608
11252WAT      O45727   0.999   2.141   1.041  0.3423  0.5830  0.7809
11252WAT     H145728   1.011   2.163   1.125  1.3143  2.5974  0.1596
11252WAT     H245729   0.932   2.086   1.045 -2.0858  3.3647  2.5607
11252WAT    EPW45730   0.991   2.136   1.054  0.1272  1.2915  0.9520
11253WAT      O45731   1.113   2.193   0.076 -0.0137  0.2971  0.3221
11253WAT     H145732   1.047   2.184   0.019 -0.2785 -2.2989  0.8926
11253WAT     H245733   1.072   2.206   0.152  0.2223  0.5534  0.4072
11253WAT    EPW45734   1.097   2.194   0.079 -0.0179 -0.0486  0.4189
11254WAT      O45735   1.715   3.652   0.847  0.0802 -0.2763 -0.3037
11254WAT     H145736   1.777   3.591   0.842  1.0427  0.7639 -1.8958
11254WAT     H245737   1.760   3.726   0.860 -0.9468  0.3071  0.1132
11254WAT    EPW45738   1.731   3.654   0.848  0.0706 -0.0365 -0.4773
11255WAT      O45739   1.184   5.464   0.915 -0.0507  0.0375  0.3086
11255WAT     H145740   1.259   5.478   0.871 -0.1965 -1.2329 -0.3785
11255WAT     H245741   1.130   5.433   0.854 -1.3515  1.4516  0.6651
11255WAT    EPW45742   1.187   5.462   0.899 -0.2644  0.0588  0.2598
11256WAT      O45743   1.506   2.965   0.992 -0.4485  0.4915  0.1118
11256WAT     H145744   1.539   2.983   1.071  0.2337 -0.9595  0.1857
11256WAT     H245745   1.574   2.974   0.939 -0.1441 -1.3228  0.1065
11256WAT    EPW45746   1.521   2.969   0.996 -0.3027  0.0092  0.1219
11257WAT      O45747   1.301   5.077   1.164  0.3912 -0.0163 -0.0182
11257WAT     H145748   1.219   5.067   1.135 -0.2411  0.2890  1.5566
11257WAT     H245749   1.321   5.159   1.140 -0.4567  0.5548  1.1232
11257WAT    EPW45750   1.292   5.088   1.156  0.1725  0.1131  0.3830
11258WAT      O45751   0.781   4.511   1.357 -0.2930  0.6851  0.6539
11258WAT     H145752   0.784   4.424   1.360 -0.1069  0.6752  0.2597
11258WAT     H245753   0.845   4.532   1.302 -1.9740  0.9137 -1.3680
11258WAT    EPW45754   0.791   4.501   1.349 -0.5138  0.7174  0.2970
11259WAT      O45755   0.937   3.688   1.582  0.6458  0.5225 -0.5812
11259WAT     H145756   0.999   3.730   1.538  0.3579  2.2005  0.5253
11259WAT     H245757   0.878   3.668   1.521  0.8010  1.7426 -1.1491
11259WAT    EPW45758   0.937   3.691   1.567  0.6262  0.9506 -0.5016
11260WAT      O45759   1.062   4.096   2.963  0.1768  0.5568 -0.2976
11260WAT     H145760   1.021   4.112   2.888 -1.1116 -0.0977  0.2353
11260WAT     H245761   1.144   4.122   2.948 -0.2224  1.0836 -1.6885
11260WAT    EPW45762   1.068   4.102   2.950 -0.0725  0.5380 -0.4244
11261WAT      O45763   1.467   4.138   1.973 -0.1417  0.3062  0.7279
11261WAT     H145764   1.549   4.112   1.958 -0.8942 -1.1666 -1.2993
11261WAT     H245765   1.443   4.092   2.043 -0.2233 -1.8772 -0.6280
11261WAT    EPW45766   1.475   4.128   1.981 -0.2649 -0.2339  0.2281
11262WAT      O45767   2.501   2.923   4.669  0.3129  0.0453  0.2178
11262WAT     H145768   2.559   2.871   4.628  1.2040  0.0291  1.4485
11262WAT     H245769   2.464   2.967   4.604 -0.2347 -1.8690 -0.8681
11262WAT    EPW45770   2.505   2.922   4.653  0.3637 -0.2398  0.2392
11263WAT      O45771   1.515   3.972   7.181 -0.7130  0.0147  0.5304
11263WAT     H145772   1.523   3.887   7.199 -0.8788 -0.2413 -0.5503
11263WAT     H245773   1.529   3.976   7.095 -1.2525  1.0109  0.4782
11263WAT    EPW45774   1.519   3.960   7.171 -0.8172  0.1241  0.3631
11264WAT      O45775   2.070   3.368   0.299  0.2458 -0.4839  0.1262
11264WAT     H145776   2.006   3.425   0.319  0.5119 -0.1464  0.0230
11264WAT     H245777   2.035   3.291   0.320 -0.3222 -0.3357 -0.2480
11264WAT    EPW45778   2.055   3.365   0.305  0.2012 -0.4122  0.0557
11265WAT      O45779   2.890   4.714   0.270 -0.1589  0.1583 -0.9318
11265WAT     H145780   2.884   4.627   0.273 -0.3463  0.0388 -3.3096
11265WAT     H245781   2.976   4.729   0.271 -0.1252 -0.0239 -0.5584
11265WAT    EPW45782   2.902   4.703   0.271 -0.1816  0.1137 -1.2279
11266WAT      O45783   2.102   4.720   2.361 -0.4963 -0.2840  0.1079
11266WAT     H145784   2.170   4.666   2.359  0.7943  0.9921  3.2845
11266WAT     H245785   2.036   4.669   2.386  0.0814 -0.8895  0.4150
11266WAT    EPW45786   2.102   4.705   2.364 -0.2203 -0.1849  0.6225
11267WAT      O45787   0.748   5.263   7.561 -0.5257 -0.4688 -0.2282
11267WAT     H145788   0.805   5.261   7.627  0.5771 -0.9103 -1.1552
11267WAT     H245789   0.730   5.347   7.552  2.7793  0.2016 -2.1653
11267WAT    EPW45790   0.753   5.275   7.569  0.1254 -0.4350 -0.6513
11268WAT      O45791   2.233   4.905   7.296  0.0070  0.1247 -0.0032
11268WAT     H145792   2.172   4.943   7.345 -1.3731  0.1497 -1.6747
11268WAT     H245793   2.229   4.947   7.220 -0.3072 -2.0975 -1.3097
11268WAT    EPW45794   2.223   4.917   7.292 -0.2433 -0.1999 -0.4431
11269WAT      O45795   2.297   4.008   0.281 -0.3432 -0.3240 -0.5896
11269WAT     H145796   2.355   4.050   0.332  1.3593 -3.0076 -0.1044
11269WAT     H245797   2.258   3.952   0.337  0.5615 -2.3490 -1.8677
11269WAT    EPW45798   2.300   4.006   0.297  0.0419 -1.0196 -0.7067
11270WAT      O45799   1.482   4.735   1.590 -0.1560  0.2464 -0.5121
11270WAT     H145800   1.466   4.789   1.656  1.1008  1.0453 -0.8272
11270WAT     H245801   1.448   4.659   1.617 -1.3528  1.0112  0.2220
11270WAT    EPW45802   1.474   4.731   1.604 -0.1472  0.4774 -0.4502
11271WAT      O45803   1.210   3.134   0.001 -0.2001 -0.6458 -0.2264
11271WAT     H145804   1.256   3.084  -0.054  0.5589 -1.2105  0.8800
11271WAT     H245805   1.180   3.078   0.060  1.4877  0.2592  1.6117
11271WAT    EPW45806   1.212   3.119   0.001  0.1613 -0.5956  0.2086
11272WAT      O45807   1.448   5.312   1.574 -0.0938 -0.1568  0.1420
11272WAT     H145808   1.477   5.296   1.655  0.2388 -0.4268 -0.0284
11272WAT     H245809   1.412   5.237   1.549 -0.3671 -0.0168  0.1049
11272WAT    EPW45810   1.447   5.299   1.582 -0.0850 -0.1760  0.1114
11273WAT      O45811   1.469   2.342   0.748 -0.1225  0.0367 -0.2773
11273WAT     H145812   1.478   2.279   0.808  0.9855  2.5689  2.4772
11273WAT     H245813   1.383   2.345   0.735 -0.5193 -0.1562  1.8128
11273WAT    EPW45814   1.458   2.333   0.755 -0.0175  0.3823  0.4384
11274WAT      O45815   1.013   6.037   7.329  0.7923 -0.4089 -0.5781
11274WAT     H145816   1.024   6.115   7.365  1.0760 -1.2944  1.4280
11274WAT     H245817   1.075   5.988   7.367  1.4459 -1.3470 -2.6942
11274WAT    EPW45818   1.024   6.041   7.340  0.9308 -0.6783 -0.5944
11275WAT      O45819   0.996   3.659   1.093  0.3349  0.0774  0.1697
11275WAT     H145820   0.970   3.576   1.092 -0.9180  0.4069  1.4330
11275WAT     H245821   1.081   3.654   1.114 -0.2243 -0.8628  2.5798
11275WAT    EPW45822   1.005   3.646   1.096  0.0672 -0.0128  0.7123
11276WAT      O45823   1.150   4.684   2.086 -0.3136 -1.0217 -0.6270
11276WAT     H145824   1.160   4.770   2.083  0.6929 -1.1504 -1.6051
11276WAT     H245825   1.134   4.668   2.171  0.5360  0.0244 -0.2526
11276WAT    EPW45826   1.149   4.694   2.098 -0.0394 -0.8862 -0.7162
11277WAT      O45827   2.432   4.800   1.630 -0.4683 -0.0208  0.2475
11277WAT     H145828   2.348   4.824   1.622 -0.5136  0.3987  1.5695
11277WAT     H245829   2.453   4.771   1.551 -2.2128 -1.2757  0.1844
11277WAT    EPW45830   2.422   4.800   1.617 -0.7327 -0.1442  0.4334
11278WAT      O45831   1.141   3.612   7.650 -0.2617  0.3558  0.0678
11278WAT     H145832   1.169   3.649   7.576 -1.9866  0.6901 -0.4586
11278WAT     H245833   1.060   3.586   7.630 -0.1703 -1.0101  1.3605
11278WAT    EPW45834   1.133   3.613   7.636 -0.5030  0.2034  0.1810
11279WAT      O45835   1.420   4.464   1.641 -0.0769  0.0922 -0.0448
11279WAT     H145836   1.393   4.470   1.724 -0.3501 -1.9285  0.0583
11279WAT     H245837   1.357   4.417   1.602  0.1188  0.8829 -1.3743
11279WAT    EPW45838   1.406   4.458   1.647 -0.0884 -0.0895 -0.2259
11280WAT      O45839   1.656   3.091   7.798  0.4296  0.4709  0.0896
11280WAT     H145840   1.575   3.122   7.806  0.4390  0.6539 -0.4634
11280WAT     H245841   1.645   3.005   7.799  0.3335  0.4897  0.9957
11280WAT    EPW45842   1.643   3.083   7.799  0.4168  0.5007  0.1417
11281WAT      O45843   3.313   4.677   0.866  0.1790 -0.8064 -0.4911
11281WAT     H145844   3.352   4.606   0.832  0.5594 -1.9704  2.1364
11281WAT     H245845   3.295   4.653   0.948 -0.0977  1.9991  0.3714
11281WAT    EPW45846   3.316   4.663   0.873  0.1943 -0.5639  0.0244
11282WAT      O45847   1.866   2.147   0.460  0.1059  0.0107  0.3247
11282WAT     H145848   1.822   2.214   0.494  1.1850  0.2418  1.3003
11282WAT     H245849   1.863   2.086   0.523 -1.5240 -1.2101 -0.8267
11282WAT    EPW45850   1.859   2.148   0.474  0.0246 -0.1355  0.2987
11283WAT      O45851   1.005   4.118   2.104  0.6453 -0.3746  0.3048
11283WAT     H145852   1.059   4.109   2.172  0.3254  0.8230  0.7478
11283WAT     H245853   0.952   4.183   2.129  0.7384  0.3219 -1.2388
11283WAT    EPW45854   1.005   4.126   2.118  0.6118 -0.0948  0.1422
11284WAT      O45855   2.483   3.031   2.057 -0.9156 -0.4421 -0.0353
11284WAT     H145856   2.481   3.100   2.005 -1.2695 -0.0845  0.4542
11284WAT     H245857   2.475   3.064   2.137  1.3420 -0.7993  0.4323
11284WAT    EPW45858   2.482   3.046   2.061 -0.6344 -0.4421  0.1061
11285WAT      O45859   1.118   1.952   0.736  0.3616  0.1005  0.0248
11285WAT     H145860   1.130   1.939   0.822  1.4671 -0.1950 -0.1617
11285WAT     H245861   1.118   1.871   0.703 -0.3684  0.1949 -0.2321
11285WAT    EPW45862   1.120   1.938   0.744  0.4171  0.0708 -0.0407
11286WAT      O45863   2.590   5.787   7.788  0.1055  0.0757 -0.4193
11286WAT     H145864   2.607   5.873   7.782  0.1493  0.0925 -0.0689
11286WAT     H245865   2.554   5.768   7.710 -0.7096  0.6039 -0.1889
11286WAT    EPW45866   2.587   5.797   7.775 -0.0085  0.1562 -0.3335
11287WAT      O45867   1.409   3.167   0.200 -0.1019  0.8191  0.4619
11287WAT     H145868   1.381   3.201   0.275 -0.9233  0.6142  0.2527
11287WAT     H245869   1.339   3.171   0.148  0.5244  1.1817 -0.3758
11287WAT    EPW45870   1.395   3.172   0.204 -0.1307  0.8424  0.3072
11288WAT      O45871   2.825   4.040   1.050 -0.0571 -0.1420  0.1107
11288WAT     H145872   2.837   4.086   1.123  1.7773  1.1472 -0.9222
11288WAT     H245873   2.845   3.959   1.074 -0.9372 -0.0163  1.3674
11288WAT    EPW45874   2.830   4.035   1.065  0.0839  0.0670  0.1438
11289WAT      O45875   1.069   3.392   0.813 -0.4555  0.0484 -0.3829
11289WAT     H145876   1.096   3.421   0.891 -0.2949  0.5610 -0.6193
11289WAT     H245877   1.142   3.395   0.765 -0.8480  1.1432 -0.9447
11289WAT    EPW45878   1.084   3.397   0.817 -0.4897  0.2858 -0.5008
11290WAT      O45879   3.818   5.007   7.477  0.0290 -0.3588 -0.2319
11290WAT     H145880   3.762   4.944   7.454 -0.5326  0.2446 -0.5462
11290WAT     H245881   3.772   5.080   7.468  0.7758  0.1281 -0.2041
11290WAT    EPW45882   3.803   5.008   7.472  0.0563 -0.1977 -0.2743
11291WAT      O45883   0.822   2.639   0.491 -0.1382  0.3069  0.1311
11291WAT     H145884   0.837   2.586   0.423 -0.1392 -0.6204  0.8451
11291WAT     H245885   0.895   2.631   0.539 -1.0088 -0.7039  1.3211
11291WAT    EPW45886   0.835   2.630   0.488 -0.2669  0.0206  0.4124
11292WAT      O45887   1.609   3.223   0.632  0.1955 -0.2907 -0.5374
11292WAT     H145888   1.642   3.247   0.555 -0.5238  0.8171 -0.5197
11292WAT     H245889   1.567   3.294   0.660  0.5842 -0.6025  0.9701
11292WAT    EPW45890   1.608   3.237   0.625  0.1467 -0.1731 -0.3121
11293WAT      O45891   1.771   2.836   7.347 -0.1698 -0.0344 -0.1007
11293WAT     H145892   1.827   2.902   7.351 -0.3926  0.1551 -0.1092
11293WAT     H245893   1.773   2.802   7.427  0.0336 -0.0938 -0.1296
11293WAT    EPW45894   1.779   2.841   7.359 -0.1727 -0.0152 -0.1062
11294WAT      O45895   3.229   5.298   1.677 -0.5950 -0.0114 -0.2791
11294WAT     H145896   3.307   5.260   1.683 -1.3377 -1.5622  0.1760
11294WAT     H245897   3.223   5.344   1.750  0.1861  0.7295 -0.6711
11294WAT    EPW45898   3.239   5.299   1.689 -0.5893 -0.1311 -0.2698
11295WAT      O45899   1.486   2.699   0.743 -0.3667  0.3072 -0.6810
11295WAT     H145900   1.456   2.617   0.744 -1.8473  0.7962 -1.4819
11295WAT     H245901   1.570   2.691   0.763 -1.0231 -1.1638  1.8416
11295WAT    EPW45902   1.494   2.686   0.746 -0.6824  0.1621 -0.4267
11296WAT      O45903   1.250   3.202   1.983 -0.4058  0.7764  0.4644
11296WAT     H145904   1.172   3.196   1.944  0.6942 -0.8931 -1.7422
11296WAT     H245905   1.284   3.275   1.949 -0.4564  0.7245  0.3000
11296WAT    EPW45906   1.243   3.212   1.972 -0.2508  0.5221  0.1141
11297WAT      O45907   3.002   4.975   0.192 -0.0667 -0.5820  0.5769
11297WAT     H145908   3.006   5.058   0.166  2.9413 -0.3765  1.3807
11297WAT     H245909   2.918   4.965   0.215 -1.1793  1.3357 -2.1085
11297WAT    EPW45910   2.990   4.986   0.191  0.2133 -0.2684  0.2989
11298WAT      O45911   2.712   3.559   7.415 -0.0049  0.5692  0.7648
11298WAT     H145912   2.713   3.521   7.336  0.0275  0.1144  0.9814
11298WAT     H245913   2.794   3.585   7.426  0.3435 -0.6478  1.2489
11298WAT    EPW45914   2.724   3.557   7.405  0.0514  0.3222  0.8683
11299WAT      O45915   2.357   3.912   2.917  0.0434  0.0391 -0.0434
11299WAT     H145916   2.330   3.882   2.839 -0.0191  1.6993 -0.7037
11299WAT     H245917   2.394   3.843   2.954  0.0937 -0.7928 -1.5677
11299WAT    EPW45918   2.358   3.897   2.911  0.0416  0.1614 -0.3661
11300WAT      O45919   0.742   3.203   1.635 -0.1178 -0.1614  0.7283
11300WAT     H145920   0.692   3.263   1.596 -0.1575 -0.0304  0.9781
11300WAT     H245921   0.790   3.250   1.690 -1.0504 -0.5059  1.8647
11300WAT    EPW45922   0.742   3.219   1.637 -0.2614 -0.1930  0.9331
11301WAT      O45923   2.056   3.625   0.018 -0.5983  0.2979 -0.2709
11301WAT     H145924   2.113   3.691   0.012  1.5961 -1.4638 -0.2240
11301WAT     H245925   2.049   3.612   0.104 -1.2371  0.6096 -0.2691
11301WAT    EPW45926   2.064   3.633   0.030 -0.3685  0.0837 -0.2637
11302WAT      O45927   1.507   3.819   1.111 -0.8572 -0.1675  0.0560
11302WAT     H145928   1.553   3.772   1.168  1.0439  1.2190 -0.2363
11302WAT     H245929   1.499   3.766   1.042  0.6932 -0.3377 -0.0261
11302WAT    EPW45930   1.513   3.804   1.109 -0.3474  0.0122  0.0007
11303WAT      O45931   1.613   4.236   0.642 -0.4527 -0.0921 -0.1574
11303WAT     H145932   1.527   4.247   0.637 -0.3466  1.0817  0.3535
11303WAT     H245933   1.640   4.305   0.687  0.2057 -2.7687  4.2288
11303WAT    EPW45934   1.604   4.248   0.648 -0.3397 -0.3141  0.5660
11304WAT      O45935   1.794   3.085   2.565 -0.0191 -0.3214 -0.1872
11304WAT     H145936   1.753   3.093   2.642 -0.5746  0.9857 -0.5975
11304WAT     H245937   1.731   3.101   2.506  0.5227 -0.7722 -0.9139
11304WAT    EPW45938   1.779   3.089   2.568 -0.0211 -0.1949 -0.3552
11305WAT      O45939   1.474   2.821   1.404  0.2928 -0.0320 -0.1046
11305WAT     H145940   1.473   2.738   1.429  1.3812 -0.2640 -0.7909
11305WAT     H245941   1.403   2.828   1.353  0.8348 -0.8484 -0.9915
11305WAT    EPW45942   1.463   2.810   1.401  0.5337 -0.1868 -0.3370
11306WAT      O45943   1.349   2.379   3.144 -0.7946  0.0945  0.2720
11306WAT     H145944   1.328   2.445   3.198  1.1464 -0.2336  1.5271
11306WAT     H245945   1.410   2.413   3.092 -0.6263 -0.3826  0.1514
11306WAT    EPW45946   1.355   2.394   3.144 -0.4830 -0.0245  0.4396
11307WAT      O45947   2.358   4.519   1.035 -0.0625 -0.2915  0.0683
11307WAT     H145948   2.307   4.557   1.094  1.2262  1.8253 -0.0594
11307WAT     H245949   2.309   4.517   0.963 -0.5157  0.2221  0.3597
11307WAT    EPW45950   2.343   4.524   1.033  0.0609  0.0971  0.0925
11308WAT      O45951   1.075   3.031   1.396  0.2835  0.5833  0.4413
11308WAT     H145952   1.041   3.033   1.476 -0.6065  0.7320  0.0759
11308WAT     H245953   1.101   3.113   1.381 -0.8918  0.8986  0.0362
11308WAT    EPW45954   1.074   3.043   1.405 -0.0216  0.6518  0.3275
11309WAT      O45955   0.960   3.404   2.649 -0.0779  0.1879 -0.1201
11309WAT     H145956   0.980   3.481   2.684  1.6676 -0.5365  0.6282
11309WAT     H245957   0.915   3.424   2.578 -0.1829  1.8700  0.3776
11309WAT    EPW45958   0.956   3.418   2.644  0.1645  0.3294  0.0640
11310WAT      O45959   1.354   4.131   0.601  0.7306 -0.2808  0.5048
11310WAT     H145960   1.333   4.189   0.540 -1.2230 -0.5201  0.8999
11310WAT     H245961   1.342   4.054   0.562  1.1616 -0.4386  0.6741
11310WAT    EPW45962   1.349   4.129   0.586  0.5057 -0.3395  0.5882
11311WAT      O45963   1.857   3.935   0.870 -0.6860 -0.2537 -0.4626
11311WAT     H145964   1.867   3.919   0.955 -0.8629 -0.3564 -0.4599
11311WAT     H245965   1.773   3.959   0.863 -0.6364 -0.1153 -0.5876
11311WAT    EPW45966   1.846   3.936   0.881 -0.7048 -0.2484 -0.4806
11312WAT      O45967   1.368   5.563   0.741  0.3512 -0.1588  0.1386
11312WAT     H145968   1.431   5.512   0.710 -1.7859 -2.2653 -1.0696
11312WAT     H245969   1.337   5.603   0.670  0.1438  0.6555  0.6748
11312WAT    EPW45970   1.373   5.561   0.726  0.0049 -0.3497  0.0393
11313WAT      O45971   3.299   3.916   0.667  0.3319 -0.9007 -0.2145
11313WAT     H145972   3.328   3.918   0.749 -0.9945 -0.9430  0.2801
11313WAT     H245973   3.371   3.928   0.619  1.2001 -1.3759  0.9313
11313WAT    EPW45974   3.314   3.918   0.672  0.2642 -0.9772  0.0279
11314WAT      O45975   1.029   2.722   7.388 -0.3014 -0.0660  0.0750
11314WAT     H145976   1.076   2.759   7.324  0.3528  0.4032  0.8075
11314WAT     H245977   0.963   2.778   7.399 -0.8436 -0.5273 -0.6847
11314WAT    EPW45978   1.026   2.736   7.380 -0.2848 -0.0648  0.0710
11315WAT      O45979   2.455   4.145   3.055 -0.7048  0.0732 -0.1767
11315WAT     H145980   2.452   4.087   2.989  1.5990 -1.0690  0.5787
11315WAT     H245981   2.512   4.108   3.110 -1.1592  1.8813  1.5819
11315WAT    EPW45982   2.463   4.131   3.053 -0.4316  0.1716  0.1946
11316WAT      O45983   1.116   3.790   0.555  0.4346 -0.4103 -0.4296
11316WAT     H145984   1.159   3.842   0.500  0.0153  1.2281  0.7204
11316WAT     H245985   1.033   3.816   0.549  0.6167  1.2563  2.3423
11316WAT    EPW45986   1.110   3.801   0.546  0.3995  0.0779  0.1497
11317WAT      O45987   3.912   3.945   1.441 -0.5387 -0.2956  0.3658
11317WAT     H145988   3.895   4.021   1.401 -1.6541 -0.5519  0.3218
11317WAT     H245989   3.887   3.885   1.383  0.2034 -0.7104  0.4567
11317WAT    EPW45990   3.906   3.948   1.427 -0.5939 -0.3947  0.3727
11318WAT      O45991   1.737   3.296   7.629 -0.0625 -0.0960  0.2020
11318WAT     H145992   1.677   3.348   7.666 -0.9652 -0.3280 -0.8655
11318WAT     H245993   1.720   3.218   7.663 -1.0237 -0.3488 -0.7960
11318WAT    EPW45994   1.725   3.292   7.639 -0.3379 -0.1676 -0.1031
11319WAT      O45995   2.307   2.785   0.541  0.0424 -0.4520 -0.0132
11319WAT     H145996   2.230   2.814   0.513  0.2109  2.0020  1.7276
11319WAT     H245997   2.365   2.830   0.495  0.3514  0.0993  0.8774
11319WAT    EPW45998   2.304   2.796   0.530  0.1130 -0.0080  0.3755
11320WAT      O45999   2.543   2.685   0.684  0.4179 -0.4091  0.2899
11320WAT     H146000   2.469   2.692   0.639  0.3741 -3.8767 -0.4249
11320WAT     H246001   2.600   2.730   0.636 -0.6418  0.0084 -0.6307
11320WAT    EPW46002   2.540   2.693   0.670  0.2549 -0.8596  0.0483
11321WAT      O46003   2.456   2.711   7.392  0.1553  0.4918  0.1616
11321WAT     H146004   2.396   2.726   7.454  0.2490 -0.0629  0.3895
11321WAT     H246005   2.526   2.685   7.437 -0.4790 -2.1988 -0.2784
11321WAT    EPW46006   2.457   2.709   7.408  0.0754  0.0124  0.1303
11322WAT      O46007   1.329   2.679   0.251  0.4254 -0.1564 -0.7865
11322WAT     H146008   1.272   2.629   0.294  0.8398  1.0720  1.3283
11322WAT     H246009   1.386   2.703   0.312  2.8877 -0.7716 -2.6746
11322WAT    EPW46010   1.329   2.675   0.266  0.8503 -0.0658 -0.7530
11323WAT      O46011   1.286   4.292   0.842  0.2201  0.4320 -0.3317
11323WAT     H146012   1.339   4.294   0.911 -1.4926  1.1125  1.0420
11323WAT     H246013   1.313   4.223   0.797  0.8428 -0.5686  1.4906
11323WAT    EPW46014   1.298   4.282   0.845  0.0591  0.3847  0.1404
11324WAT      O46015   1.590   2.466   7.411 -0.0677 -0.0403 -0.6299
11324WAT     H146016   1.563   2.414   7.475  0.6703  0.0386 -0.2511
11324WAT     H246017   1.517   2.479   7.364 -0.5294 -0.4058 -0.0340
11324WAT    EPW46018   1.575   2.460   7.413 -0.0269 -0.0827 -0.4859
11325WAT      O46019   2.372   4.246   1.678 -0.9031 -0.4355  0.2488
11325WAT     H146020   2.385   4.304   1.741 -1.1320 -0.4470  0.3066
11325WAT     H246021   2.453   4.223   1.654 -0.8156 -1.1509  1.1938
11325WAT    EPW46022   2.386   4.251   1.683 -0.9240 -0.5429  0.3969
11326WAT      O46023   2.693   3.118   0.268  0.0818  0.1692  0.0494
11326WAT     H146024   2.631   3.057   0.274 -0.0084  0.2881  0.3470
11326WAT     H246025   2.650   3.192   0.283  0.4512  0.1764  1.1411
11326WAT    EPW46026   2.678   3.120   0.271  0.1230  0.1878  0.2547
11327WAT      O46027   0.993   2.869   2.948 -0.0958  0.5035 -0.0624
11327WAT     H146028   1.003   2.791   2.987 -0.8475  0.7900  0.7387
11327WAT     H246029   0.963   2.849   2.869  0.7610 -0.0659 -0.2542
11327WAT    EPW46030   0.990   2.855   2.942 -0.0803  0.4617  0.0276
11328WAT      O46031   1.401   3.045   0.656  0.5036  0.2851 -0.7584
11328WAT     H146032   1.475   3.084   0.633  0.2085  0.0643 -2.1666
11328WAT     H246033   1.380   3.083   0.732  2.0570  0.3208 -0.3305
11328WAT    EPW46034   1.409   3.056   0.664  0.6895  0.2577 -0.9032
11329WAT      O46035   0.690   2.652   0.795  0.3942  0.0767  0.2136
11329WAT     H146036   0.717   2.631   0.715 -3.2662  0.5413 -1.3614
11329WAT     H246037   0.673   2.738   0.789 -1.6629 -0.2277  0.8218
11329WAT    EPW46038   0.692   2.662   0.783 -0.4504  0.1004  0.0708
11330WAT      O46039   1.987   3.737   3.634  0.2084  0.4578  0.0309
11330WAT     H146040   2.052   3.795   3.640  0.3973  0.2844 -0.2919
11330WAT     H246041   1.917   3.786   3.620  0.5749  0.5511 -1.6912
11330WAT    EPW46042   1.986   3.752   3.633  0.2905  0.4460 -0.2712
11331WAT      O46043   2.316   2.801   2.194  0.9436 -0.5957 -0.0582
11331WAT     H146044   2.374   2.843   2.144  0.3218 -3.3538 -3.4215
11331WAT     H246045   2.255   2.862   2.209  1.1464  0.4018 -2.7638
11331WAT    EPW46046   2.316   2.816   2.189  0.8817 -0.8558 -0.9547
11332WAT      O46047   3.696   5.025   0.511  0.1520  0.3604  0.3842
11332WAT     H146048   3.640   5.010   0.577  1.8957  0.9620  2.0714
11332WAT     H246049   3.672   5.104   0.482 -1.3584 -0.3829 -0.5466
11332WAT    EPW46050   3.684   5.035   0.516  0.1864  0.3395  0.4959
11333WAT      O46051   1.124   1.665   2.136 -0.0445  0.2333  0.5767
11333WAT     H146052   1.150   1.730   2.187 -0.8558  1.4153 -0.4621
11333WAT     H246053   1.046   1.691   2.107 -0.1239 -0.9250 -0.3248
11333WAT    EPW46054   1.116   1.678   2.139 -0.1761  0.2368  0.2901
11334WAT      O46055   1.437   3.990   1.752 -0.3253 -0.1884  0.3881
11334WAT     H146056   1.450   4.039   1.681 -0.3138  0.6102  0.9296
11334WAT     H246057   1.427   4.049   1.816 -0.7552 -0.8893  0.9783
11334WAT    EPW46058   1.437   4.006   1.751 -0.3871 -0.1740  0.5553
11335WAT      O46059   0.974   3.034   1.644  0.1794  0.1935  0.5388
11335WAT     H146060   0.904   3.078   1.615  0.1171 -0.4585 -0.3361
11335WAT     H246061   0.998   3.078   1.715 -0.0528  1.4797 -0.1561
11335WAT    EPW46062   0.967   3.047   1.650  0.1359  0.2872  0.3069
11336WAT      O46063   0.939   4.397   0.318  0.1322 -0.2552 -0.1074
11336WAT     H146064   0.950   4.409   0.232 -1.6623  2.6410 -0.0952
11336WAT     H246065   0.902   4.318   0.323 -0.7984 -0.0168 -2.1524
11336WAT    EPW46066   0.935   4.387   0.306 -0.2704  0.2079 -0.4077
11337WAT      O46067   2.279   4.558   7.490 -0.1573  0.3050 -0.0787
11337WAT     H146068   2.318   4.571   7.414  1.4801 -1.0637  0.4743
11337WAT     H246069   2.273   4.472   7.496 -1.4126  0.4255  0.8041
11337WAT    EPW46070   2.284   4.547   7.480 -0.1009  0.1206  0.1334
11338WAT      O46071   0.724   3.062   0.984  0.3045  0.1303 -0.2548
11338WAT     H146072   0.677   3.135   0.975 -0.0223  0.0687  0.8357
11338WAT     H246073   0.763   3.072   1.061 -1.8571 -1.9662  1.2734
11338WAT    EPW46074   0.723   3.074   0.994 -0.0631 -0.1885  0.1321
11339WAT      O46075   0.934   4.456   0.037 -0.0522 -0.2552 -0.1273
11339WAT     H146076   0.916   4.379   0.001 -0.2743 -0.3592  0.2001
11339WAT     H246077   0.908   4.514  -0.023  2.3119 -0.4187 -1.4546
11339WAT    EPW46078   0.928   4.453   0.023  0.2642 -0.2947 -0.2750
11340WAT      O46079   1.963   2.655   0.546  0.4557  0.2949  0.5657
11340WAT     H146080   2.013   2.649   0.475 -2.0844 -0.6490 -1.3240
11340WAT     H246081   2.012   2.701   0.602  3.4982 -0.9047 -0.8963
11340WAT    EPW46082   1.977   2.661   0.543  0.5299 -0.0218  0.0705
11341WAT      O46083   1.022   3.650   2.742 -0.0386 -0.0512 -0.3697
11341WAT     H146084   1.021   3.713   2.682  0.4639  0.1234 -0.1963
11341WAT     H246085   1.037   3.693   2.817 -0.0914 -0.3305 -0.1980
11341WAT    EPW46086   1.024   3.666   2.744  0.0279 -0.0667 -0.3187
11342WAT      O46087   1.176   3.195   3.724 -0.1898  0.3439  0.9362
11342WAT     H146088   1.097   3.219   3.696 -1.3313 -2.1989  1.6949
11342WAT     H246089   1.191   3.119   3.682  1.5156  0.3825  1.3933
11342WAT    EPW46090   1.167   3.187   3.713 -0.1065 -0.0260  1.1158
11343WAT      O46091   0.789   2.875   0.031 -0.3690  0.1689 -0.1570
11343WAT     H146092   0.773   2.834  -0.044  0.3713 -0.0458 -0.2088
11343WAT     H246093   0.876   2.868   0.040 -0.3727  0.7459  0.3983
11343WAT    EPW46094   0.799   2.868   0.021 -0.2602  0.2224 -0.0827
11344WAT      O46095   1.636   4.131   7.610  0.3724 -0.5405  0.2046
11344WAT     H146096   1.593   4.116   7.536  0.0352 -0.4785  0.3889
11344WAT     H246097   1.576   4.120   7.672  0.5181 -0.0585  0.4391
11344WAT    EPW46098   1.621   4.127   7.608  0.3441 -0.4602  0.2665
11345WAT      O46099   1.664   2.551   1.229 -0.0209  0.8182 -0.0186
11345WAT     H146100   1.607   2.557   1.164 -0.9253 -1.1627  0.5032
11345WAT     H246101   1.617   2.570   1.300 -0.1117 -0.8409  0.4168
11345WAT    EPW46102   1.649   2.554   1.230 -0.1679  0.2805  0.1228
11346WAT      O46103   0.910   3.088   0.528 -0.4367  0.1730 -0.4804
11346WAT     H146104   0.906   3.089   0.616 -0.1386  0.6596 -0.4712
11346WAT     H246105   0.868   3.014   0.507 -0.0107 -0.2481  0.1036
11346WAT    EPW46106   0.903   3.077   0.538 -0.3297  0.1827 -0.3928
11347WAT      O46107   1.355   3.540   0.263  0.5267  0.1220 -0.1759
11347WAT     H146108   1.287   3.535   0.318  0.8520 -2.0999  0.0871
11347WAT     H246109   1.318   3.538   0.184  0.1448  2.0913 -0.1153
11347WAT    EPW46110   1.339   3.539   0.260  0.5183  0.0847 -0.1281
11348WAT      O46111   0.867   2.797   2.034 -0.1145  0.6810 -0.2326
11348WAT     H146112   0.887   2.771   2.115 -1.6053 -1.4527 -0.4578
11348WAT     H246113   0.930   2.761   1.985 -1.0643 -1.0151 -0.3144
11348WAT    EPW46114   0.879   2.788   2.039 -0.4750  0.1153 -0.2780
11349WAT      O46115   2.990   4.041   7.618 -0.0769  0.2686 -0.1528
11349WAT     H146116   2.982   4.123   7.592 -2.7012  0.4079  0.7926
11349WAT     H246117   3.032   4.002   7.552  0.7380  2.2048 -0.8372
11349WAT    EPW46118   2.995   4.047   7.605 -0.3442  0.5752 -0.1142
11350WAT      O46119   2.090   5.567   0.709  0.5944 -0.0909  0.4161
11350WAT     H146120   2.086   5.480   0.712  0.2688 -0.1218 -0.3629
11350WAT     H246121   2.142   5.582   0.641 -2.6140  0.2415 -2.2607
11350WAT    EPW46122   2.097   5.556   0.699  0.0724 -0.0463 -0.0944
11351WAT      O46123   1.012   3.310   7.633 -0.3180 -0.1577  0.0978
11351WAT     H146124   1.092   3.303   7.600  0.2581  0.4719  1.2950
11351WAT     H246125   0.984   3.227   7.637  0.0296 -0.3345 -0.8507
11351WAT    EPW46126   1.019   3.297   7.629 -0.1816 -0.0908  0.1345
11352WAT      O46127   2.005   3.265   3.191  0.0130 -0.2842 -0.7352
11352WAT     H146128   1.938   3.235   3.237  1.4546 -0.8279  1.1548
11352WAT     H246129   2.061   3.198   3.190  2.2520  1.3583  1.4185
11352WAT    EPW46130   2.003   3.251   3.198  0.5567 -0.1219 -0.1378
11353WAT      O46131   1.726   2.766   0.118  0.1988 -0.4251 -0.5336
11353WAT     H146132   1.716   2.687   0.155 -0.4052 -0.4652 -0.7648
11353WAT     H246133   1.668   2.815   0.161 -0.6510 -0.5169 -1.5412
11353WAT    EPW46134   1.716   2.761   0.130 -0.0160 -0.4446 -0.7166
11354WAT      O46135   1.275   2.840   1.005  0.4379 -0.4700  0.3144
11354WAT     H146136   1.222   2.848   0.935 -0.5977 -2.4602  0.7947
11354WAT     H246137   1.347   2.882   0.980 -0.6468  0.7061 -1.1223
11354WAT    EPW46138   1.278   2.848   0.991  0.1247 -0.5903  0.1731
11355WAT      O46139   1.179   3.785   2.164  0.0642  0.2534  0.0289
11355WAT     H146140   1.255   3.742   2.171  0.4969  1.0182  0.2535
11355WAT     H246141   1.129   3.749   2.226  1.1985  1.5991  1.8517
11355WAT    EPW46142   1.183   3.773   2.175  0.2957  0.5652  0.3313
11356WAT      O46143   1.157   3.751   0.842 -0.3287 -0.3331 -0.5094
11356WAT     H146144   1.076   3.720   0.852  0.1306 -1.7323 -0.8556
11356WAT     H246145   1.166   3.757   0.755  0.5542 -2.0361 -0.5862
11356WAT    EPW46146   1.147   3.747   0.831 -0.1304 -0.7914 -0.5719
11357WAT      O46147   2.710   4.508   0.408 -0.0815  0.0297 -0.0901
11357WAT     H146148   2.674   4.433   0.380  0.7357 -0.6577  0.6376
11357WAT     H246149   2.771   4.481   0.464  0.3492  1.2477  0.0428
11357WAT    EPW46150   2.714   4.493   0.412  0.1028  0.1080  0.0370
11358WAT      O46151   2.134   4.699   1.190  0.2418 -0.3765  0.1003
11358WAT     H146152   2.098   4.620   1.178 -1.1169  0.3193 -0.6095
11358WAT     H246153   2.105   4.723   1.268 -1.3902  0.4127 -0.6923
11358WAT    EPW46154   2.124   4.691   1.199 -0.2000 -0.1571 -0.1216
11359WAT      O46155   0.764   4.749   0.279  0.7463 -0.3102 -0.2159
11359WAT     H146156   0.847   4.732   0.258  0.8909  0.4490 -0.2754
11359WAT     H246157   0.726   4.767   0.203  0.3820 -1.2378 -0.2591
11359WAT    EPW46158   0.771   4.749   0.265  0.7139 -0.3351 -0.2310
11360WAT      O46159   0.779   2.419   1.216  0.0958  0.4689 -0.1462
11360WAT     H146160   0.773   2.436   1.131 -1.1147  1.3605  0.0902
11360WAT     H246161   0.700   2.387   1.236 -0.2763  1.9941  0.9817
11360WAT    EPW46162   0.766   2.417   1.206 -0.1380  0.8259  0.0553
11361WAT      O46163   2.585   3.588   0.085 -0.0345  0.4244  0.1105
11361WAT     H146164   2.633   3.589   0.158  0.6150  1.7695 -0.3188
11361WAT     H246165   2.521   3.644   0.103 -2.2259 -2.1431  1.1135
11361WAT    EPW46166   2.582   3.596   0.099 -0.2623  0.2438  0.1952
11362WAT      O46167   2.171   1.704   1.633  0.2211  0.2384 -0.5024
11362WAT     H146168   2.107   1.711   1.692 -1.6443 -0.5955 -2.3109
11362WAT     H246169   2.168   1.779   1.589  1.7358  0.9424  0.4946
11362WAT    EPW46170   2.161   1.716   1.635  0.1693  0.2193 -0.6223
11363WAT      O46171   1.687   3.581   3.307  0.2611 -0.3380  0.0745
11363WAT     H146172   1.768   3.558   3.329  0.6714 -0.0297 -1.0390
11363WAT     H246173   1.645   3.504   3.302  1.6794 -1.0846 -3.8127
11363WAT    EPW46174   1.692   3.566   3.309  0.5312 -0.4028 -0.6642
11364WAT      O46175   1.081   3.101   0.290 -0.6775  0.2565  0.5648
11364WAT     H146176   1.139   3.138   0.344  0.7541  0.0584 -0.7763
11364WAT     H246177   1.006   3.107   0.334 -0.1542  2.9280  1.2590
11364WAT    EPW46178   1.078   3.107   0.305 -0.3887  0.6219  0.4692
11365WAT      O46179   1.950   4.493   2.855  0.0251 -0.0365  0.4334
11365WAT     H146180   1.898   4.473   2.788  1.3420  0.4112 -0.7966
11365WAT     H246181   1.925   4.574   2.878  1.3629  1.0140 -1.4698
11365WAT    EPW46182   1.939   4.502   2.848  0.4172  0.1848 -0.0295
11366WAT      O46183   0.904   3.366   0.458  0.1867  0.4259 -0.2029
11366WAT     H146184   0.843   3.368   0.395  0.8932  0.7404 -0.8885
11366WAT     H246185   0.922   3.281   0.466 -1.9760  0.0287  1.6527
11366WAT    EPW46186   0.897   3.354   0.450 -0.0284  0.4137 -0.0300
11367WAT      O46187   2.620   4.686   7.505 -0.1624  0.3274 -0.1595
11367WAT     H146188   2.571   4.733   7.451  1.1301  3.7283  1.3410
11367WAT     H246189   2.565   4.664   7.569 -0.7952 -0.3822 -0.9167
11367WAT    EPW46190   2.605   4.689   7.507 -0.0650  0.7250 -0.0497
11368WAT      O46191   0.864   4.996   7.011  0.2238 -0.2552  0.0955
11368WAT     H146192   0.947   4.979   6.988  0.3403 -1.2845  1.1423
11368WAT     H246193   0.834   4.918   7.036 -0.1494  0.5644  2.4940
11368WAT    EPW46194   0.872   4.982   7.011  0.1859 -0.2862  0.6044
11369WAT      O46195   1.974   4.782   1.437 -0.5783 -0.4408  0.3586
11369WAT     H146196   1.894   4.768   1.471 -0.9695  2.2837  0.8128
11369WAT     H246197   2.023   4.800   1.507 -0.1839  0.3131 -0.0992
11369WAT    EPW46198   1.969   4.783   1.452 -0.5778  0.0730  0.3581
11370WAT      O46199   1.689   4.875   1.449 -0.3288  0.1442  0.0419
11370WAT     H146200   1.701   4.919   1.524  0.1720 -2.0211  1.3092
11370WAT     H246201   1.640   4.807   1.473 -0.4041 -0.4501 -1.6799
11370WAT    EPW46202   1.684   4.872   1.464 -0.2660 -0.2634 -0.0252
11371WAT      O46203   1.402   3.200   0.907  0.2980 -0.3212 -0.1880
11371WAT     H146204   1.465   3.239   0.952 -0.4757  0.1301  0.5295
11371WAT     H246205   1.406   3.117   0.934 -0.3529  0.0029  0.9720
11371WAT    EPW46206   1.412   3.193   0.918  0.0875 -0.2067  0.0893
11372WAT      O46207   0.778   2.792   1.351 -0.2377  1.2354  0.3394
11372WAT     H146208   0.813   2.778   1.429 -0.2806  1.9495  0.4912
11372WAT     H246209   0.775   2.712   1.315 -0.4075  0.8720  1.1411
11372WAT    EPW46210   0.783   2.778   1.357 -0.2691  1.2872  0.4803
11373WAT      O46211   2.566   3.352   7.821  0.3017 -0.3283  0.3240
11373WAT     H146212   2.576   3.425   7.868  0.6713  0.4935 -0.9743
11373WAT     H246213   2.537   3.381   7.745  0.3065 -1.5726 -0.1716
11373WAT    EPW46214   2.564   3.367   7.817  0.3570 -0.3907  0.0590
11374WAT      O46215   1.994   3.282   7.498 -0.1360  0.2152 -0.0412
11374WAT     H146216   2.018   3.365   7.485  0.9053  0.3788  2.3699
11374WAT     H246217   1.930   3.288   7.557  0.7864 -0.6983  1.1101
11374WAT    EPW46218   1.988   3.295   7.505  0.1541  0.1044  0.4850
11375WAT      O46219   2.235   3.569   2.695  0.2490 -0.1860  0.2296
11375WAT     H146220   2.320   3.554   2.678 -0.1949 -0.6187 -1.8557
11375WAT     H246221   2.229   3.656   2.693  0.6574 -0.1423  0.5686
11375WAT    EPW46222   2.247   3.579   2.692  0.2438 -0.2435 -0.0284
11376WAT      O46223   1.652   3.538   1.796 -0.0659  0.2682  0.0554
11376WAT     H146224   1.632   3.623   1.798 -1.0355  0.0423  0.5039
11376WAT     H246225   1.587   3.501   1.839  0.5453 -0.6781  0.1873
11376WAT    EPW46226   1.640   3.545   1.802 -0.1189  0.0951  0.1411
11377WAT      O46227   0.877   6.378   0.137 -0.5282 -0.1183  0.0379
11377WAT     H146228   0.950   6.388   0.183  0.5274 -4.4031 -0.2659
11377WAT     H246229   0.888   6.431   0.068  1.9006 -0.0218  0.4352
11377WAT    EPW46230   0.889   6.387   0.133 -0.0135 -0.7370  0.0517
11378WAT      O46231   1.104   2.320   2.980  0.1710 -0.5656 -0.0431
11378WAT     H146232   1.163   2.325   3.044  0.2731 -0.6732 -0.1287
11378WAT     H246233   1.153   2.317   2.907  0.0502  0.0541 -0.1605
11378WAT    EPW46234   1.120   2.321   2.978  0.1682 -0.4899 -0.0731
11379WAT      O46235   1.925   0.454   6.198 -0.0763 -0.3543 -0.4030
11379WAT     H146236   1.985   0.513   6.176 -0.5996  0.0683 -0.7237
11379WAT     H246237   1.870   0.497   6.250  0.1637 -0.8736  0.3010
11379WAT    EPW46238   1.926   0.469   6.202 -0.1181 -0.3686 -0.3464
11380WAT      O46239   1.645   0.377   7.023 -1.1567  0.4076 -0.2761
11380WAT     H146240   1.721   0.358   6.986 -0.7921  0.0858  0.6247
11380WAT     H246241   1.618   0.448   6.979 -0.8311 -0.0736 -1.2688
11380WAT    EPW46242   1.652   0.385   7.011 -1.0548  0.2890 -0.2896
11381WAT      O46243   1.979   3.135   6.843  0.0353 -0.1751  0.1897
11381WAT     H146244   1.942   3.209   6.817  0.1346 -1.0858 -3.0248
11381WAT     H246245   2.052   3.161   6.882 -0.6320  1.4267  0.4435
11381WAT    EPW46246   1.984   3.150   6.845 -0.0486 -0.0730 -0.2477
11382WAT      O46247   1.547   2.558   7.016  0.6146 -0.3877 -0.4928
11382WAT     H146248   1.537   2.477   7.048 -1.8389  0.1965  0.4543
11382WAT     H246249   1.597   2.598   7.075 -2.9561  0.3683  2.3923
11382WAT    EPW46250   1.553   2.552   7.029 -0.2753 -0.1897  0.0733
11383WAT      O46251   0.805   0.890   7.601 -0.0607 -0.1022 -0.2914
11383WAT     H146252   0.763   0.960   7.571  0.7304  0.6244  0.2725
11383WAT     H246253   0.885   0.898   7.567 -0.0363 -0.8761 -0.4369
11383WAT    EPW46254   0.811   0.901   7.591  0.0598 -0.1092 -0.2296
11384WAT      O46255   1.990   2.277   7.655 -0.4114  0.6246  0.4947
11384WAT     H146256   2.073   2.283   7.630  0.3660  2.1296  3.0737
11384WAT     H246257   1.948   2.257   7.582  2.0761  0.9194 -1.1226
11384WAT    EPW46258   1.996   2.275   7.641  0.0709  0.8905  0.6368
11385WAT      O46259   2.709   0.629   6.050 -0.5372  0.2819  0.6397
11385WAT     H146260   2.749   0.705   6.066  0.3292  0.1609 -0.7299
11385WAT     H246261   2.652   0.650   5.987 -1.6139  0.1475  1.5478
11385WAT    EPW46262   2.707   0.644   6.043 -0.5682  0.2441  0.5715
11386WAT      O46263   0.904   1.979   6.879  0.1938 -0.5168 -0.2188
11386WAT     H146264   0.862   2.023   6.942  2.7234  0.9110  0.5946
11386WAT     H246265   0.902   2.033   6.811  1.2393 -0.1567  0.0284
11386WAT    EPW46266   0.897   1.994   6.878  0.7219 -0.2527 -0.0621
11387WAT      O46267   2.028   2.274   7.280 -0.0864 -0.9016 -0.2885
11387WAT     H146268   2.061   2.351   7.253  1.0014 -1.0219  0.6309
11387WAT     H246269   1.958   2.297   7.326  0.4714 -0.4131  0.3390
11387WAT    EPW46270   2.022   2.289   7.283  0.1567 -0.8472 -0.0600
11388WAT      O46271   2.313   2.018   5.552 -0.4866  0.2902 -0.9115
11388WAT     H146272   2.267   1.948   5.577  0.3316 -0.0367 -0.2803
11388WAT     H246273   2.332   2.058   5.627  1.5160 -0.3892 -1.0133
11388WAT    EPW46274   2.309   2.014   5.567 -0.0699  0.1415 -0.8333
11389WAT      O46275   1.820   0.535   7.312  0.3690 -0.1947 -0.0144
11389WAT     H146276   1.748   0.489   7.295 -0.0638  0.4822 -0.0507
11389WAT     H246277   1.806   0.567   7.392  0.7254 -0.2422  0.0663
11389WAT    EPW46278   1.807   0.533   7.321  0.3577 -0.1018 -0.0078
11390WAT      O46279   0.821   2.953   6.814  0.1618  0.0867 -0.0699
11390WAT     H146280   0.838   2.897   6.878 -0.4967 -1.9139 -1.5402
11390WAT     H246281   0.896   2.957   6.770  0.0899  0.0527 -0.1955
11390WAT    EPW46282   0.835   2.945   6.817  0.0539 -0.2138 -0.3057
11391WAT      O46283   1.209   1.402   6.616 -0.5209  0.2549  0.4191
11391WAT     H146284   1.242   1.363   6.687  0.6752  0.2579 -0.1100
11391WAT     H246285   1.159   1.340   6.580  0.9162 -0.6600 -0.1125
11391WAT    EPW46286   1.207   1.387   6.621 -0.1319  0.1202  0.2624
11392WAT      O46287   1.086   1.859   5.561  0.0415  0.0279 -0.3369
11392WAT     H146288   1.162   1.820   5.581  0.5296  1.2609  0.3379
11392WAT     H246289   1.038   1.795   5.527  2.0000 -0.4429 -2.4726
11392WAT    EPW46290   1.090   1.844   5.559  0.4029  0.1405 -0.5527
11393WAT      O46291   0.978   4.017   5.866 -0.1111  0.1542  0.4303
11393WAT     H146292   1.051   4.057   5.839 -0.5250  1.0004  0.5366
11393WAT     H246293   0.957   4.060   5.939 -0.2378 -0.6595  0.8889
11393WAT    EPW46294   0.986   4.029   5.873 -0.1910  0.1590  0.5138
11394WAT      O46295   2.862   0.183   7.468 -0.9558  0.1997 -0.1700
11394WAT     H146296   2.867   0.268   7.490 -0.5899 -0.3688  2.0978
11394WAT     H246297   2.808   0.184   7.399 -0.9186  2.2696 -0.2549
11394WAT    EPW46298   2.855   0.196   7.461 -0.8963  0.4215  0.1524
11395WAT      O46299   1.709   1.489   6.261 -0.4132  0.4335 -0.6921
11395WAT     H146300   1.768   1.553   6.261  0.7372 -0.5793 -0.9805
11395WAT     H246301   1.645   1.520   6.211 -0.0772  1.5258 -0.4634
11395WAT    EPW46302   1.709   1.503   6.254 -0.1936  0.4453 -0.7009
11396WAT      O46303   2.429   0.706   0.074 -0.0913 -0.1348 -0.1282
11396WAT     H146304   2.374   0.682   0.010 -1.8789 -0.8593  1.5845
11396WAT     H246305   2.396   0.782   0.101  0.3337 -0.1057  0.3079
11396WAT    EPW46306   2.416   0.714   0.068 -0.2926 -0.2375  0.1892
11397WAT      O46307   1.181   0.767   6.922 -0.1271 -0.1644 -0.6703
11397WAT     H146308   1.266   0.783   6.935 -0.2820  1.0603 -1.0481
11397WAT     H246309   1.169   0.690   6.961  1.1749 -0.4145 -0.6963
11397WAT    EPW46310   1.192   0.758   6.930  0.0424 -0.0204 -0.7300
11398WAT      O46311   1.812   1.273   6.088  0.2216  0.1597 -0.4174
11398WAT     H146312   1.764   1.326   6.138 -1.2313 -0.6260 -0.9244
11398WAT     H246313   1.789   1.295   6.007 -1.0547 -1.7512 -0.6334
11398WAT    EPW46314   1.801   1.285   6.083 -0.1816 -0.2386 -0.5242
11399WAT      O46315   0.723   2.088   7.536 -0.2034  0.1100  0.0164
11399WAT     H146316   0.743   2.039   7.606 -1.2738  0.1438  0.3615
11399WAT     H246317   0.799   2.126   7.516  0.3512 -0.6696  0.5446
11399WAT    EPW46318   0.737   2.086   7.544 -0.2796 -0.0002  0.1454
11400WAT      O46319   2.088   3.986   5.315 -0.2339 -0.2391  0.1997
11400WAT     H146320   2.072   3.911   5.274  2.5195 -1.2364  0.7055
11400WAT     H246321   2.141   4.029   5.260  1.5575 -0.5536  1.5839
11400WAT    EPW46322   2.094   3.981   5.301  0.4375 -0.4329  0.4789
11401WAT      O46323   1.326   2.583   6.262  0.4739  0.3100  0.5048
11401WAT     H146324   1.359   2.654   6.299  3.0721 -0.4164 -0.2063
11401WAT     H246325   1.357   2.518   6.312  0.7657 -0.4564 -0.6332
11401WAT    EPW46326   1.335   2.584   6.275  0.9008  0.0895  0.2317
11402WAT      O46327   1.217   0.841   7.246  0.2175 -0.7360 -0.1863
11402WAT     H146328   1.198   0.758   7.228 -1.6198 -0.4750  0.2998
11402WAT     H246329   1.185   0.851   7.327 -1.9940  1.1234 -1.2151
11402WAT    EPW46330   1.210   0.830   7.256 -0.3806 -0.4228 -0.2665
11403WAT      O46331   0.908   3.198   6.921  0.2690  0.3820  0.4106
11403WAT     H146332   0.857   3.131   6.897  0.7112  0.2216 -0.1074
11403WAT     H246333   0.971   3.198   6.861  1.4514 -0.0655  1.5821
11403WAT    EPW46334   0.910   3.188   6.909  0.5090  0.2922  0.5071
11404WAT      O46335   1.666   2.039   5.420  0.0213  0.0769 -0.1490
11404WAT     H146336   1.622   2.060   5.348  0.4441  1.2100 -0.0970
11404WAT     H246337   1.693   1.957   5.405 -0.3887  0.0907 -1.0182
11404WAT    EPW46338   1.663   2.030   5.407  0.0232  0.2463 -0.2697
11405WAT      O46339   0.782   2.514   7.435 -0.3156  0.0734  0.6351
11405WAT     H146340   0.701   2.482   7.427  0.2229 -1.0745 -0.7503
11405WAT     H246341   0.808   2.522   7.352  2.0217 -2.3832  1.0067
11405WAT    EPW46342   0.774   2.510   7.421  0.1092 -0.4590  0.4853
11406WAT      O46343   0.908   0.639   7.521  0.0365 -0.2243 -0.6453
11406WAT     H146344   0.852   0.572   7.529  2.6659 -2.5961 -0.4796
11406WAT     H246345   0.864   0.707   7.553 -1.9499 -2.3800  1.5665
11406WAT    EPW46346   0.893   0.639   7.527  0.1315 -0.8931 -0.2941
11407WAT      O46347   2.132   3.945   1.477  0.3481 -0.1009  0.1273
11407WAT     H146348   2.145   3.983   1.399  1.3267 -0.5739  0.0370
11407WAT     H246349   2.071   3.995   1.515 -0.4938 -0.1277 -1.1234
11407WAT    EPW46350   2.125   3.958   1.471  0.3683 -0.1747 -0.0708
11408WAT      O46351   0.774   2.154   7.051 -0.3643 -0.0679 -0.1603
11408WAT     H146352   0.847   2.185   7.087 -0.2667 -1.2719  0.7427
11408WAT     H246353   0.727   2.126   7.119 -2.8262  2.8472 -0.4380
11408WAT    EPW46354   0.778   2.154   7.066 -0.7135  0.1848 -0.0679
11409WAT      O46355   1.362   7.579   6.464  0.5265 -0.2326 -0.0230
11409WAT     H146356   1.413   7.547   6.400  0.8370 -0.1070  0.1606
11409WAT     H246357   1.405   7.650   6.491 -0.5832  0.8808 -1.0362
11409WAT    EPW46358   1.376   7.585   6.458  0.4085 -0.0495 -0.1456
11410WAT      O46359   2.073   3.101   6.568  0.7580  0.4031 -0.0389
11410WAT     H146360   2.022   3.105   6.639 -0.8815 -1.8488 -0.9694
11410WAT     H246361   2.019   3.119   6.503  2.0567  1.5885 -0.8638
11410WAT    EPW46362   2.058   3.104   6.569  0.7077  0.2456 -0.2982
11411WAT      O46363   1.107   3.130   6.341  0.2997  0.3629 -0.7424
11411WAT     H146364   1.150   3.190   6.294  1.1653  1.4130  1.2952
11411WAT     H246365   1.027   3.132   6.306  0.1580  3.0609 -0.5116
11411WAT    EPW46366   1.102   3.139   6.329  0.4066  0.9166 -0.4073
11412WAT      O46367   2.149   3.145   6.225 -0.4627  0.7143  0.4326
11412WAT     H146368   2.128   3.211   6.279  0.6973  1.8853 -0.4585
11412WAT     H246369   2.089   3.150   6.162 -0.8363  0.4111  0.7614
11412WAT    EPW46370   2.137   3.156   6.224 -0.3465  0.8425  0.3495
11413WAT      O46371   0.894   0.150   0.078  0.6002 -0.4078  0.0023
11413WAT     H146372   0.826   0.204   0.071  1.7369  1.1617  0.5286
11413WAT     H246373   0.881   0.110   0.155 -0.2103 -0.8567 -0.3587
11413WAT    EPW46374   0.882   0.152   0.089  0.6484 -0.2423  0.0267
11414WAT      O46375   2.435   1.218   6.091  0.6978  0.2295 -0.1491
11414WAT     H146376   2.424   1.255   6.169  0.1630  2.1724 -1.0852
11414WAT     H246377   2.359   1.178   6.077  1.0051 -0.6496  0.5358
11414WAT    EPW46378   2.422   1.218   6.101  0.6642  0.3866 -0.1862
11415WAT      O46379   1.611   2.286   0.132  0.0428  0.0177 -0.0301
11415WAT     H146380   1.627   2.232   0.199  2.2720  2.2201  1.3949
11415WAT     H246381   1.663   2.256   0.069  1.1928  0.3651  0.7148
11415WAT    EPW46382   1.621   2.274   0.133  0.5420  0.3944  0.2905
11416WAT      O46383   2.004   1.466   5.823 -0.3189  0.3083  0.4391
11416WAT     H146384   2.058   1.476   5.891 -0.6913 -0.1580  0.8093
11416WAT     H246385   2.024   1.386   5.792  0.3357  0.7909 -0.4426
11416WAT    EPW46386   2.015   1.456   5.828 -0.2772  0.3107  0.3635
11417WAT      O46387   2.215   1.097   7.040 -0.1278 -0.2570  0.3725
11417WAT     H146388   2.175   1.159   7.087 -0.9440  0.5867 -1.3495
11417WAT     H246389   2.152   1.040   7.023  0.1522 -0.5438  0.2956
11417WAT    EPW46390   2.200   1.098   7.044 -0.2070 -0.1747  0.1067
11418WAT      O46391   1.125   1.316   6.920 -0.4759 -0.3394 -0.2717
11418WAT     H146392   1.106   1.240   6.883 -2.0039  0.1804 -0.6437
11418WAT     H246393   1.054   1.365   6.903 -0.4795  0.4686  1.8344
11418WAT    EPW46394   1.112   1.312   6.912 -0.7022 -0.1432 -0.0155
11419WAT      O46395   0.863   3.128   6.210  0.2213 -0.1730  0.0557
11419WAT     H146396   0.896   3.072   6.152 -1.2413  0.1983 -1.2104
11419WAT     H246397   0.796   3.084   6.245 -0.7653  0.6292 -0.7477
11419WAT    EPW46398   0.858   3.113   6.207 -0.1405  0.0003 -0.2500
11420WAT      O46399   0.947   7.695   5.850 -0.3886  0.1737  0.5538
11420WAT     H146400   0.920   7.675   5.769 -2.9508  0.2791  1.3212
11420WAT     H246401   1.021   7.739   5.836  0.6680 -2.0003 -1.5896
11420WAT    EPW46402   0.954   7.698   5.836 -0.6110 -0.1319  0.3505
11421WAT      O46403   2.123   2.049   6.040  0.4810 -0.1206 -0.8991
11421WAT     H146404   2.103   2.113   5.984 -1.0253  1.5768  1.3846
11421WAT     H246405   2.064   2.058   6.103  1.5929 -2.4187  0.6108
11421WAT    EPW46406   2.111   2.060   6.041  0.4227 -0.2093 -0.3387
11422WAT      O46407   2.433   1.152   5.234  0.3237  0.0758 -0.2394
11422WAT     H146408   2.471   1.080   5.202 -0.3841  0.6283 -2.5295
11422WAT     H246409   2.352   1.148   5.201 -0.3206  0.9912  1.1577
11422WAT    EPW46410   2.426   1.141   5.224  0.1240  0.2926 -0.3713
11423WAT      O46411   2.535   3.732   6.826  0.1181 -0.5350 -0.0901
11423WAT     H146412   2.508   3.709   6.906 -1.1508 -1.1990 -0.6772
11423WAT     H246413   2.498   3.810   6.813  1.2535  0.0968  0.3978
11423WAT    EPW46414   2.525   3.740   6.836  0.0984 -0.5398 -0.1048
11424WAT      O46415   1.444   0.544   0.182 -0.0898  0.0258  0.7131
11424WAT     H146416   1.468   0.605   0.125 -0.3745  0.8883  1.4766
11424WAT     H246417   1.426   0.474   0.133  0.4767  0.4879 -0.1560
11424WAT    EPW46418   1.445   0.543   0.167 -0.0481  0.2215  0.6975
11425WAT      O46419   0.767   4.817   4.718 -0.0612 -0.2667  0.0719
11425WAT     H146420   0.699   4.865   4.689  0.1243 -0.0026  0.0695
11425WAT     H246421   0.826   4.877   4.739  0.3718 -0.5098 -0.4198
11425WAT    EPW46422   0.766   4.833   4.717  0.0302 -0.2636 -0.0011
11426WAT      O46423   1.051   4.208   6.809  0.4433  0.2214 -0.4428
11426WAT     H146424   1.001   4.180   6.875  1.7723 -0.8969  0.1489
11426WAT     H246425   1.132   4.193   6.837  1.1768  2.3924 -1.1741
11426WAT    EPW46426   1.056   4.202   6.823  0.7480  0.3769 -0.4634
11427WAT      O46427   1.686   0.502   6.012  0.5593  0.0975  0.6578
11427WAT     H146428   1.745   0.482   6.073  1.7605  0.9750 -0.1718
11427WAT     H246429   1.688   0.589   6.009 -1.5214  0.2200  1.2796
11427WAT    EPW46430   1.695   0.512   6.021  0.4294  0.2452  0.6271
11428WAT      O46431   1.397   1.517   7.670 -0.0498  0.0262  0.1745
11428WAT     H146432   1.459   1.495   7.612  0.0220  1.8477 -0.5267
11428WAT     H246433   1.325   1.480   7.637  0.0436  0.7966 -0.9952
11428WAT    EPW46434   1.395   1.509   7.656 -0.0254  0.4091 -0.1019
11429WAT      O46435   1.088   1.203   0.006  0.0990 -0.0339 -0.0099
11429WAT     H146436   1.086   1.213   0.092  0.0940 -0.1099 -0.0004
11429WAT     H246437   1.066   1.119  -0.005  0.8173 -0.2308 -0.0383
11429WAT    EPW46438   1.085   1.192   0.017  0.2043 -0.0742 -0.0127
11430WAT      O46439   1.026   1.897   0.283  0.0755  0.2928 -0.0878
11430WAT     H146440   1.077   1.873   0.216  0.1285  1.5549 -0.5393
11430WAT     H246441   1.068   1.967   0.316 -0.2356  0.0167  0.9310
11430WAT    EPW46442   1.040   1.904   0.278  0.0374  0.4385 -0.0040
11431WAT      O46443   1.082   2.891   6.785 -0.1640  0.0345 -0.1896
11431WAT     H146444   1.125   2.967   6.779 -1.6295  0.9379  0.4530
11431WAT     H246445   1.133   2.842   6.836  0.4725  0.8095 -0.0704
11431WAT    EPW46446   1.096   2.895   6.791 -0.2864  0.2824 -0.0771
11432WAT      O46447   1.637   1.067   0.341 -0.1909  0.0704  0.5712
11432WAT     H146448   1.636   1.126   0.405  0.6160 -0.2283  0.8823
11432WAT     H246449   1.583   1.005   0.370  1.8095 -1.1281  2.0820
11432WAT    EPW46450   1.629   1.066   0.355  0.2238 -0.1508  0.8404
11433WAT      O46451   1.510   2.302   7.103 -0.3762  0.1287 -0.1796
11433WAT     H146452   1.514   2.217   7.121 -1.0037  0.4062  1.4226
11433WAT     H246453   1.443   2.308   7.048 -0.4321 -0.3944 -0.1762
11433WAT    EPW46454   1.501   2.290   7.098 -0.4772  0.0924  0.0576
11434WAT      O46455   2.018   0.543   4.635  0.1805 -1.0267  0.5492
11434WAT     H146456   2.092   0.587   4.620 -1.0499  1.4774  1.1726
11434WAT     H246457   2.043   0.460   4.634  2.2894 -0.5648 -3.1144
11434WAT    EPW46458   2.033   0.537   4.633  0.3102 -0.5886  0.1001
11435WAT      O46459   1.745   1.376   7.233  0.0075  0.3256 -0.5952
11435WAT     H146460   1.724   1.292   7.235 -1.6975  0.7037 -1.1947
11435WAT     H246461   1.775   1.389   7.152 -0.3418  0.4236 -0.7104
11435WAT    EPW46462   1.746   1.366   7.222 -0.2960  0.3959 -0.7008
11436WAT      O46463   1.692   2.489   6.324  1.3067 -0.1438  0.0080
11436WAT     H146464   1.666   2.439   6.391  2.3428 -0.8113 -0.0771
11436WAT     H246465   1.655   2.566   6.341  0.3465 -0.7085  0.5649
11436WAT    EPW46466   1.683   2.493   6.337  1.3179 -0.3258  0.0777
11437WAT      O46467   1.489   2.824   5.453  0.8752 -0.4438 -0.1777
11437WAT     H146468   1.554   2.881   5.458  0.3468  0.3441 -1.5902
11437WAT     H246469   1.466   2.826   5.369  1.2598 -3.2466 -0.4483
11437WAT    EPW46470   1.495   2.832   5.441  0.8539 -0.7414 -0.4263
11438WAT      O46471   0.745   0.323   6.641  0.2590 -0.3453 -0.1638
11438WAT     H146472   0.768   0.342   6.559 -0.2370 -0.9273 -0.4461
11438WAT     H246473   0.721   0.239   6.636  1.5933 -0.8211  0.8700
11438WAT    EPW46474   0.745   0.313   6.628  0.3829 -0.5015 -0.0528
11439WAT      O46475   2.423   2.868   0.051  0.1129 -0.5015 -0.0386
11439WAT     H146476   2.440   2.855  -0.034  1.9630  0.2070  0.1786
11439WAT     H246477   2.354   2.921   0.050  1.2181  0.9881 -1.1708
11439WAT    EPW46478   2.415   2.874   0.038  0.5494 -0.1768 -0.1738
11440WAT      O46479   1.256   1.750   6.045  0.6419  0.2207 -0.0638
11440WAT     H146480   1.190   1.789   6.087  2.1567  0.3223  2.4068
11440WAT     H246481   1.297   1.816   6.005 -0.0108  0.3371 -0.5434
11440WAT    EPW46482   1.252   1.766   6.045  0.7693  0.2529  0.2303
11441WAT      O46483   1.800   1.335   6.470  0.2050  0.2830  0.8419
11441WAT     H146484   1.757   1.371   6.403  0.0964 -0.4053  0.5335
11441WAT     H246485   1.882   1.364   6.459  0.2967 -0.2172  0.1137
11441WAT    EPW46486   1.806   1.345   6.458  0.2025  0.1075  0.6888
11442WAT      O46487   2.064   1.288   6.205  0.0135 -0.4596  0.0258
11442WAT     H146488   1.981   1.282   6.179  0.5431 -0.6479 -1.7905
11442WAT     H246489   2.061   1.269   6.290 -1.8842  0.2626  0.1700
11442WAT    EPW46490   2.052   1.284   6.213 -0.1886 -0.3807 -0.2212
11443WAT      O46491   2.307   1.458   7.109  0.3905  0.0929 -0.3067
11443WAT     H146492   2.284   1.534   7.145  2.4492  0.4711  0.3416
11443WAT     H246493   2.239   1.406   7.127 -0.3469  1.3256  0.6792
11443WAT    EPW46494   2.294   1.462   7.117  0.5856  0.3309 -0.0653
11444WAT      O46495   2.971   1.396   5.890  0.4675  0.3732 -0.2585
11444WAT     H146496   2.935   1.317   5.890  0.3690  0.4109  0.3953
11444WAT     H246497   2.963   1.423   5.807 -0.5157  0.1645 -0.2336
11444WAT    EPW46498   2.965   1.388   5.878  0.3077  0.3479 -0.1583
11445WAT      O46499   1.684   1.104   7.198 -0.3022  0.1172  0.0257
11445WAT     H146500   1.727   1.049   7.251  1.1754  2.7226  1.7212
11445WAT     H246501   1.741   1.120   7.135 -0.7803 -0.3715 -0.5370
11445WAT    EPW46502   1.699   1.098   7.197 -0.1546  0.4299  0.1930
11446WAT      O46503   1.911   2.450   6.755  0.0610 -0.5247  0.1196
11446WAT     H146504   1.840   2.418   6.715  0.0500  0.4103 -0.6301
11446WAT     H246505   1.921   2.397   6.824 -0.3347 -1.7398 -0.7240
11446WAT    EPW46506   1.902   2.437   6.759  0.0009 -0.5661 -0.1158
11447WAT      O46507   1.424   0.505   6.673 -0.0513 -0.1060  0.2355
11447WAT     H146508   1.430   0.545   6.750 -0.6704  0.7602 -0.1445
11447WAT     H246509   1.488   0.445   6.675  1.7278  1.7081  0.3290
11447WAT    EPW46510   1.434   0.502   6.684  0.1201  0.2899  0.1932
11448WAT      O46511   0.952   2.804   0.988  0.3201 -0.2052  0.0813
11448WAT     H146512   0.923   2.863   0.931 -1.8097 -1.2499 -0.0233
11448WAT     H246513   0.879   2.766   1.017  1.4920 -1.3431  1.7176
11448WAT    EPW46514   0.937   2.807   0.984  0.1786 -0.5276  0.3076
11449WAT      O46515   0.978   7.332   5.170  0.6205 -0.4746 -0.4558
11449WAT     H146516   1.037   7.397   5.169 -0.1024  0.2958  1.6040
11449WAT     H246517   0.902   7.373   5.175  0.2231 -1.2926  3.7419
11449WAT    EPW46518   0.976   7.348   5.170  0.4550 -0.4816  0.4686
11450WAT      O46519   3.318   3.353   7.452  0.4461  0.3077 -0.1676
11450WAT     H146520   3.341   3.305   7.383  1.3906  0.9796 -0.3452
11450WAT     H246521   3.231   3.346   7.454  0.5312 -1.0531 -0.4332
11450WAT    EPW46522   3.309   3.345   7.442  0.5982  0.2059 -0.2331
11451WAT      O46523   1.750   3.313   5.769 -0.2063 -0.4574 -0.0693
11451WAT     H146524   1.809   3.334   5.708 -1.6354 -0.2261 -1.4539
11451WAT     H246525   1.674   3.329   5.729 -1.2233 -1.4498  1.3837
11451WAT    EPW46526   1.748   3.319   5.754 -0.5676 -0.5698 -0.0592
11452WAT      O46527   0.569   0.965   7.147  0.4651 -0.7371  0.1237
11452WAT     H146528   0.587   0.994   7.228  2.7970 -1.3719 -0.1060
11452WAT     H246529   0.590   1.033   7.096 -2.5100  0.2789  0.0055
11452WAT    EPW46530   0.575   0.980   7.151  0.3701 -0.6808  0.0723
11453WAT      O46531   0.878   1.201   4.880  0.5910  0.4320  0.3804
11453WAT     H146532   0.948   1.150   4.887  1.2220  1.0672 -0.8946
11453WAT     H246533   0.894   1.265   4.938 -0.3577 -0.9200  2.2146
11453WAT    EPW46534   0.891   1.203   4.889  0.5440  0.3261  0.4630
11454WAT      O46535   1.978   2.534   5.854  0.1093  1.0104 -0.0923
11454WAT     H146536   1.920   2.506   5.914  0.0847  0.8886 -0.1716
11454WAT     H246537   1.994   2.616   5.878  1.7678  0.3239  1.3921
11454WAT    EPW46538   1.971   2.542   5.867  0.3507  0.8910  0.1153
11455WAT      O46539   1.176   1.963   6.906  0.2438  0.0966 -0.4335
11455WAT     H146540   1.199   1.896   6.854  2.2803  1.1136 -0.9644
11455WAT     H246541   1.092   1.975   6.889  0.0718 -1.6929 -1.0478
11455WAT    EPW46542   1.167   1.955   6.896  0.5193 -0.0175 -0.6027
11456WAT      O46543   0.983   2.928   6.063  0.1349  0.2350 -0.6123
11456WAT     H146544   1.011   2.901   5.984  0.4228 -0.7735 -0.1822
11456WAT     H246545   1.014   2.868   6.117 -0.8244  0.4314  0.1775
11456WAT    EPW46546   0.992   2.915   6.059  0.0357  0.1150 -0.4321
11457WAT      O46547   1.277   2.666   7.567  0.0864 -0.0414  0.1635
11457WAT     H146548   1.260   2.671   7.652  0.9720  3.0256  0.2626
11457WAT     H246549   1.200   2.680   7.529 -0.4223 -1.9610  0.3555
11457WAT    EPW46550   1.263   2.669   7.574  0.1421  0.1281  0.2065
11458WAT      O46551   1.173   1.776   7.172  0.1100 -0.2110  0.8501
11458WAT     H146552   1.238   1.782   7.114 -0.2781  1.2992  0.5143
11458WAT     H246553   1.208   1.730   7.237  0.7219 -1.5138 -0.3421
11458WAT    EPW46554   1.188   1.770   7.173  0.1431 -0.1804  0.6244
11459WAT      O46555   1.121   0.897   7.515 -0.3176 -0.0686 -0.0213
11459WAT     H146556   1.138   0.978   7.543 -0.7849  0.3077 -0.8048
11459WAT     H246557   1.120   0.851   7.589  2.9258  0.0412  0.2051
11459WAT    EPW46558   1.123   0.903   7.530  0.0925  0.0032 -0.1036
11460WAT      O46559   0.580   7.607   0.349  0.1032 -0.2102  0.7753
11460WAT     H146560   0.588   7.621   0.263 -0.1273  0.4525  0.8555
11460WAT     H246561   0.639   7.546   0.365 -1.2128 -1.8463 -0.2112
11460WAT    EPW46562   0.590   7.600   0.339 -0.1252 -0.3540  0.6414
11461WAT      O46563   0.876   3.259   7.205  0.1586  0.2036  0.3528
11461WAT     H146564   0.870   3.252   7.118 -2.7039 -2.1517  0.6086
11461WAT     H246565   0.870   3.345   7.219  1.7956  0.7539 -1.7491
11461WAT    EPW46566   0.874   3.271   7.194 -0.0225 -0.0630  0.0801
11462WAT      O46567   1.504   2.298   7.650 -0.1912 -0.0767  0.2145
11462WAT     H146568   1.567   2.239   7.666  0.0023  0.3144  0.8982
11462WAT     H246569   1.462   2.305   7.726 -0.7798  0.0082 -0.1141
11462WAT    EPW46570   1.508   2.290   7.663 -0.2496 -0.0063  0.2669
11463WAT      O46571   0.963   0.927   7.109 -0.4052 -0.2272  0.2575
11463WAT     H146572   0.905   0.865   7.089 -0.1383 -1.4417  2.8523
11463WAT     H246573   1.028   0.883   7.146  0.9805  1.3935 -0.1154
11463WAT    EPW46574   0.964   0.911   7.111 -0.1611 -0.1672  0.5857
11464WAT      O46575   3.005   3.066   7.317  0.0254  0.4905 -0.0211
11464WAT     H146576   3.065   3.070   7.381  0.1151 -0.2554 -0.0596
11464WAT     H246577   2.946   3.010   7.347  0.7745 -0.9709 -1.1642
11464WAT    EPW46578   3.005   3.059   7.331  0.1493  0.1644 -0.1956
11465WAT      O46579   2.687   2.332   6.524 -0.6307 -0.8972 -0.1371
11465WAT     H146580   2.648   2.381   6.464  2.4670  2.2128  0.0943
11465WAT     H246581   2.751   2.292   6.481  0.5586  0.0349  0.6771
11465WAT    EPW46582   2.691   2.333   6.509  0.0026 -0.3001  0.0174
11466WAT      O46583   2.727   4.752   6.854  0.3961 -0.1663  0.2910
11466WAT     H146584   2.769   4.825   6.875  1.1317 -0.7376  0.8500
11466WAT     H246585   2.792   4.696   6.835 -0.1643 -0.5399 -0.5922
11466WAT    EPW46586   2.743   4.755   6.854  0.4220 -0.3058  0.2431
11467WAT      O46587   2.332   2.308   6.193 -0.6400  0.2647 -0.3565
11467WAT     H146588   2.292   2.376   6.157 -1.7313  0.3815  0.9814
11467WAT     H246589   2.401   2.344   6.232 -0.2290  0.3335 -1.1362
11467WAT    EPW46590   2.336   2.323   6.194 -0.7405  0.2921 -0.2740
11468WAT      O46591   1.086   2.142   6.340 -0.7797  0.2590  0.0033
11468WAT     H146592   1.119   2.075   6.294  0.2936  0.7568  0.0047
11468WAT     H246593   1.061   2.198   6.279 -0.1162  0.5650 -0.0010
11468WAT    EPW46594   1.087   2.140   6.324 -0.5231  0.3778  0.0028
11469WAT      O46595   1.962   0.601   6.786 -0.7056 -0.0358  0.5713
11469WAT     H146596   1.891   0.646   6.811 -1.0720 -0.1943 -0.1462
11469WAT     H246597   2.026   0.635   6.834 -1.0154  1.0905  0.2099
11469WAT    EPW46598   1.961   0.613   6.797 -0.8055  0.1071  0.4119
11470WAT      O46599   1.013   2.507   5.000  0.0828  0.2899 -0.1091
11470WAT     H146600   1.077   2.451   5.021 -0.0486  0.9524  2.5064
11470WAT     H246601   1.020   2.516   4.914  0.9819 -2.6489 -0.4479
11470WAT    EPW46602   1.024   2.500   4.991  0.1962 -0.0464  0.2272
11471WAT      O46603   1.275   1.774   7.666 -0.0658 -0.0753 -0.7977
11471WAT     H146604   1.297   1.700   7.707 -1.7107 -0.0060  0.3109
11471WAT     H246605   1.271   1.750   7.582 -1.5204 -1.5457 -0.3589
11471WAT    EPW46606   1.278   1.759   7.660 -0.5237 -0.2823 -0.5691
11472WAT      O46607   3.086   1.337   7.164 -0.7572 -0.0378  0.3256
11472WAT     H146608   3.151   1.387   7.195 -1.1012  1.1974 -0.8391
11472WAT     H246609   3.047   1.308   7.237 -1.5518  2.7732  1.1746
11472WAT    EPW46610   3.090   1.340   7.179 -0.9254  0.5599  0.2790
11473WAT      O46611   1.583   1.005   5.757  0.3304  0.1000 -0.5166
11473WAT     H146612   1.631   1.026   5.688 -0.0934 -0.0832 -0.8729
11473WAT     H246613   1.640   1.004   5.823  0.5715  1.1588 -0.7046
11473WAT    EPW46614   1.598   1.008   5.757  0.3034  0.2294 -0.5970
11474WAT      O46615   0.690   1.130   7.506  0.4681 -0.0352 -0.2833
11474WAT     H146616   0.680   1.185   7.573  0.5998 -1.5890  1.0720
11474WAT     H246617   0.741   1.175   7.450  0.0267  1.4506  0.4571
11474WAT    EPW46618   0.696   1.145   7.507  0.4224 -0.0452  0.0263
11475WAT      O46619   1.738   2.517   6.026 -0.5106 -0.1459  0.1683
11475WAT     H146620   1.666   2.549   5.987 -1.5341 -2.5765 -0.0696
11475WAT     H246621   1.711   2.498   6.106  0.0934 -0.3199  0.3318
11475WAT    EPW46622   1.723   2.519   6.032 -0.5726 -0.5307  0.1573
11476WAT      O46623   0.879   0.902   0.008  0.8008 -0.3820 -0.1911
11476WAT     H146624   0.845   0.906  -0.072  1.4394  0.6493 -0.4276
11476WAT     H246625   0.955   0.860  -0.004 -0.6087 -3.3482  0.4479
11476WAT    EPW46626   0.885   0.896  -0.005  0.6869 -0.6678 -0.1317
11477WAT      O46627   1.353   1.320   5.486 -0.0252 -0.5039 -0.4264
11477WAT     H146628   1.332   1.238   5.509 -0.4095 -0.0897  0.7800
11477WAT     H246629   1.329   1.367   5.556  1.0524  0.5204 -0.7291
11477WAT    EPW46630   1.346   1.315   5.500  0.0772 -0.2914 -0.2929
11478WAT      O46631   1.702   1.793   7.224 -0.3530 -0.1658 -0.1055
11478WAT     H146632   1.750   1.769   7.155  1.1717  2.6884 -0.1971
11478WAT     H246633   1.620   1.789   7.194  0.1483 -0.6901 -1.4975
11478WAT    EPW46634   1.697   1.789   7.209 -0.0537  0.1784 -0.3247
11479WAT      O46635   1.083   4.159   4.951  0.6439  0.0419  0.3129
11479WAT     H146636   1.078   4.180   5.035  1.5596  2.8776 -0.2526
11479WAT     H246637   1.068   4.073   4.951 -0.8022  0.1686  3.1848
11479WAT    EPW46638   1.080   4.149   4.963  0.5656  0.4795  0.6536
11480WAT      O46639   2.820   0.862   6.967  0.3129 -0.2895  0.4575
11480WAT     H146640   2.890   0.843   7.016  0.9970 -0.5168 -0.5795
11480WAT     H246641   2.816   0.949   6.969  1.6931 -0.1566 -0.8835
11480WAT    EPW46642   2.830   0.872   6.974  0.6178 -0.3035  0.1063
11481WAT      O46643   1.048   1.060   6.860 -0.0104  0.7081 -0.9180
11481WAT     H146644   1.037   0.980   6.893 -0.3479  1.5404  1.1439
11481WAT     H246645   0.969   1.079   6.829 -1.2363  1.7625  2.3943
11481WAT    EPW46646   1.035   1.051   6.860 -0.2414  0.9868 -0.1241
11482WAT      O46647   3.074   2.296   5.388  0.5337 -0.8012 -0.3265
11482WAT     H146648   3.141   2.350   5.401 -0.6409  1.2389 -1.9674
11482WAT     H246649   3.015   2.323   5.447  0.8815 -2.1099  0.6388
11482WAT    EPW46650   3.075   2.308   5.398  0.4115 -0.6932 -0.4263
11483WAT      O46651   1.508   0.979   6.307  0.4331 -0.0522  0.4016
11483WAT     H146652   1.488   0.895   6.294  0.3168  0.0761 -0.2547
11483WAT     H246653   1.433   1.021   6.294  0.7275  0.2584 -0.3215
11483WAT    EPW46654   1.494   0.973   6.303  0.4594  0.0127  0.1979
11484WAT      O46655   1.185   1.325   7.217  0.8369  0.1956 -0.4573
11484WAT     H146656   1.224   1.361   7.148  0.0214  0.8290 -0.5880
11484WAT     H246657   1.125   1.272   7.182  0.9110 -0.0326 -0.2421
11484WAT    EPW46658   1.182   1.322   7.202  0.7274  0.2555 -0.4448
11485WAT      O46659   1.273   2.206   7.002  0.1529  0.6652  0.0684
11485WAT     H146660   1.200   2.228   7.045  0.5066  0.3700  0.8388
11485WAT     H246661   1.259   2.123   6.980 -0.3785  1.0508 -1.1578
11485WAT    EPW46662   1.260   2.197   7.006  0.1267  0.6786  0.0011
11486WAT      O46663   0.926   2.271   7.737 -0.5445  0.0004 -0.1696
11486WAT     H146664   0.919   2.263   7.651 -1.3600  0.0125 -0.1202
11486WAT     H246665   0.874   2.208   7.768 -0.4163  0.1206  0.3070
11486WAT    EPW46666   0.917   2.261   7.729 -0.6461  0.0200 -0.0919
11487WAT      O46667   2.004   2.415   0.700  0.3284  0.2142  0.0472
11487WAT     H146668   1.947   2.369   0.652 -0.6879  0.3250  1.0960
11487WAT     H246669   1.983   2.498   0.684 -0.0724  0.2529  0.7036
11487WAT    EPW46670   1.992   2.420   0.691  0.1191  0.2363  0.2991
11488WAT      O46671   1.968   1.574   5.547  0.3028 -0.3675 -0.2007
11488WAT     H146672   1.981   1.538   5.625  0.9289  0.3634  0.0371
11488WAT     H246673   1.925   1.511   5.503  2.6035 -2.0266 -0.2796
11488WAT    EPW46674   1.964   1.559   5.552  0.7352 -0.5046 -0.1772
11489WAT      O46675   0.796   1.748   7.527 -0.0789 -0.0862  0.7110
11489WAT     H146676   0.731   1.732   7.583  1.4534 -0.4434  2.4955
11489WAT     H246677   0.796   1.678   7.475 -2.2008  0.7355 -0.5100
11489WAT    EPW46678   0.786   1.735   7.528 -0.1660 -0.0176  0.7942
11490WAT      O46679   1.542   0.961   7.480 -0.6968  0.0767  0.0979
11490WAT     H146680   1.506   0.910   7.419 -1.4878  0.5089  0.1954
11490WAT     H246681   1.504   0.934   7.554  0.9693 -1.1250  0.5866
11490WAT    EPW46682   1.531   0.949   7.482 -0.5675 -0.0370  0.1845
11491WAT      O46683   1.642   2.403   6.606 -0.5675  0.3217 -0.1405
11491WAT     H146684   1.576   2.351   6.630 -0.9991  1.3088  0.8903
11491WAT     H246685   1.614   2.483   6.626  0.6109  0.8419 -0.4762
11491WAT    EPW46686   1.628   2.407   6.612 -0.4571  0.5443 -0.0378
11492WAT      O46687   1.728   2.173   7.783  0.5003 -0.6988  0.5450
11492WAT     H146688   1.722   2.086   7.785  2.4315 -0.8638  0.6498
11492WAT     H246689   1.805   2.188   7.746 -0.1703  1.0168 -0.2849
11492WAT    EPW46690   1.738   2.162   7.778  0.6865 -0.4698  0.4379
11493WAT      O46691   2.564   1.856   6.182  0.1145 -0.4317  0.4937
11493WAT     H146692   2.645   1.841   6.151  0.5103  0.2704  1.1543
11493WAT     H246693   2.572   1.932   6.223 -1.0596 -0.0201 -0.0033
11493WAT    EPW46694   2.577   1.865   6.183 -0.0004 -0.2672  0.5179
11494WAT      O46695   1.469   1.952   6.560  0.3872  0.7114  0.6525
11494WAT     H146696   1.545   1.911   6.548 -0.3989 -0.3145 -1.3203
11494WAT     H246697   1.415   1.910   6.506 -1.4501  1.7771  1.5859
11494WAT    EPW46698   1.472   1.940   6.550 -0.0003  0.7173  0.4989
11495WAT      O46699   2.102   2.424   5.632 -0.5720  0.2637  0.4221
11495WAT     H146700   2.179   2.460   5.610  0.0461 -0.6640  1.0140
11495WAT     H246701   2.066   2.484   5.684 -0.2620  0.7090  0.1339
11495WAT    EPW46702   2.108   2.438   5.636 -0.4349  0.1924  0.4670
11496WAT      O46703   1.645   1.044   7.825 -0.1438 -0.8656  0.3027
11496WAT     H146704   1.687   1.118   7.844  0.5343 -1.0897 -0.3114
11496WAT     H246705   1.561   1.068   7.831  0.0198  0.4455 -1.5686
11496WAT    EPW46706   1.638   1.059   7.829 -0.0194 -0.7050 -0.0644
11497WAT      O46707   0.768   4.094   4.694  0.4013  0.1374  0.1932
11497WAT     H146708   0.768   4.018   4.651  1.6459 -0.2739  0.8657
11497WAT     H246709   0.761   4.070   4.778 -2.8670  0.9550  0.2806
11497WAT    EPW46710   0.767   4.079   4.700  0.1024  0.1974  0.3054
11498WAT      O46711   0.709   2.818   6.608  0.4777 -0.0447  0.7196
11498WAT     H146712   0.641   2.780   6.647 -0.1625  1.7669  1.4416
11498WAT     H246713   0.742   2.870   6.669  2.3076 -0.5847  0.2588
11498WAT    EPW46714   0.704   2.820   6.623  0.6534  0.1431  0.7582
11499WAT      O46715   1.791   0.922   7.374  0.0674  0.5538  0.2121
11499WAT     H146716   1.720   0.934   7.425 -0.7034  1.9877 -1.0993
11499WAT     H246717   1.853   0.968   7.415 -0.1430  0.4587  0.6439
11499WAT    EPW46718   1.789   0.931   7.388 -0.0775  0.7515  0.0822
11500WAT      O46719   2.612   1.149   7.178  0.2093  0.1401  0.4890
11500WAT     H146720   2.645   1.180   7.103  0.1402  0.2436  0.5014
11500WAT     H246721   2.683   1.132   7.225  0.2515  0.1591  0.4335
11500WAT    EPW46722   2.627   1.151   7.174  0.2054  0.1582  0.4826
11501WAT      O46723   0.813   1.147   0.125 -0.7171 -0.3560  0.3620
11501WAT     H146724   0.855   1.158   0.201  0.9295  0.7292 -0.6329
11501WAT     H246725   0.844   1.070   0.096  1.0415  0.6187 -0.5519
11501WAT    EPW46726   0.824   1.137   0.132 -0.2141 -0.0517  0.0800
11502WAT      O46727   0.756   1.865   0.507 -0.1438 -0.3695 -0.2805
11502WAT     H146728   0.753   1.851   0.421  0.1622 -1.1129 -0.1794
11502WAT     H246729   0.730   1.789   0.540  1.2308 -0.6180  0.3052
11502WAT    EPW46730   0.752   1.851   0.499  0.1045 -0.5161 -0.1791
11503WAT      O46731   1.395   2.331   6.424 -0.5857  0.0645  0.6293
11503WAT     H146732   1.437   2.267   6.381 -2.0486 -0.0155 -0.7563
11503WAT     H246733   1.345   2.288   6.481  0.3929  0.1321  1.5995
11503WAT    EPW46734   1.394   2.315   6.426 -0.6573  0.0627  0.5680
11504WAT      O46735   2.534   0.380   6.065  0.6933  0.0617 -0.3851
11504WAT     H146736   2.586   0.450   6.072  0.6381  0.0094  0.7630
11504WAT     H246737   2.558   0.330   6.133 -1.2800  0.3261  0.5799
11504WAT    EPW46738   2.546   0.383   6.076  0.3937  0.0931 -0.0730
11505WAT      O46739   1.594   0.060   6.528 -0.2095  0.4363 -0.2588
11505WAT     H146740   1.663   0.023   6.490  0.1710  0.6649  0.2060
11505WAT     H246741   1.594   0.026   6.608 -0.9095  0.0851 -0.3941
11505WAT    EPW46742   1.604   0.049   6.534 -0.2567  0.4182 -0.2101
11506WAT      O46743   1.121   3.758   6.725 -0.2339  0.0868  0.4238
11506WAT     H146744   1.144   3.760   6.809  0.0233  0.9109  0.3468
11506WAT     H246745   1.057   3.699   6.722 -0.1010 -0.1042  1.1585
11506WAT    EPW46746   1.115   3.750   6.737 -0.1763  0.1803  0.5210
11507WAT      O46747   1.903   3.033   0.076 -0.3348  0.5805  0.3803
11507WAT     H146748   1.862   3.066   0.006  0.3168 -2.1911 -1.4720
11507WAT     H246749   1.869   2.954   0.085  1.2175  0.0136  1.7818
11507WAT    EPW46750   1.892   3.026   0.067 -0.0092  0.0874  0.3137
11508WAT      O46751   1.774   1.672   7.750 -0.1536  0.1498  0.0932
11508WAT     H146752   1.800   1.702   7.672  0.4331  1.7090  0.8434
11508WAT     H246753   1.726   1.737   7.782  0.0318 -0.2582  1.2435
11508WAT    EPW46754   1.771   1.686   7.743 -0.0395  0.3199  0.3739
11509WAT      O46755   2.158   1.777   4.882 -0.2748 -0.4335 -0.0191
11509WAT     H146756   2.076   1.790   4.854  0.0802  0.3750 -0.7460
11509WAT     H246757   2.166   1.690   4.883 -1.0117 -0.5132 -0.3430
11509WAT    EPW46758   2.147   1.766   4.878 -0.3312 -0.3259 -0.1743
11510WAT      O46759   0.675   2.393   6.968  0.4406 -0.4155  0.5295
11510WAT     H146760   0.694   2.310   6.989 -1.5533 -0.8334  0.8772
11510WAT     H246761   0.723   2.407   6.897  1.9924 -1.3338  1.3242
11510WAT    EPW46762   0.685   2.383   6.961  0.3753 -0.6129  0.6982
11511WAT      O46763   0.919   0.913   6.570  0.4442 -0.2374 -0.5117
11511WAT     H146764   0.963   0.907   6.495  2.5070 -0.1143  0.6303
11511WAT     H246765   0.932   0.835   6.607 -0.8003 -0.3996 -0.3639
11511WAT    EPW46766   0.927   0.900   6.564  0.5651 -0.2431 -0.3212
11512WAT      O46767   0.812   1.147   6.746  0.2036 -0.5553  0.4602
11512WAT     H146768   0.812   1.079   6.692  1.4544  0.4714 -0.9010
11512WAT     H246769   0.785   1.213   6.696 -2.1345 -0.1856  2.0360
11512WAT    EPW46770   0.808   1.147   6.731  0.0430 -0.3491  0.4919
11513WAT      O46771   2.080   1.871   7.137 -0.1215 -0.3071  0.5468
11513WAT     H146772   2.010   1.921   7.127  0.2558  0.1645  0.1651
11513WAT     H246773   2.132   1.896   7.071  1.1140  0.5841  1.7765
11513WAT    EPW46774   2.078   1.882   7.126  0.1168 -0.1058  0.6721
11514WAT      O46775   2.927   2.233   7.456 -0.5856 -0.1329 -0.2429
11514WAT     H146776   2.861   2.197   7.411 -0.0032 -1.8723  0.1848
11514WAT     H246777   2.915   2.204   7.537  0.1657  0.2983  0.0372
11514WAT    EPW46778   2.916   2.223   7.461 -0.3886 -0.3261 -0.1383
11515WAT      O46779   0.989   1.424   5.967  0.0786  0.5876 -0.0338
11515WAT     H146780   1.003   1.497   5.922  3.0947  0.1405 -0.0177
11515WAT     H246781   1.045   1.367   5.932 -0.7154 -1.1370  1.3160
11515WAT    EPW46782   0.999   1.426   5.955  0.4069  0.2668  0.1680
11516WAT      O46783   1.193   0.257   6.607  0.1801  0.0740  0.2669
11516WAT     H146784   1.128   0.295   6.650  0.3388  0.4065  0.2199
11516WAT     H246785   1.177   0.172   6.616  0.0975  0.1417  0.8080
11516WAT    EPW46786   1.181   0.250   6.614  0.1913  0.1331  0.3399
11517WAT      O46787   2.991   0.494   7.132  0.1488 -0.2838  0.5162
11517WAT     H146788   2.940   0.548   7.178 -0.2899  0.1822 -0.4739
11517WAT     H246789   2.937   0.463   7.070  0.8612 -0.4236 -0.0527
11517WAT    EPW46790   2.975   0.497   7.129  0.1893 -0.2356  0.2859
11518WAT      O46791   2.521   3.352   4.677 -0.3467 -0.4686  0.0101
11518WAT     H146792   2.580   3.404   4.714 -0.8335  1.1661 -1.3436
11518WAT     H246793   2.507   3.290   4.736  4.5681 -2.5052 -0.5333
11518WAT    EPW46794   2.528   3.351   4.691  0.3074 -0.5280 -0.2702
11519WAT      O46795   1.970   2.039   0.132 -0.2288 -0.3930  0.1486
11519WAT     H146796   1.995   1.990   0.200  1.0695  0.3879  0.2532
11519WAT     H246797   1.883   2.029   0.132 -0.1978 -0.9677  1.4911
11519WAT    EPW46798   1.961   2.030   0.142 -0.0324 -0.3625  0.3623
11520WAT      O46799   1.440   4.004   5.724  0.0694  0.2289 -0.1757
11520WAT     H146800   1.379   4.063   5.746  0.1532  0.7250 -1.2287
11520WAT     H246801   1.458   4.023   5.641 -1.6042 -2.7408 -1.3748
11520WAT    EPW46802   1.434   4.016   5.715 -0.1654 -0.1365 -0.5084
11521WAT      O46803   0.717   1.726   7.231 -0.1128  0.3987 -0.0368
11521WAT     H146804   0.655   1.699   7.175  0.7886 -1.9374  0.0025
11521WAT     H246805   0.787   1.735   7.180  0.3978 -0.4978  0.5000
11521WAT    EPW46806   0.718   1.723   7.215  0.0958 -0.0788  0.0483
11522WAT      O46807   0.816   1.297   6.448  0.1041  0.3114 -0.2648
11522WAT     H146808   0.809   1.384   6.450 -0.7776  0.2874 -1.1456
11522WAT     H246809   0.895   1.282   6.481 -0.5428  1.2980  1.9029
11522WAT    EPW46810   0.826   1.308   6.453 -0.1217  0.4536 -0.0747
11523WAT      O46811   1.293   2.691   6.960 -0.6296 -0.2006 -0.2657
11523WAT     H146812   1.368   2.658   6.991  0.7226 -0.0785 -3.1367
11523WAT     H246813   1.244   2.620   6.947 -0.5842 -0.3806  0.4767
11523WAT    EPW46814   1.297   2.675   6.963 -0.4231 -0.2091 -0.5801
11524WAT      O46815   1.037   1.610   6.695 -0.2199  0.2825 -0.1561
11524WAT     H146816   1.086   1.546   6.661  0.9370  0.7859  0.4960
11524WAT     H246817   1.096   1.668   6.723 -1.1962  0.8931  0.7122
11524WAT    EPW46818   1.053   1.609   6.694 -0.1932  0.4471  0.0685
11525WAT      O46819   1.430   1.419   0.053  0.1226 -0.0487 -0.1188
11525WAT     H146820   1.514   1.432   0.075 -0.1964  0.4291  0.8632
11525WAT     H246821   1.426   1.447  -0.029  0.2566  2.9361  0.7838
11525WAT    EPW46822   1.442   1.425   0.044  0.0953  0.4628  0.1596
11526WAT      O46823   2.628   0.660   6.925  0.2705  0.3806 -0.4106
11526WAT     H146824   2.693   0.603   6.919 -0.0360  0.0118 -0.3128
11526WAT     H246825   2.668   0.736   6.937  0.6813  0.1546 -0.3169
11526WAT    EPW46826   2.643   0.663   6.926  0.2859  0.2927 -0.3823
11527WAT      O46827   1.970   4.041   6.564  0.3981  0.4324 -0.0097
11527WAT     H146828   1.973   4.032   6.651  0.9113  1.2646  0.0698
11527WAT     H246829   1.990   4.125   6.552  1.8767 -0.0131 -1.0018
11527WAT    EPW46830   1.974   4.052   6.575  0.6923  0.4895 -0.1445
11528WAT      O46831   2.187   3.011   0.046 -0.1920 -0.6361 -0.3816
11528WAT     H146832   2.102   3.013   0.064 -0.4721 -0.8600 -1.6316
11528WAT     H246833   2.197   3.073  -0.014  0.8282  0.4677  0.8525
11528WAT    EPW46834   2.176   3.020   0.040 -0.0827 -0.5061 -0.3839
11529WAT      O46835   1.113   2.466   7.300 -0.1896 -0.1362  0.1275
11529WAT     H146836   1.090   2.535   7.349 -0.2473 -0.3209  0.3628
11529WAT     H246837   1.200   2.471   7.298 -0.0773 -0.8812  1.3904
11529WAT    EPW46838   1.123   2.477   7.307 -0.1815 -0.2736  0.3488
11530WAT      O46839   0.673   0.980   6.466 -0.0011 -0.4508  0.6988
11530WAT     H146840   0.682   0.976   6.379  0.4681  0.5494  0.6854
11530WAT     H246841   0.754   0.994   6.495 -0.2126 -0.3812  1.2741
11530WAT    EPW46842   0.686   0.982   6.457  0.0370 -0.2927  0.7818
11531WAT      O46843   0.947   1.359   7.556  0.3453 -0.1781 -0.3910
11531WAT     H146844   0.906   1.350   7.479  0.3998 -0.0371 -0.4367
11531WAT     H246845   0.881   1.362   7.613  0.2509  0.9478 -0.5517
11531WAT    EPW46846   0.931   1.358   7.553  0.3394  0.0090 -0.4215
11532WAT      O46847   0.761   0.771   7.106 -0.0849  0.8415 -1.1975
11532WAT     H146848   0.693   0.819   7.131 -0.1625 -0.2668  0.9712
11532WAT     H246849   0.729   0.721   7.042 -1.4327  0.1014  0.0053
11532WAT    EPW46850   0.746   0.771   7.100 -0.2954  0.5685 -0.6995
11533WAT      O46851   1.334   2.177   5.185  0.0339  0.2869 -0.4796
11533WAT     H146852   1.373   2.100   5.201 -1.9895 -0.6843  0.1353
11533WAT     H246853   1.337   2.218   5.262 -1.3761 -0.4046 -0.0298
11533WAT    EPW46854   1.340   2.171   5.199 -0.4733  0.0413 -0.3223
11534WAT      O46855   0.916   7.346   1.496  0.6123  0.5126  0.4443
11534WAT     H146856   0.985   7.393   1.521  1.5600 -0.7645  0.3522
11534WAT     H246857   0.871   7.400   1.445  1.5747  1.3716  0.4814
11534WAT    EPW46858   0.920   7.361   1.492  0.8944  0.4509  0.4362
11535WAT      O46859   1.971   2.163   6.283  0.2654  0.6288  0.0547
11535WAT     H146860   1.922   2.193   6.348  0.9864  0.6617  0.5943
11535WAT     H246861   2.052   2.160   6.317  0.6325  0.5163 -0.7869
11535WAT    EPW46862   1.976   2.167   6.297  0.4261  0.6170  0.0101
11536WAT      O46863   0.807   2.310   6.438  0.1119 -1.2397 -0.2235
11536WAT     H146864   0.815   2.307   6.351 -0.8250 -0.7096 -0.3359
11536WAT     H246865   0.805   2.395   6.456  1.8395 -1.3119  0.4860
11536WAT    EPW46866   0.808   2.322   6.428  0.2287 -1.1720 -0.1353
11537WAT      O46867   1.403   0.372   7.854 -0.1308  0.3034 -0.5965
11537WAT     H146868   1.322   0.340   7.851 -0.2796  0.6173 -0.1014
11537WAT     H246869   1.453   0.301   7.851 -0.4790 -0.2190  2.5882
11537WAT    EPW46870   1.398   0.357   7.853 -0.2042  0.2726 -0.0529
11538WAT      O46871   1.223   3.571   6.550 -0.1999  0.6045 -0.0581
11538WAT     H146872   1.146   3.577   6.509 -0.3109  1.2828  0.2234
11538WAT     H246873   1.216   3.631   6.614 -0.1902 -0.6704  1.1936
11538WAT    EPW46874   1.210   3.581   6.554 -0.2149  0.5164  0.1684
11539WAT      O46875   2.292   1.737   0.618  0.0633 -0.6873  0.2190
11539WAT     H146876   2.287   1.767   0.700  0.7709  2.4159 -0.7576
11539WAT     H246877   2.348   1.791   0.579 -4.2874  1.7932 -3.7169
11539WAT    EPW46878   2.299   1.750   0.625 -0.4749  0.1375 -0.5067
11540WAT      O46879   1.075   1.200   6.505 -0.0976  0.7474 -0.0225
11540WAT     H146880   1.128   1.180   6.439 -1.8415 -0.0277 -1.2651
11540WAT     H246881   1.077   1.128   6.555  2.4227  1.8915  1.7222
11540WAT    EPW46882   1.083   1.186   6.503  0.0171  0.8019  0.0517
11541WAT      O46883   1.680   4.039   6.582 -0.3204 -0.9474  0.0120
11541WAT     H146884   1.677   4.116   6.540 -1.8215  0.6996  2.8331
11541WAT     H246885   1.762   4.013   6.570  0.1038  0.8277 -1.4905
11541WAT    EPW46886   1.692   4.047   6.574 -0.4794 -0.4419  0.2068
11542WAT      O46887   2.490   6.898   7.283  0.4724  0.1526 -0.0539
11542WAT     H146888   2.503   6.928   7.201 -0.8097  0.6436 -0.1027
11542WAT     H246889   2.488   6.971   7.331  2.8422 -0.2175  0.7041
11542WAT    EPW46890   2.492   6.914   7.278  0.6331  0.1704  0.0509
11543WAT      O46891   0.777   2.024   7.833  0.0074  0.0714 -0.9315
11543WAT     H146892   0.832   1.957   7.818 -0.8064 -0.8461  0.0282
11543WAT     H246893   0.724   1.993   7.895 -2.3555  0.4984 -2.6420
11543WAT    EPW46894   0.777   2.010   7.840 -0.4618 -0.0011 -1.0424
11544WAT      O46895   1.683   2.015   6.949 -0.0916 -0.0653 -0.2141
11544WAT     H146896   1.752   1.986   6.903  1.1762  0.1765  1.4373
11544WAT     H246897   1.629   2.046   6.887  1.3896 -0.0324 -1.5650
11544WAT    EPW46898   1.686   2.015   6.933  0.3145 -0.0247 -0.1697
11545WAT      O46899   1.921   2.750   6.368  0.0350 -0.6645  0.1814
11545WAT     H146900   1.929   2.676   6.414  1.6991 -0.0097  1.0645
11545WAT     H246901   1.864   2.797   6.414  2.5294  0.4665  2.4733
11545WAT    EPW46902   1.914   2.746   6.382  0.6493 -0.4007  0.6504
11546WAT      O46903   1.427   1.441   7.094  0.7943 -0.1475  0.2278
11546WAT     H146904   1.440   1.526   7.081  0.8565 -0.2457 -0.3924
11546WAT     H246905   1.472   1.424   7.167  2.9976 -0.1696 -1.0233
11546WAT    EPW46906   1.436   1.451   7.103  1.1290 -0.1653 -0.0486
11547WAT      O46907   1.368   3.769   6.213  0.0852  0.3330 -0.2221
11547WAT     H146908   1.350   3.829   6.274  2.7301  1.3497 -0.3341
11547WAT     H246909   1.415   3.813   6.154  1.2963 -1.6106 -0.7927
11547WAT    EPW46910   1.372   3.785   6.213  0.6548  0.1961 -0.3229
11548WAT      O46911   1.209   1.378   7.480 -0.0946 -0.4149 -0.4101
11548WAT     H146912   1.199   1.356   7.396 -1.9483 -1.4912  0.0406
11548WAT     H246913   1.127   1.389   7.508  0.5505  2.0499  0.7602
11548WAT    EPW46914   1.196   1.376   7.471 -0.2731 -0.2098 -0.1706
11549WAT      O46915   3.052   0.941   0.643 -0.2663  0.1781  0.2918
11549WAT     H146916   3.048   1.026   0.663 -0.3628  0.0567  0.8058
11549WAT     H246917   3.097   0.940   0.568 -1.2262  0.7726 -0.3143
11549WAT    EPW46918   3.058   0.953   0.635 -0.4223  0.2480  0.2782
11550WAT      O46919   1.716   0.539   6.343  0.6367 -0.4497 -0.3587
11550WAT     H146920   1.720   0.497   6.419  1.1569 -1.1216 -0.7483
11550WAT     H246921   1.657   0.602   6.357  2.8049  1.3421  1.5308
11550WAT    EPW46922   1.708   0.542   6.356  1.0338 -0.2843 -0.1371
11551WAT      O46923   0.984   1.917   7.622  0.6532 -0.0041  0.2664
11551WAT     H146924   0.929   1.870   7.574  0.9988 -0.1165 -0.0275
11551WAT     H246925   1.062   1.896   7.589  0.7401  1.7916 -0.7822
11551WAT    EPW46926   0.987   1.907   7.610  0.7171  0.2445  0.0681
11552WAT      O46927   2.161   3.187   7.677 -0.4955 -0.3912  0.5419
11552WAT     H146928   2.120   3.221   7.608  2.9183  1.7814 -0.7170
11552WAT     H246929   2.163   3.253   7.734  2.5084  0.2589 -0.1603
11552WAT    EPW46930   2.155   3.202   7.675  0.4525  0.0258  0.2522
11553WAT      O46931   0.680   0.364   0.009  0.0563  0.0792 -0.7716
11553WAT     H146932   0.726   0.426   0.049  1.1888 -0.2661 -1.4896
11553WAT     H246933   0.598   0.380   0.034  0.4858  1.0577  0.0942
11553WAT    EPW46934   0.674   0.375   0.019  0.2871  0.1727 -0.7498
11554WAT      O46935   0.992   1.669   6.162 -0.9513 -0.3208  0.0544
11554WAT     H146936   0.992   1.586   6.134  1.3731 -0.4904  0.3203
11554WAT     H246937   0.964   1.662   6.244  2.0498 -1.4192  1.1451
11554WAT    EPW46938   0.988   1.656   6.170 -0.1646 -0.5081  0.2548
11555WAT      O46939   2.217   2.113   6.375  0.5435 -0.0677  0.9930
11555WAT     H146940   2.249   2.147   6.449  0.6687 -1.2887  1.5282
11555WAT     H246941   2.266   2.148   6.313 -0.8066  2.5405  1.2518
11555WAT    EPW46942   2.229   2.123   6.377  0.3626  0.1372  1.1103
11556WAT      O46943   1.034   1.137   0.296  0.2270  0.1782  0.3874
11556WAT     H146944   1.114   1.170   0.306 -0.3729  1.7092  0.4632
11556WAT     H246945   1.039   1.058   0.333  1.5135  0.5446  1.0433
11556WAT    EPW46946   1.046   1.130   0.303  0.3284  0.4585  0.4955
11557WAT      O46947   2.680   2.411   7.065  0.4885 -0.5405  0.1459
11557WAT     H146948   2.734   2.368   7.013  1.5443 -0.6351  1.2643
11557WAT     H246949   2.733   2.453   7.120 -0.5598 -0.9656  1.5448
11557WAT    EPW46950   2.696   2.411   7.066  0.4896 -0.6173  0.5177
11558WAT      O46951   1.455   0.566   6.958  0.3712 -0.0595  0.1556
11558WAT     H146952   1.401   0.550   7.025  0.4270  0.3511  0.3027
11558WAT     H246953   1.457   0.654   6.954  1.6598 -0.0345  0.6722
11558WAT    EPW46954   1.447   0.577   6.967  0.5698  0.0048  0.2536
11559WAT      O46955   2.220   0.396   7.783 -0.4817  0.0315 -0.3456
11559WAT     H146956   2.141   0.376   7.753 -0.3988  0.3454 -0.7803
11559WAT     H246957   2.273   0.378   7.716 -0.3148  0.8946 -0.4622
11559WAT    EPW46958   2.216   0.391   7.769 -0.4448  0.2054 -0.4271
11560WAT      O46959   1.140   2.856   7.128  0.2163  0.1935 -0.2239
11560WAT     H146960   1.153   2.939   7.155 -2.0876  0.3109  0.7153
11560WAT     H246961   1.216   2.835   7.091  1.8185  1.8396  1.8228
11560WAT    EPW46962   1.153   2.865   7.127  0.1127  0.4540  0.2172
11561WAT      O46963   1.678   1.716   6.819  0.1151 -0.0487  0.0570
11561WAT     H146964   1.666   1.631   6.802 -1.2755 -0.2079  1.5933
11561WAT     H246965   1.749   1.716   6.871 -0.7173 -0.4661  1.2482
11561WAT    EPW46966   1.687   1.703   6.824 -0.2133 -0.1339  0.4599
11562WAT      O46967   1.037   2.241   7.142 -0.1845  0.2228  0.1866
11562WAT     H146968   1.045   2.167   7.187 -0.9533 -0.6513 -1.0552
11562WAT     H246969   1.046   2.303   7.203 -1.2961 -0.9048  1.5685
11562WAT    EPW46970   1.039   2.240   7.158 -0.4622 -0.0729  0.2073
11563WAT      O46971   1.274   2.573   6.637  0.2247 -0.3994 -0.3796
11563WAT     H146972   1.204   2.617   6.610  0.5780  0.1561 -0.3998
11563WAT     H246973   1.251   2.543   6.715 -0.1128 -0.4058 -0.4803
11563WAT    EPW46974   1.260   2.575   6.644  0.2270 -0.3183 -0.3974
11564WAT      O46975   0.902   0.680   6.108 -0.4462  0.2221  0.6324
11564WAT     H146976   0.904   0.709   6.026  0.9404  0.0935  0.5970
11564WAT     H246977   0.948   0.606   6.105 -1.2179 -0.3055  1.3490
11564WAT    EPW46978   0.909   0.673   6.095 -0.3554  0.1252  0.7331
11565WAT      O46979   0.761   1.669   5.971 -0.4152  0.4578  0.2275
11565WAT     H146980   0.822   1.667   6.033  1.0947  0.2489 -1.1862
11565WAT     H246981   0.719   1.593   5.981 -0.9248  0.8916  1.6341
11565WAT    EPW46982   0.763   1.657   5.982 -0.2675  0.4910  0.2265
11566WAT      O46983   2.117   3.900   7.255  0.5814  0.5159  0.8392
11566WAT     H146984   2.036   3.871   7.266 -0.1817  1.8909 -0.7560
11566WAT     H246985   2.150   3.847   7.194  0.7598  0.1893  1.2175
11566WAT    EPW46986   2.110   3.888   7.248  0.4950  0.6708  0.6594
11567WAT      O46987   2.140   2.415   5.197 -0.5432 -0.0374  0.3645
11567WAT     H146988   2.116   2.380   5.273  1.3346 -1.4633  0.3597
11567WAT     H246989   2.073   2.397   5.144 -1.3355 -0.0920  1.3564
11567WAT    EPW46990   2.127   2.407   5.200 -0.3829 -0.2561  0.5103
11568WAT      O46991   2.608   2.405   5.437  0.0921 -0.0788 -0.5160
11568WAT     H146992   2.617   2.367   5.359  2.3705 -1.4930  0.2972
11568WAT     H246993   2.581   2.339   5.488  1.5805 -0.0032  0.4308
11568WAT    EPW46994   2.606   2.389   5.433  0.6485 -0.2766 -0.2560
11569WAT      O46995   2.670   1.913   6.523 -0.2885 -0.2274  0.2727
11569WAT     H146996   2.621   1.965   6.472 -1.8297 -1.1521  0.7212
11569WAT     H246997   2.617   1.896   6.591  1.6179  0.7843  2.1034
11569WAT    EPW46998   2.655   1.918   6.525 -0.2345 -0.2145  0.6094
11570WAT      O46999   3.626   3.303   7.798  0.3817  0.5303 -0.1010
11570WAT     H147000   3.617   3.255   7.871 -0.0230  0.2378 -0.3390
11570WAT     H247001   3.686   3.362   7.820 -0.2518  0.8956  0.6987
11570WAT    EPW47002   3.634   3.304   7.812  0.2283  0.5411 -0.0181
11571WAT      O47003   1.794   0.569   7.589  0.1117  0.3060  0.1711
11571WAT     H147004   1.856   0.512   7.611 -0.8426  0.0257  2.5055
11571WAT     H247005   1.830   0.647   7.604 -0.0985  0.1408  1.6441
11571WAT    EPW47006   1.808   0.572   7.594 -0.0603  0.2402  0.7335
11572WAT      O47007   0.726   1.309   7.729 -0.4336  0.1151 -0.2755
11572WAT     H147008   0.690   1.369   7.781  0.6809 -0.8211  1.6971
11572WAT     H247009   0.751   1.247   7.784 -0.4103 -1.6035 -2.1127
11572WAT    EPW47010   0.725   1.309   7.744 -0.2655 -0.2771 -0.2555
11573WAT      O47011   1.927   3.544   6.964  0.0209  0.5990 -0.1811
11573WAT     H147012   1.977   3.596   6.916 -0.4320  0.6865 -0.5694
11573WAT     H247013   1.973   3.532   7.037 -0.0571  1.9218  0.1105
11573WAT    EPW47014   1.941   3.550   6.968 -0.0575  0.8073 -0.1953
11574WAT      O47015   0.857   0.732   5.310 -0.0686 -0.0310  0.3013
11574WAT     H147016   0.776   0.733   5.342 -0.4236 -2.2220 -0.3667
11574WAT     H247017   0.845   0.737   5.223  0.4534 -0.8729  0.1686
11574WAT    EPW47018   0.843   0.733   5.302 -0.0439 -0.4790  0.1830
11575WAT      O47019   1.267   2.418   6.051 -0.1555  0.4294 -0.4347
11575WAT     H147020   1.290   2.464   6.121 -4.4705  0.0228  1.5316
11575WAT     H247021   1.231   2.477   5.998 -0.3150  0.1615 -0.6297
11575WAT    EPW47022   1.265   2.434   6.053 -0.8165  0.3297 -0.1730
11576WAT      O47023   1.102   2.538   0.924 -0.9223  0.0639  0.1033
11576WAT     H147024   1.093   2.625   0.919 -0.5603  0.1184  0.3028
11576WAT     H247025   1.038   2.514   0.978 -1.2123  0.1697 -0.1903
11576WAT    EPW47026   1.091   2.547   0.931 -0.9117  0.0876  0.0894
11577WAT      O47027   2.738   0.937   4.081  0.5978  0.0099 -0.1429
11577WAT     H147028   2.815   0.900   4.062  0.9315  0.7144 -0.1776
11577WAT     H247029   2.711   0.893   4.152  1.1558 -0.0609  0.0290
11577WAT    EPW47030   2.745   0.925   4.089  0.7296  0.1035 -0.1226
11578WAT      O47031   0.806   1.459   5.520 -0.2607  0.1483  0.7066
11578WAT     H147032   0.830   1.434   5.600  1.3739  0.5522  0.3845
11578WAT     H247033   0.826   1.391   5.470  0.4066  0.5343  0.4175
11578WAT    EPW47034   0.813   1.446   5.525  0.0793  0.2650  0.6163
11579WAT      O47035   1.583   1.691   4.018  0.3642 -0.3245 -0.2037
11579WAT     H147036   1.658   1.650   4.002 -0.0339 -0.9287 -0.5351
11579WAT     H247037   1.587   1.761   3.966  0.6639 -0.3888 -0.2708
11579WAT    EPW47038   1.595   1.696   4.008  0.3497 -0.4232 -0.2625
11580WAT      O47039   1.313   2.066   2.853 -0.1595 -0.4203 -0.0416
11580WAT     H147040   1.239   2.025   2.873 -1.4580  1.2059 -1.2816
11580WAT     H247041   1.374   2.015   2.888 -1.9043 -0.7957  2.7414
11580WAT    EPW47042   1.311   2.052   2.861 -0.6091 -0.2355  0.1863
11581WAT      O47043   1.190   1.033   3.201 -0.2146 -0.3419  0.3592
11581WAT     H147044   1.114   1.073   3.219 -0.4157 -0.3025 -0.5125
11581WAT     H247045   1.171   0.948   3.210 -0.9375 -0.4690 -1.7120
11581WAT    EPW47046   1.176   1.026   3.205 -0.3511 -0.3549 -0.0755
11582WAT      O47047   1.150   0.639   3.667  0.1377  0.0150  0.5259
11582WAT     H147048   1.223   0.644   3.621 -0.2300  0.0313 -0.0667
11582WAT     H247049   1.177   0.639   3.750  0.8100 -0.1870  0.3041
11582WAT    EPW47050   1.165   0.640   3.673  0.1827 -0.0124  0.4056
11583WAT      O47051   2.134   1.661   3.532 -0.6450 -0.1605  0.6230
11583WAT     H147052   2.204   1.628   3.492 -0.2638 -1.0350  1.9427
11583WAT     H247053   2.125   1.739   3.495  0.6484 -0.2843 -0.0260
11583WAT    EPW47054   2.143   1.668   3.521 -0.3976 -0.3080  0.7221
11584WAT      O47055   1.335   1.297   3.802 -0.3617  0.7059 -0.2751
11584WAT     H147056   1.330   1.326   3.884 -0.5131  0.1779 -0.0958
11584WAT     H247057   1.254   1.309   3.771 -0.3894  0.5999 -0.2435
11584WAT    EPW47058   1.322   1.303   3.809 -0.3882  0.6122 -0.2439
11585WAT      O47059   2.761   1.971   4.363 -0.1164  0.8215  0.5498
11585WAT     H147060   2.702   2.027   4.329 -0.2598  1.3759  1.6683
11585WAT     H247061   2.805   2.020   4.419 -0.2114 -0.1816  1.5279
11585WAT    EPW47062   2.759   1.987   4.366 -0.1516  0.7552  0.8595
11586WAT      O47063   1.084   1.044   5.050 -0.1135 -0.4066  0.5660
11586WAT     H147064   1.158   1.081   5.079 -0.3291  0.0560  0.5383
11586WAT     H247065   1.112   0.987   4.991  0.2862 -0.8941  1.2034
11586WAT    EPW47066   1.099   1.041   5.046 -0.0863 -0.4102  0.6560
11587WAT      O47067   0.514   0.434   5.694 -0.1285  0.1259 -0.2200
11587WAT     H147068   0.526   0.395   5.771  0.6835  1.6790  0.4844
11587WAT     H247069   0.435   0.470   5.701 -0.7782 -1.1108 -0.7839
11587WAT    EPW47070   0.504   0.434   5.706 -0.1046  0.1727 -0.1992
11588WAT      O47071   2.473   3.357   5.400 -0.2791 -0.7113 -0.3885
11588WAT     H147072   2.514   3.377   5.325 -0.0935  0.4719 -0.0021
11588WAT     H247073   2.517   3.403   5.460 -1.3820 -0.4173  0.2206
11588WAT    EPW47074   2.485   3.367   5.398 -0.4146 -0.4931 -0.2415
11589WAT      O47075   1.751   1.651   5.892  0.2082 -0.0728  0.2372
11589WAT     H147076   1.714   1.644   5.814 -1.8372 -2.5930  1.2853
11589WAT     H247077   1.835   1.632   5.877  0.1234  0.7389 -1.4777
11589WAT    EPW47078   1.758   1.647   5.879 -0.1065 -0.3252  0.1387
11590WAT      O47079   1.333   2.857   5.207 -0.7547  0.1233  0.2355
11590WAT     H147080   1.327   2.770   5.210 -0.5408  0.1021  0.0853
11590WAT     H247081   1.292   2.879   5.133 -0.1255  0.0797 -0.1410
11590WAT    EPW47082   1.326   2.848   5.196 -0.6302  0.1138  0.1577
11591WAT      O47083   2.558   2.954   5.169  0.0881  0.7133 -0.4496
11591WAT     H147084   2.645   2.965   5.174 -0.0335  1.1770  1.0749
11591WAT     H247085   2.547   2.868   5.180  0.2573  0.9095  1.5336
11591WAT    EPW47086   2.569   2.943   5.171  0.0952  0.8108  0.0685
11592WAT      O47087   1.770   1.754   5.443 -0.1114 -0.1831 -0.5901
11592WAT     H147088   1.831   1.700   5.476 -0.9952 -1.0692 -0.3661
11592WAT     H247089   1.770   1.734   5.358  0.7974  0.7257 -0.8171
11592WAT    EPW47090   1.779   1.743   5.436 -0.1077 -0.1797 -0.5905
11593WAT      O47091   1.327   1.177   5.116  0.4166  0.1615  0.0182
11593WAT     H147092   1.389   1.196   5.057 -0.4544 -1.0525 -1.3311
11593WAT     H247093   1.368   1.125   5.172  0.5885 -0.8381 -1.0058
11593WAT    EPW47094   1.342   1.172   5.116  0.3133 -0.1655 -0.3324
11594WAT      O47095   1.761   7.627   5.980 -0.1801 -0.2837  0.0181
11594WAT     H147096   1.714   7.620   5.906 -0.1508  0.1823 -0.0498
11594WAT     H247097   1.721   7.692   6.023  0.5727  0.3237 -0.1708
11594WAT    EPW47098   1.748   7.636   5.975 -0.0646 -0.1252 -0.0199
11595WAT      O47099   1.802   1.183   5.665  0.1240  0.0608  0.0915
11595WAT     H147100   1.756   1.242   5.711 -0.0688  0.2889 -0.3922
11595WAT     H247101   1.798   1.213   5.583  3.1027  1.4116  0.2983
11595WAT    EPW47102   1.794   1.196   5.660  0.5355  0.2940  0.0506
11596WAT      O47103   1.478   1.313   3.578 -0.1571  0.4539  0.0099
11596WAT     H147104   1.448   1.300   3.659 -0.5717  1.2263 -0.0136
11596WAT     H247105   1.422   1.269   3.527  1.4966 -2.1770  0.2620
11596WAT    EPW47106   1.466   1.304   3.582  0.0259  0.1794  0.0437
11597WAT      O47107   0.854   3.206   5.253 -1.1850  0.1965  0.1971
11597WAT     H147108   0.891   3.220   5.174 -2.5761 -0.6745 -0.6417
11597WAT     H247109   0.841   3.120   5.254 -0.0914  0.0161  1.9162
11597WAT    EPW47110   0.858   3.196   5.241 -1.2289  0.0412  0.3271
11598WAT      O47111   0.942   1.840   4.746 -0.2081  0.2186 -0.4188
11598WAT     H147112   0.867   1.798   4.730  0.5699 -1.3236 -0.2411
11598WAT     H247113   0.992   1.818   4.678 -0.1998  2.0817 -1.0825
11598WAT    EPW47114   0.938   1.830   4.733 -0.0919  0.2660 -0.4906
11599WAT      O47115   2.074   4.575   4.406 -0.0774 -0.4728 -0.0711
11599WAT     H147116   2.107   4.494   4.402 -0.5449 -0.8861  2.4777
11599WAT     H247117   2.019   4.578   4.338 -0.9332 -2.7453  0.4083
11599WAT    EPW47118   2.071   4.563   4.395 -0.2729 -0.8695  0.3762
11600WAT      O47119   1.161   0.969   6.026 -0.2116  0.2114 -0.0934
11600WAT     H147120   1.229   0.914   6.029  0.4394  1.0041  0.0801
11600WAT     H247121   1.103   0.934   6.080  0.1841 -0.3198 -0.0076
11600WAT    EPW47122   1.163   0.956   6.034 -0.0570  0.2501 -0.0551
11601WAT      O47123   1.355   1.586   6.421 -0.5875 -0.2168 -0.1050
11601WAT     H147124   1.440   1.594   6.437 -0.7650 -0.4261  1.0323
11601WAT     H247125   1.323   1.552   6.495 -1.2670 -2.6512 -1.3813
11601WAT    EPW47126   1.362   1.582   6.434 -0.7141 -0.6073 -0.1255
11602WAT      O47127   1.298   0.704   5.604  0.2931 -0.2588  0.2148
11602WAT     H147128   1.354   0.682   5.667 -0.8946  0.1609  1.4636
11602WAT     H247129   1.227   0.730   5.648 -0.5358  0.1448 -1.3022
11602WAT    EPW47130   1.296   0.704   5.620 -0.0048 -0.1371  0.1751
11603WAT      O47131   2.157   0.304   3.014  0.1745  0.0024 -0.3961
11603WAT     H147132   2.179   0.316   2.930  2.1294  2.2267  0.3308
11603WAT     H247133   2.150   0.385   3.045  2.1160 -0.7132  2.2057
11603WAT    EPW47134   2.159   0.318   3.006  0.7501  0.2253  0.0956
11604WAT      O47135   2.938   2.328   6.940  0.5444  0.0266  0.4612
11604WAT     H147136   2.967   2.257   6.983  1.3070  0.3211  0.4482
11604WAT     H247137   2.984   2.326   6.866  1.5994  1.2962  1.0553
11604WAT    EPW47138   2.949   2.317   6.935  0.8129  0.2577  0.5470
11605WAT      O47139   1.127   1.931   5.079  0.4398  0.2897  0.0138
11605WAT     H147140   1.090   1.865   5.037  2.1147 -0.7777  0.1259
11605WAT     H247141   1.197   1.950   5.031  0.3793  1.5253  0.3594
11605WAT    EPW47142   1.132   1.924   5.066  0.6783  0.3145  0.0814
11606WAT      O47143   1.093   1.644   5.835 -0.3044 -0.1893 -0.5235
11606WAT     H147144   1.040   1.705   5.802  0.1116  0.5004  0.0522
11606WAT     H247145   1.120   1.679   5.911  1.7682 -0.0721 -1.2689
11606WAT    EPW47146   1.089   1.658   5.842  0.0633 -0.0701 -0.5486
11607WAT      O47147   1.303   1.371   4.054 -0.3873 -0.9571 -0.2498
11607WAT     H147148   1.362   1.367   4.119  0.1263 -0.2319 -0.6615
11607WAT     H247149   1.255   1.300   4.067  1.4745 -2.3906 -0.7832
11607WAT    EPW47150   1.305   1.360   4.066 -0.0364 -1.0617 -0.3894
11608WAT      O47151   1.121   7.206   4.870  0.1067 -0.5548 -0.1111
11608WAT     H147152   1.171   7.137   4.851  2.5628  1.3462 -1.0780
11608WAT     H247153   1.159   7.242   4.939 -0.4748  0.4254 -0.2691
11608WAT    EPW47154   1.134   7.201   4.877  0.3836 -0.1292 -0.2773
11609WAT      O47155   2.201   0.817   4.997 -0.2702 -0.8896  0.4914
11609WAT     H147156   2.144   0.863   4.950  2.1166  0.0245 -1.7043
11609WAT     H247157   2.165   0.737   5.001 -0.8260 -0.8802 -2.5478
11609WAT    EPW47158   2.187   0.812   4.991  0.0003 -0.7532 -0.2819
11610WAT      O47159   2.968   0.641   4.368  0.3188 -0.3647  0.2421
11610WAT     H147160   2.929   0.618   4.294  0.9312 -0.8630  0.0640
11610WAT     H247161   2.931   0.591   4.428 -0.1664  0.0272  0.2751
11610WAT    EPW47162   2.957   0.630   4.366  0.3376 -0.3804  0.2207
11611WAT      O47163   1.846   0.894   3.282 -0.3903  0.5162 -0.2063
11611WAT     H147164   1.772   0.907   3.328  0.5893  0.1630  1.5723
11611WAT     H247165   1.820   0.900   3.199 -2.7340 -1.1645  0.2967
11611WAT    EPW47166   1.831   0.897   3.277 -0.5918  0.2158  0.1308
11612WAT      O47167   1.080   2.590   5.916 -0.2870 -0.1946 -0.0729
11612WAT     H147168   1.070   2.541   5.845 -0.1019 -0.9607  0.4218
11612WAT     H247169   1.068   2.671   5.887  1.5974 -0.3038 -1.3724
11612WAT    EPW47170   1.077   2.595   5.901  0.0187 -0.3239 -0.1918
11613WAT      O47171   2.222   2.671   5.303  0.2540  0.4009 -0.4083
11613WAT     H147172   2.179   2.599   5.279 -0.8025  0.5470  0.8831
11613WAT     H247173   2.271   2.644   5.370  2.1954  0.2620 -1.8086
11613WAT    EPW47174   2.223   2.656   5.310  0.3847  0.4019 -0.4244
11614WAT      O47175   1.690   1.796   6.558 -0.0543 -0.2635  0.1992
11614WAT     H147176   1.753   1.747   6.522 -0.5709 -0.1215 -0.9186
11614WAT     H247177   1.688   1.768   6.641  1.6927 -0.0377  0.3535
11614WAT    EPW47178   1.699   1.784   6.565  0.1274 -0.2092  0.0569
11615WAT      O47179   1.222   1.319   3.100  0.4852  0.1710  0.0417
11615WAT     H147180   1.277   1.376   3.063  1.1667 -0.1732  0.5111
11615WAT     H247181   1.200   1.266   3.035  0.4022  0.5488 -0.2384
11615WAT    EPW47182   1.227   1.320   3.085  0.5736  0.1760  0.0696
11616WAT      O47183   1.671   1.348   5.834 -0.3668 -0.4290  0.6196
11616WAT     H147184   1.708   1.426   5.826 -0.1016 -0.6736 -1.1212
11616WAT     H247185   1.586   1.366   5.842 -0.3657  0.0434 -0.2996
11616WAT    EPW47186   1.664   1.362   5.834 -0.3275 -0.3954  0.2267
11617WAT      O47187   1.309   0.563   4.271 -0.5431  0.1560  0.1325
11617WAT     H147188   1.254   0.624   4.242 -0.5249 -0.2558 -0.8033
11617WAT     H247189   1.270   0.488   4.250 -1.0505 -0.2125  2.1630
11617WAT    EPW47190   1.295   0.561   4.264 -0.6153  0.0407  0.2942
11618WAT      O47191   0.874   2.934   5.312 -0.1147 -0.7111  0.0403
11618WAT     H147192   0.883   2.858   5.270  0.9962 -0.1150 -0.8570
11618WAT     H247193   0.936   2.931   5.373  0.7428 -0.0583 -0.7672
11618WAT    EPW47194   0.884   2.922   5.315  0.1761 -0.5266 -0.2115
11619WAT      O47195   1.098   2.067   5.376  0.6002 -0.3501 -0.1240
11619WAT     H147196   1.071   2.010   5.436  1.7877 -1.0509 -0.2210
11619WAT     H247197   1.083   2.026   5.300 -0.0973  0.1705 -0.2672
11619WAT    EPW47198   1.092   2.052   5.373  0.6726 -0.3767 -0.1595
11620WAT      O47199   1.130   4.498   5.121 -0.2812 -0.0566  0.1141
11620WAT     H147200   1.197   4.534   5.079  1.9506 -2.8421  0.9605
11620WAT     H247201   1.114   4.554   5.186 -0.1473  1.6141 -1.2186
11620WAT    EPW47202   1.137   4.512   5.124  0.0683 -0.2213  0.0422
11621WAT      O47203   2.340   1.719   3.886  0.1694 -0.4607 -0.1846
11621WAT     H147204   2.289   1.789   3.901  0.1306 -0.5065 -0.0973
11621WAT     H247205   2.312   1.661   3.945  1.5103  0.1231  1.0868
11621WAT    EPW47206   2.328   1.721   3.897  0.3618 -0.3812  0.0161
11622WAT      O47207   1.801   2.653   5.379 -0.2977 -0.3938  0.1653
11622WAT     H147208   1.739   2.621   5.433 -0.0196 -1.5022 -0.1411
11622WAT     H247209   1.772   2.631   5.300 -0.1487  0.2402 -0.0708
11622WAT    EPW47210   1.787   2.645   5.375 -0.2346 -0.4639  0.0852
11623WAT      O47211   1.490   0.747   5.797  0.0013  0.2584 -0.1211
11623WAT     H147212   1.509   0.832   5.789  0.2617  0.0696 -2.0638
11623WAT     H247213   1.565   0.708   5.774 -0.6814 -0.4785 -1.1834
11623WAT    EPW47214   1.504   0.754   5.792 -0.0611  0.1217 -0.5650
11624WAT      O47215   3.010   3.403   5.660 -0.1331 -0.3719 -0.2706
11624WAT     H147216   2.968   3.443   5.595 -0.0866  1.0872  0.5667
11624WAT     H247217   2.972   3.434   5.732 -0.5498 -2.3644  0.4397
11624WAT    EPW47218   2.998   3.414   5.661 -0.1878 -0.4507 -0.0420
11625WAT      O47219   2.287   2.595   6.398  0.4821  0.3038  0.1581
11625WAT     H147220   2.228   2.561   6.453  2.7233 -1.7777  1.4724
11625WAT     H247221   2.323   2.659   6.445  2.6206 -1.6839  1.3827
11625WAT    EPW47222   2.283   2.600   6.413  1.1290 -0.2973  0.5332
11626WAT      O47223   0.717   0.694   4.172 -0.0629  0.3579 -0.3358
11626WAT     H147224   0.733   0.736   4.246 -0.8413  0.2472 -0.0902
11626WAT     H247225   0.645   0.647   4.190  0.5428 -0.7635 -0.7160
11626WAT    EPW47226   0.708   0.693   4.185 -0.0884  0.1759 -0.3557
11627WAT      O47227   1.341   2.873   6.019  0.2753 -0.2784  0.0892
11627WAT     H147228   1.311   2.860   6.100  1.1705  1.4624  0.7527
11627WAT     H247229   1.336   2.960   6.009  0.5002 -0.4247 -1.6034
11627WAT    EPW47230   1.336   2.884   6.029  0.4408 -0.0429 -0.0628
11628WAT      O47231   1.406   1.669   5.365  0.3625 -0.1157 -0.1359
11628WAT     H147232   1.321   1.667   5.348  0.1610 -1.5967  0.8308
11628WAT     H247233   1.436   1.597   5.327  1.2739  0.5857 -0.7919
11628WAT    EPW47234   1.398   1.658   5.357  0.4674 -0.2309 -0.0900
11629WAT      O47235   1.112   1.614   5.228 -0.6084 -0.0585  0.9701
11629WAT     H147236   1.110   1.528   5.217  0.5736  0.0434 -0.2924
11629WAT     H247237   1.085   1.645   5.151  2.5399  0.6728  0.0285
11629WAT    EPW47238   1.107   1.606   5.215  0.0313  0.0646  0.6445
11630WAT      O47239   2.267   2.185   4.520  0.6149  0.3016  0.1155
11630WAT     H147240   2.329   2.218   4.571  0.3608 -0.1853  0.7524
11630WAT     H247241   2.208   2.153   4.576  0.6744 -0.8995 -0.4580
11630WAT    EPW47242   2.267   2.185   4.536  0.5862  0.0522  0.1249
11631WAT      O47243   2.114   1.188   5.424 -0.4940 -0.2150  0.6824
11631WAT     H147244   2.161   1.147   5.363  1.0980 -0.9451  2.3326
11631WAT     H247245   2.170   1.246   5.458 -1.6511  0.8719  0.8359
11631WAT    EPW47246   2.129   1.191   5.420 -0.4298 -0.1623  0.9488
11632WAT      O47247   1.379   2.370   5.423 -0.1160  0.6917 -0.0576
11632WAT     H147248   1.458   2.375   5.386  0.3391  1.3135  0.9368
11632WAT     H247249   1.388   2.418   5.495 -1.3247  0.5181  0.2233
11632WAT    EPW47250   1.392   2.378   5.429 -0.2274  0.7579  0.1308
11633WAT      O47251   1.506   1.110   4.018  0.0977 -0.8602  0.0755
11633WAT     H147252   1.521   1.186   3.978 -0.0966 -1.6178 -1.5148
11633WAT     H247253   1.586   1.083   4.041  0.0964  0.1967  1.4185
11633WAT    EPW47254   1.520   1.117   4.015  0.0688 -0.8160  0.0390
11634WAT      O47255   2.261   3.330   4.906  0.3958  0.2666 -0.3957
11634WAT     H147256   2.300   3.265   4.949 -0.8705 -0.3767 -0.1720
11634WAT     H247257   2.198   3.290   4.862 -0.5642  1.3757 -0.0724
11634WAT    EPW47258   2.257   3.314   4.906  0.0669  0.3354 -0.3149
11635WAT      O47259   1.795   2.081   4.816 -0.5551 -0.3202 -1.0816
11635WAT     H147260   1.765   2.152   4.858 -0.5229 -0.2634 -1.1543
11635WAT     H247261   1.864   2.112   4.772  0.8833 -0.8335  0.6440
11635WAT    EPW47262   1.801   2.096   4.816 -0.3379 -0.3876 -0.8375
11636WAT      O47263   1.554   3.132   4.071 -0.0021 -0.0811 -0.0911
11636WAT     H147264   1.623   3.132   4.018 -0.5712  0.8366 -0.8539
11636WAT     H247265   1.486   3.126   4.017 -0.5230 -2.3622  0.7062
11636WAT    EPW47266   1.554   3.131   4.056 -0.1631 -0.2825 -0.0860
11637WAT      O47267   1.427   1.491   5.027 -0.1644 -0.1075  0.1417
11637WAT     H147268   1.431   1.577   5.042 -0.6919  0.2388 -1.5574
11637WAT     H247269   1.449   1.456   5.104  1.8300  1.5453  0.4069
11637WAT    EPW47270   1.431   1.499   5.041  0.0523  0.1878 -0.0701
11638WAT      O47271   2.365   3.112   7.291 -0.5014 -0.5065  0.1821
11638WAT     H147272   2.364   3.196   7.268 -1.5211 -0.6780 -0.4844
11638WAT     H247273   2.286   3.084   7.267 -0.0541 -1.7319  0.0968
11638WAT    EPW47274   2.353   3.120   7.284 -0.5859 -0.7128  0.0710
11639WAT      O47275   1.356   1.129   4.249  0.1194 -0.6058 -0.0761
11639WAT     H147276   1.312   1.053   4.253 -0.7710 -0.1645 -1.1553
11639WAT     H247277   1.405   1.120   4.177  2.3601 -1.3376  1.4239
11639WAT    EPW47278   1.357   1.116   4.239  0.3189 -0.6487 -0.0140
11640WAT      O47279   2.464   2.348   4.643  0.1040  0.3572  0.4630
11640WAT     H147280   2.483   2.427   4.676  0.8511  0.1208  0.6143
11640WAT     H247281   2.460   2.362   4.557  0.2511  0.5582  0.4882
11640WAT    EPW47282   2.466   2.362   4.635  0.2361  0.3519  0.4891
11641WAT      O47283   2.229   1.448   5.454 -0.2419 -0.6633  0.0410
11641WAT     H147284   2.161   1.492   5.486  0.0978 -0.2572  0.2205
11641WAT     H247285   2.284   1.511   5.429 -0.6458 -0.9514 -1.7024
11641WAT    EPW47286   2.227   1.464   5.455 -0.2514 -0.6458 -0.1900
11642WAT      O47287   2.481   0.789   6.235 -0.5487  0.3718  0.1815
11642WAT     H147288   2.492   0.865   6.276 -1.8244  0.2794  0.7733
11642WAT     H247289   2.407   0.758   6.271 -0.9468 -0.3721 -1.2153
11642WAT    EPW47290   2.472   0.795   6.247 -0.7959  0.2483  0.0626
11643WAT      O47291   2.183   2.403   4.360 -0.0807 -0.2957  0.0007
11643WAT     H147292   2.216   2.330   4.395  1.2644  0.8306  1.1973
11643WAT     H247293   2.247   2.431   4.307 -0.4602  0.1945 -0.2049
11643WAT    EPW47294   2.198   2.397   4.357  0.0619 -0.0569  0.1471
11644WAT      O47295   1.571   1.564   3.659  0.1035  0.4182 -0.2075
11644WAT     H147296   1.498   1.610   3.647  0.7573  1.3651 -0.6472
11644WAT     H247297   1.552   1.486   3.624 -1.1773  0.1468  0.9813
11644WAT    EPW47298   1.558   1.559   3.652  0.0109  0.5180 -0.0968
11645WAT      O47299   2.959   2.362   4.486 -0.2412 -0.7248 -0.2062
11645WAT     H147300   3.020   2.321   4.438  0.0317 -0.9379  0.3142
11645WAT     H247301   2.924   2.297   4.534  0.3741 -0.3266  0.8173
11645WAT    EPW47302   2.963   2.346   4.486 -0.1100 -0.6975  0.0219
11646WAT      O47303   1.379   2.684   4.256  0.3799  0.3202  0.1432
11646WAT     H147304   1.433   2.744   4.225 -0.2344 -0.0097 -1.6506
11646WAT     H247305   1.403   2.611   4.215  0.0940 -0.3411  1.1015
11646WAT    EPW47306   1.390   2.682   4.246  0.2469  0.1738  0.0198
11647WAT      O47307   1.755   1.076   4.143 -0.7421 -0.3866 -0.4886
11647WAT     H147308   1.762   0.993   4.167 -0.4861  0.0612  1.0664
11647WAT     H247309   1.704   1.111   4.204 -1.2653  0.4951 -1.4091
11647WAT    EPW47310   1.749   1.069   4.155 -0.7816 -0.1902 -0.3949
11648WAT      O47311   0.967   2.717   4.051  0.0692 -0.0612 -0.4447
11648WAT     H147312   0.891   2.715   4.095 -0.2869 -0.8107 -1.0608
11648WAT     H247313   0.968   2.796   4.015  0.0445  0.3118  0.3523
11648WAT    EPW47314   0.956   2.728   4.053  0.0129 -0.1168 -0.4180
11649WAT      O47315   1.485   0.955   5.179 -0.1147  0.5301 -0.5639
11649WAT     H147316   1.469   0.935   5.096 -0.7072  0.1719 -0.3694
11649WAT     H247317   1.424   0.911   5.223  1.2924 -0.7703  0.1995
11649WAT    EPW47318   1.474   0.945   5.173  0.0056  0.2851 -0.4224
11650WAT      O47319   2.723   3.503   6.757  0.6514  0.1532  0.2705
11650WAT     H147320   2.646   3.544   6.748  0.2270 -0.9679 -2.0900
11650WAT     H247321   2.706   3.422   6.729  2.9806  0.2309 -1.7120
11650WAT    EPW47322   2.709   3.497   6.752  0.9328 -0.0009 -0.3710
11651WAT      O47323   1.589   1.347   4.817  0.4051  0.7815  0.4193
11651WAT     H147324   1.546   1.411   4.858  0.0645  0.3134  0.8069
11651WAT     H247325   1.525   1.293   4.792  0.6387  0.8883 -0.4429
11651WAT    EPW47326   1.573   1.349   4.819  0.3893  0.7281  0.3492
11652WAT      O47327   1.241   2.886   6.337 -0.3210  0.2016  0.0670
11652WAT     H147328   1.320   2.912   6.362  0.2865 -1.0510 -0.4588
11652WAT     H247329   1.194   2.960   6.336  0.6298  0.8462  1.1117
11652WAT    EPW47330   1.245   2.901   6.340 -0.0908  0.1118  0.1437
11653WAT      O47331   1.072   0.588   4.722  0.0950 -0.0045  0.3373
11653WAT     H147332   1.139   0.571   4.669 -0.4943 -0.5558 -0.2607
11653WAT     H247333   1.078   0.527   4.784  0.5094  0.3412  0.6373
11653WAT    EPW47334   1.082   0.577   4.723  0.0692 -0.0349  0.2933
11654WAT      O47335   1.586   1.897   4.762 -0.1778  0.0646 -0.1209
11654WAT     H147336   1.649   1.958   4.770 -1.0053  0.9882 -0.3871
11654WAT     H247337   1.514   1.939   4.789 -0.8717 -0.6221 -0.8695
11654WAT    EPW47338   1.585   1.913   4.768 -0.4026  0.0996 -0.2708
11655WAT      O47339   0.903   3.427   5.821 -0.4411  0.8566 -0.4324
11655WAT     H147340   0.854   3.424   5.894 -0.5355  0.2665 -0.5087
11655WAT     H247341   0.870   3.362   5.772  0.2803  0.5800 -0.5706
11655WAT    EPW47342   0.891   3.417   5.825 -0.3485  0.7286 -0.4641
11656WAT      O47343   0.971   0.722   5.747 -0.4495  0.7262  0.1059
11656WAT     H147344   0.911   0.702   5.687 -1.4308 -0.3688  1.3882
11656WAT     H247345   1.014   0.647   5.759 -0.1747  0.9653  0.6577
11656WAT    EPW47346   0.968   0.708   5.740 -0.5539  0.5998  0.3768
11657WAT      O47347   1.200   1.565   4.853  0.1970  0.3024 -0.4380
11657WAT     H147348   1.266   1.542   4.905  0.0559  2.8093  1.0065
11657WAT     H247349   1.181   1.491   4.811  3.3931 -0.7120 -0.3798
11657WAT    EPW47350   1.207   1.551   4.855  0.6483  0.5228 -0.2160
11658WAT      O47351   1.071   2.620   3.063 -0.4920  0.6080  0.3388
11658WAT     H147352   1.084   2.558   3.003 -0.2793  0.5933  0.4009
11658WAT     H247353   1.018   2.581   3.120 -0.8684  0.6930  0.0521
11658WAT    EPW47354   1.065   2.605   3.063 -0.5162  0.6184  0.3056
11659WAT      O47355   1.366   3.175   6.051 -0.3126 -0.1857 -0.1199
11659WAT     H147356   1.339   3.229   5.988 -0.6727  0.1446  0.3119
11659WAT     H247357   1.353   3.220   6.124 -0.6258 -0.8640  0.2511
11659WAT    EPW47358   1.360   3.190   6.053 -0.4121 -0.2371 -0.0013
11660WAT      O47359   2.653   3.272   6.993 -0.3469  0.1834 -0.3559
11660WAT     H147360   2.633   3.272   6.908 -0.1944 -1.2446 -0.4189
11660WAT     H247361   2.657   3.187   7.013  0.1424  0.4913  0.9566
11660WAT    EPW47362   2.651   3.260   6.984 -0.2521  0.0179 -0.1713
11661WAT      O47363   3.289   0.686   5.563 -0.4733  0.4807 -0.5257
11661WAT     H147364   3.318   0.760   5.599 -0.2229  0.6885 -1.1546
11661WAT     H247365   3.209   0.677   5.598 -0.8213  1.4597 -1.0240
11661WAT    EPW47366   3.281   0.695   5.574 -0.4877  0.6560 -0.6922
11662WAT      O47367   1.738   2.077   6.159  0.1301 -0.0356  0.4345
11662WAT     H147368   1.818   2.102   6.183  1.0638  0.2521 -2.6265
11662WAT     H247369   1.746   1.991   6.146 -0.1415 -0.0578  0.4027
11662WAT    EPW47370   1.751   2.068   6.161  0.2279  0.0037 -0.0224
11663WAT      O47371   1.332   2.004   4.882 -0.1781  0.6114  0.1700
11663WAT     H147372   1.347   2.081   4.920  0.1873  1.3980 -1.4858
11663WAT     H247373   1.330   2.023   4.797 -1.7182 -0.9450 -0.1935
11663WAT    EPW47374   1.334   2.019   4.875 -0.3516  0.4976 -0.1283
11664WAT      O47375   1.416   0.867   3.613  0.1325 -0.2404  0.1356
11664WAT     H147376   1.423   0.788   3.576  1.1454  0.3685 -1.0729
11664WAT     H247377   1.466   0.918   3.562  0.1470  1.0282  1.3446
11664WAT    EPW47378   1.425   0.863   3.600  0.2843  0.0370  0.1357
11665WAT      O47379   0.761   0.858   4.381 -0.6032  0.1302  0.1391
11665WAT     H147380   0.787   0.834   4.461  1.3891  0.7535 -0.2450
11665WAT     H247381   0.686   0.899   4.395  1.0469  2.8295  2.1704
11665WAT    EPW47382   0.754   0.860   4.395 -0.0652  0.6210  0.3824
11666WAT      O47383   1.145   3.201   5.267 -0.3610 -0.0509  0.1850
11666WAT     H147384   1.164   3.284   5.287  1.5204 -0.8931  2.3259
11666WAT     H247385   1.061   3.193   5.288 -1.1026  1.7137 -1.7553
11666WAT    EPW47386   1.136   3.212   5.273 -0.1926  0.0854  0.2147
11667WAT      O47387   0.936   1.000   5.315 -0.1124 -0.6607  0.3604
11667WAT     H147388   0.885   0.929   5.316  0.3611 -1.0530 -0.8689
11667WAT     H247389   0.963   1.004   5.232  0.3155  0.6439  0.5453
11667WAT    EPW47390   0.933   0.990   5.303  0.0208 -0.5259  0.2061
11668WAT      O47391   1.185   1.351   5.267  0.1447  0.1627  0.4911
11668WAT     H147392   1.241   1.340   5.333  1.2216 -0.7022 -0.5307
11668WAT     H247393   1.229   1.322   5.197 -1.9096 -1.4581 -0.2121
11668WAT    EPW47394   1.200   1.345   5.266  0.0003 -0.2045  0.2363
11669WAT      O47395   2.561   1.346   3.631 -0.7120 -0.0317  0.2280
11669WAT     H147396   2.522   1.268   3.636  0.5089 -0.7832 -1.1473
11669WAT     H247397   2.640   1.332   3.663 -0.2048  0.4176 -0.7793
11669WAT    EPW47398   2.567   1.332   3.636 -0.4568 -0.0763 -0.1240
11670WAT      O47399   1.685   4.357   4.712  0.1384  0.0650  0.1407
11670WAT     H147400   1.759   4.394   4.684  0.7557 -0.8286  0.5496
11670WAT     H247401   1.673   4.291   4.656 -0.5595  0.4104 -0.1377
11670WAT    EPW47402   1.694   4.353   4.700  0.1265 -0.0160  0.1600
11671WAT      O47403   0.796   1.332   7.305 -0.1122 -0.0277 -0.4400
11671WAT     H147404   0.762   1.393   7.253  2.3051  1.9109  0.0838
11671WAT     H247405   0.853   1.290   7.254 -0.8599 -1.0608 -0.4589
11671WAT    EPW47406   0.799   1.335   7.290  0.1344  0.1061 -0.3654
11672WAT      O47407   1.497   2.113   6.300  0.4567  0.2188 -0.4028
11672WAT     H147408   1.577   2.106   6.264  0.7111  2.1301 -0.3159
11672WAT     H247409   1.500   2.056   6.366  1.0321 -1.1774 -1.5698
11672WAT    EPW47410   1.509   2.103   6.305  0.5792  0.2949 -0.5624
11673WAT      O47411   2.939   1.130   6.713 -0.1678 -0.0295  0.1400
11673WAT     H147412   2.934   1.215   6.693 -0.3134 -0.1464 -0.3425
11673WAT     H247413   2.995   1.127   6.780  2.0069  0.1752 -1.5724
11673WAT    EPW47414   2.946   1.142   6.720  0.1319 -0.0165 -0.1842
11674WAT      O47415   2.935   0.849   3.465 -0.8221 -0.2427  0.4305
11674WAT     H147416   2.895   0.889   3.399 -1.6656 -0.6165  0.6995
11674WAT     H247417   3.013   0.826   3.432 -0.9746  0.1753 -0.2141
11674WAT    EPW47418   2.941   0.851   3.451 -0.9692 -0.2362  0.3750
11675WAT      O47419   1.199   2.305   4.994  0.8762  0.5987  0.1553
11675WAT     H147420   1.143   2.243   4.970  0.0420  0.3104  2.5353
11675WAT     H247421   1.239   2.270   5.063  1.8735  1.9424  0.3010
11675WAT    EPW47422   1.197   2.291   5.001  0.9003  0.7546  0.5284
11676WAT      O47423   0.892   0.804   4.629  0.6620  0.5672 -0.0679
11676WAT     H147424   0.814   0.796   4.667 -0.2883 -1.3634 -2.2096
11676WAT     H247425   0.939   0.739   4.663  0.7374  0.5828 -0.1415
11676WAT    EPW47426   0.888   0.793   4.640  0.5328  0.2843 -0.3952
11677WAT      O47427   1.903   0.825   4.652 -0.3916 -0.9492  0.0017
11677WAT     H147428   1.951   0.873   4.707  0.5499 -0.1387 -1.4823
11677WAT     H247429   1.928   0.744   4.669  1.5456 -0.5535 -0.7236
11677WAT    EPW47430   1.914   0.820   4.663  0.0336 -0.7710 -0.3247
11678WAT      O47431   1.249   1.276   4.454 -0.2914 -0.2153 -0.0431
11678WAT     H147432   1.266   1.235   4.379  0.9854  0.2136 -0.0115
11678WAT     H247433   1.309   1.339   4.457 -0.3506 -0.1911  1.3205
11678WAT    EPW47434   1.260   1.279   4.443 -0.1116 -0.1483  0.1630
11679WAT      O47435   0.748   3.353   6.053 -0.2423  0.3827 -0.0191
11679WAT     H147436   0.790   3.281   6.079  0.0007 -0.2724 -2.0609
11679WAT     H247437   0.740   3.399   6.126  1.4361 -0.7874  0.9711
11679WAT    EPW47438   0.753   3.349   6.068  0.0415  0.1130 -0.1744
11680WAT      O47439   2.181   2.819   4.530  0.2680  0.0065 -0.2087
11680WAT     H147440   2.108   2.775   4.513 -1.6047  2.5837  0.5684
11680WAT     H247441   2.203   2.853   4.452 -1.4607  2.0715  0.1285
11680WAT    EPW47442   2.174   2.818   4.516 -0.2640  0.6923 -0.0441
11681WAT      O47443   1.625   2.353   4.819  0.3938  0.0483 -0.1507
11681WAT     H147444   1.553   2.368   4.865  1.0309 -0.4974  1.0705
11681WAT     H247445   1.675   2.423   4.835  0.1159  0.4916 -1.1009
11681WAT    EPW47446   1.622   2.366   4.828  0.4469  0.0332 -0.1107
11682WAT      O47447   0.902   0.484   4.163 -0.3435 -0.0707 -0.4823
11682WAT     H147448   0.836   0.541   4.156  0.6076  1.0661 -0.4568
11682WAT     H247449   0.873   0.415   4.118 -2.0169 -0.0552  0.4715
11682WAT    EPW47450   0.888   0.482   4.155 -0.4502  0.0995 -0.3376
11683WAT      O47451   1.279   0.934   4.660 -0.1846 -0.1780  0.2195
11683WAT     H147452   1.224   0.912   4.724 -0.9410 -0.9324 -0.6645
11683WAT     H247453   1.354   0.897   4.683 -1.2181 -3.2067 -0.8457
11683WAT    EPW47454   1.282   0.925   4.673 -0.4490 -0.7368 -0.0684
11684WAT      O47455   1.082   1.000   3.690 -0.6601  0.2224  0.1761
11684WAT     H147456   1.160   0.967   3.711 -0.7786 -1.4387 -1.7033
11684WAT     H247457   1.025   0.945   3.728 -0.8791  0.1669 -0.2175
11684WAT    EPW47458   1.085   0.987   3.699 -0.7100 -0.0312 -0.1596
11685WAT      O47459   2.343   2.215   4.945  0.5689 -0.1796  0.0761
11685WAT     H147460   2.333   2.129   4.931  0.4833 -0.1518 -0.0293
11685WAT     H247461   2.352   2.220   5.032 -0.0848 -0.2288  0.1480
11685WAT    EPW47462   2.343   2.203   4.956  0.4597 -0.1828  0.0711
11686WAT      O47463   3.032   1.337   4.747 -0.3879  0.0815  0.0242
11686WAT     H147464   2.990   1.307   4.818  0.7493  0.0672  0.7130
11686WAT     H247465   2.978   1.397   4.715 -0.0476  1.5736  2.0792
11686WAT    EPW47466   3.018   1.341   4.753 -0.1696  0.2998  0.4295
11687WAT      O47467   1.580   3.394   6.749  0.8041 -0.3421  0.6022
11687WAT     H147468   1.666   3.376   6.744  1.1345  0.9522  1.1062
11687WAT     H247469   1.572   3.469   6.705 -0.0732 -0.4569  0.5496
11687WAT    EPW47470   1.592   3.402   6.742  0.7233 -0.1679  0.6689
11688WAT      O47471   1.334   0.945   3.863 -0.0371  0.1776  0.2032
11688WAT     H147472   1.383   1.003   3.905 -1.1823  1.8103 -0.6070
11688WAT     H247473   1.382   0.923   3.794  0.3134  0.3237  0.3974
11688WAT    EPW47474   1.348   0.950   3.859 -0.1545  0.4404  0.1122
11689WAT      O47475   0.499   0.961   4.296  0.1205  0.1356 -0.1391
11689WAT     H147476   0.489   1.006   4.222 -2.7438  0.4099  0.3019
11689WAT     H247477   0.483   1.020   4.358 -0.9854 -0.8246  0.5417
11689WAT    EPW47478   0.495   0.976   4.294 -0.4660  0.0343  0.0266
11690WAT      O47479   1.281   0.354   5.313  0.3750  0.5029 -0.0296
11690WAT     H147480   1.291   0.274   5.279 -2.1402  0.1100  0.0103
11690WAT     H247481   1.338   0.403   5.268 -0.5688 -0.6267 -2.5732
11690WAT    EPW47482   1.291   0.350   5.302 -0.1360  0.2780 -0.3995
11691WAT      O47483   1.236   1.881   3.966 -1.1365 -0.1087 -1.1247
11691WAT     H147484   1.215   1.800   3.941 -1.5361 -0.2366 -0.3984
11691WAT     H247485   1.251   1.874   4.051 -1.6790  0.6717 -0.9465
11691WAT    EPW47486   1.235   1.868   3.975 -1.2756 -0.0123 -0.9911
11692WAT      O47487   3.125   1.056   4.637 -0.1415  0.3411  0.7512
11692WAT     H147488   3.071   1.083   4.700 -0.5123 -3.3670  2.3172
11692WAT     H247489   3.071   1.023   4.577  0.1846 -1.7482  1.4999
11692WAT    EPW47490   3.109   1.055   4.637 -0.1481 -0.5153  1.0931
11693WAT      O47491   0.856   3.644   5.654  0.8635 -0.4712 -0.2668
11693WAT     H147492   0.806   3.617   5.587  1.7242  1.3314 -1.7288
11693WAT     H247493   0.862   3.573   5.704 -1.6838 -1.2662 -0.9061
11693WAT    EPW47494   0.849   3.630   5.651  0.6144 -0.3223 -0.5772
11694WAT      O47495   1.597   1.626   4.715 -0.1699  0.0277  0.2612
11694WAT     H147496   1.628   1.707   4.703 -1.5996  0.6489  0.5891
11694WAT     H247497   1.664   1.584   4.752  1.2256  0.5453 -1.5034
11694WAT    EPW47498   1.612   1.632   4.719 -0.1749  0.1959  0.0490
11695WAT      O47499   1.477   1.939   5.229 -0.8160 -0.8207  0.4965
11695WAT     H147500   1.495   1.900   5.153 -1.1504 -1.5104  0.7594
11695WAT     H247501   1.442   1.875   5.277  2.3495 -1.3542  2.4014
11695WAT    EPW47502   1.475   1.924   5.225 -0.3978 -1.0014  0.8167
11696WAT      O47503   1.631   3.165   6.123 -0.1845  0.2956  0.0452
11696WAT     H147504   1.669   3.241   6.104 -0.6677  0.3634 -0.6787
11696WAT     H247505   1.551   3.172   6.089 -0.4489 -0.3009  0.5115
11696WAT    EPW47506   1.625   3.177   6.115 -0.2949  0.2175  0.0071
11697WAT      O47507   2.602   2.810   6.745 -0.3370 -0.2756  0.8086
11697WAT     H147508   2.658   2.743   6.750  0.4631  0.3292  0.2755
11697WAT     H247509   2.545   2.785   6.684  1.7118  0.6872 -1.7404
11697WAT    EPW47510   2.602   2.797   6.737  0.0839 -0.0440  0.3533
11698WAT      O47511   2.711   2.769   5.971 -0.4955 -0.2322 -0.1596
11698WAT     H147512   2.680   2.754   6.051  0.4759 -0.4296  0.1939
11698WAT     H247513   2.703   2.692   5.931 -0.0979 -0.3992  0.0682
11698WAT    EPW47514   2.706   2.756   5.977 -0.2933 -0.2860 -0.0737
11699WAT      O47515   3.171   0.688   6.233 -0.2389 -0.6974 -0.4339
11699WAT     H147516   3.160   0.623   6.176  0.9501 -0.9674 -0.3911
11699WAT     H247517   3.094   0.695   6.273 -1.1643 -0.3877 -2.1773
11699WAT    EPW47518   3.158   0.680   6.231 -0.2000 -0.6915 -0.6851
11700WAT      O47519   0.756   3.787   6.064 -0.3438 -0.1771 -0.5247
11700WAT     H147520   0.718   3.786   5.985  0.7699  0.0488 -1.0963
11700WAT     H247521   0.801   3.863   6.063 -0.0826 -0.3199  0.2031
11700WAT    EPW47522   0.757   3.798   6.052 -0.1407 -0.1648 -0.5016
11701WAT      O47523   2.349   3.143   3.977 -0.0096  0.5338 -0.5580
11701WAT     H147524   2.347   3.129   4.063 -1.0482  1.4805 -0.3915
11701WAT     H247525   2.385   3.071   3.945  1.7399  0.7638  0.7719
11701WAT    EPW47526   2.354   3.130   3.985  0.0954  0.7076 -0.3370
11702WAT      O47527   1.854   2.219   6.536  0.1517 -0.0518  0.3240
11702WAT     H147528   1.847   2.156   6.596  1.3673 -1.3764 -0.8746
11702WAT     H247529   1.781   2.265   6.548 -0.5461 -1.3800  1.5675
11702WAT    EPW47530   1.842   2.217   6.547  0.2282 -0.4436  0.3306
11703WAT      O47531   1.542   2.742   6.363  0.0215  0.2025  0.4804
11703WAT     H147532   1.567   2.821   6.336  0.6773 -0.4044 -0.7692
11703WAT     H247533   1.533   2.752   6.449 -0.2411  1.7152  0.3079
11703WAT    EPW47534   1.544   2.755   6.372  0.0796  0.3363  0.2703
11704WAT      O47535   1.476   0.713   6.302 -0.0521 -0.6444 -0.0793
11704WAT     H147536   1.445   0.714   6.220 -0.9623 -0.2459  0.2628
11704WAT     H247537   1.417   0.666   6.345 -0.6127  0.7626  0.7446
11704WAT    EPW47538   1.463   0.706   6.296 -0.2694 -0.3777  0.0930
11705WAT      O47539   0.909   3.639   4.740 -0.0113  0.1673 -0.0544
11705WAT     H147540   0.835   3.660   4.780  0.1838  0.6581  0.0660
11705WAT     H247541   0.959   3.710   4.753  0.4367 -0.1180 -0.2204
11705WAT    EPW47542   0.906   3.653   4.748  0.0837  0.1976 -0.0611
11706WAT      O47543   2.909   1.350   5.023  0.1686 -0.0154  0.4622
11706WAT     H147544   2.824   1.335   5.011 -0.4250  1.9874  1.6447
11706WAT     H247545   2.922   1.328   5.106  0.4205  1.1325  0.7396
11706WAT    EPW47546   2.898   1.344   5.033  0.1181  0.4500  0.6779
11707WAT      O47547   0.917   1.272   5.319 -0.0542 -0.0348  0.2914
11707WAT     H147548   0.999   1.303   5.321  0.2839 -0.4979 -2.7112
11707WAT     H247549   0.927   1.186   5.318 -0.5463 -0.0949 -0.2425
11707WAT    EPW47550   0.931   1.264   5.319 -0.0770 -0.1121 -0.2310
11708WAT      O47551   4.161   2.432   5.123 -0.7538 -0.1949  0.7643
11708WAT     H147552   4.136   2.401   5.200 -0.7747 -1.0657  0.4218
11708WAT     H247553   4.153   2.363   5.070 -0.4902  0.3187  0.0417
11708WAT    EPW47554   4.156   2.417   5.126 -0.7180 -0.2477  0.6070
11709WAT      O47555   1.026   2.074   5.752  0.7162  0.4001  0.6643
11709WAT     H147556   1.023   2.000   5.704  0.7377 -1.6740  3.6090
11709WAT     H247557   0.946   2.107   5.742 -0.0486 -1.2347  0.9309
11709WAT    EPW47558   1.014   2.068   5.743  0.6064 -0.1478  1.1387
11710WAT      O47559   1.842   1.421   5.085 -0.4451 -0.2883  0.4068
11710WAT     H147560   1.846   1.441   5.000  0.9559  0.6954  0.6729
11710WAT     H247561   1.771   1.371   5.091  0.8972 -2.6770 -1.7888
11710WAT    EPW47562   1.832   1.416   5.073 -0.0398 -0.4959  0.1218
11711WAT      O47563   1.413   1.424   5.920 -0.3559 -0.3093 -0.2274
11711WAT     H147564   1.357   1.357   5.927 -0.0478 -0.6617 -1.0310
11711WAT     H247565   1.383   1.468   5.851 -0.0776 -0.0757 -0.1977
11711WAT    EPW47566   1.400   1.420   5.911 -0.2693 -0.3268 -0.3417
11712WAT      O47567   2.028   1.460   4.616 -0.2313  0.6260  0.5331
11712WAT     H147568   2.014   1.530   4.566  0.5849  0.0073 -0.6120
11712WAT     H247569   2.105   1.430   4.588 -1.7323 -2.2891 -0.9922
11712WAT    EPW47570   2.037   1.466   4.604 -0.3325  0.1040  0.1386
11713WAT      O47571   0.923   1.695   5.401  0.2115 -0.1335 -0.2097
11713WAT     H147572   0.992   1.673   5.353 -1.6009  0.8711 -3.6089
11713WAT     H247573   0.891   1.618   5.427  2.0803 -0.6312  0.7924
11713WAT    EPW47574   0.928   1.680   5.398  0.2198 -0.0586 -0.5638
11714WAT      O47575   1.240   2.239   5.739 -0.4464 -0.3882  0.1150
11714WAT     H147576   1.178   2.181   5.758  0.5038 -1.5700 -0.2883
11714WAT     H247577   1.268   2.214   5.660  1.3104 -0.5919  0.7590
11714WAT    EPW47578   1.235   2.227   5.730 -0.0465 -0.5928  0.1505
11715WAT      O47579   2.270   1.493   4.796 -0.0480 -0.8521 -0.4039
11715WAT     H147580   2.244   1.467   4.717 -0.0147 -1.1713 -0.3112
11715WAT     H247581   2.224   1.442   4.851 -0.3797 -0.3488 -0.2063
11715WAT    EPW47582   2.259   1.481   4.793 -0.0921 -0.8249 -0.3610
11716WAT      O47583   2.163   1.788   5.478  0.4752  0.7032 -0.8294
11716WAT     H147584   2.114   1.859   5.493  0.9878  0.8403  0.2973
11716WAT     H247585   2.112   1.723   5.506 -0.1574  0.5578 -2.2304
11716WAT    EPW47586   2.148   1.789   5.484  0.4574  0.7020 -0.8699
11717WAT      O47587   1.962   3.576   4.365  0.3005 -0.6669  0.0754
11717WAT     H147588   2.046   3.582   4.343  0.9175  1.6472  2.5427
11717WAT     H247589   1.954   3.495   4.396  1.4589 -1.0665 -0.5881
11717WAT    EPW47590   1.973   3.565   4.366  0.5627 -0.3841  0.3418
11718WAT      O47591   0.807   0.434   5.303  0.7324 -0.5271  0.2915
11718WAT     H147592   0.806   0.516   5.332 -0.2000 -0.6845  0.7487
11718WAT     H247593   0.886   0.426   5.267  0.1368  1.1555 -1.5334
11718WAT    EPW47594   0.818   0.445   5.302  0.5067 -0.3018  0.0894
11719WAT      O47595   3.354   1.590   4.863  0.4032  0.2872  0.0899
11719WAT     H147596   3.369   1.671   4.832 -0.5256  0.5436  0.2773
11719WAT     H247597   3.433   1.554   4.863  0.6318  0.7007 -1.3858
11719WAT    EPW47598   3.368   1.597   4.858  0.2998  0.3861 -0.1004
11720WAT      O47599   2.426   2.279   2.763 -0.8693 -0.2011  0.2798
11720WAT     H147600   2.432   2.298   2.678 -1.0540 -1.4263 -0.0290
11720WAT     H247601   2.382   2.204   2.764  1.5183 -1.7080  1.2453
11720WAT    EPW47602   2.420   2.271   2.751 -0.5439 -0.6047  0.3768
11721WAT      O47603   2.100   3.073   5.398  0.1760  0.1645 -0.2207
11721WAT     H147604   2.075   2.999   5.436 -0.9297 -0.2048 -1.5563
11721WAT     H247605   2.187   3.071   5.402  0.1063 -0.0713  1.7859
11721WAT    EPW47606   2.109   3.062   5.404  0.0024  0.0751 -0.1216
11722WAT      O47607   1.495   2.135   5.824  0.2682  0.2129 -0.4335
11722WAT     H147608   1.464   2.154   5.903 -1.5885 -1.4723 -0.6762
11722WAT     H247609   1.439   2.175   5.770  1.1540  0.8253 -0.9429
11722WAT    EPW47610   1.482   2.144   5.827  0.1248  0.0544 -0.5446
11723WAT      O47611   2.271   1.378   4.524 -0.1401  0.0027 -0.2921
11723WAT     H147612   2.311   1.435   4.472  1.0319  0.7539  1.3696
11723WAT     H247613   2.325   1.309   4.525 -0.7193 -0.4805 -0.9320
11723WAT    EPW47614   2.285   1.376   4.516 -0.0525  0.0423 -0.1411
11724WAT      O47615   1.270   2.079   4.632 -0.2721 -0.2995  0.0801
11724WAT     H147616   1.283   2.165   4.638  0.6624 -0.4884  0.9954
11724WAT     H247617   1.214   2.071   4.565 -0.4432  1.0175  0.0482
11724WAT    EPW47618   1.263   2.091   4.623 -0.1593 -0.1328  0.2106
11725WAT      O47619   1.583   1.755   5.043 -0.1772 -0.9752 -0.6415
11725WAT     H147620   1.656   1.725   5.081  0.6287  2.2985  0.7607
11725WAT     H247621   1.607   1.764   4.959  1.0111 -0.1899 -0.2533
11725WAT    EPW47622   1.598   1.752   5.036  0.1174 -0.3756 -0.3770
11726WAT      O47623   1.676   2.004   3.677 -0.0357  0.3542 -0.2730
11726WAT     H147624   1.611   1.986   3.733  1.6738  0.2902  1.8345
11726WAT     H247625   1.675   1.935   3.623 -0.8442 -0.3578  0.5995
11726WAT    EPW47626   1.667   1.991   3.678  0.0974  0.2396  0.1672
11727WAT      O47627   1.968   0.185   6.234  0.6053 -0.1330 -0.2836
11727WAT     H147628   1.954   0.271   6.236  0.7445 -0.1149  0.0258
11727WAT     H247629   2.033   0.174   6.292 -0.3313 -0.6114  0.7045
11727WAT    EPW47630   1.976   0.196   6.243  0.4875 -0.2010 -0.0920
11728WAT      O47631   3.010   2.903   5.310 -0.0928 -0.1023 -0.6425
11728WAT     H147632   3.049   2.831   5.279 -1.2593 -1.4058  0.7378
11728WAT     H247633   3.074   2.946   5.351  0.4351 -0.8087 -0.7114
11728WAT    EPW47634   3.025   2.899   5.312 -0.1871 -0.3992 -0.4488
11729WAT      O47635   1.180   3.744   6.990  0.4720 -0.8471  0.1146
11729WAT     H147636   1.169   3.778   7.069 -0.5213 -1.0922  0.1032
11729WAT     H247637   1.211   3.664   7.006  0.8469 -0.6839  0.2213
11729WAT    EPW47638   1.183   3.737   7.004  0.3806 -0.8592  0.1287
11730WAT      O47639   1.426   0.821   7.727 -0.6194  0.1876 -0.9849
11730WAT     H147640   1.479   0.825   7.796 -0.8115 -0.2106 -0.8133
11730WAT     H247641   1.450   0.747   7.687 -0.9667  0.0639 -0.9683
11730WAT    EPW47642   1.437   0.811   7.731 -0.6991  0.1105 -0.9571
11731WAT      O47643   2.447   3.154   5.684 -0.1832 -0.3193  0.1610
11731WAT     H147644   2.379   3.191   5.643 -0.8170 -1.4425  0.1416
11731WAT     H247645   2.436   3.069   5.668  0.6040 -0.6186  1.1204
11731WAT    EPW47646   2.435   3.147   5.676 -0.1605 -0.5294  0.2999
11732WAT      O47647   1.772   2.282   5.518 -0.4185  0.5083  0.2112
11732WAT     H147648   1.855   2.287   5.493 -0.0214  0.8432  1.4963
11732WAT     H247649   1.749   2.201   5.497 -1.2716  1.6559 -4.3846
11732WAT    EPW47650   1.781   2.271   5.512 -0.4858  0.7273 -0.2779
11733WAT      O47651   2.756   2.564   6.721 -0.3153  0.4218 -0.6558
11733WAT     H147652   2.719   2.511   6.663 -2.7014 -0.9496  1.9032
11733WAT     H247653   2.831   2.522   6.741 -0.8575 -0.5860 -0.6649
11733WAT    EPW47654   2.762   2.550   6.716 -0.7479  0.0704 -0.2791
11734WAT      O47655   0.738   0.993   6.190  0.0166  0.1489 -0.1411
11734WAT     H147656   0.740   1.078   6.170 -0.1232  0.2967  0.4585
11734WAT     H247657   0.733   0.954   6.112  1.8741  0.6064 -0.5329
11734WAT    EPW47658   0.738   1.000   6.175  0.2704  0.2383 -0.1104
11735WAT      O47659   0.841   2.585   6.528 -0.0316 -0.1482 -0.3025
11735WAT     H147660   0.909   2.612   6.481 -0.0671 -0.3936 -0.5001
11735WAT     H247661   0.794   2.657   6.540  1.7407  0.6786  2.4071
11735WAT    EPW47662   0.844   2.599   6.523  0.2250 -0.0623  0.0686
11736WAT      O47663   1.880   1.443   3.992  0.6543  0.0821  0.0790
11736WAT     H147664   1.875   1.514   3.941 -0.6409  0.0883  0.1783
11736WAT     H247665   1.808   1.398   3.971  0.3651 -0.1754  1.4906
11736WAT    EPW47666   1.868   1.447   3.982  0.4202  0.0450  0.3022
11737WAT      O47667   2.412   0.659   7.095 -0.2490  0.1217  0.0873
11737WAT     H147668   2.428   0.744   7.101 -0.8900  0.2381  0.2479
11737WAT     H247669   2.472   0.630   7.039 -0.3358  0.7648 -0.3482
11737WAT    EPW47670   2.423   0.667   7.088 -0.3565  0.2339  0.0467
11738WAT      O47671   1.886   3.540   5.102  0.5612  0.2150 -0.3765
11738WAT     H147672   1.943   3.476   5.119  0.1255  0.5139  2.7501
11738WAT     H247673   1.927   3.612   5.129 -0.9787  0.4957  1.3997
11738WAT    EPW47674   1.900   3.541   5.108  0.2693  0.3006  0.3477
11739WAT      O47675   2.354   3.209   6.673 -0.5272 -0.0947 -0.5656
11739WAT     H147676   2.317   3.233   6.748 -0.1280  0.2059 -0.4682
11739WAT     H247677   2.299   3.147   6.643 -0.3372 -0.7007  0.2947
11739WAT    EPW47678   2.340   3.203   6.679 -0.4402 -0.1398 -0.4241
11740WAT      O47679   0.777   3.547   4.491  0.0653 -0.0998  0.1737
11740WAT     H147680   0.842   3.577   4.542  1.9310 -0.9574 -1.5738
11740WAT     H247681   0.775   3.461   4.509 -0.6728 -0.0765  0.2495
11740WAT    EPW47682   0.786   3.539   4.501  0.2318 -0.2230 -0.0733
11741WAT      O47683   2.004   1.032   4.034 -0.3864 -0.0384  0.0758
11741WAT     H147684   1.918   1.048   4.038 -0.2227  0.7686  1.1404
11741WAT     H247685   2.038   1.097   4.082  0.8484 -0.1106 -0.6736
11741WAT    EPW47686   1.996   1.044   4.042 -0.1798  0.0702  0.1223
11742WAT      O47687   0.463   0.232   5.524 -0.0130  0.1529 -0.5057
11742WAT     H147688   0.541   0.212   5.490 -0.4216  1.8555 -2.6825
11742WAT     H247689   0.478   0.308   5.565 -0.4029  0.1154 -0.2896
11742WAT    EPW47690   0.477   0.240   5.525 -0.1310  0.3989 -0.7953
11743WAT      O47691   1.027   0.941   4.215  0.1913 -0.0200 -0.5424
11743WAT     H147692   1.047   0.970   4.295 -2.4340  1.5982 -0.3584
11743WAT     H247693   0.939   0.940   4.215  0.0269 -4.5627 -1.8624
11743WAT    EPW47694   1.017   0.945   4.227 -0.2208 -0.4520 -0.7102
11744WAT      O47695   1.684   1.538   4.382 -0.6455  0.0365 -0.1193
11744WAT     H147696   1.673   1.619   4.350 -2.8918 -0.5430 -0.9777
11744WAT     H247697   1.621   1.531   4.443 -1.8694 -1.7067 -1.4756
11744WAT    EPW47698   1.673   1.549   4.386 -1.1582 -0.3066 -0.4465
11745WAT      O47699   2.834   1.756   4.804  0.2925  1.2249  0.3362
11745WAT     H147700   2.879   1.693   4.845  0.7670  0.9942 -0.5228
11745WAT     H247701   2.785   1.791   4.868 -2.6295 -2.2097  0.3125
11745WAT    EPW47702   2.833   1.752   4.820 -0.0691  0.6835  0.2058
11746WAT      O47703   1.446   1.488   4.519 -0.0100 -0.1821 -0.0054
11746WAT     H147704   1.383   1.541   4.489  0.1247  0.3488  0.6125
11746WAT     H247705   1.462   1.519   4.599  1.4258  0.0530 -0.3474
11746WAT    EPW47706   1.439   1.500   4.526  0.2220 -0.0689  0.0353
11747WAT      O47707   3.544   1.389   4.961  0.3644  0.2985  0.3912
11747WAT     H147708   3.535   1.344   4.887 -0.7296  0.9910  0.0840
11747WAT     H247709   3.554   1.328   5.022 -1.7815 -0.4248  0.0876
11747WAT    EPW47710   3.544   1.374   4.959 -0.1142  0.2939  0.3010
11748WAT      O47711   1.751   2.906   5.467 -0.2636  0.0920  0.3064
11748WAT     H147712   1.734   2.955   5.398  1.4365  0.3478  0.0276
11748WAT     H247713   1.790   2.835   5.434 -0.4242 -0.2901  0.9039
11748WAT    EPW47714   1.755   2.903   5.452 -0.0362  0.0733  0.3535
11749WAT      O47715   1.940   0.499   3.173  0.5446 -0.6920  0.2556
11749WAT     H147716   1.864   0.523   3.209  0.8668 -0.0851  0.5423
11749WAT     H247717   1.950   0.556   3.107  1.4573  0.1923  1.1198
11749WAT    EPW47718   1.930   0.511   3.168  0.7270 -0.4717  0.4256
11750WAT      O47719   1.593   1.147   4.368 -0.4228  0.1146  0.5396
11750WAT     H147720   1.599   1.076   4.418 -1.0783 -0.5991 -0.3577
11750WAT     H247721   1.518   1.136   4.325  1.2943 -0.6718 -2.6195
11750WAT    EPW47722   1.583   1.135   4.369 -0.2660 -0.1070 -0.0596
11751WAT      O47723   2.243   2.637   4.806  0.0586  0.6543  0.1048
11751WAT     H147724   2.329   2.628   4.816  0.1201 -0.8607 -1.2470
11751WAT     H247725   2.234   2.656   4.721 -0.9708  0.1191  0.0737
11751WAT    EPW47726   2.254   2.639   4.795 -0.0844  0.3514 -0.0994
11752WAT      O47727   2.246   1.037   6.353 -0.0642 -0.7749  0.1488
11752WAT     H147728   2.201   1.036   6.427 -2.3402  0.5157 -1.1327
11752WAT     H247729   2.303   1.102   6.364  1.0647 -1.9242  1.4843
11752WAT    EPW47730   2.248   1.046   6.365 -0.2337 -0.7540  0.1568
11753WAT      O47731   2.462   1.831   5.120  0.2381 -0.3637  0.1114
11753WAT     H147732   2.431   1.771   5.175 -0.7271  0.1997  0.1970
11753WAT     H247733   2.440   1.907   5.156 -0.7288  0.0188 -1.1872
11753WAT    EPW47734   2.454   1.833   5.133 -0.0473 -0.2239 -0.0678
11754WAT      O47735   2.855   1.478   4.577  0.5039 -0.2757  0.1895
11754WAT     H147736   2.890   1.506   4.502  0.1769  0.7022  0.4001
11754WAT     H247737   2.788   1.532   4.591 -0.9416 -1.9188 -0.0403
11754WAT    EPW47738   2.850   1.490   4.568  0.2421 -0.3740  0.1867
11755WAT      O47739   1.361   2.099   5.540 -0.0999 -0.1702  0.0843
11755WAT     H147740   1.308   2.071   5.476 -1.9742  1.4073  0.8347
11755WAT     H247741   1.439   2.104   5.501 -0.5932 -2.0190 -1.2402
11755WAT    EPW47742   1.365   2.096   5.525 -0.4496 -0.2103 -0.0005
11756WAT      O47743   1.347   2.575   5.235  0.0796 -0.0229 -0.2443
11756WAT     H147744   1.390   2.525   5.293  1.3149  0.2141 -0.9121
11756WAT     H247745   1.267   2.581   5.268  0.5851 -0.4099  1.1103
11756WAT    EPW47746   1.342   2.568   5.248  0.3367 -0.0451 -0.1429
11757WAT      O47747   1.667   0.260   4.249 -0.9908 -0.1618  0.5022
11757WAT     H147748   1.676   0.346   4.239 -0.5528 -0.1145  1.2699
11757WAT     H247749   1.724   0.240   4.312 -0.4454 -1.1575 -0.2666
11757WAT    EPW47750   1.677   0.269   4.257 -0.8456 -0.3019  0.5020
11758WAT      O47751   2.485   2.830   3.534 -0.5850  0.7211 -0.6723
11758WAT     H147752   2.482   2.915   3.515 -0.3759  0.7731 -0.4666
11758WAT     H247753   2.565   2.806   3.509 -0.7595  0.5109 -1.0384
11758WAT    EPW47754   2.496   2.839   3.528 -0.5799  0.6978 -0.6960
11759WAT      O47755   2.210   2.852   6.962 -0.2831  0.1483 -0.2151
11759WAT     H147756   2.177   2.879   6.886 -0.2419  2.7008  0.5877
11759WAT     H247757   2.292   2.881   6.960 -1.0472  2.9120  1.8777
11759WAT    EPW47758   2.217   2.860   6.951 -0.3899  0.9336  0.2126
11760WAT      O47759   3.153   2.583   6.104  0.4058 -0.2651 -0.1066
11760WAT     H147760   3.132   2.658   6.065  2.2131  0.5664  0.4104
11760WAT     H247761   3.093   2.576   6.167  1.5533  2.0624  1.3859
11760WAT    EPW47762   3.141   2.593   6.108  0.8423  0.2015  0.1902
11761WAT      O47763   1.282   3.365   6.248 -0.5155 -0.0976 -0.6360
11761WAT     H147764   1.350   3.407   6.282 -1.3188  1.4214 -0.8396
11761WAT     H247765   1.256   3.416   6.183 -2.2161 -0.3261 -0.1859
11761WAT    EPW47766   1.288   3.379   6.243 -0.8854  0.0930 -0.5996
11762WAT      O47767   1.268   0.854   5.367  0.3112  0.0947  0.5045
11762WAT     H147768   1.308   0.823   5.438  0.9202  1.5211  0.8242
11762WAT     H247769   1.198   0.895   5.399 -0.0992 -0.3360  0.1629
11762WAT    EPW47770   1.264   0.855   5.382  0.3405  0.2418  0.5013
11763WAT      O47771   0.913   3.268   5.540  0.3292 -0.4177 -0.0840
11763WAT     H147772   0.922   3.183   5.559  0.1727 -0.2061  0.9810
11763WAT     H247773   0.853   3.268   5.476 -0.1356 -1.0688  0.3354
11763WAT    EPW47774   0.905   3.256   5.533  0.2374 -0.4826  0.1353
11764WAT      O47775   2.095   3.023   4.696  0.2060  0.0816  0.6334
11764WAT     H147776   2.125   2.959   4.645 -0.5116  0.4433 -0.2498
11764WAT     H247777   2.161   3.038   4.751  0.8989 -0.4728 -0.0357
11764WAT    EPW47778   2.109   3.016   4.697  0.2024  0.0531  0.4041
11765WAT      O47779   1.400   0.884   2.655 -0.6514  0.0463  0.0739
11765WAT     H147780   1.322   0.886   2.694 -0.1817  0.9493  1.0178
11765WAT     H247781   1.454   0.915   2.716  0.7368 -2.0996  0.0339
11765WAT    EPW47782   1.396   0.889   2.670 -0.3769 -0.1373  0.2074
11766WAT      O47783   0.715   4.099   5.714  0.0324 -0.2414 -0.0329
11766WAT     H147784   0.679   4.043   5.659 -1.4346 -0.1386  0.7693
11766WAT     H247785   0.794   4.066   5.728 -0.7081 -2.0321  0.2678
11766WAT    EPW47786   0.721   4.086   5.708 -0.2937 -0.4907  0.1300
11767WAT      O47787   1.843   1.530   4.822  0.3828 -0.5352  0.6352
11767WAT     H147788   1.868   1.486   4.751 -0.3200 -2.1054  1.3172
11767WAT     H247789   1.885   1.606   4.814  1.3622 -1.1679 -0.7839
11767WAT    EPW47790   1.853   1.534   4.810  0.4236 -0.8606  0.5263
11768WAT      O47791   1.012   3.026   4.784 -0.3485 -0.9286 -0.0565
11768WAT     H147792   1.091   3.035   4.748 -1.6563  1.8486 -2.7035
11768WAT     H247793   0.988   2.945   4.760  0.9283 -1.0824 -0.9152
11768WAT    EPW47794   1.020   3.015   4.775 -0.3531 -0.5411 -0.5744
11769WAT      O47795   1.104   0.490   5.777 -0.1919 -0.5393 -0.2161
11769WAT     H147796   1.047   0.428   5.800  0.3289 -0.4593  1.3857
11769WAT     H247797   1.162   0.490   5.842  0.0147  1.4119 -0.3438
11769WAT    EPW47798   1.104   0.481   5.790 -0.0844 -0.2393  0.0017
11770WAT      O47799   2.153   1.928   3.919  0.4122 -0.3613 -0.2037
11770WAT     H147800   2.187   2.008   3.931 -1.3468  0.3572  0.3376
11770WAT     H247801   2.095   1.941   3.855 -1.0400 -0.8109  0.9718
11770WAT    EPW47802   2.149   1.942   3.911 -0.0622 -0.3216  0.0499
11771WAT      O47803   1.140   2.455   6.852  0.5976 -0.4947  0.0104
11771WAT     H147804   1.058   2.444   6.824  0.4571 -1.1649  0.6639
11771WAT     H247805   1.165   2.375   6.876  1.5529 -0.3599 -0.4561
11771WAT    EPW47806   1.132   2.441   6.851  0.7179 -0.5738  0.0380
11772WAT      O47807   0.535   1.092   4.018 -0.0795 -0.0460 -0.5842
11772WAT     H147808   0.483   1.129   3.958  0.5584 -1.6605 -2.2062
11772WAT     H247809   0.577   1.029   3.974  2.5963  0.5680  0.8472
11772WAT    EPW47810   0.534   1.088   4.003  0.4100 -0.1938 -0.6123
11773WAT      O47811   1.611   0.142   5.691 -0.0795 -0.0318 -0.3400
11773WAT     H147812   1.575   0.103   5.760 -2.1027  0.9589 -0.7642
11773WAT     H247813   1.697   0.131   5.704 -0.4668 -2.2753  0.8770
11773WAT    EPW47814   1.619   0.135   5.703 -0.4356 -0.2168 -0.2229
11774WAT      O47815   2.445   0.706   4.947  0.7076  0.2115  0.4748
11774WAT     H147816   2.478   0.780   4.915 -0.8648  0.6677 -0.1914
11774WAT     H247817   2.359   0.720   4.946  0.3951 -1.4844  0.6868
11774WAT    EPW47818   2.437   0.719   4.942  0.4292  0.0283  0.4077
11775WAT      O47819   0.541   7.058   5.519  0.3773 -0.4423 -0.7916
11775WAT     H147820   0.562   7.077   5.601 -0.7407  0.3979 -0.6744
11775WAT     H247821   0.524   7.136   5.484 -1.8630 -0.9713 -1.0137
11775WAT    EPW47822   0.542   7.072   5.526 -0.1188 -0.3963 -0.8071
11776WAT      O47823   2.664   0.732   6.642  0.3617  0.1985  0.2107
11776WAT     H147824   2.668   0.695   6.721  1.3650 -2.5844 -1.0139
11776WAT     H247825   2.745   0.763   6.630  0.2625  0.4508  0.1816
11776WAT    EPW47826   2.677   0.731   6.652  0.4952 -0.1753  0.0255
11777WAT      O47827   0.891   2.345   4.670  0.4036 -0.0564  0.1643
11777WAT     H147828   0.947   2.294   4.714 -1.5272 -1.2679  1.3686
11777WAT     H247829   0.835   2.288   4.635 -1.7738  1.1548  1.4358
11777WAT    EPW47830   0.891   2.329   4.672 -0.2032 -0.0565  0.5300
11778WAT      O47831   2.689   1.585   3.512  0.0443  0.2051 -0.5257
11778WAT     H147832   2.634   1.518   3.525 -0.1498  0.7080  1.5344
11778WAT     H247833   2.742   1.556   3.449 -0.6570 -1.5005 -0.3819
11778WAT    EPW47834   2.689   1.571   3.505 -0.0880  0.0275 -0.2002
11779WAT      O47835   0.688   3.722   4.862 -0.4246 -0.2048 -0.1933
11779WAT     H147836   0.680   3.798   4.904 -0.3268 -0.4713  0.3206
11779WAT     H247837   0.605   3.700   4.844 -0.7629 -1.5214  2.5059
11779WAT    EPW47838   0.674   3.730   4.866 -0.4601 -0.4387  0.2814
11780WAT      O47839   2.137   0.631   2.287  0.1896  1.0038  0.1273
11780WAT     H147840   2.051   0.637   2.276  0.2290  0.1844 -0.7330
11780WAT     H247841   2.159   0.559   2.242  1.1960  0.7083  1.0483
11780WAT    EPW47842   2.128   0.621   2.279  0.3441  0.8391  0.1363
11781WAT      O47843   2.675   3.142   2.679 -0.1147 -0.8230 -0.1392
11781WAT     H147844   2.617   3.083   2.704 -0.3249  0.2491  2.1900
11781WAT     H247845   2.640   3.218   2.706  1.6787 -0.0068  0.0632
11781WAT    EPW47846   2.661   3.145   2.687  0.1192 -0.5440  0.2348
11782WAT      O47847   1.002   1.967   1.683 -0.1162 -0.5281 -0.0064
11782WAT     H147848   1.039   2.019   1.624 -1.8033  0.2471 -0.4499
11782WAT     H247849   1.037   1.889   1.667  1.5578  0.2027 -0.1304
11782WAT    EPW47850   1.013   1.963   1.672 -0.1181 -0.3056 -0.0902
11783WAT      O47851   2.220   2.899   2.884  0.1158  0.4375  0.3882
11783WAT     H147852   2.151   2.868   2.840  0.8981  0.1246 -0.6633
11783WAT     H247853   2.274   2.831   2.887  0.6288  0.8561  0.6582
11783WAT    EPW47854   2.218   2.885   2.878  0.3071  0.4532  0.2727
11784WAT      O47855   1.546   0.929   2.863  0.3977 -0.2386 -0.2536
11784WAT     H147856   1.631   0.948   2.860  0.7125 -1.4966  0.1358
11784WAT     H247857   1.535   0.899   2.944 -0.7243  1.1983  0.1582
11784WAT    EPW47858   1.557   0.928   2.875  0.2784 -0.2122 -0.1352
11785WAT      O47859   1.080   1.924   2.812 -0.0281  0.2295 -0.1727
11785WAT     H147860   1.039   1.980   2.866 -0.5655  0.7682 -1.1156
11785WAT     H247861   1.038   1.848   2.827  0.3081  0.1970  0.6797
11785WAT    EPW47862   1.068   1.921   2.822 -0.0578  0.3043 -0.1860
11786WAT      O47863   1.590   2.623   3.575  0.5359 -0.3174  0.1449
11786WAT     H147864   1.566   2.689   3.627  1.4622  0.1154  0.0488
11786WAT     H247865   1.520   2.571   3.574  0.6302 -0.6118  2.2675
11786WAT    EPW47866   1.576   2.625   3.583  0.6867 -0.2969  0.4442
11787WAT      O47867   0.888   1.018   3.024 -0.2358 -0.2761  0.1766
11787WAT     H147868   0.973   1.033   3.008 -0.0678 -0.8167  0.5570
11787WAT     H247869   0.881   1.029   3.110 -0.7194  0.5542  0.0485
11787WAT    EPW47870   0.900   1.022   3.034 -0.2824 -0.2333  0.2139
11788WAT      O47871   1.354   1.747   4.685 -0.2610 -0.1512 -0.6366
11788WAT     H147872   1.434   1.720   4.710  0.3355  3.0401  1.5276
11788WAT     H247873   1.303   1.724   4.752 -0.5368  0.4220 -0.6455
11788WAT    EPW47874   1.358   1.739   4.698 -0.2136  0.4049 -0.3182
11789WAT      O47875   1.353   2.420   3.581  0.2564 -0.3038 -0.0148
11789WAT     H147876   1.303   2.378   3.524 -0.0476  0.0851 -0.0384
11789WAT     H247877   1.301   2.483   3.611  0.2015 -0.8856  1.1652
11789WAT    EPW47878   1.338   2.423   3.577  0.2034 -0.3323  0.1561
11790WAT      O47879   1.719   0.469   4.545  0.5559 -0.0834 -0.2960
11790WAT     H147880   1.765   0.396   4.534  0.2792 -0.3654  0.3548
11790WAT     H247881   1.643   0.440   4.578  0.5563  0.5137  0.2516
11790WAT    EPW47882   1.715   0.454   4.548  0.5151 -0.0369 -0.1190
11791WAT      O47883   2.045   2.145   2.950 -0.3597  0.1300  0.6141
11791WAT     H147884   2.121   2.137   2.991 -1.2197 -0.0029  2.2943
11791WAT     H247885   2.067   2.171   2.869  1.5793 -2.0216  0.3386
11791WAT    EPW47886   2.059   2.148   2.944 -0.2003 -0.2074  0.8216
11792WAT      O47887   1.317   0.523   4.557  0.1661  1.0494  0.6042
11792WAT     H147888   1.380   0.581   4.572  1.3004  1.2047 -3.5913
11792WAT     H247889   1.295   0.538   4.474 -1.3909 -2.7674  0.1330
11792WAT    EPW47890   1.323   0.534   4.547  0.1037  0.5086 -0.0852
11793WAT      O47891   2.347   1.493   2.808  0.0881 -0.3712 -0.1445
11793WAT     H147892   2.368   1.425   2.758  0.8927  1.2596 -2.1668
11793WAT     H247893   2.407   1.553   2.787 -1.3277  1.4085  0.5966
11793WAT    EPW47894   2.359   1.492   2.798 -0.0022  0.1326 -0.3337
11794WAT      O47895   2.643   2.411   1.437  0.0957 -0.1345  0.1247
11794WAT     H147896   2.607   2.457   1.503 -0.9062 -0.3551 -0.2536
11794WAT     H247897   2.575   2.371   1.401  0.9715 -2.2404  0.6609
11794WAT    EPW47898   2.627   2.412   1.442  0.0770 -0.4782  0.1480
11795WAT      O47899   1.372   0.712   2.245 -0.5312  0.1156 -0.0885
11795WAT     H147900   1.335   0.639   2.215  1.5217 -0.7918 -0.6493
11795WAT     H247901   1.438   0.683   2.294 -0.9843  1.6222  1.5330
11795WAT    EPW47902   1.376   0.697   2.248 -0.2949  0.2041  0.0682
11796WAT      O47903   1.265   1.246   2.639 -0.3754 -0.1489  0.5949
11796WAT     H147904   1.350   1.266   2.648 -0.2837  1.2527 -2.2272
11796WAT     H247905   1.264   1.190   2.573 -1.6362 -0.6688  1.0185
11796WAT    EPW47906   1.278   1.241   2.631 -0.5481 -0.0187  0.2406
11797WAT      O47907   4.081   1.356   5.027 -0.0425 -0.6205  0.2677
11797WAT     H147908   4.090   1.402   4.954 -1.0905 -1.5174 -0.4641
11797WAT     H247909   4.051   1.413   5.085  1.2346  0.2071  0.1618
11797WAT    EPW47910   4.078   1.371   5.025 -0.0087 -0.6307  0.1440
11798WAT      O47911   1.813   2.253   1.876 -0.4171  0.0446  0.4354
11798WAT     H147912   1.815   2.308   1.944  2.8294 -1.0748  1.4327
11798WAT     H247913   1.793   2.177   1.912 -0.2334 -0.2727 -0.1241
11798WAT    EPW47914   1.810   2.250   1.891  0.0896 -0.1676  0.5001
11799WAT      O47915   2.037   0.772   1.918 -0.5598  0.2029 -0.2081
11799WAT     H147916   2.077   0.778   1.995 -1.2005 -0.9994  0.2336
11799WAT     H247917   1.997   0.850   1.910 -0.6045  0.2875  0.7354
11799WAT    EPW47918   2.037   0.785   1.928 -0.6610  0.0378 -0.0035
11800WAT      O47919   1.117   0.749   3.225  0.2208  0.0061 -0.5239
11800WAT     H147920   1.070   0.776   3.293  0.8743 -0.3737  0.0967
11800WAT     H247921   1.057   0.727   3.166 -0.4340 -1.1081  0.4840
11800WAT    EPW47922   1.101   0.749   3.226  0.2206 -0.2146 -0.2833
11801WAT      O47923   2.543   1.809   1.544  0.0888 -0.4155 -0.0159
11801WAT     H147924   2.492   1.818   1.614  0.6751  0.0661  0.3581
11801WAT     H247925   2.509   1.740   1.503 -2.3972  1.3414 -1.1289
11801WAT    EPW47926   2.530   1.800   1.548 -0.1918 -0.0848 -0.1251
11802WAT      O47927   1.438   1.118   1.367 -0.3366 -0.2603  0.1634
11802WAT     H147928   1.372   1.077   1.328 -0.0547 -0.5190 -0.0472
11802WAT     H247929   1.416   1.118   1.451  0.0599 -1.6085  0.2905
11802WAT    EPW47930   1.425   1.112   1.374 -0.2364 -0.4977  0.1511
11803WAT      O47931   1.256   0.483   2.178 -0.0881  0.1625  0.0434
11803WAT     H147932   1.226   0.462   2.099 -0.1360 -1.1836  0.3920
11803WAT     H247933   1.330   0.437   2.185 -0.5406 -0.4540  1.1084
11803WAT    EPW47934   1.262   0.473   2.167 -0.1620 -0.1274  0.2522
11804WAT      O47935   2.146   1.409   5.149 -0.1670 -0.1510  0.4475
11804WAT     H147936   2.102   1.484   5.143 -0.5149 -0.4416 -2.0472
11804WAT     H247937   2.157   1.398   5.234 -1.7865  1.7578  0.9839
11804WAT    EPW47938   2.141   1.419   5.160 -0.4577  0.0880  0.1582
11805WAT      O47939   1.763   3.385   3.657  0.2404 -0.8105 -0.3870
11805WAT     H147940   1.780   3.452   3.710 -0.6064 -2.5184  2.2275
11805WAT     H247941   1.676   3.380   3.657  0.2151 -0.8289 -2.0488
11805WAT    EPW47942   1.753   3.394   3.665  0.1116 -1.0655 -0.2463
11806WAT      O47943   2.874   1.598   0.996  0.0703  0.2916 -0.4001
11806WAT     H147944   2.865   1.632   0.916 -1.3323 -0.2571 -0.4938
11806WAT     H247945   2.850   1.663   1.049  1.2825  0.7544 -0.3849
11806WAT    EPW47946   2.869   1.612   0.992  0.0421  0.2789 -0.4117
11807WAT      O47947   2.631   1.992   3.079 -0.3064  0.0732 -0.0919
11807WAT     H147948   2.658   2.075   3.081 -2.6127  0.9287  3.1354
11807WAT     H247949   2.689   1.950   3.128 -0.1526  0.1554 -0.2036
11807WAT    EPW47950   2.643   1.998   3.086 -0.6244  0.2118  0.3683
11808WAT      O47951   1.087   7.269   4.568 -0.4758  0.5541 -0.1608
11808WAT     H147952   1.009   7.307   4.565 -0.2920  1.1166  1.2924
11808WAT     H247953   1.111   7.278   4.651  1.2378  0.5916 -0.6138
11808WAT    EPW47954   1.079   7.276   4.580 -0.1955  0.6428 -0.0130
11809WAT      O47955   2.609   3.795   3.501  0.2205  0.5773 -0.4644
11809WAT     H147956   2.672   3.804   3.441  1.3309 -1.5095  0.3032
11809WAT     H247957   2.635   3.848   3.566  1.0748 -0.0585 -0.2683
11809WAT    EPW47958   2.622   3.804   3.502  0.5107  0.1751 -0.3220
11810WAT      O47959   2.926   3.194   2.818  0.2727  0.1516  0.2460
11810WAT     H147960   2.864   3.166   2.764 -0.0293 -1.4430  1.3810
11810WAT     H247961   2.999   3.156   2.786  0.2387 -0.0890  0.4578
11810WAT    EPW47962   2.928   3.185   2.805  0.2230 -0.1195  0.4449
11811WAT      O47963   2.539   0.568   3.474  0.6259  0.1108  0.9540
11811WAT     H147964   2.573   0.570   3.554  0.4320  1.8319  1.0309
11811WAT     H247965   2.540   0.651   3.449  0.9625 -0.4122 -0.9707
11811WAT    EPW47966   2.544   0.580   3.482  0.6470  0.2878  0.6810
11812WAT      O47967   1.509   0.680   2.492 -0.0950  0.0098 -0.4499
11812WAT     H147968   1.491   0.764   2.478 -0.9091  0.0091  0.4312
11812WAT     H247969   1.519   0.675   2.579 -0.3233 -0.8426 -0.4577
11812WAT    EPW47970   1.508   0.691   2.503 -0.2490 -0.1162 -0.3209
11813WAT      O47971   2.160   3.941   0.865 -0.3778 -0.2488  0.1235
11813WAT     H147972   2.153   3.982   0.942  1.3789 -0.8457  0.6448
11813WAT     H247973   2.149   4.006   0.808  0.0125  0.5462  0.9052
11813WAT    EPW47974   2.158   3.957   0.868 -0.0607 -0.2195  0.3159
11814WAT      O47975   1.352   2.318   0.002 -0.3389 -0.4506  0.0212
11814WAT     H147976   1.405   2.309   0.070  0.2569 -1.2544 -0.5272
11814WAT     H247977   1.279   2.277   0.027 -0.7577  0.7555  0.8219
11814WAT    EPW47978   1.349   2.310   0.016 -0.3128 -0.3912  0.0585
11815WAT      O47979   0.682   4.218   2.413  0.8398  0.7257 -0.1359
11815WAT     H147980   0.624   4.241   2.474  1.1813  0.4749  0.2874
11815WAT     H247981   0.675   4.282   2.354  0.0342  0.6331 -0.1650
11815WAT    EPW47982   0.672   4.231   2.413  0.7712  0.6750 -0.0777
11816WAT      O47983   2.475   1.968   3.293 -0.4182 -0.4042 -0.4290
11816WAT     H147984   2.521   1.972   3.219 -0.4220  0.9584 -0.3928
11816WAT     H247985   2.475   1.883   3.313  4.2470 -0.3536  0.9199
11816WAT    EPW47986   2.482   1.956   3.285  0.2704 -0.1954 -0.2244
11817WAT      O47987   1.775   2.493   2.800 -0.0254  0.3342  1.1620
11817WAT     H147988   1.714   2.508   2.859  0.7813 -0.2297  2.1784
11817WAT     H247989   1.850   2.502   2.844  0.6938  2.0121 -0.2732
11817WAT    EPW47990   1.777   2.496   2.815  0.2000  0.4987  1.1001
11818WAT      O47991   1.762   1.707   2.291 -0.7228  0.4552  0.2347
11818WAT     H147992   1.803   1.774   2.329  0.8127 -0.1374 -0.3176
11818WAT     H247993   1.762   1.645   2.352 -1.9296  0.8301  0.6588
11818WAT    EPW47994   1.768   1.708   2.305 -0.6742  0.4231  0.2157
11819WAT      O47995   1.646   1.304   2.143  0.1274 -0.7908  0.1306
11819WAT     H147996   1.623   1.381   2.177 -1.0607 -1.3993  0.7694
11819WAT     H247997   1.590   1.292   2.077  0.8763 -0.7155 -0.5293
11819WAT    EPW47998   1.634   1.313   2.139  0.0625 -0.8696  0.1275
11820WAT      O47999   1.520   2.164   3.511  0.2690  0.4816  0.4063
11820WAT     H148000   1.579   2.128   3.564  1.6483  1.3104 -0.5102
11820WAT     H248001   1.517   2.247   3.539 -1.5748  0.1459  1.3728
11820WAT    EPW48002   1.528   2.171   3.523  0.2004  0.5544  0.4137
11821WAT      O48003   1.339   1.727   2.673 -0.1655  0.0211 -0.2417
11821WAT     H148004   1.356   1.806   2.641 -0.2153  0.1831  0.1297
11821WAT     H248005   1.310   1.743   2.754 -0.5736 -0.3479 -0.3106
11821WAT    EPW48006   1.337   1.741   2.680 -0.2332 -0.0095 -0.1970
11822WAT      O48007   2.592   1.404   2.267 -0.5544  0.6162  0.5141
11822WAT     H148008   2.514   1.441   2.254 -1.1264 -1.0236 -1.3360
11822WAT     H248009   2.606   1.360   2.193  1.3954 -0.4404  1.4291
11822WAT    EPW48010   2.582   1.403   2.254 -0.3508  0.2179  0.3760
11823WAT      O48011   1.211   1.616   3.893 -0.1877  0.2947  0.3269
11823WAT     H148012   1.130   1.591   3.870  0.1219  0.1962 -0.7088
11823WAT     H248013   1.236   1.554   3.949 -0.6034 -0.0243  0.1709
11823WAT    EPW48014   1.203   1.603   3.898 -0.2033  0.2331  0.1508
11824WAT      O48015   1.382   1.250   2.296  0.0489  0.1286 -0.0401
11824WAT     H148016   1.343   1.182   2.333  1.6904 -0.7142  0.2600
11824WAT     H248017   1.319   1.288   2.250 -0.8845 -1.7196 -0.3832
11824WAT    EPW48018   1.367   1.246   2.295  0.1535 -0.2689 -0.0464
11825WAT      O48019   2.567   2.770   1.335  0.0830  0.3329  0.0601
11825WAT     H148020   2.641   2.762   1.381  1.3508  0.9302 -1.7479
11825WAT     H248021   2.572   2.851   1.302 -2.9966  1.7216  2.4029
11825WAT    EPW48022   2.579   2.781   1.337 -0.1846  0.6262  0.1391
11826WAT      O48023   1.406   0.144   3.026  0.0873 -0.2933  0.2580
11826WAT     H148024   1.477   0.180   3.062 -0.4287  0.6593  0.3514
11826WAT     H248025   1.388   0.078   3.080 -1.1710  1.6182  2.3394
11826WAT    EPW48026   1.414   0.139   3.040 -0.1748  0.1298  0.5793
11827WAT      O48027   1.581   0.462   3.677  0.0035 -0.6197  0.2116
11827WAT     H148028   1.666   0.442   3.680  0.2658  0.4914  0.9805
11827WAT     H248029   1.550   0.434   3.753 -0.6023 -2.1005 -0.5525
11827WAT    EPW48030   1.589   0.455   3.689 -0.0473 -0.6743  0.2123
11828WAT      O48031   1.455   1.471   3.256 -0.1027  0.3496  0.2464
11828WAT     H148032   1.422   1.534   3.306 -3.2558 -0.5441 -0.4749
11828WAT     H248033   1.449   1.503   3.175  0.3489 -0.0340  0.0597
11828WAT    EPW48034   1.449   1.485   3.251 -0.5018  0.1609  0.1123
11829WAT      O48035   1.826   1.316   2.758  0.2969  0.0355 -0.2785
11829WAT     H148036   1.854   1.268   2.691  0.4647  1.0741 -0.9850
11829WAT     H248037   1.883   1.382   2.761  1.7811 -1.1759  2.4550
11829WAT    EPW48038   1.839   1.319   2.749  0.5409  0.0100  0.0209
11830WAT      O48039   2.168   0.304   2.722  0.5667 -0.4523 -0.0228
11830WAT     H148040   2.243   0.345   2.741  0.5071 -0.3581  0.0101
11830WAT     H248041   2.115   0.368   2.698 -0.0253 -0.2912  1.5693
11830WAT    EPW48042   2.171   0.319   2.721  0.4705 -0.4146  0.2172
11831WAT      O48043   1.118   2.598   4.286  0.3060 -0.0008 -0.0420
11831WAT     H148044   1.199   2.630   4.280 -0.1678  1.2797  0.0183
11831WAT     H248045   1.081   2.623   4.211 -0.2931  0.2300  0.3244
11831WAT    EPW48046   1.125   2.606   4.274  0.1475  0.2224  0.0210
11832WAT      O48047   1.603   2.894   4.972 -0.6962 -0.3580  0.5604
11832WAT     H148048   1.679   2.919   4.937  0.5577 -1.4755  2.2652
11832WAT     H248049   1.596   2.945   5.043 -2.1802  0.5460 -0.2022
11832WAT    EPW48050   1.613   2.905   4.977 -0.7302 -0.3895  0.6996
11833WAT      O48051   2.503   2.592   2.267  0.5222  0.3191  0.1019
11833WAT     H148052   2.523   2.538   2.202 -0.2513 -0.7956  0.7690
11833WAT     H248053   2.440   2.642   2.233  1.3715  0.9824 -0.5768
11833WAT    EPW48054   2.497   2.591   2.252  0.5334  0.2524  0.1002
11834WAT      O48055   1.811   0.948   3.016  0.4688 -0.3197 -0.2269
11834WAT     H148056   1.837   1.031   3.003 -0.4990 -0.3463 -2.8438
11834WAT     H248057   1.860   0.902   2.962 -1.3002 -0.9911 -1.3472
11834WAT    EPW48058   1.822   0.954   3.006  0.0645 -0.4228 -0.7790
11835WAT      O48059   2.349   0.618   4.092 -0.1366  0.2431 -0.0284
11835WAT     H148060   2.359   0.705   4.086  1.2252 -0.0039 -1.8225
11835WAT     H248061   2.288   0.601   4.032  1.4826 -0.3026 -1.5891
11835WAT    EPW48062   2.341   0.629   4.082  0.3038  0.1260 -0.5239
11836WAT      O48063   2.046   0.963   4.393 -0.4510  0.1363 -0.8049
11836WAT     H148064   2.005   0.932   4.463  0.4645 -0.9182 -0.7094
11836WAT     H248065   2.056   1.048   4.411  0.4559 -0.2520  0.7013
11836WAT    EPW48066   2.041   0.971   4.406 -0.1818 -0.0769 -0.5683
11837WAT      O48067   3.179   0.080   1.965 -0.0788  0.0314 -0.2303
11837WAT     H148068   3.180   0.113   2.046 -1.1619 -1.3654  0.3888
11837WAT     H248069   3.257   0.102   1.933  0.0834  1.2457  0.9234
11837WAT    EPW48070   3.191   0.088   1.973 -0.2148  0.0045  0.0316
11838WAT      O48071   2.373   4.477   3.382  0.3269  0.4476 -0.1307
11838WAT     H148072   2.435   4.519   3.337 -0.5595  1.5608 -0.3351
11838WAT     H248073   2.299   4.516   3.357 -0.2848  0.4211  1.5370
11838WAT    EPW48074   2.371   4.489   3.372  0.1056  0.6082  0.0855
11839WAT      O48075   1.265   2.633   3.243 -0.1301  0.4143  0.0043
11839WAT     H148076   1.214   2.645   3.173  0.9436  0.1291 -0.8607
11839WAT     H248077   1.316   2.703   3.242 -0.1813  0.4573  0.5744
11839WAT    EPW48078   1.265   2.645   3.232  0.0209  0.3785 -0.0393
11840WAT      O48079   1.007   0.837   3.461 -0.5345 -0.0528  0.3515
11840WAT     H148080   1.039   0.869   3.536 -2.4598  2.1453  0.3419
11840WAT     H248081   0.975   0.759   3.485  0.7696 -0.3335  1.3029
11840WAT    EPW48082   1.007   0.830   3.476 -0.6262  0.2304  0.4906
11841WAT      O48083   2.750   2.925   4.401  0.3981  0.0005 -0.0792
11841WAT     H148084   2.800   2.971   4.455  0.4659  0.8629 -0.8640
11841WAT     H248085   2.806   2.896   4.341  0.7165 -2.7222  1.3738
11841WAT    EPW48086   2.766   2.927   4.400  0.4551 -0.2743  0.0195
11842WAT      O48087   2.575   1.627   2.786  0.0508  0.3093  0.1724
11842WAT     H148088   2.552   1.711   2.783 -1.0107  0.0400  0.2873
11842WAT     H248089   2.600   1.609   2.705 -0.1556  0.6154  0.0432
11842WAT    EPW48090   2.575   1.637   2.774 -0.1365  0.3147  0.1703
11843WAT      O48091   2.556   1.018   2.108  0.1964  0.0435  0.3029
11843WAT     H148092   2.561   0.967   2.037 -1.1115  0.1346  0.1193
11843WAT     H248093   2.544   0.962   2.173 -1.5218  0.0774  0.0674
11843WAT    EPW48094   2.555   1.002   2.107 -0.2506  0.0620  0.2410
11844WAT      O48095   2.927   0.087   1.176  0.4434  0.4275 -0.6918
11844WAT     H148096   2.991   0.057   1.228 -0.3286  0.2486  0.1704
11844WAT     H248097   2.919   0.024   1.117  0.6479  0.1681 -0.4487
11844WAT    EPW48098   2.935   0.073   1.175  0.3596  0.3627 -0.5285
11845WAT      O48099   1.558   1.290   2.659  0.3260  0.5242 -0.3323
11845WAT     H148100   1.562   1.377   2.652  2.2271  0.4504 -0.7934
11845WAT     H248101   1.628   1.271   2.709  1.0234 -0.8587 -1.7582
11845WAT    EPW48102   1.569   1.300   2.666  0.7098  0.3090 -0.6111
11846WAT      O48103   3.310   1.152   4.453  0.0490  0.3526  0.2985
11846WAT     H148104   3.248   1.143   4.513  0.3495  0.0862  0.5716
11846WAT     H248105   3.272   1.124   4.380 -0.6937  1.7188  0.1190
11846WAT    EPW48106   3.295   1.146   4.451 -0.0163  0.5150  0.3123
11847WAT      O48107   1.756   1.565   1.943  0.5373  0.2887 -0.8486
11847WAT     H148108   1.811   1.609   1.994 -0.0480 -2.2034  2.2645
11847WAT     H248109   1.796   1.489   1.930 -1.1639 -0.7147 -0.4697
11847WAT    EPW48110   1.770   1.561   1.948  0.1995 -0.2276 -0.3327
11848WAT      O48111   0.961   2.076   3.034  0.8183 -0.3957  0.4082
11848WAT     H148112   0.897   2.063   3.091 -0.1872 -0.7460 -0.7709
11848WAT     H248113   0.985   2.159   3.048 -1.0558  0.2988 -0.2491
11848WAT    EPW48114   0.955   2.087   3.044  0.3929 -0.3449  0.1369
11849WAT      O48115   2.432   3.092   3.482 -0.6362  0.1948 -0.5793
11849WAT     H148116   2.440   3.154   3.543  0.1570  0.4797 -0.9671
11849WAT     H248117   2.346   3.091   3.465 -0.9880 -0.3921  1.0510
11849WAT    EPW48118   2.420   3.101   3.489 -0.5710  0.1502 -0.3957
11850WAT      O48119   1.394   0.602   3.532 -0.2419  0.5752  0.4216
11850WAT     H148120   1.473   0.573   3.556 -0.2002  0.7247  0.4654
11850WAT     H248121   1.386   0.573   3.450 -0.7772 -0.7562  0.9116
11850WAT    EPW48122   1.405   0.593   3.524 -0.3148  0.4006  0.5005
11851WAT      O48123   1.555   3.131   2.402  0.2819  0.1972 -0.1930
11851WAT     H148124   1.516   3.175   2.467  0.0187  1.9686 -1.4602
11851WAT     H248125   1.508   3.058   2.395 -1.1662  1.0687  0.0654
11851WAT    EPW48126   1.543   3.127   2.411  0.0291  0.5876 -0.3420
11852WAT      O48127   2.132   3.028   3.106  0.1477  0.0821  0.1676
11852WAT     H148128   2.164   3.003   3.029 -1.3066 -1.0625 -0.1175
11852WAT     H248129   2.180   2.984   3.164  1.1299  0.8089 -0.0755
11852WAT    EPW48130   2.144   3.018   3.103  0.0780  0.0204  0.0896
11853WAT      O48131   1.747   2.518   4.233  0.3592  0.4345 -0.2294
11853WAT     H148132   1.810   2.471   4.269  1.1807  2.7840  1.5958
11853WAT     H248133   1.678   2.505   4.285  0.5564  1.1046  0.2145
11853WAT    EPW48134   1.746   2.509   4.246  0.5097  0.8806  0.1058
11854WAT      O48135   1.724   2.036   2.871  0.0243 -0.0609  0.3110
11854WAT     H148136   1.769   2.076   2.934 -0.2775  1.6913 -0.5176
11854WAT     H248137   1.703   2.101   2.817 -1.0579 -1.2755 -0.7946
11854WAT    EPW48138   1.728   2.052   2.872 -0.1801  0.0185  0.0253
11855WAT      O48139   1.057   0.595   5.443  0.0928  0.4864 -0.1521
11855WAT     H148140   1.134   0.633   5.457  0.9213 -1.1890  0.0980
11855WAT     H248141   1.023   0.642   5.377  2.5061 -0.2468 -2.0971
11855WAT    EPW48142   1.064   0.607   5.435  0.5717  0.1306 -0.4025
11856WAT      O48143   2.190   1.312   2.503  0.6238  0.0498 -0.0524
11856WAT     H148144   2.132   1.324   2.439  0.7873 -0.1787 -0.2433
11856WAT     H248145   2.158   1.360   2.568 -0.5690 -1.1881  0.3362
11856WAT    EPW48146   2.176   1.321   2.503  0.4717 -0.1669 -0.0232
11857WAT      O48147   2.078   1.488   2.721  0.2214  0.0751 -0.6504
11857WAT     H148148   2.075   1.571   2.693 -0.9103  0.2851  0.0361
11857WAT     H248149   2.141   1.490   2.781 -1.1046  0.9513  0.8044
11857WAT    EPW48150   2.087   1.501   2.726 -0.1417  0.2356 -0.3341
11858WAT      O48151   0.756   3.287   3.918 -0.1528 -0.0505 -0.0192
11858WAT     H148152   0.811   3.349   3.945 -0.2311  1.1636 -2.4153
11858WAT     H248153   0.679   3.314   3.949  0.2180 -0.5696  1.4410
11858WAT    EPW48154   0.752   3.300   3.927 -0.1096  0.0522 -0.1575
11859WAT      O48155   1.602   0.932   3.418  0.2949 -0.5995  0.6789
11859WAT     H148156   1.635   1.010   3.438  0.2052 -0.3815 -0.0029
11859WAT     H248157   1.649   0.877   3.467  0.8704 -0.1834  0.6021
11859WAT    EPW48158   1.614   0.935   3.428  0.3666 -0.5058  0.5668
11860WAT      O48159   2.439   2.740   2.794 -0.4146  0.4511 -0.5612
11860WAT     H148160   2.494   2.729   2.728  0.7000 -1.7726  0.6360
11860WAT     H248161   2.491   2.751   2.863 -1.5472  2.7812  0.0421
11860WAT    EPW48162   2.455   2.740   2.794 -0.4173  0.4669 -0.2952
11861WAT      O48163   2.097   0.923   3.341 -0.2087 -0.6489 -0.0974
11861WAT     H148164   2.122   0.839   3.336 -1.4836 -1.0210 -0.7937
11861WAT     H248165   2.012   0.920   3.320 -0.2171  0.8564 -0.3917
11861WAT    EPW48166   2.088   0.910   3.337 -0.3983 -0.4815 -0.2437
11862WAT      O48167   1.870   2.913   1.798  0.6489 -0.5697  0.3691
11862WAT     H148168   1.794   2.954   1.783  1.1372  0.2826  0.1529
11862WAT     H248169   1.929   2.968   1.764  1.3721 -1.1369  0.7051
11862WAT    EPW48170   1.867   2.927   1.791  0.8279 -0.5276  0.3868
11863WAT      O48171   1.795   1.967   5.738  0.0724  0.0906  0.2074
11863WAT     H148172   1.725   1.922   5.713  0.7711 -0.5838 -0.5657
11863WAT     H248173   1.760   2.039   5.773 -1.0307 -0.5546  0.5214
11863WAT    EPW48174   1.779   1.971   5.740  0.0126 -0.1043  0.1396
11864WAT      O48175   1.337   1.223   3.350  0.9420  0.3337  0.6945
11864WAT     H148176   1.287   1.173   3.299 -0.8486  0.9957  1.7129
11864WAT     H248177   1.340   1.299   3.308  1.5285  0.1653  0.4106
11864WAT    EPW48178   1.330   1.227   3.336  0.7641  0.4066  0.8030
11865WAT      O48179   2.099   1.708   5.187 -0.1871  0.3399 -0.2213
11865WAT     H148180   2.158   1.739   5.244  0.2932  2.0073 -1.5215
11865WAT     H248181   2.128   1.738   5.110 -1.0287 -1.4886 -1.3062
11865WAT    EPW48182   2.112   1.717   5.184 -0.2405  0.3161 -0.5736
11866WAT      O48183   1.245   6.459   3.926  0.8151  0.2021 -0.8079
11866WAT     H148184   1.235   6.489   3.844 -0.5498 -0.3852 -0.8879
11866WAT     H248185   1.171   6.414   3.940  1.7460 -1.1075  0.1491
11866WAT    EPW48186   1.232   6.457   3.916  0.7510 -0.0781 -0.6783
11867WAT      O48187   1.542   1.707   2.083 -0.0615 -0.1265 -0.2895
11867WAT     H148188   1.547   1.712   2.170 -1.6226  1.2302 -0.2416
11867WAT     H248189   1.609   1.656   2.062  0.6656 -0.0556  1.6649
11867WAT    EPW48190   1.552   1.700   2.093 -0.1847  0.0844  0.0063
11868WAT      O48191   2.341   1.087   3.780 -0.3820 -0.2189  0.5235
11868WAT     H148192   2.374   1.085   3.861 -0.5152  0.1015  0.5866
11868WAT     H248193   2.328   1.003   3.761  0.2815 -0.3392  0.5742
11868WAT    EPW48194   2.344   1.074   3.789 -0.3037 -0.1893  0.5403
11869WAT      O48195   2.459   2.945   2.467 -0.7195  0.3211 -0.1442
11869WAT     H148196   2.381   2.981   2.455  0.2626  2.3075 -0.9817
11869WAT     H248197   2.476   2.961   2.551 -1.6687 -1.1970  0.3828
11869WAT    EPW48198   2.450   2.952   2.478 -0.7146  0.3903 -0.1900
11870WAT      O48199   1.843   2.115   3.122 -0.2353  0.1693 -0.1831
11870WAT     H148200   1.917   2.152   3.097  0.8308  0.0444  2.4828
11870WAT     H248201   1.866   2.034   3.143 -1.2782 -0.0962  0.0249
11870WAT    EPW48202   1.857   2.108   3.121 -0.2319  0.1116  0.2414
11871WAT      O48203   0.943   3.400   3.089  0.3242 -0.2818 -0.2866
11871WAT     H148204   0.959   3.379   3.173 -0.1970  1.2407  0.2333
11871WAT     H248205   0.904   3.329   3.057  0.4594 -0.8618  0.7856
11871WAT    EPW48206   0.939   3.387   3.097  0.2672 -0.1426 -0.0514
11872WAT      O48207   1.749   0.450   1.985  0.1352  0.1165  0.4013
11872WAT     H148208   1.784   0.393   1.929  1.3431  0.8586  0.3675
11872WAT     H248209   1.724   0.516   1.933  1.1907  0.7744  0.7166
11872WAT    EPW48210   1.750   0.452   1.969  0.4695  0.3233  0.4428
11873WAT      O48211   1.160   2.887   0.117 -0.2406  0.1122 -0.0028
11873WAT     H148212   1.139   2.936   0.186  0.3485  0.4402 -0.0399
11873WAT     H248213   1.224   2.836   0.146 -0.7043 -0.4915 -0.0275
11873WAT    EPW48214   1.167   2.887   0.131 -0.2221  0.0715 -0.0119
11874WAT      O48215   2.319   1.908   3.619 -0.1155 -0.4729 -0.3148
11874WAT     H148216   2.403   1.889   3.634 -0.0649 -1.4913 -1.7131
11874WAT     H248217   2.276   1.837   3.646 -0.9718  1.2701  3.5888
11874WAT    EPW48218   2.325   1.895   3.625 -0.2345 -0.3659  0.0553
11875WAT      O48219   0.660   0.831   3.939 -0.3997  0.4033  0.2813
11875WAT     H148220   0.685   0.803   4.018 -2.1596 -0.8227  0.4702
11875WAT     H248221   0.734   0.829   3.893  0.7832  1.6958  2.0102
11875WAT    EPW48222   0.674   0.826   3.944 -0.4849  0.4131  0.5646
11876WAT      O48223   1.290   1.078   5.687  0.1035 -0.1610  0.5062
11876WAT     H148224   1.225   1.021   5.674  0.5391 -0.1052 -2.5930
11876WAT     H248225   1.360   1.027   5.699  0.0825 -0.2663  0.1892
11876WAT    EPW48226   1.291   1.062   5.687  0.1648 -0.1683  0.0015
11877WAT      O48227   1.360   1.660   2.402  0.7663  0.1584  0.2810
11877WAT     H148228   1.346   1.735   2.359  0.1739 -0.4366 -0.5731
11877WAT     H248229   1.323   1.675   2.480  1.7559  1.2001  0.5963
11877WAT    EPW48230   1.353   1.673   2.407  0.8250  0.2244  0.2014
11878WAT      O48231   0.811   1.226   4.438  0.7005 -0.2414  0.3123
11878WAT     H148232   0.873   1.167   4.458  3.6172  2.0321 -1.2935
11878WAT     H248233   0.784   1.201   4.359  1.5537  0.2117 -0.1385
11878WAT    EPW48234   0.816   1.213   4.430  1.2574  0.1614  0.0085
11879WAT      O48235   1.773   2.542   3.946  0.4024  0.1664  0.3646
11879WAT     H148236   1.763   2.538   4.033  0.8627  2.0414  0.5276
11879WAT     H248237   1.755   2.625   3.927 -2.0000 -0.6834 -1.6704
11879WAT    EPW48238   1.769   2.553   3.956  0.1155  0.3178  0.0880
11880WAT      O48239   2.109   2.629   4.019  0.0579 -0.2813 -0.4329
11880WAT     H148240   2.079   2.586   3.950  2.2608  0.2813 -1.8447
11880WAT     H248241   2.180   2.584   4.042  0.0185  0.2113  0.7556
11880WAT    EPW48242   2.115   2.616   4.012  0.3775 -0.1255 -0.4659
11881WAT      O48243   0.852   1.103   2.228  0.4056  0.1391 -0.2215
11881WAT     H148244   0.860   1.033   2.176 -0.8946 -0.8886  0.8802
11881WAT     H248245   0.776   1.138   2.203  0.4506  0.4389  0.0573
11881WAT    EPW48246   0.842   1.098   2.216  0.2202  0.0316 -0.0176
11882WAT      O48247   1.415   1.508   2.995 -0.8493  0.2315 -0.2144
11882WAT     H148248   1.384   1.590   2.989  0.8665  0.8729 -0.9564
11882WAT     H248249   1.479   1.506   2.935 -0.2846 -1.4017  0.3896
11882WAT    EPW48250   1.419   1.520   2.985 -0.5124  0.0850 -0.2348
11883WAT      O48251   0.978   1.441   3.166  0.2274 -0.0626  0.2067
11883WAT     H148252   0.923   1.388   3.124 -0.1437 -0.9755  1.7448
11883WAT     H248253   1.056   1.421   3.133 -0.1549 -0.0809 -0.6925
11883WAT    EPW48254   0.982   1.430   3.155  0.1161 -0.2002  0.3010
11884WAT      O48255   1.662   1.797   3.506 -0.3531  0.5547 -0.1877
11884WAT     H148256   1.700   1.725   3.539  0.4999  0.9992 -0.1516
11884WAT     H248257   1.690   1.799   3.424 -0.3483  0.8583 -0.1791
11884WAT    EPW48258   1.672   1.787   3.499 -0.2264  0.6652 -0.1811
11885WAT      O48259   1.418   2.028   2.564  0.4519 -0.3034  0.3250
11885WAT     H148260   1.331   2.029   2.559  0.4860 -1.8672 -3.0572
11885WAT     H248261   1.435   2.088   2.625 -2.9296  0.8712  0.3328
11885WAT    EPW48262   1.407   2.037   2.572 -0.0426 -0.3609 -0.1735
11886WAT      O48263   2.641   3.754   2.021  0.6994  0.1309  0.6333
11886WAT     H148264   2.665   3.712   1.948 -1.1655 -1.1846  0.7110
11886WAT     H248265   2.567   3.794   1.997  2.4483  3.6607  0.5170
11886WAT    EPW48266   2.633   3.754   2.006  0.6822  0.4580  0.6276
11887WAT      O48267   1.516   2.519   1.992  0.1714  0.5124 -0.4786
11887WAT     H148268   1.492   2.459   1.933  2.6262  0.1305 -1.2015
11887WAT     H248269   1.508   2.594   1.949  0.3901  0.3820 -0.7500
11887WAT    EPW48270   1.512   2.521   1.977  0.5664  0.4367 -0.6254
11888WAT      O48271   1.567   2.288   3.797 -0.1241 -0.1634 -0.6465
11888WAT     H148272   1.623   2.344   3.760  0.1408  0.1972  0.2539
11888WAT     H248273   1.492   2.306   3.758 -0.5920  2.5161  1.1805
11888WAT    EPW48274   1.564   2.299   3.786 -0.1541  0.2857 -0.2436
11889WAT      O48275   1.343   2.428   1.093  0.0590  0.2775  0.0949
11889WAT     H148276   1.395   2.495   1.071  0.9457  0.1403  1.5855
11889WAT     H248277   1.276   2.434   1.039  0.7786  1.5702 -0.6874
11889WAT    EPW48278   1.341   2.438   1.082  0.2963  0.4482  0.1995
11890WAT      O48279   1.476   2.505   4.032 -0.0643  0.2641 -0.2358
11890WAT     H148280   1.412   2.447   4.020 -0.2990  0.8794 -2.5197
11890WAT     H248281   1.548   2.459   4.012 -0.2520  0.7007 -2.0660
11890WAT    EPW48282   1.478   2.489   4.027 -0.1267  0.4195 -0.8436
11891WAT      O48283   0.958   1.524   3.820 -0.2123  0.1757  0.2002
11891WAT     H148284   0.965   1.454   3.768 -1.5849  0.1361  0.0518
11891WAT     H248285   0.926   1.491   3.895  0.7935  0.3948  0.7577
11891WAT    EPW48286   0.954   1.509   3.824 -0.2665  0.2022  0.2607
11892WAT      O48287   1.469   0.970   3.135 -0.1182 -0.4926  0.6448
11892WAT     H148288   1.491   0.991   3.217  1.5288  0.1129  0.0844
11892WAT     H248289   1.395   1.014   3.122  0.4226  0.6740  1.3206
11892WAT    EPW48290   1.461   0.979   3.145  0.2050 -0.2308  0.6618
11893WAT      O48291   2.948   1.795   3.507 -0.1961 -0.3396 -0.2323
11893WAT     H148292   2.935   1.719   3.466 -1.1975  0.5104 -1.5716
11893WAT     H248293   2.891   1.849   3.469  1.2790  1.3779 -0.1315
11893WAT    EPW48294   2.938   1.792   3.496 -0.1261  0.0396 -0.4152
11894WAT      O48295   1.114   0.683   2.876 -0.6309 -0.3931 -0.0614
11894WAT     H148296   1.130   0.768   2.870  0.8778 -0.5931  0.6937
11894WAT     H248297   1.184   0.651   2.917 -1.1925 -1.9939 -0.2551
11894WAT    EPW48298   1.127   0.691   2.881 -0.4910 -0.6591  0.0215
11895WAT      O48299   2.915   2.892   3.795  0.2287  0.4107  0.2531
11895WAT     H148300   2.867   2.955   3.833  0.1960  0.1205  0.7014
11895WAT     H248301   2.997   2.917   3.811  0.2206 -0.2112  1.3899
11895WAT    EPW48302   2.920   2.905   3.803  0.2227  0.2760  0.4872
11896WAT      O48303   1.862   1.222   4.580 -0.0076 -0.1053  0.0418
11896WAT     H148304   1.919   1.288   4.588  0.4817 -0.4319 -0.6290
11896WAT     H248305   1.803   1.253   4.524  1.1076 -0.7916 -1.5790
11896WAT    EPW48306   1.862   1.236   4.573  0.2294 -0.2549 -0.2967
11897WAT      O48307   1.932   1.333   3.575 -0.3913 -0.3506 -0.1189
11897WAT     H148308   1.953   1.297   3.651 -1.8370  0.1269  0.5486
11897WAT     H248309   2.002   1.320   3.525 -0.1603 -2.4356  0.6569
11897WAT    EPW48310   1.945   1.325   3.579 -0.5708 -0.5881  0.0943
11898WAT      O48311   1.851   3.588   2.034 -0.7151 -0.1370 -0.2821
11898WAT     H148312   1.791   3.591   1.971 -1.8442 -0.6464  0.7152
11898WAT     H248313   1.827   3.519   2.082  0.8829 -0.5476 -0.0425
11898WAT    EPW48314   1.838   3.578   2.032 -0.6459 -0.2729 -0.0994
11899WAT      O48315   1.104   1.477   2.628  0.1804 -0.2489 -0.1483
11899WAT     H148316   1.077   1.477   2.545 -0.1862 -0.7997 -0.0384
11899WAT     H248317   1.164   1.413   2.630  0.3721 -0.0645 -0.0480
11899WAT    EPW48318   1.109   1.467   2.616  0.1546 -0.3030 -0.1172
11900WAT      O48319   2.582   0.835   5.598  0.6750  0.6883 -0.1480
11900WAT     H148320   2.616   0.915   5.591 -0.3816  1.0417 -2.3227
11900WAT     H248321   2.503   0.844   5.562  0.4902 -1.2982 -0.3389
11900WAT    EPW48322   2.575   0.848   5.591  0.4916  0.4470 -0.4974
11901WAT      O48323   1.499   3.100   3.574 -0.3486 -0.1889 -0.0770
11901WAT     H148324   1.478   3.181   3.599 -0.2594  0.0893 -0.8526
11901WAT     H248325   1.458   3.091   3.497  0.0031 -0.7135 -0.2097
11901WAT    EPW48326   1.490   3.111   3.566 -0.2834 -0.2253 -0.2112
11902WAT      O48327   1.844   1.764   1.160 -0.1107  0.4868 -0.4620
11902WAT     H148328   1.923   1.793   1.136 -0.1466  0.7175 -0.3020
11902WAT     H248329   1.862   1.690   1.202 -0.1571 -0.8921 -2.7034
11902WAT    EPW48330   1.859   1.757   1.162 -0.1228  0.3172 -0.7695
11903WAT      O48331   0.821   2.912   2.503  0.0133 -0.1786  0.3408
11903WAT     H148332   0.746   2.938   2.539  0.3002 -0.0572  0.8620
11903WAT     H248333   0.879   2.972   2.530  0.2806 -0.2175 -0.1313
11903WAT    EPW48334   0.819   2.925   2.512  0.0952 -0.1664  0.3481
11904WAT      O48335   1.612   3.766   3.738  0.1151  0.2055 -0.5620
11904WAT     H148336   1.632   3.692   3.781  0.6968  0.9793  0.5573
11904WAT     H248337   1.689   3.794   3.707 -0.1283  0.2604 -1.1294
11904WAT    EPW48338   1.626   3.759   3.740  0.1651  0.3279 -0.4805
11905WAT      O48339   1.132   1.187   2.879 -1.0555 -0.1478 -0.7636
11905WAT     H148340   1.202   1.219   2.838 -0.3396  3.0792  2.4340
11905WAT     H248341   1.065   1.230   2.843 -0.9840 -0.5751 -1.4204
11905WAT    EPW48342   1.133   1.198   2.868 -0.9392  0.2658 -0.3883
11906WAT      O48343   1.687   1.875   1.391  0.4217 -0.5836 -0.3992
11906WAT     H148344   1.662   1.959   1.394 -0.1660 -0.7658 -0.1474
11906WAT     H248345   1.745   1.874   1.326  1.0828  0.1941  0.1470
11906WAT    EPW48346   1.692   1.887   1.382  0.4325 -0.4956 -0.2813
11907WAT      O48347   2.163   0.046   2.646  0.1252  0.1190 -0.4753
11907WAT     H148348   2.174   0.130   2.668  1.0864  0.6236 -2.6367
11907WAT     H248349   2.076   0.038   2.642  0.0264  1.2312 -0.9534
11907WAT    EPW48350   2.152   0.057   2.649  0.2526  0.3578 -0.8652
11908WAT      O48351   1.366   4.980   2.344 -0.0295  0.5241 -0.2856
11908WAT     H148352   1.340   4.899   2.365 -0.9160  1.0835  0.9151
11908WAT     H248353   1.444   4.986   2.383 -0.9441  0.9796  1.5976
11908WAT    EPW48354   1.374   4.969   2.353 -0.2956  0.6740  0.1700
11909WAT      O48355   2.596   1.749   4.054  0.3296  0.0039  0.1749
11909WAT     H148356   2.531   1.807   4.051 -1.0300 -1.4826 -0.9662
11909WAT     H248357   2.571   1.688   3.997  1.5164 -1.8932  1.5958
11909WAT    EPW48358   2.582   1.749   4.045  0.3041 -0.4959  0.2163
11910WAT      O48359   2.494   1.164   4.577 -0.8349 -0.2053 -0.2948
11910WAT     H148360   2.543   1.172   4.505 -0.3154 -0.6940 -0.0005
11910WAT     H248361   2.551   1.171   4.642 -1.3698  0.7042  0.0956
11910WAT    EPW48362   2.509   1.166   4.576 -0.8372 -0.1431 -0.1937
11911WAT      O48363   2.186   1.781   2.071 -0.0410 -0.4306  0.1277
11911WAT     H148364   2.101   1.783   2.049 -0.2381  1.0500  0.8753
11911WAT     H248365   2.222   1.838   2.016  0.3818 -0.6403  0.1869
11911WAT    EPW48366   2.179   1.790   2.059 -0.0076 -0.2429  0.2469
11912WAT      O48367   1.359   1.187   4.827  0.4611 -0.9659 -0.4587
11912WAT     H148368   1.343   1.114   4.781  1.6842 -1.6294  0.1206
11912WAT     H248369   1.281   1.227   4.830 -0.4538 -2.7049  0.0167
11912WAT    EPW48370   1.345   1.182   4.820  0.5066 -1.3208 -0.3029
11913WAT      O48371   1.213   2.321   3.904 -0.4529  0.1383 -0.1305
11913WAT     H148372   1.154   2.385   3.895 -0.3027  0.4665  1.0531
11913WAT     H248373   1.188   2.262   3.846 -2.5716 -0.1781  1.0185
11913WAT    EPW48374   1.201   2.322   3.894 -0.7437  0.1401  0.2141
11914WAT      O48375   2.768   1.197   1.757  0.0407 -0.7578  0.3975
11914WAT     H148376   2.817   1.269   1.763 -2.4558  1.0784  0.4004
11914WAT     H248377   2.687   1.227   1.762 -1.1427 -3.6274  0.4274
11914WAT    EPW48378   2.763   1.212   1.759 -0.5029 -0.9105  0.4023
11915WAT      O48379   1.817   2.245   2.444 -0.0604  0.1868  0.2829
11915WAT     H148380   1.897   2.218   2.422  0.1199  0.9512 -0.0550
11915WAT     H248381   1.765   2.205   2.386  0.3178  1.4065 -0.9722
11915WAT    EPW48382   1.821   2.235   2.432  0.0221  0.4799  0.0476
11916WAT      O48383   0.726   0.509   3.127  0.3658  0.7531  0.0707
11916WAT     H148384   0.732   0.448   3.065 -0.2285  0.4900  0.2688
11916WAT     H248385   0.772   0.576   3.094  2.4500 -0.3495  0.5550
11916WAT    EPW48386   0.734   0.510   3.113  0.5859  0.5514  0.1715
11917WAT      O48387   1.535   1.403   5.280  0.1758  0.0893 -0.1773
11917WAT     H148388   1.512   1.361   5.353  0.3785 -1.7292 -1.1050
11917WAT     H248389   1.572   1.341   5.232  1.9911  1.7201 -0.9859
11917WAT    EPW48390   1.537   1.387   5.284  0.4739  0.0616 -0.4338
11918WAT      O48391   1.196   2.037   3.302  0.8334 -0.0355  0.6961
11918WAT     H148392   1.177   1.963   3.259 -2.1449  0.6818  0.5950
11918WAT     H248393   1.272   2.062   3.266 -0.3129 -0.6934 -2.4968
11918WAT    EPW48394   1.205   2.030   3.290  0.2241 -0.0267  0.2095
11919WAT      O48395   1.708   2.246   2.709  0.3811 -0.5434  0.2001
11919WAT     H148396   1.750   2.235   2.633  0.4508  0.0408  0.1495
11919WAT     H248397   1.733   2.326   2.734 -0.0913 -0.5081  0.5572
11919WAT    EPW48398   1.718   2.256   2.701  0.3216 -0.4519  0.2454
11920WAT      O48399   2.666   1.433   0.995  0.0885  0.0121 -0.0285
11920WAT     H148400   2.608   1.471   0.942 -0.1381  0.2294  0.3798
11920WAT     H248401   2.732   1.490   0.997 -0.8093  1.0553  1.6722
11920WAT    EPW48402   2.667   1.447   0.987 -0.0776  0.1983  0.2830
11921WAT      O48403   0.905   2.633   3.603  0.1354  0.1597  0.0880
11921WAT     H148404   0.948   2.632   3.528  0.3869 -0.5131  0.2401
11921WAT     H248405   0.884   2.718   3.613 -1.7790  0.0024 -1.7765
11921WAT    EPW48406   0.908   2.646   3.594 -0.1102  0.0371 -0.1649
11922WAT      O48407   1.419   7.380   3.255 -0.4620 -0.0238 -0.3031
11922WAT     H148408   1.452   7.461   3.261  1.1298 -0.6357 -0.3603
11922WAT     H248409   1.381   7.379   3.177  1.3996  0.0227 -1.2492
11922WAT    EPW48410   1.418   7.392   3.245  0.0481 -0.1073 -0.4513
11923WAT      O48411   2.950   1.069   3.038  0.8510 -0.1068  0.2705
11923WAT     H148412   3.012   1.009   3.025 -0.0625 -0.9218 -0.4144
11923WAT     H248413   2.913   1.045   3.113 -1.1933 -1.9682 -1.2228
11923WAT    EPW48414   2.954   1.057   3.047  0.4140 -0.5022 -0.0513
11924WAT      O48415   0.946   2.922   3.702 -0.1800 -0.1933 -0.4183
11924WAT     H148416   1.030   2.910   3.683  0.0397 -1.1847  1.0091
11924WAT     H248417   0.946   2.942   3.787 -1.3491  0.2937 -0.5080
11924WAT    EPW48418   0.958   2.923   3.712 -0.3202 -0.2678 -0.2207
11925WAT      O48419   2.282   2.179   3.693  0.2123 -0.8323 -0.4819
11925WAT     H148420   2.345   2.214   3.643  1.7466  0.3494  2.0840
11925WAT     H248421   2.281   2.095   3.669  1.5516 -0.5282 -1.7514
11925WAT    EPW48422   2.291   2.172   3.682  0.6368 -0.6128 -0.2904
11926WAT      O48423   1.505   7.227   3.480  0.0341 -0.0875  0.8563
11926WAT     H148424   1.478   7.291   3.428  0.9186  0.4271  1.0097
11926WAT     H248425   1.539   7.269   3.548  0.7380 -0.7151  0.9057
11926WAT    EPW48426   1.506   7.242   3.483  0.2687 -0.1042  0.8863
11927WAT      O48427   3.495   1.601   3.026 -0.3505  0.1680 -0.3053
11927WAT     H148428   3.457   1.558   3.092 -1.9451  1.6466 -0.1899
11927WAT     H248429   3.504   1.682   3.057  1.8113  0.1737 -0.8084
11927WAT    EPW48430   3.491   1.607   3.040 -0.2667  0.3873 -0.3626
11928WAT      O48431   1.590   1.472   0.691 -0.1276 -0.0520 -0.0005
11928WAT     H148432   1.644   1.520   0.644 -0.0045 -0.1062  0.0850
11928WAT     H248433   1.599   1.392   0.657 -0.9805  0.1456 -0.7196
11928WAT    EPW48434   1.599   1.467   0.679 -0.2354 -0.0309 -0.0941
11929WAT      O48435   1.039   3.631   3.177 -0.3118 -0.1000 -0.1498
11929WAT     H148436   0.981   3.572   3.150 -1.0337  0.9091 -0.8496
11929WAT     H248437   1.026   3.634   3.263  0.1633 -1.3812 -0.0023
11929WAT    EPW48438   1.028   3.623   3.186 -0.3482 -0.1402 -0.2313
11930WAT      O48439   1.077   0.186   3.891 -0.5984 -0.4066 -0.2006
11930WAT     H148440   1.057   0.240   3.826 -1.1127 -0.5970 -0.2089
11930WAT     H248441   1.159   0.163   3.875 -0.6838 -0.3605 -0.7148
11930WAT    EPW48442   1.086   0.190   3.879 -0.6870 -0.4279 -0.2778
11931WAT      O48443   1.277   0.647   3.914  0.4611  0.6296 -0.1835
11931WAT     H148444   1.302   0.730   3.924 -0.8156  1.0487 -0.2919
11931WAT     H248445   1.215   0.636   3.975  0.7977 -0.3308  0.0090
11931WAT    EPW48446   1.272   0.658   3.925  0.3222  0.5496 -0.1711
11932WAT      O48447   2.024   3.373   3.535 -0.0678  0.3702  0.6756
11932WAT     H148448   2.000   3.429   3.473 -0.0909  1.5013  1.6682
11932WAT     H248449   1.951   3.363   3.583 -0.3380 -1.2592  0.0002
11932WAT    EPW48450   2.009   3.379   3.533 -0.1111  0.2966  0.7225
11933WAT      O48451   1.579   2.210   4.577 -0.4607 -0.0361 -0.3070
11933WAT     H148452   1.551   2.267   4.518 -0.6589  0.3196  0.1226
11933WAT     H248453   1.596   2.260   4.647 -0.0417 -0.4208 -0.1269
11933WAT    EPW48454   1.578   2.226   4.579 -0.4281 -0.0404 -0.2169
11934WAT      O48455   1.749   2.831   2.888  0.1429 -0.8801  0.0420
11934WAT     H148456   1.789   2.848   2.964 -1.3753 -0.4798  0.8065
11934WAT     H248457   1.814   2.815   2.833  1.3086 -0.8016  1.3462
11934WAT    EPW48458   1.764   2.831   2.891  0.0908 -0.8094  0.3476
11935WAT      O48459   1.936   2.312   4.283  0.1565  0.0104  0.8385
11935WAT     H148460   2.018   2.334   4.302  0.6079 -0.5812 -0.3444
11935WAT     H248461   1.909   2.269   4.354  0.2777  1.6215  1.9195
11935WAT    EPW48462   1.944   2.309   4.296  0.2411  0.1610  0.8235
11936WAT      O48463   2.682   2.716   4.555  0.4467  0.8753  0.4243
11936WAT     H148464   2.702   2.776   4.494 -0.2081 -0.0424 -0.7240
11936WAT     H248465   2.676   2.642   4.509 -1.1301  0.3513  1.4366
11936WAT    EPW48466   2.684   2.714   4.539  0.1170  0.6624  0.4042
11937WAT      O48467   0.771   0.834   2.789  0.3728 -0.2715  0.3383
11937WAT     H148468   0.793   0.901   2.841  0.6901  0.2978 -0.5011
11937WAT     H248469   0.739   0.775   2.844 -4.1192  2.1629  0.7753
11937WAT    EPW48470   0.770   0.836   2.805 -0.2439  0.1722  0.2789
11938WAT      O48471   2.213   7.633   3.399  0.1999 -0.1378 -0.0519
11938WAT     H148472   2.278   7.690   3.413 -0.5542  0.9561 -0.8447
11938WAT     H248473   2.171   7.666   3.330 -1.1938 -0.8115  0.4301
11938WAT    EPW48474   2.216   7.646   3.391 -0.1174 -0.0757 -0.0978
11939WAT      O48475   1.789   1.039   3.754 -0.2766 -0.4018 -0.0225
11939WAT     H148476   1.738   1.078   3.695 -1.5364 -0.4436  1.0111
11939WAT     H248477   1.853   1.005   3.705 -0.4234  0.9080 -1.1913
11939WAT    EPW48478   1.791   1.040   3.738 -0.4844 -0.2145 -0.0425
11940WAT      O48479   2.325   0.883   4.019 -0.1738  0.5054  0.7039
11940WAT     H148480   2.290   0.940   4.074 -0.4774  0.9269  0.0807
11940WAT     H248481   2.256   0.843   3.983  0.0332 -0.2255  1.0966
11940WAT    EPW48482   2.310   0.885   4.022 -0.1881  0.4597  0.6699
11941WAT      O48483   1.884   1.643   3.042 -0.0692 -0.1133  0.4153
11941WAT     H148484   1.958   1.595   3.037  0.3845  0.6688 -0.7602
11941WAT     H248485   1.835   1.598   3.098 -0.4827 -3.1066 -2.0480
11941WAT    EPW48486   1.888   1.629   3.049 -0.0633 -0.4399 -0.1222
11942WAT      O48487   1.466   1.966   4.423  1.2583 -0.2279  0.3094
11942WAT     H148488   1.429   1.940   4.498 -1.3267  1.0396 -0.3892
11942WAT     H248489   1.492   2.048   4.441 -2.9256  1.6585 -1.0200
11942WAT    EPW48490   1.464   1.974   4.437  0.2584  0.2380  0.0098
11943WAT      O48491   3.040   4.012   1.659  0.0997 -0.2922  0.1668
11943WAT     H148492   3.124   4.027   1.676  0.6465 -1.4546 -1.3795
11943WAT     H248493   3.022   3.939   1.704  0.2609 -0.7329 -0.4794
11943WAT    EPW48494   3.050   4.004   1.668  0.2043 -0.5290 -0.1571
11944WAT      O48495   2.207   1.201   2.016 -0.4489  0.3572 -0.2956
11944WAT     H148496   2.265   1.241   1.965 -0.1819  0.6149  0.2063
11944WAT     H248497   2.255   1.146   2.063 -0.8378 -0.7908 -1.1733
11944WAT    EPW48498   2.222   1.199   2.016 -0.4669  0.2257 -0.3511
11945WAT      O48499   2.598   0.055   3.774 -0.2123  0.2239 -0.4617
11945WAT     H148500   2.586  -0.007   3.833 -0.7546  0.3672 -0.4196
11945WAT     H248501   2.682   0.077   3.784 -0.6276  1.1804  1.1779
11945WAT    EPW48502   2.609   0.049   3.784 -0.3537  0.3864 -0.2133
11946WAT      O48503   1.489   0.274   4.663  0.0038  0.4987 -0.1986
11946WAT     H148504   1.478   0.188   4.655  0.2622  0.4203  0.2150
11946WAT     H248505   1.425   0.309   4.616  0.6619  0.0843 -1.4421
11946WAT    EPW48506   1.478   0.267   4.655  0.1392  0.4259 -0.3212
11947WAT      O48507   0.958   2.774   2.308  0.4267 -0.0586 -0.0755
11947WAT     H148508   0.896   2.810   2.357  1.0675  0.2092  0.5627
11947WAT     H248509   1.011   2.841   2.289  0.8561 -0.3903 -0.0703
11947WAT    EPW48510   0.957   2.789   2.313  0.5848 -0.0680  0.0195
11948WAT      O48511   2.292   1.409   3.102 -0.0337 -0.2854 -0.6382
11948WAT     H148512   2.305   1.323   3.093  0.0591 -0.3830  0.3032
11948WAT     H248513   2.329   1.443   3.031  0.2504 -0.9936 -0.8389
11948WAT    EPW48514   2.299   1.402   3.090  0.0220 -0.4044 -0.5288
11949WAT      O48515   2.024   0.794   3.877 -0.3411  0.5654  0.6437
11949WAT     H148516   2.024   0.869   3.922 -2.1709  0.9521  0.1172
11949WAT     H248517   2.045   0.818   3.797 -0.5738  0.4763  0.5529
11949WAT    EPW48518   2.027   0.808   3.872 -0.6458  0.6093  0.5525
11950WAT      O48519   0.925   3.269   2.335  0.0146  0.1009  0.2263
11950WAT     H148520   0.905   3.201   2.285 -0.9908  0.3771  0.2307
11950WAT     H248521   0.930   3.236   2.415 -2.7218  0.3361  0.6057
11950WAT    EPW48522   0.923   3.254   2.339 -0.5382  0.1764  0.2830
11951WAT      O48523   3.285   2.476   1.298 -0.2434  0.5928  0.0617
11951WAT     H148524   3.312   2.558   1.287  0.9023  0.0952 -1.0574
11951WAT     H248525   3.356   2.434   1.328 -0.3609 -0.2950 -0.8416
11951WAT    EPW48526   3.299   2.482   1.301 -0.0915  0.3881 -0.2371
11952WAT      O48527   1.545   1.628   1.793  0.1771  0.2065  0.7512
11952WAT     H148528   1.604   1.583   1.839 -1.6732 -0.7362  2.3218
11952WAT     H248529   1.476   1.575   1.790 -0.3081  0.8353 -1.9270
11952WAT    EPW48530   1.544   1.614   1.799 -0.1679  0.1601  0.5876
11953WAT      O48531   1.168   1.875   2.291  0.1125 -0.4670  0.1758
11953WAT     H148532   1.161   1.947   2.241 -1.0246 -1.4414 -1.1315
11953WAT     H248533   1.158   1.906   2.372  0.5458  0.9624 -0.2781
11953WAT    EPW48534   1.165   1.890   2.296  0.0085 -0.3998 -0.0843
11954WAT      O48535   1.061   1.299   3.392 -0.1051 -0.0772 -0.3767
11954WAT     H148536   1.043   1.348   3.322  0.1810 -1.3093 -1.3559
11954WAT     H248537   1.143   1.274   3.378  0.1126  0.0394  0.6567
11954WAT    EPW48538   1.071   1.303   3.380 -0.0307 -0.2420 -0.3687
11955WAT      O48539   2.480   1.344   4.103 -0.2617  0.6196  0.2317
11955WAT     H148540   2.514   1.368   4.027  2.8839 -0.3029  1.1716
11955WAT     H248541   2.420   1.405   4.119 -1.1171  0.7859 -2.9457
11955WAT    EPW48542   2.477   1.356   4.094  0.0766  0.5079 -0.0989
11956WAT      O48543   1.176   1.408   2.148  0.3437  0.5164 -0.6232
11956WAT     H148544   1.167   1.495   2.150 -1.2089  0.3935  1.7929
11956WAT     H248545   1.106   1.381   2.104  0.2746  0.4536 -0.4755
11956WAT    EPW48546   1.164   1.417   2.142  0.1042  0.4890 -0.2445
11957WAT      O48547   2.720   4.244   3.753  0.6869 -0.8282 -0.7035
11957WAT     H148548   2.663   4.291   3.706  1.1206 -1.3776 -1.8110
11957WAT     H248549   2.797   4.268   3.721  1.1731  0.3251  1.1543
11957WAT    EPW48550   2.723   4.255   3.741  0.8228 -0.7390 -0.5927
11958WAT      O48551   1.862   2.309   3.366  0.9215  0.4241 -0.0603
11958WAT     H148552   1.863   2.236   3.317  0.6514 -1.1261  2.0746
11958WAT     H248553   1.943   2.312   3.400  0.7164  0.7137  0.4108
11958WAT    EPW48554   1.874   2.298   3.364  0.8513  0.2379  0.3246
11959WAT      O48555   2.770   0.698   2.940 -0.3191 -0.1217  0.0716
11959WAT     H148556   2.833   0.656   2.982  0.9473 -0.1430 -1.7133
11959WAT     H248557   2.734   0.637   2.890 -1.7792 -0.0980  1.0178
11959WAT    EPW48558   2.774   0.683   2.939 -0.3477 -0.1213 -0.0523
11960WAT      O48559   1.275   1.045   2.447  0.2120 -0.5263 -0.0224
11960WAT     H148560   1.328   0.979   2.469 -0.4727 -1.5563 -1.3483
11960WAT     H248561   1.207   1.006   2.409  0.5346  1.0025 -2.3658
11960WAT    EPW48562   1.273   1.029   2.445  0.1585 -0.4526 -0.5644
11961WAT      O48563   1.488   1.937   3.863  0.2683  0.3382 -0.0241
11961WAT     H148564   1.506   2.001   3.919  1.0713  0.3331 -0.2640
11961WAT     H248565   1.403   1.921   3.877  0.6467 -0.3023  1.8319
11961WAT    EPW48566   1.478   1.944   3.873  0.4428  0.2429  0.2146
11962WAT      O48567   0.863   2.464   1.988 -0.5654  0.5229  0.4100
11962WAT     H148568   0.933   2.425   2.024 -1.0464 -1.1257 -0.3650
11962WAT     H248569   0.797   2.412   2.010 -1.8835  2.8240  2.4119
11962WAT    EPW48570   0.864   2.451   1.997 -0.8311  0.6193  0.5912
11963WAT      O48571   1.658   4.324   1.566 -0.2996 -0.2270 -1.0117
11963WAT     H148572   1.600   4.385   1.588  0.5828 -0.0442  1.0398
11963WAT     H248573   1.609   4.256   1.544 -1.3465 -0.1907  1.0014
11963WAT    EPW48574   1.642   4.323   1.566 -0.3239 -0.1947 -0.4113
11964WAT      O48575   1.758   0.763   3.858  0.2246 -0.7740  0.1424
11964WAT     H148576   1.844   0.755   3.853  0.2792 -0.6635  0.8561
11964WAT     H248577   1.744   0.848   3.846  0.1805 -0.8435 -0.3333
11964WAT    EPW48578   1.768   0.774   3.855  0.2261 -0.7679  0.1776
11965WAT      O48579   2.075   1.511   2.131 -0.3022  0.1686  0.9465
11965WAT     H148580   2.118   1.587   2.128 -1.9231  1.1092  0.2033
11965WAT     H248581   2.064   1.490   2.047 -0.7237 -0.3933  1.1327
11965WAT    EPW48582   2.080   1.519   2.118 -0.6039  0.2246  0.8643
11966WAT      O48583   0.768   3.475   5.021 -0.0498 -0.1270  0.3388
11966WAT     H148584   0.831   3.515   5.067  0.3026 -0.3138  0.0295
11966WAT     H248585   0.742   3.537   4.964 -1.1480  0.4168  1.3865
11966WAT    EPW48586   0.774   3.490   5.019 -0.1600 -0.0742  0.4479
11967WAT      O48587   2.769   1.619   1.863  0.3534  0.2121  0.3761
11967WAT     H148588   2.685   1.597   1.868  0.1852  0.9705  1.0538
11967WAT     H248589   2.805   1.576   1.930  0.7840 -1.2282 -0.7289
11967WAT    EPW48590   2.762   1.609   1.874  0.3922  0.1114  0.3130
11968WAT      O48591   0.527   7.662   4.005  0.3758  0.5019  0.2228
11968WAT     H148592   0.545   7.579   3.989 -1.5432  0.1068 -0.1355
11968WAT     H248593   0.527   7.699   3.926 -2.1492  0.0383 -0.1037
11968WAT    EPW48594   0.530   7.655   3.991 -0.2807  0.3751  0.1217
11969WAT      O48595   1.044   2.536   3.365 -0.1582  0.2797  0.1283
11969WAT     H148596   1.067   2.458   3.397  0.0378  0.4978  0.5167
11969WAT     H248597   1.119   2.569   3.336 -0.2156  0.3930  0.1097
11969WAT    EPW48598   1.059   2.529   3.365 -0.1377  0.3286  0.1829
11970WAT      O48599   2.684   2.073   2.730  0.5168 -0.4394 -0.3625
11970WAT     H148600   2.649   2.152   2.745  0.2117 -0.4972 -0.7455
11970WAT     H248601   2.747   2.089   2.671 -0.6148 -0.6905 -1.6953
11970WAT    EPW48602   2.688   2.087   2.724  0.3046 -0.4850 -0.6159
11971WAT      O48603   0.808   2.456   0.950  0.0157  0.4493  0.0232
11971WAT     H148604   0.753   2.510   0.910 -1.3052 -2.2628 -2.1541
11971WAT     H248605   0.832   2.401   0.887  3.2876 -0.0413  1.4977
11971WAT    EPW48606   0.804   2.456   0.935  0.3039 -0.0238 -0.0806
11972WAT      O48607   2.121   2.580   2.221 -0.2121 -0.6140 -0.1830
11972WAT     H148608   2.139   2.568   2.305 -1.9102  0.5245  0.4161
11972WAT     H248609   2.169   2.650   2.199 -0.4439 -0.3503  0.1264
11972WAT    EPW48610   2.130   2.589   2.230 -0.4972 -0.4068 -0.0488
11973WAT      O48611   1.675   3.183   1.436  0.0723 -0.1164  0.1472
11973WAT     H148612   1.658   3.256   1.481 -0.7206 -0.4090  0.3286
11973WAT     H248613   1.690   3.124   1.499  0.6574 -0.1322  0.0008
11973WAT    EPW48614   1.675   3.185   1.452  0.0416 -0.1619  0.1524
11974WAT      O48615   1.961   2.711   4.240 -0.1411  0.0106  0.3302
11974WAT     H148616   1.890   2.667   4.216 -0.8699  1.2135  0.1661
11974WAT     H248617   2.023   2.683   4.186 -0.5640 -0.8175  0.2583
11974WAT    EPW48618   1.960   2.700   4.229 -0.3112  0.0659  0.2953
11975WAT      O48619   3.446   2.102   2.017  0.3433 -0.4842  0.1179
11975WAT     H148620   3.507   2.161   1.998 -0.2452 -0.1782 -0.8989
11975WAT     H248621   3.376   2.129   1.971 -0.3534 -1.1889  0.7344
11975WAT    EPW48622   3.445   2.115   2.007  0.1534 -0.5431  0.0588
11976WAT      O48623   1.299   1.975   3.561 -0.2114 -0.0757  0.0151
11976WAT     H148624   1.253   1.993   3.489 -0.2655  1.6489  0.4477
11976WAT     H248625   1.361   2.036   3.562 -0.9953  0.8014  2.0932
11976WAT    EPW48626   1.301   1.987   3.551 -0.3352  0.3086  0.3860
11977WAT      O48627   1.927   2.001   2.673 -0.0129 -0.4343 -0.1677
11977WAT     H148628   1.981   2.068   2.660 -0.6793 -0.2232 -2.0951
11977WAT     H248629   1.887   2.022   2.748  1.3474  0.2167  0.4159
11977WAT    EPW48630   1.929   2.014   2.682  0.0896 -0.3069 -0.3662
11978WAT      O48631   1.608   1.226   3.090  0.1592  0.4657 -0.7207
11978WAT     H148632   1.562   1.152   3.084  2.3038 -1.1784  1.2260
11978WAT     H248633   1.569   1.270   3.155  0.5036 -0.2690 -0.0096
11978WAT    EPW48634   1.595   1.222   3.098  0.5269  0.1143 -0.3281
11979WAT      O48635   1.125   1.964   6.566  0.1923 -0.6974 -0.2332
11979WAT     H148636   1.151   1.972   6.483 -0.0689 -0.8929 -0.3335
11979WAT     H248637   1.091   2.043   6.584 -0.8435 -1.0173 -0.6940
11979WAT    EPW48638   1.124   1.977   6.556  0.0007 -0.7735 -0.3161
11980WAT      O48639   0.910   3.741   3.457 -0.2054 -0.0559  0.6357
11980WAT     H148640   0.831   3.709   3.440 -0.5236  0.5647  0.8979
11980WAT     H248641   0.952   3.675   3.497 -0.2711 -0.6937 -0.3310
11980WAT    EPW48642   0.905   3.727   3.461 -0.2621 -0.0584  0.5316
11981WAT      O48643   1.211   0.311   3.120 -0.2662 -0.4274 -0.0381
11981WAT     H148644   1.253   0.367   3.171 -0.8410 -1.6389  1.8860
11981WAT     H248645   1.274   0.258   3.091  0.4764  1.7879 -2.8664
11981WAT    EPW48646   1.226   0.311   3.124 -0.2414 -0.2791 -0.1717
11982WAT      O48647   1.142   1.719   1.698  0.1592 -0.2339 -0.4598
11982WAT     H148648   1.202   1.739   1.637  0.2203 -0.8952 -0.6270
11982WAT     H248649   1.191   1.702   1.768  0.0890  0.5237 -0.2178
11982WAT    EPW48650   1.158   1.720   1.699  0.1578 -0.2197 -0.4488
11983WAT      O48651   1.217   2.715   2.089 -0.3297 -0.2813  0.7507
11983WAT     H148652   1.260   2.666   2.147  0.2357 -0.5749  0.0913
11983WAT     H248653   1.279   2.742   2.034 -1.0539 -1.1754 -0.5450
11983WAT    EPW48654   1.232   2.712   2.090 -0.3532 -0.4568  0.4619
11984WAT      O48655   1.323   1.216   0.334  0.0345 -0.1030 -0.1692
11984WAT     H148656   1.381   1.267   0.376  0.3908 -0.1989 -0.5335
11984WAT     H248657   1.312   1.149   0.388  2.2447 -1.3895 -1.1537
11984WAT    EPW48658   1.330   1.214   0.348  0.4137 -0.3072 -0.3685
11985WAT      O48659   3.510   3.143   0.158 -0.2828  0.4505 -0.0425
11985WAT     H148660   3.437   3.102   0.135 -1.3838  1.5074  1.4317
11985WAT     H248661   3.493   3.175   0.237  1.7535  0.8141  0.3237
11985WAT    EPW48662   3.497   3.141   0.166 -0.1447  0.6603  0.2294
11986WAT      O48663   0.555   7.636   0.067  0.0946 -0.1457  0.0839
11986WAT     H148664   0.621   7.666   0.019  0.8009  0.4636  1.3827
11986WAT     H248665   0.485   7.680   0.038  0.3651 -0.3306 -0.8632
11986WAT    EPW48666   0.554   7.647   0.056  0.2389 -0.0830  0.1359
11987WAT      O48667   1.324   1.821   1.512  0.6971 -0.1039 -0.0337
11987WAT     H148668   1.379   1.774   1.464  1.9975  0.4203  0.9068
11987WAT     H248669   1.319   1.896   1.468  1.5051  0.1981  0.3726
11987WAT    EPW48670   1.331   1.825   1.498  1.0085  0.0182  0.1653
11988WAT      O48671   2.080   1.881   7.566 -0.2265  0.2525  0.6418
11988WAT     H148672   2.115   1.869   7.645 -1.4884  1.5402  1.4671
11988WAT     H248673   2.118   1.954   7.537  0.9493 -0.7426 -0.4078
11988WAT    EPW48674   2.091   1.890   7.573 -0.2392  0.2957  0.6087
11989WAT      O48675   2.198   2.499   0.477  0.3707 -0.2754  0.1953
11989WAT     H148676   2.280   2.516   0.501  1.3146 -2.2599 -1.3469
11989WAT     H248677   2.165   2.457   0.546  0.7375  0.2755  0.7160
11989WAT    EPW48678   2.205   2.495   0.491  0.5643 -0.4872  0.0444
11990WAT      O48679   1.685   1.438   6.732 -0.0181  0.2219 -0.3594
11990WAT     H148680   1.606   1.409   6.755 -0.5410  1.4054 -0.5902
11990WAT     H248681   1.689   1.421   6.647 -0.7890  1.7482 -0.7454
11990WAT    EPW48682   1.674   1.431   6.723 -0.2092  0.6222 -0.4505
11991WAT      O48683   0.929   1.598   1.380 -0.8950  0.1966 -0.7791
11991WAT     H148684   0.867   1.654   1.404 -0.2569  1.0782 -1.1695
11991WAT     H248685   0.995   1.649   1.354 -0.6638 -0.7272 -2.0833
11991WAT    EPW48686   0.930   1.613   1.380 -0.7666  0.1904 -1.0294
11992WAT      O48687   1.252   0.648   1.501 -0.0947  0.6251 -0.2879
11992WAT     H148688   1.306   0.711   1.474  0.5754 -0.3703 -1.2854
11992WAT     H248689   1.207   0.626   1.429 -2.4762  1.9842  0.6490
11992WAT    EPW48690   1.253   0.654   1.487 -0.3475  0.6788 -0.2969
11993WAT      O48691   1.897   1.496   1.248  0.4258  0.0099 -0.3048
11993WAT     H148692   1.873   1.472   1.328  1.1708 -0.3648 -0.1864
11993WAT     H248693   1.849   1.443   1.196 -0.0446  0.2429 -0.1155
11993WAT    EPW48694   1.886   1.484   1.252  0.4664 -0.0110 -0.2594
11994WAT      O48695   0.971   2.759   2.690 -0.2647  0.0656 -0.5132
11994WAT     H148696   1.031   2.708   2.654 -0.6317 -0.9187  0.2339
11994WAT     H248697   0.920   2.782   2.622  1.0106  1.0488 -1.1812
11994WAT    EPW48698   0.972   2.755   2.674 -0.1305  0.0655 -0.5015
11995WAT      O48699   2.046   1.957   1.110  0.2039 -0.0510  0.2345
11995WAT     H148700   2.108   1.945   1.170  0.1329 -1.2037  0.0967
11995WAT     H248701   2.090   1.984   1.039  0.1678  2.5696  1.1139
11995WAT    EPW48702   2.062   1.959   1.108  0.1881  0.1658  0.3440
11996WAT      O48703   2.101   1.871   0.323  0.5214  0.1614  0.2336
11996WAT     H148704   2.173   1.921   0.325 -0.0030  0.9441 -0.0727
11996WAT     H248705   2.131   1.793   0.298  1.3933  0.2447  0.9336
11996WAT    EPW48706   2.116   1.867   0.320  0.5727  0.2894  0.2918
11997WAT      O48707   1.348   1.672   0.501  0.1082  0.2345 -0.3686
11997WAT     H148708   1.270   1.672   0.541 -0.6761 -1.2816 -1.7524
11997WAT     H248709   1.329   1.695   0.419  1.4295  1.6471 -0.3253
11997WAT    EPW48710   1.333   1.675   0.495  0.1875  0.2192 -0.5666
11998WAT      O48711   0.881   1.709   1.983 -0.7160  0.0000 -0.8225
11998WAT     H148712   0.931   1.745   1.922  0.8091 -0.6850 -0.0313
11998WAT     H248713   0.883   1.624   1.963  1.0898 -0.4672  0.9792
11998WAT    EPW48714   0.888   1.701   1.971 -0.2240 -0.1702 -0.4395
11999WAT      O48715   2.807   0.760   2.057 -0.0239  0.7858  0.2981
11999WAT     H148716   2.845   0.828   2.018  2.1719 -0.1905  0.6050
11999WAT     H248717   2.863   0.738   2.120 -0.7545 -1.1956  0.3275
11999WAT    EPW48718   2.821   0.767   2.060  0.1926  0.3488  0.3478
12000WAT      O48719   1.503   2.116   2.101 -0.2627 -0.2101 -0.1217
12000WAT     H148720   1.541   2.109   2.180  1.5461 -1.3004 -1.0367
12000WAT     H248721   1.418   2.107   2.119 -0.2464  2.4552  2.0499
12000WAT    EPW48722   1.496   2.114   2.116  0.0069  0.0225  0.0639
12001WAT      O48723   1.215   6.126   1.101  0.1653 -0.7319 -0.5277
12001WAT     H148724   1.149   6.075   1.072 -1.2060 -0.5575  1.9596
12001WAT     H248725   1.173   6.194   1.136  1.9343  1.8804 -3.0479
12001WAT    EPW48726   1.199   6.128   1.102  0.2241 -0.3202 -0.5325
12002WAT      O48727   1.425   2.118   0.545  0.2587 -0.1788  0.2987
12002WAT     H148728   1.437   2.040   0.582  2.6783 -0.9160 -1.7373
12002WAT     H248729   1.451   2.174   0.606  2.6805 -1.2523  0.3456
12002WAT    EPW48730   1.431   2.115   0.559  0.9739 -0.4463  0.0049
12003WAT      O48731   3.589   3.123   7.573 -0.4689 -0.6805 -0.0745
12003WAT     H148732   3.645   3.061   7.596  1.3608  1.1361  0.6750
12003WAT     H248733   3.609   3.190   7.625 -2.6309  0.4335 -0.5449
12003WAT    EPW48734   3.601   3.124   7.584 -0.5180 -0.2476 -0.0333
12004WAT      O48735   1.637   3.528   7.791 -0.6962 -0.0610  0.1262
12004WAT     H148736   1.646   3.492   7.870 -0.2385  1.7842  0.9583
12004WAT     H248737   1.719   3.546   7.766 -0.9629  1.9106  0.5082
12004WAT    EPW48738   1.651   3.525   7.799 -0.6680  0.5028  0.3055
12005WAT      O48739   1.694   1.883   0.711  0.1276  0.0988 -0.4333
12005WAT     H148740   1.739   1.816   0.680 -0.3026 -0.1766 -0.4789
12005WAT     H248741   1.612   1.866   0.686  0.1613  1.1786 -1.3626
12005WAT    EPW48742   1.688   1.870   0.703  0.0690  0.2176 -0.5773
12006WAT      O48743   1.618   1.905   1.721  0.9219  0.4580  0.0839
12006WAT     H148744   1.601   1.823   1.744  1.0936  0.1677 -0.7898
12006WAT     H248745   1.549   1.928   1.673  1.3371  0.4801 -0.5085
12006WAT    EPW48746   1.605   1.896   1.718  1.0086  0.4184 -0.1327
12007WAT      O48747   0.890   2.792   7.042  0.5359 -0.3060  0.1328
12007WAT     H148748   0.970   2.815   7.069 -0.5237  2.9618  0.9187
12007WAT     H248749   0.879   2.713   7.076  2.9462 -0.3178  1.0751
12007WAT    EPW48750   0.900   2.784   7.051  0.7354  0.1750  0.3881
12008WAT      O48751   2.248   1.125   0.296  0.1660  0.0604  0.2407
12008WAT     H148752   2.315   1.181   0.288 -0.6631  0.8601 -1.9324
12008WAT     H248753   2.265   1.084   0.371  1.3016  2.6093  1.5293
12008WAT    EPW48754   2.261   1.127   0.306  0.2113  0.5551  0.1101
12009WAT      O48755   1.620   3.062   2.778  0.4642 -0.2024  0.3988
12009WAT     H148756   1.637   2.977   2.779 -0.6242 -0.4268  0.5626
12009WAT     H248757   1.661   3.093   2.848 -1.0663 -0.9865  1.6828
12009WAT    EPW48758   1.629   3.054   2.788  0.0773 -0.3514  0.6127
12010WAT      O48759   2.033   2.202   1.419 -0.2694  0.2261 -0.0208
12010WAT     H148760   1.953   2.232   1.402 -1.0643 -1.2918  0.8583
12010WAT     H248761   2.036   2.199   1.506  0.1955 -1.1258 -0.0650
12010WAT    EPW48762   2.022   2.206   1.430 -0.3181 -0.1978  0.1026
12011WAT      O48763   0.799   1.923   1.030 -0.3918 -0.3448  0.4090
12011WAT     H148764   0.828   1.949   0.951  1.4393  0.9712  1.4310
12011WAT     H248765   0.713   1.915   1.018 -0.4862  1.9234 -1.2090
12011WAT    EPW48766   0.790   1.926   1.016 -0.1352  0.1847  0.3210
12012WAT      O48767   0.933   2.277   0.735 -0.6557 -0.1997 -0.1977
12012WAT     H148768   0.909   2.199   0.764  0.1786 -0.3590  0.1107
12012WAT     H248769   0.907   2.278   0.652  0.7246 -1.4605 -0.6984
12012WAT    EPW48770   0.926   2.266   0.727 -0.3286 -0.4095 -0.2261
12013WAT      O48771   0.942   7.384   2.795 -0.0425 -0.0519  0.1604
12013WAT     H148772   1.019   7.347   2.781  0.2151  1.2690 -2.3406
12013WAT     H248773   0.888   7.342   2.741 -0.5809  0.6261  0.1557
12013WAT    EPW48774   0.945   7.372   2.785 -0.0840  0.2434 -0.2097
12014WAT      O48775   1.704   2.363   0.595  0.7694  0.1480 -0.2250
12014WAT     H148776   1.622   2.358   0.625  0.7674 -1.0989 -0.3506
12014WAT     H248777   1.710   2.444   0.565 -0.7265  0.0140 -1.0315
12014WAT    EPW48778   1.693   2.374   0.595  0.5481 -0.0560 -0.3627
12015WAT      O48779   2.385   2.173   6.992  0.5511  0.0387  0.2757
12015WAT     H148780   2.311   2.204   6.956 -0.1391 -1.0920  0.6666
12015WAT     H248781   2.389   2.214   7.069 -0.0501 -0.3917  0.5446
12015WAT    EPW48782   2.374   2.184   6.998  0.3603 -0.1919  0.3731
12016WAT      O48783   2.090   3.510   7.178  0.5374  0.0884  0.2225
12016WAT     H148784   2.165   3.465   7.176 -0.0416 -0.8936 -1.1536
12016WAT     H248785   2.090   3.546   7.257  2.0161 -0.6617  0.6035
12016WAT    EPW48786   2.101   3.509   7.189  0.6703 -0.1675  0.0755
12017WAT      O48787   1.609   3.221   1.921 -0.4422 -0.4585 -0.1199
12017WAT     H148788   1.606   3.168   1.989  0.4071  0.0680  0.3486
12017WAT     H248789   1.561   3.290   1.946 -0.0009 -0.1964  0.0185
12017WAT    EPW48790   1.602   3.224   1.934 -0.2516 -0.3420 -0.0302
12018WAT      O48791   1.657   0.935   1.021  0.2860  0.0322  0.5241
12018WAT     H148792   1.659   1.020   1.043  0.3527 -0.2695  1.7542
12018WAT     H248793   1.583   0.907   1.059  0.7638 -0.6666  0.9509
12018WAT    EPW48794   1.646   0.944   1.030  0.3664 -0.1156  0.7688
12019WAT      O48795   1.490   2.661   1.037 -0.0071  0.0596 -0.2018
12019WAT     H148796   1.543   2.685   0.972 -0.1009  1.8103  0.3295
12019WAT     H248797   1.433   2.726   1.042  1.4641  1.3074  3.2219
12019WAT    EPW48798   1.490   2.674   1.028  0.1964  0.5026  0.3825
12020WAT      O48799   1.724   2.530   0.245 -0.4521 -0.2345  0.0397
12020WAT     H148800   1.671   2.477   0.201  0.3068 -0.0475 -1.1553
12020WAT     H248801   1.799   2.485   0.250 -0.1313  0.2831 -0.0299
12020WAT    EPW48802   1.727   2.516   0.239 -0.2926 -0.1304 -0.1471
12021WAT      O48803   1.796   2.272   6.987 -0.1407 -0.0814 -0.2085
12021WAT     H148804   1.716   2.290   7.016 -0.0536 -1.6644  1.2164
12021WAT     H248805   1.792   2.187   6.968  0.3420  0.4794 -3.2939
12021WAT    EPW48806   1.783   2.262   6.989 -0.0566 -0.2324 -0.4538
12022WAT      O48807   0.765   7.674   7.772 -0.2665  0.3699  0.2238
12022WAT     H148808   0.763   7.655   7.687  0.6863  2.0521 -0.2112
12022WAT     H248809   0.821   7.740   7.778  1.3942 -1.0563  2.4490
12022WAT    EPW48810   0.773   7.681   7.761  0.1196  0.4077  0.4883
12023WAT      O48811   1.159   2.062   0.456 -0.3487  0.0281  0.0762
12023WAT     H148812   1.223   2.121   0.447 -1.3128  1.3281  1.2137
12023WAT     H248813   1.169   2.032   0.537  0.0230 -1.2893 -0.4341
12023WAT    EPW48814   1.170   2.067   0.467 -0.4362  0.0255  0.1689
12024WAT      O48815   2.724   2.864   0.065 -0.2324  0.3906  0.6729
12024WAT     H148816   2.746   2.783   0.042  1.0568  0.1683  2.4891
12024WAT     H248817   2.637   2.863   0.063 -0.2373 -1.0203  0.6105
12024WAT    EPW48818   2.715   2.852   0.061 -0.0427  0.1494  0.9320
12025WAT      O48819   1.410   3.460   1.918 -0.3579 -0.6377  0.0448
12025WAT     H148820   1.346   3.507   1.882 -1.0007 -1.7198 -0.2445
12025WAT     H248821   1.419   3.495   1.998  0.4330  1.1593 -0.7757
12025WAT    EPW48822   1.402   3.472   1.925 -0.3360 -0.5321 -0.1191
12026WAT      O48823   2.408   0.351   7.571 -0.2725 -0.8335 -0.0713
12026WAT     H148824   2.396   0.404   7.503 -3.0922 -0.4928  0.5732
12026WAT     H248825   2.399   0.271   7.537 -1.8458 -0.6594 -0.1298
12026WAT    EPW48826   2.405   0.347   7.556 -0.9214 -0.7574  0.0152
12027WAT      O48827   0.819   3.485   0.706  0.1014  0.5162  0.4657
12027WAT     H148828   0.846   3.451   0.630  0.8647 -0.5558  1.1888
12027WAT     H248829   0.890   3.483   0.757  0.0913  2.9324  0.6850
12027WAT    EPW48830   0.833   3.480   0.702  0.2126  0.7148  0.6049
12028WAT      O48831   1.658   2.035   7.409 -0.1473 -0.3838  0.2116
12028WAT     H148832   1.677   1.967   7.358 -0.4802 -0.1691 -0.2036
12028WAT     H248833   1.609   2.001   7.472 -2.3210 -0.1672 -1.2621
12028WAT    EPW48834   1.654   2.020   7.411 -0.5176 -0.3201 -0.0674
12029WAT      O48835   2.562   2.455   0.112 -0.3576 -0.3298 -0.7766
12029WAT     H148836   2.594   2.391   0.063  0.5433  0.5150 -1.3364
12029WAT     H248837   2.486   2.475   0.073 -1.4213 -2.0239  0.2796
12029WAT    EPW48838   2.555   2.449   0.099 -0.3816 -0.4552 -0.7033
12030WAT      O48839   1.784   2.759   1.112 -0.2082  0.2032 -0.7244
12030WAT     H148840   1.733   2.702   1.153  0.8147 -0.7108 -0.6694
12030WAT     H248841   1.762   2.836   1.147  0.4044 -0.4897  1.3585
12030WAT    EPW48842   1.773   2.762   1.123  0.0334 -0.0342 -0.4086
12031WAT      O48843   1.131   7.091   1.629 -0.3557  0.1144 -0.2955
12031WAT     H148844   1.140   7.137   1.555  0.1310  0.9937  0.2850
12031WAT     H248845   1.213   7.067   1.647 -0.7273 -2.1090 -1.2459
12031WAT    EPW48846   1.145   7.094   1.620 -0.3387 -0.0841 -0.3502
12032WAT      O48847   1.211   2.111   2.116  0.3146 -0.8282  0.3743
12032WAT     H148848   1.211   2.089   2.032  0.0853 -0.5675  0.3084
12032WAT     H248849   1.189   2.195   2.116 -1.0543 -1.1670  0.7882
12032WAT    EPW48850   1.208   2.120   2.104  0.0785 -0.8397  0.4257
12033WAT      O48851   1.637   1.898   1.000 -0.7336  0.1076 -1.0874
12033WAT     H148852   1.684   1.845   1.051 -0.8446  0.6089 -0.4492
12033WAT     H248853   1.666   1.879   0.920  0.6188  0.4391 -0.7117
12033WAT    EPW48854   1.648   1.887   0.996 -0.5503  0.2306 -0.9376
12034WAT      O48855   1.531   1.557   0.949 -0.1235 -0.0015 -0.1432
12034WAT     H148856   1.500   1.639   0.948  0.4464  0.2191 -0.1737
12034WAT     H248857   1.543   1.539   0.864  2.4268  0.9370 -0.0507
12034WAT    EPW48858   1.528   1.566   0.936  0.3374  0.1697 -0.1340
12035WAT      O48859   2.401   1.289   1.182 -0.0748 -0.4325  0.7855
12035WAT     H148860   2.417   1.267   1.099  1.2354  0.6767  0.7158
12035WAT     H248861   2.335   1.346   1.175 -1.3960 -1.9039  0.7195
12035WAT    EPW48862   2.393   1.294   1.169 -0.0764 -0.4860  0.7655
12036WAT      O48863   2.671   0.698   0.479  0.6230 -0.2869 -0.0552
12036WAT     H148864   2.627   0.659   0.543  0.1406 -0.7922 -0.6724
12036WAT     H248865   2.653   0.782   0.490 -0.5597 -0.4797 -0.3053
12036WAT    EPW48866   2.662   0.704   0.490  0.3770 -0.3901 -0.1833
12037WAT      O48867   1.190   2.758   1.667 -0.1512  0.0949  0.0268
12037WAT     H148868   1.201   2.707   1.598  0.7105  0.5863 -0.2186
12037WAT     H248869   1.122   2.723   1.708  0.6804 -1.5163  0.1127
12037WAT    EPW48870   1.182   2.746   1.663  0.0989 -0.0706  0.0032
12038WAT      O48871   1.414   0.560   0.796 -0.2878  0.1384 -0.0056
12038WAT     H148872   1.408   0.509   0.725  0.3899  0.3376 -0.2094
12038WAT     H248873   1.432   0.639   0.763 -1.0109  0.4512  0.3273
12038WAT    EPW48874   1.416   0.564   0.780 -0.2945  0.2140  0.0135
12039WAT      O48875   2.225   2.478   7.256  0.0724 -0.0194 -0.9961
12039WAT     H148876   2.240   2.493   7.172 -0.3705  2.6952 -0.6937
12039WAT     H248877   2.191   2.553   7.284  1.9234 -0.1283  2.0120
12039WAT    EPW48878   2.222   2.491   7.248  0.2804  0.3655 -0.5071
12040WAT      O48879   1.073   1.395   0.512 -0.2684 -0.2468  0.0284
12040WAT     H148880   1.110   1.364   0.439 -0.8286  0.3565 -0.5301
12040WAT     H248881   1.053   1.323   0.557 -0.0848 -0.6343 -0.4966
12040WAT    EPW48882   1.076   1.379   0.508 -0.3240 -0.2149 -0.1316
12041WAT      O48883   0.850   1.997   0.778 -0.0604  0.3220  0.8553
12041WAT     H148884   0.819   1.980   0.698  0.5177  1.4289  0.3704
12041WAT     H248885   0.935   1.981   0.771 -0.1389 -0.3998  1.4970
12041WAT    EPW48886   0.858   1.992   0.765  0.0134  0.3789  0.8785
12042WAT      O48887   1.222   1.063   1.958  0.1398 -0.4599  0.0601
12042WAT     H148888   1.307   1.047   1.953  0.1864 -0.0265 -0.9651
12042WAT     H248889   1.193   1.043   1.878 -0.4131  1.0008 -0.1381
12042WAT    EPW48890   1.230   1.058   1.945  0.0650 -0.1801 -0.1206
12043WAT      O48891   2.337   2.185   1.723 -0.5174  0.2949 -0.3284
12043WAT     H148892   2.251   2.180   1.709 -0.7510 -1.7484  1.3971
12043WAT     H248893   2.371   2.157   1.647 -1.4370 -0.6554 -0.4178
12043WAT    EPW48894   2.329   2.180   1.710 -0.6878 -0.1473 -0.0867
12044WAT      O48895   1.751   0.744   7.132  0.3793 -0.6471 -0.1927
12044WAT     H148896   1.677   0.757   7.177  0.2028  0.2126 -0.7092
12044WAT     H248897   1.790   0.679   7.175 -0.4149 -0.7333  0.4176
12044WAT    EPW48898   1.746   0.737   7.145  0.2359 -0.5328 -0.1789
12045WAT      O48899   0.708   1.456   0.119 -0.2227 -0.1377  0.1354
12045WAT     H148900   0.702   1.378   0.158 -0.9268 -0.3789 -0.4348
12045WAT     H248901   0.793   1.463   0.102 -0.0703 -0.5273  0.6910
12045WAT    EPW48902   0.720   1.445   0.122 -0.3042 -0.2309  0.1333
12046WAT      O48903   2.089   1.352   0.735 -0.0632 -0.0994 -0.4924
12046WAT     H148904   2.027   1.407   0.763  0.5572  1.2399 -1.6303
12046WAT     H248905   2.118   1.314   0.808 -1.8442 -0.3699  0.1217
12046WAT    EPW48906   2.084   1.355   0.750 -0.2347  0.0585 -0.5698
12047WAT      O48907   1.961   0.467   2.658  0.3892  0.2585 -0.1828
12047WAT     H148908   1.910   0.434   2.595 -0.5822  0.6421  0.3815
12047WAT     H248909   2.003   0.532   2.619 -0.6309  0.8573 -0.3066
12047WAT    EPW48910   1.960   0.472   2.643  0.0950  0.4036 -0.1177
12048WAT      O48911   2.319   1.990   1.235 -0.1419  0.1857 -0.2874
12048WAT     H148912   2.330   2.042   1.165 -3.6715  0.6119 -0.6873
12048WAT     H248913   2.389   1.937   1.232  1.8854  2.6842 -1.7828
12048WAT    EPW48914   2.331   1.990   1.224 -0.3638  0.6178 -0.5674
12049WAT      O48915   2.472   1.607   0.858  0.3980 -0.3515  1.2061
12049WAT     H148916   2.388   1.601   0.878 -0.2122 -0.7204 -1.1013
12049WAT     H248917   2.490   1.692   0.869 -0.6934  0.0095  0.4349
12049WAT    EPW48918   2.462   1.619   0.862  0.1466 -0.3527  0.7514
12050WAT      O48919   1.853   2.558   7.224  0.4156  0.2660 -0.4939
12050WAT     H148920   1.840   2.632   7.179  0.4971  2.3227  2.6046
12050WAT     H248921   1.774   2.521   7.226  0.2738  0.4699 -1.6800
12050WAT    EPW48922   1.839   2.563   7.218  0.4067  0.5999 -0.2114
12051WAT      O48923   1.218   0.565   0.339 -0.5857 -0.1287  0.8479
12051WAT     H148924   1.293   0.583   0.297 -0.5422 -0.5993  0.7211
12051WAT     H248925   1.229   0.483   0.367 -0.8836 -0.0486  1.2016
12051WAT    EPW48926   1.231   0.556   0.337 -0.6233 -0.1864  0.8814
12052WAT      O48927   2.657   1.312   1.268  0.2837 -0.1635  0.1291
12052WAT     H148928   2.574   1.315   1.242  0.0201 -0.3819  0.9375
12052WAT     H248929   2.700   1.347   1.200 -0.6099  1.3679  0.2892
12052WAT    EPW48930   2.651   1.318   1.254  0.1127  0.0304  0.2722
12053WAT      O48931   0.980   1.466   0.043 -0.5315  0.4015  0.1064
12053WAT     H148932   1.053   1.481   0.089 -1.6357  0.0232  2.0932
12053WAT     H248933   1.000   1.397  -0.005  1.0140  1.4424 -0.8495
12053WAT    EPW48934   0.993   1.458   0.043 -0.4663  0.4993  0.2587
12054WAT      O48935   2.175   2.396   1.269  0.2677  0.3222  0.5370
12054WAT     H148936   2.101   2.424   1.231  0.5898 -0.9031 -1.1072
12054WAT     H248937   2.150   2.324   1.311  0.9972 -2.2002 -2.9178
12054WAT    EPW48938   2.160   2.390   1.270  0.4230 -0.2314 -0.2162
12055WAT      O48939   1.664   3.461   1.488 -0.5056 -0.0013 -0.0098
12055WAT     H148940   1.743   3.492   1.509  0.1198 -1.4056 -0.1909
12055WAT     H248941   1.616   3.475   1.559 -0.1809  1.1037  0.0085
12055WAT    EPW48942   1.669   3.468   1.501 -0.3653 -0.0455 -0.0338
12056WAT      O48943   2.446   1.186   0.935 -0.0354 -0.2888  0.5384
12056WAT     H148944   2.469   1.227   0.861 -0.9625 -2.1484 -0.8693
12056WAT     H248945   2.476   1.105   0.923 -2.3449 -1.3019  1.0644
12056WAT    EPW48946   2.454   1.181   0.922 -0.5135 -0.7132  0.4082
12057WAT      O48947   1.307   0.539   3.251  0.0710  0.1379 -0.0696
12057WAT     H148948   1.368   0.594   3.222  1.4283 -0.4974  1.4121
12057WAT     H248949   1.236   0.588   3.255  0.4611  0.9270 -1.7821
12057WAT    EPW48950   1.306   0.554   3.247  0.3291  0.1607 -0.1037
12058WAT      O48951   0.793   0.143   1.048  0.3743 -0.0583 -0.0816
12058WAT     H148952   0.757   0.170   0.973 -0.2346 -1.3844 -0.2947
12058WAT     H248953   0.871   0.183   1.048 -0.8562  2.5639  0.1909
12058WAT    EPW48954   0.799   0.153   1.037  0.1026  0.1332 -0.0728
12059WAT      O48955   1.733   0.789   0.776 -0.6161 -0.3096  0.1374
12059WAT     H148956   1.700   0.830   0.846 -0.1763  0.8905 -0.3377
12059WAT     H248957   1.815   0.819   0.771 -0.7089 -0.2218 -1.0125
12059WAT    EPW48958   1.740   0.800   0.786 -0.5648 -0.1193 -0.1026
12060WAT      O48959   1.632   0.647   2.744  0.1558 -0.2266 -0.4486
12060WAT     H148960   1.567   0.668   2.799 -0.0440  1.8307 -1.3854
12060WAT     H248961   1.675   0.722   2.734  1.8963 -1.2416 -0.9147
12060WAT    EPW48962   1.628   0.661   2.751  0.3834 -0.0726 -0.6558
12061WAT      O48963   3.436   1.447   1.753 -0.9999  0.2284 -0.0771
12061WAT     H148964   3.520   1.424   1.755  0.0196  3.0583 -2.6602
12061WAT     H248965   3.405   1.405   1.683 -1.2585  0.5472 -0.1540
12061WAT    EPW48966   3.444   1.437   1.743 -0.8875  0.6935 -0.4700
12062WAT      O48967   1.198   2.939   4.021 -0.2183  0.4258  0.3643
12062WAT     H148968   1.234   2.872   3.980 -1.2861  0.0779 -0.0516
12062WAT     H248969   1.246   3.007   3.996  0.8428 -0.1574  0.7476
12062WAT    EPW48970   1.210   2.939   4.011 -0.2193  0.2883  0.3595
12063WAT      O48971   2.399   7.509   1.859  0.4725  1.1279 -0.1545
12063WAT     H148972   2.387   7.535   1.776  0.5499 -0.3666 -0.6702
12063WAT     H248973   2.486   7.499   1.864  0.5039  1.5564  0.2368
12063WAT    EPW48974   2.410   7.512   1.847  0.4886  0.9704 -0.1729
12064WAT      O48975   1.619   1.623   1.524  0.3483  0.2569 -0.5509
12064WAT     H148976   1.603   1.633   1.609  0.0099 -2.0669 -0.2694
12064WAT     H248977   1.624   1.705   1.494 -0.6986  1.1331  1.4722
12064WAT    EPW48978   1.617   1.636   1.532  0.1436  0.0431 -0.2105
12065WAT      O48979   2.201   1.125   3.159  0.4495 -0.3461 -0.3148
12065WAT     H148980   2.190   1.066   3.223  1.3807  0.1076  0.2830
12065WAT     H248981   2.133   1.178   3.169 -0.3032 -1.1943 -0.7476
12065WAT    EPW48982   2.189   1.124   3.170  0.4759 -0.4044 -0.2905
12066WAT      O48983   1.889   1.011   1.922  0.0612  1.0125  0.2462
12066WAT     H148984   1.803   1.016   1.905 -0.1679 -2.7252 -0.5844
12066WAT     H248985   1.926   1.055   1.857 -1.2034  0.4550 -0.8873
12066WAT    EPW48986   1.881   1.018   1.910 -0.1594  0.3780 -0.0439
12067WAT      O48987   1.131   2.486   0.387  0.3616  0.0431  0.5021
12067WAT     H148988   1.053   2.502   0.351  1.2153  2.5062 -0.4342
12067WAT     H248989   1.121   2.512   0.469  0.1306  0.0973  0.4587
12067WAT    EPW48990   1.118   2.492   0.394  0.4536  0.4149  0.3574
12068WAT      O48991   1.140   2.025   2.566  0.7917 -0.2302  0.1712
12068WAT     H148992   1.112   2.003   2.646 -0.4798 -2.9289 -0.8831
12068WAT     H248993   1.098   2.100   2.550 -0.7726 -0.8341  1.1595
12068WAT    EPW48994   1.129   2.033   2.576  0.3728 -0.7181  0.1614
12069WAT      O48995   1.014   2.011   7.282  0.4176  0.9257 -0.1398
12069WAT     H148996   1.019   1.928   7.258 -1.5033  1.7412 -4.4447
12069WAT     H248997   0.929   2.022   7.299  0.8881  1.7551  2.0199
12069WAT    EPW48998   1.002   2.001   7.281  0.2034  1.1687 -0.4567
12070WAT      O48999   2.414   2.077   7.638  0.0642 -0.1119 -0.6554
12070WAT     H149000   2.361   2.021   7.679 -1.2661  0.8078 -1.0376
12070WAT     H249001   2.432   2.037   7.563  0.4983 -0.7252 -0.2400
12070WAT    EPW49002   2.409   2.063   7.633 -0.0682 -0.0667 -0.6505
12071WAT      O49003   1.424   1.880   0.692  0.1472  0.1637  0.0048
12071WAT     H149004   1.402   1.830   0.624 -0.4872  1.5050 -0.8242
12071WAT     H249005   1.382   1.844   0.759 -0.1823 -0.4805 -0.5394
12071WAT    EPW49006   1.415   1.867   0.692  0.0048  0.2667 -0.1981
12072WAT      O49007   1.869   2.735   2.012  0.3993 -0.7974  0.1083
12072WAT     H149008   1.862   2.792   1.947  0.6506 -0.8526  0.0294
12072WAT     H249009   1.954   2.715   2.012  0.3225 -1.1356  0.1626
12072WAT    EPW49010   1.881   2.740   2.002  0.4251 -0.8555  0.1046
12073WAT      O49011   0.560   2.331   7.427  0.4978 -0.0888  0.7194
12073WAT     H149012   0.509   2.286   7.373  0.5963  0.3846  0.2223
12073WAT     H249013   0.605   2.270   7.470  2.4662 -0.4765 -1.6790
12073WAT    EPW49014   0.559   2.315   7.426  0.8031 -0.0761  0.2916
12074WAT      O49015   2.990   0.632   1.857 -0.6447  0.7683  0.1957
12074WAT     H149016   3.034   0.707   1.848 -0.2901  0.6716  1.0571
12074WAT     H249017   2.918   0.656   1.901  0.8144  0.2104  3.1763
12074WAT    EPW49018   2.986   0.647   1.862 -0.3767  0.6716  0.7632
12075WAT      O49019   1.612   3.009   7.002  0.1162 -0.4199 -0.0120
12075WAT     H149020   1.676   3.066   7.016  1.0285 -1.2387 -0.7081
12075WAT     H249021   1.585   2.988   7.082  0.5022  0.1743  0.2808
12075WAT    EPW49022   1.618   3.014   7.016  0.3080 -0.4531 -0.0716
12076WAT      O49023   2.013   2.331   2.146 -0.0498  0.1020  0.5762
12076WAT     H149024   2.036   2.411   2.169  2.3568  0.0410 -1.1563
12076WAT     H249025   1.926   2.336   2.134  0.1363  2.6451 -0.1826
12076WAT    EPW49026   2.003   2.343   2.147  0.3332  0.4686  0.2082
12077WAT      O49027   2.154   3.063   2.223  0.2690  0.4418  0.0812
12077WAT     H149028   2.150   3.150   2.222  1.0691  0.4852 -0.5611
12077WAT     H249029   2.091   3.040   2.279  0.4282  1.4504  0.7040
12077WAT    EPW49030   2.144   3.073   2.231  0.4107  0.5972  0.0783
12078WAT      O49031   2.678   7.510   1.924 -1.0973  0.1836 -0.1839
12078WAT     H149032   2.746   7.559   1.897 -0.8761 -0.4359 -0.7994
12078WAT     H249033   2.652   7.549   1.997  0.0695  0.3133  0.1880
12078WAT    EPW49034   2.684   7.523   1.931 -0.8922  0.1113 -0.2199
12079WAT      O49035   2.524   1.807   1.223 -0.0233  0.4877 -0.0953
12079WAT     H149036   2.511   1.724   1.246  1.7620 -0.0733 -0.9588
12079WAT     H249037   2.610   1.817   1.231 -0.1441  2.1157 -0.5131
12079WAT    EPW49038   2.535   1.796   1.228  0.2226  0.6453 -0.2846
12080WAT      O49039   1.675   1.181   1.159  0.3550  0.6299 -0.2919
12080WAT     H149040   1.658   1.131   1.229 -1.6821 -0.8297 -1.6921
12080WAT     H249041   1.611   1.239   1.158  0.8042  1.1331 -0.5311
12080WAT    EPW49042   1.663   1.182   1.169  0.1204  0.4886 -0.5341
12081WAT      O49043   2.485   3.659   0.635 -0.0250  0.1164 -0.7252
12081WAT     H149044   2.550   3.613   0.599 -1.0310 -0.8367 -1.3911
12081WAT     H249045   2.521   3.738   0.649  1.1177 -0.2261 -1.5483
12081WAT    EPW49046   2.500   3.664   0.631 -0.0048 -0.0750 -0.9452
12082WAT      O49047   2.102   3.541   7.463  0.4119 -0.4234  0.0477
12082WAT     H149048   2.166   3.527   7.521  1.1395 -1.2189 -0.9027
12082WAT     H249049   2.035   3.565   7.513  1.8211  1.9893  0.9951
12082WAT    EPW49050   2.102   3.542   7.479  0.7276 -0.1845  0.0473
12083WAT      O49051   1.294   0.288   7.112  0.7766 -0.3054  0.4105
12083WAT     H149052   1.291   0.236   7.041 -0.3016  1.3860 -0.8513
12083WAT     H249053   1.375   0.275   7.142  1.0476 -1.5841 -0.7376
12083WAT    EPW49054   1.306   0.278   7.106  0.6573 -0.2445  0.0545
12084WAT      O49055   1.138   1.217   1.588  0.2040  0.0118  0.4047
12084WAT     H149056   1.075   1.257   1.632  0.6608  0.1480  0.9395
12084WAT     H249057   1.109   1.218   1.505 -0.1268  0.7761  0.5242
12084WAT    EPW49058   1.124   1.223   1.582  0.2226  0.1448  0.5014
12085WAT      O49059   1.284   2.478   2.812  0.3476  0.3372  0.3403
12085WAT     H149060   1.333   2.423   2.764  0.6609  0.0749  0.9568
12085WAT     H249061   1.340   2.510   2.870  0.2896  1.7071 -0.3206
12085WAT    EPW49062   1.299   2.475   2.813  0.3853  0.5008  0.3338
12086WAT      O49063   1.122   0.759   0.534  0.0671 -0.1535 -0.2948
12086WAT     H149064   1.152   0.695   0.482 -2.2041 -0.6124 -1.1747
12086WAT     H249065   1.113   0.720   0.611 -1.0264 -0.8664 -0.7549
12086WAT    EPW49066   1.125   0.743   0.537 -0.4299 -0.3266 -0.4927
12087WAT      O49067   1.805   1.683   0.247 -0.4562 -0.3538  0.0094
12087WAT     H149068   1.843   1.633   0.308  1.7869  1.7911  0.5424
12087WAT     H249069   1.868   1.691   0.186 -1.6498 -0.1618 -1.2410
12087WAT    EPW49070   1.820   1.677   0.247 -0.3012 -0.0086 -0.0966
12088WAT      O49071   1.487   0.830   0.663  0.2902 -0.0338  0.4163
12088WAT     H149072   1.469   0.818   0.578  0.4329  0.0307  0.3758
12088WAT     H249073   1.574   0.819   0.666  0.9619  3.6726 -0.1093
12088WAT    EPW49074   1.497   0.827   0.651  0.4105  0.5232  0.3327
12089WAT      O49075   2.254   2.571   1.475  0.2198  0.4587 -0.4183
12089WAT     H149076   2.185   2.611   1.510 -0.4045 -0.1962 -0.8498
12089WAT     H249077   2.219   2.527   1.407  0.9753 -0.2985 -0.3298
12089WAT    EPW49078   2.238   2.570   1.470  0.2392  0.2501 -0.4690
12090WAT      O49079   0.756   1.173   4.175 -0.1936 -0.8222 -0.1674
12090WAT     H149080   0.809   1.226   4.130 -0.9709 -0.8241 -1.1262
12090WAT     H249081   0.690   1.158   4.119 -1.4916 -0.3548  1.1926
12090WAT    EPW49082   0.754   1.178   4.160 -0.5002 -0.7534 -0.1081
12091WAT      O49083   1.294   2.606   7.847  0.2346 -0.2830  0.2603
12091WAT     H149084   1.309   2.520   7.843 -0.2029 -0.3823  0.7129
12091WAT     H249085   1.321   2.629   7.926  0.8741  0.1075 -0.0608
12091WAT    EPW49086   1.300   2.597   7.858  0.2645 -0.2400  0.2797
12092WAT      O49087   1.608   1.846   0.200  0.0514 -0.0065 -0.4490
12092WAT     H149088   1.677   1.804   0.233  0.8653  0.7921 -1.0715
12092WAT     H249089   1.602   1.917   0.250  1.7928  1.6352 -2.3382
12092WAT    EPW49090   1.617   1.851   0.212  0.4288  0.3540 -0.8200
12093WAT      O49091   2.159   1.041   2.666  0.0741 -0.3229  0.0956
12093WAT     H149092   2.197   1.002   2.598  1.0697  0.3587  0.2385
12093WAT     H249093   2.104   1.098   2.629  0.7263  0.1570 -0.1591
12093WAT    EPW49094   2.157   1.044   2.651  0.3175 -0.1513  0.0791
12094WAT      O49095   1.398   0.798   1.734 -0.1005 -0.3472 -0.6756
12094WAT     H149096   1.391   0.732   1.677 -2.4127 -1.7305  0.9989
12094WAT     H249097   1.435   0.760   1.804 -0.5495  0.3527 -0.0358
12094WAT    EPW49098   1.402   0.782   1.736 -0.5084 -0.4482 -0.3337
12095WAT      O49099   1.214   3.264   2.261  0.5891 -0.3803  0.3674
12095WAT     H149100   1.223   3.240   2.178 -0.3117  1.2113 -0.2118
12095WAT     H249101   1.129   3.279   2.270  0.5582 -1.1519  1.7874
12095WAT    EPW49102   1.203   3.263   2.250  0.4515 -0.2592  0.4916
12096WAT      O49103   2.113   2.237   2.695  0.3286  0.5239 -0.0396
12096WAT     H149104   2.104   2.236   2.608  0.6832  0.3049 -0.0727
12096WAT     H249105   2.140   2.319   2.712  1.9664  0.0769 -0.3115
12096WAT    EPW49106   2.116   2.249   2.685  0.6230  0.4256 -0.0846
12097WAT      O49107   2.325   3.541   3.155 -0.3563  0.2347 -0.0741
12097WAT     H149108   2.372   3.483   3.199  0.4378 -0.2590 -1.5024
12097WAT     H249109   2.384   3.581   3.104 -0.8287  2.4802  1.0136
12097WAT    EPW49110   2.340   3.538   3.154 -0.3088  0.4935 -0.1244
12098WAT      O49111   1.225   2.807   0.727 -0.2258 -0.4458  0.0003
12098WAT     H149112   1.308   2.778   0.726 -0.6816 -2.2134 -3.1539
12098WAT     H249113   1.228   2.880   0.679 -0.3001  0.2487  1.0459
12098WAT    EPW49114   1.238   2.813   0.720 -0.3041 -0.6043 -0.3112
12099WAT      O49115   1.376   1.119   0.066  0.5172 -0.7691  0.2144
12099WAT     H149116   1.316   1.160   0.019 -1.0344 -1.1050  1.7821
12099WAT     H249117   1.381   1.166   0.139  1.9412 -0.9401  0.2560
12099WAT    EPW49118   1.368   1.132   0.070  0.4983 -0.8440  0.4521
12100WAT      O49119   3.216   3.033   2.163 -0.4827  0.0519  0.0213
12100WAT     H149120   3.240   3.106   2.123  0.2702 -1.0321 -1.6144
12100WAT     H249121   3.276   3.024   2.226  0.1277  0.2335 -0.5244
12100WAT    EPW49122   3.228   3.042   2.166 -0.2813 -0.0814 -0.3009
12101WAT      O49123   2.548   0.920   1.554  0.1609  0.3392 -0.4934
12101WAT     H149124   2.540   1.004   1.534 -0.0893  0.0695 -1.6132
12101WAT     H249125   2.572   0.883   1.479  0.1169 -0.6124 -0.0618
12101WAT    EPW49126   2.550   0.927   1.540  0.1174  0.1588 -0.5951
12102WAT      O49127   2.646   1.651   0.643  0.0875 -0.0226  0.4585
12102WAT     H149128   2.595   1.612   0.702  1.3438 -1.6813  0.5216
12102WAT     H249129   2.719   1.669   0.688  0.6387 -0.3170 -0.2909
12102WAT    EPW49130   2.650   1.648   0.658  0.3545 -0.3111  0.3571
12103WAT      O49131   0.845   3.054   7.386 -0.2438  0.5916 -0.0575
12103WAT     H149132   0.841   3.120   7.329 -0.0990  0.4307 -0.2576
12103WAT     H249133   0.765   3.020   7.383 -0.1609  0.4207 -0.3634
12103WAT    EPW49134   0.832   3.059   7.377 -0.2102  0.5426 -0.1322
12104WAT      O49135   1.838   2.505   2.358 -0.3227 -0.1347 -0.6941
12104WAT     H149136   1.816   2.487   2.275 -1.3117  0.4404 -0.5761
12104WAT     H249137   1.826   2.429   2.399  0.0068 -0.3790 -1.0559
12104WAT    EPW49138   1.833   2.491   2.352 -0.4201 -0.0859 -0.7301
12105WAT      O49139   3.231   1.864   2.006  0.1013  0.1737  0.4361
12105WAT     H149140   3.196   1.787   1.985  0.6598 -0.3089  1.2504
12105WAT     H249141   3.197   1.882   2.084 -0.1999  0.8643  0.1488
12105WAT    EPW49142   3.221   1.855   2.014  0.1393  0.2044  0.5139
12106WAT      O49143   2.264   2.107   0.247  0.8707  0.2430  0.2560
12106WAT     H149144   2.341   2.149   0.251  0.1026  1.9314 -1.4154
12106WAT     H249145   2.212   2.162   0.204 -0.6910 -1.7740 -0.6235
12106WAT    EPW49146   2.268   2.121   0.242  0.5265  0.1945 -0.1208
12107WAT      O49147   2.302   1.449   1.457 -0.2891 -0.0908 -0.5970
12107WAT     H149148   2.225   1.408   1.461  0.0223 -0.6348 -0.0151
12107WAT     H249149   2.291   1.517   1.511  0.4892 -1.6583  1.6740
12107WAT    EPW49150   2.289   1.453   1.466 -0.1281 -0.4027 -0.1755
12108WAT      O49151   2.677   3.013   7.615  0.4715 -0.2223 -0.2397
12108WAT     H149152   2.652   3.085   7.573  1.1864  0.7601  0.9553
12108WAT     H249153   2.715   3.043   7.688 -1.4666 -1.8376  1.5900
12108WAT    EPW49154   2.679   3.028   7.620  0.2908 -0.3158  0.2071
12109WAT      O49155   2.733   1.143   0.361  0.4505 -0.0517  0.2763
12109WAT     H149156   2.679   1.203   0.328  1.3195  0.4582 -0.2849
12109WAT     H249157   2.758   1.097   0.291  1.1878  0.1070  0.4234
12109WAT    EPW49158   2.729   1.145   0.346  0.6878  0.0471  0.2151
12110WAT      O49159   2.183   0.703   1.462  0.4417 -0.4473  0.0258
12110WAT     H149160   2.187   0.775   1.412 -1.2075 -0.6569 -0.4614
12110WAT     H249161   2.198   0.732   1.542 -3.8834  1.2456  0.4846
12110WAT    EPW49162   2.186   0.718   1.466 -0.4408 -0.2282  0.0216
12111WAT      O49163   0.959   2.244   1.289  0.0058  0.1882  0.1938
12111WAT     H149164   0.895   2.303   1.278  0.4077  0.4508 -0.8937
12111WAT     H249165   1.031   2.292   1.283  0.3733 -0.5305 -1.7518
12111WAT    EPW49166   0.960   2.260   1.286  0.1194  0.1209 -0.2542
12112WAT      O49167   2.442   2.179   2.158 -0.0818  0.2704  0.3677
12112WAT     H149168   2.492   2.135   2.214 -0.9642  1.1696  1.9341
12112WAT     H249169   2.414   2.117   2.103 -0.3005 -0.9331  1.7708
12112WAT    EPW49170   2.445   2.163   2.158 -0.2445  0.2254  0.8063
12113WAT      O49171   1.977   1.414   2.363  0.0737  0.6104  0.3706
12113WAT     H149172   1.994   1.451   2.286 -0.7164 -0.4960 -0.3748
12113WAT     H249173   1.930   1.474   2.405 -1.0825  0.5414 -0.7569
12113WAT    EPW49174   1.972   1.428   2.358 -0.2138  0.4367  0.0939
12114WAT      O49175   3.012   1.295   7.442  0.2794  0.0045 -0.0377
12114WAT     H149176   3.054   1.226   7.475 -0.3199 -0.2158  0.2854
12114WAT     H249177   3.052   1.363   7.477 -0.6099 -0.2247  1.5154
12114WAT    EPW49178   3.024   1.295   7.452  0.0595 -0.0619  0.2394
12115WAT      O49179   1.467   2.876   2.279 -0.0694 -0.0095  0.8900
12115WAT     H149180   1.465   2.912   2.200  1.4316  1.7092  1.5680
12115WAT     H249181   1.538   2.826   2.277 -1.2612 -1.7588  0.4799
12115WAT    EPW49182   1.477   2.874   2.267 -0.0237 -0.0140  0.9296
12116WAT      O49183   2.013   1.825   0.579  0.0426 -0.2079 -0.4044
12116WAT     H149184   2.080   1.789   0.622 -0.4659 -0.6479  0.0376
12116WAT     H249185   2.045   1.839   0.499  0.8801  0.2425 -0.0031
12116WAT    EPW49186   2.027   1.822   0.574  0.0912 -0.2063 -0.2798
12117WAT      O49187   1.297   1.762   1.944 -0.7708 -0.3260  0.9565
12117WAT     H149188   1.247   1.718   2.001 -2.2874  0.7930  0.5663
12117WAT     H249189   1.376   1.760   1.980 -1.9519  1.9584  4.1522
12117WAT    EPW49190   1.301   1.755   1.958 -1.1693  0.1767  1.3709
12118WAT      O49191   2.166   2.166   0.522  0.3598  0.3032  0.1934
12118WAT     H149192   2.090   2.122   0.517  0.8723 -0.5512 -0.2867
12118WAT     H249193   2.198   2.161   0.441  0.7029  1.0923  0.2679
12118WAT    EPW49194   2.159   2.159   0.509  0.4862  0.2935  0.1335
12119WAT      O49195   1.258   1.767   6.719 -0.1184 -0.6146 -0.0950
12119WAT     H149196   1.218   1.813   6.657  0.4046 -0.7177 -0.5152
12119WAT     H249197   1.343   1.784   6.707 -0.0653  0.6148  1.5851
12119WAT    EPW49198   1.265   1.776   6.708 -0.0333 -0.4482  0.0911
12120WAT      O49199   1.234   0.281   0.369  0.3722 -0.4720  0.3159
12120WAT     H149200   1.223   0.252   0.288  0.3694  1.8281 -0.5810
12120WAT     H249201   1.222   0.210   0.418 -2.0908 -1.4815 -1.5382
12120WAT    EPW49202   1.230   0.267   0.364  0.0079 -0.2813 -0.0905
12121WAT      O49203   1.182   1.154   7.612  0.1085  0.1271 -0.6945
12121WAT     H149204   1.181   1.209   7.545  1.3454  1.3963  0.2708
12121WAT     H249205   1.137   1.196   7.674  2.4100  0.8764  0.5950
12121WAT    EPW49206   1.175   1.168   7.612  0.6312  0.4253 -0.3614
12122WAT      O49207   3.327   4.375   1.196 -0.5649  0.1281  0.3036
12122WAT     H149208   3.317   4.316   1.133 -1.7795  0.5653  0.0604
12122WAT     H249209   3.327   4.327   1.269  1.8305 -0.4801 -0.0177
12122WAT    EPW49210   3.326   4.359   1.198 -0.3905  0.1029  0.2202
12123WAT      O49211   1.598   1.015   1.850  0.4922 -0.1224 -0.1449
12123WAT     H149212   1.547   0.958   1.807 -0.6142  0.5633  0.2194
12123WAT     H249213   1.560   1.092   1.834  1.7627  0.4914 -0.3322
12123WAT    EPW49214   1.585   1.018   1.841  0.5164  0.0696 -0.1188
12124WAT      O49215   1.557   1.468   2.386 -0.3416 -0.1830 -0.1362
12124WAT     H149216   1.500   1.403   2.383 -0.2039 -0.3433  0.6213
12124WAT     H249217   1.506   1.539   2.388 -0.5159 -0.3126  0.1999
12124WAT    EPW49218   1.541   1.469   2.386 -0.3470 -0.2258  0.0253
12125WAT      O49219   1.158   0.894   2.200 -0.2622 -0.4998 -0.2228
12125WAT     H149220   1.176   0.947   2.133 -0.6454 -0.0306  0.0434
12125WAT     H249221   1.232   0.850   2.212 -0.1635 -0.5280 -0.9029
12125WAT    EPW49222   1.172   0.895   2.192 -0.3043 -0.4347 -0.2840
12126WAT      O49223   1.899   2.111   0.774  0.2895 -0.2236 -0.4804
12126WAT     H149224   1.871   2.147   0.849  0.9864 -0.1374 -0.2557
12126WAT     H249225   1.835   2.054   0.754  0.1383 -0.3139  0.2315
12126WAT    EPW49226   1.885   2.108   0.782  0.3701 -0.2242 -0.3420
12127WAT      O49227   2.163   2.053   7.333  0.0280  0.3979  0.3168
12127WAT     H149228   2.137   2.003   7.266 -0.6945 -0.6414  1.3383
12127WAT     H249229   2.107   2.119   7.332  0.0476  0.4153 -0.1231
12127WAT    EPW49230   2.151   2.055   7.323 -0.0758  0.2470  0.4027
12128WAT      O49231   2.274   2.854   1.097  0.1165 -0.1300  0.1366
12128WAT     H149232   2.240   2.774   1.107 -0.5393  0.1672  0.2713
12128WAT     H249233   2.354   2.837   1.064 -0.0467 -0.8338  0.0756
12128WAT    EPW49234   2.281   2.840   1.093 -0.0045 -0.1901  0.1475
12129WAT      O49235   1.642   2.966   1.243 -0.0070 -0.4397  0.3113
12129WAT     H149236   1.607   2.927   1.313 -1.1563 -0.6017 -0.3216
12129WAT     H249237   1.637   3.051   1.264  0.8438 -0.5320  0.9434
12129WAT    EPW49238   1.636   2.973   1.257 -0.0511 -0.4773  0.3112
12130WAT      O49239   1.934   1.477   0.392  0.1854  0.2272 -0.0599
12130WAT     H149240   1.934   1.407   0.341  0.5776  0.6136 -0.6037
12130WAT     H249241   2.017   1.505   0.389 -0.0187  0.8551 -0.0528
12130WAT    EPW49242   1.946   1.471   0.384  0.2132  0.3771 -0.1392
12131WAT      O49243   0.910   2.741   1.587 -0.4017  0.2796  0.4618
12131WAT     H149244   0.934   2.822   1.608 -1.5480  0.6127  0.6042
12131WAT     H249245   0.856   2.719   1.653  0.2197 -0.7626  0.6400
12131WAT    EPW49246   0.905   2.750   1.600 -0.4792  0.1749  0.5092
12132WAT      O49247   2.762   2.242   3.079 -0.1393 -0.1758  0.3628
12132WAT     H149248   2.789   2.261   3.159 -1.2712 -0.0560  0.7310
12132WAT     H249249   2.763   2.319   3.038  0.4740 -0.2432  0.2432
12132WAT    EPW49250   2.766   2.256   3.085 -0.2159 -0.1680  0.3995
12133WAT      O49251   1.629   4.698   0.887 -0.4288  0.4048 -0.0866
12133WAT     H149252   1.688   4.756   0.912 -1.6267  0.5837  2.8352
12133WAT     H249253   1.555   4.744   0.884 -0.8191 -0.2751 -1.2908
12133WAT    EPW49254   1.627   4.713   0.890 -0.6634  0.3308  0.1671
12134WAT      O49255   1.369   1.088   1.620  0.6553 -0.1396 -0.4900
12134WAT     H149256   1.302   1.143   1.623  1.6087  1.1125 -1.0396
12134WAT     H249257   1.334   1.011   1.643 -0.6416  0.7576  0.7076
12134WAT    EPW49258   1.354   1.084   1.624  0.6046  0.1779 -0.3943
12135WAT      O49259   1.781   3.172   2.980 -0.2532 -0.8606  0.3290
12135WAT     H149260   1.718   3.187   3.038  0.3328 -1.3349  1.0998
12135WAT     H249261   1.855   3.184   3.025  0.2574  0.9616 -0.8738
12135WAT    EPW49262   1.783   3.176   2.995 -0.0912 -0.6615  0.2652
12136WAT      O49263   0.682   1.300   2.142 -0.0615  0.3881 -0.3405
12136WAT     H149264   0.645   1.327   2.068 -0.7321  0.6423  0.0802
12136WAT     H249265   0.670   1.367   2.197  0.4951  0.2329 -0.0216
12136WAT    EPW49266   0.675   1.314   2.139 -0.0784  0.4027 -0.2313
12137WAT      O49267   1.882   1.918   2.408  0.3458 -0.2021  0.2344
12137WAT     H149268   1.889   1.958   2.486 -0.3346  0.3002  0.0501
12137WAT     H249269   1.947   1.954   2.362  0.7096 -0.4503  0.5449
12137WAT    EPW49270   1.893   1.929   2.413  0.2990 -0.1646  0.2531
12138WAT      O49271   2.818   1.694   6.389 -0.4271 -0.2607 -0.0860
12138WAT     H149272   2.790   1.756   6.443  0.1180 -0.9654  1.0351
12138WAT     H249273   2.819   1.733   6.311 -1.8845  0.5653  0.2937
12138WAT    EPW49274   2.814   1.709   6.385 -0.5619 -0.2428  0.1357
12139WAT      O49275   1.944   0.567   1.688  0.0146  0.1504 -0.1171
12139WAT     H149276   1.959   0.494   1.734 -1.2152 -0.6008 -0.8692
12139WAT     H249277   1.989   0.628   1.732  2.2023 -1.2678 -0.2271
12139WAT    EPW49278   1.953   0.565   1.702  0.1561 -0.1700 -0.2444
12140WAT      O49279   2.873   2.088   0.569  0.0920  0.6549 -0.1340
12140WAT     H149280   2.910   2.150   0.616  2.3094  0.3511 -1.3605
12140WAT     H249281   2.789   2.090   0.594  1.0170  0.7650  3.4680
12140WAT    EPW49282   2.866   2.097   0.580  0.5562  0.6263  0.2169
12141WAT      O49283   2.195   1.661   0.933 -0.3909 -0.0019  0.1014
12141WAT     H149284   2.177   1.746   0.933  1.1390  0.3588  1.2022
12141WAT     H249285   2.137   1.628   0.877 -0.8185  1.7930 -0.5782
12141WAT    EPW49286   2.184   1.669   0.925 -0.2281  0.3165  0.1636
12142WAT      O49287   1.321   1.756   2.971  0.1961 -0.2667 -0.2786
12142WAT     H149288   1.385   1.802   3.009 -0.5271  0.8728 -0.4197
12142WAT     H249289   1.254   1.764   3.026  0.1984 -1.6090 -0.0425
12142WAT    EPW49290   1.321   1.764   2.985  0.0896 -0.2967 -0.2646
12143WAT      O49291   1.846   2.514   1.665 -0.8299  0.0653  0.2156
12143WAT     H149292   1.920   2.558   1.678  0.1312 -1.4470  0.1940
12143WAT     H249293   1.857   2.442   1.713 -2.4836 -0.0121  0.5272
12143WAT    EPW49294   1.859   2.510   1.674 -0.9322 -0.1695  0.2585
12144WAT      O49295   3.035   3.144   1.131  0.3840 -0.7619  0.2426
12144WAT     H149296   3.086   3.192   1.080  0.1626 -1.3771 -0.5764
12144WAT     H249297   2.956   3.179   1.120  0.0479 -1.8417 -1.0824
12144WAT    EPW49298   3.031   3.156   1.122  0.3017 -1.0123 -0.0741
12145WAT      O49299   0.937   0.452   1.452  0.2500  0.2443 -0.1228
12145WAT     H149300   0.875   0.398   1.483 -0.1605 -0.6062 -2.2249
12145WAT     H249301   0.930   0.522   1.503  0.0165 -1.2125  1.9911
12145WAT    EPW49302   0.927   0.454   1.464  0.1549 -0.0965 -0.1210
12146WAT      O49303   2.770   2.039   0.916  0.2041  0.3344  0.4631
12146WAT     H149304   2.791   2.112   0.872  2.9012 -1.0245 -0.7894
12146WAT     H249305   2.844   1.992   0.912 -1.1569 -2.1028  1.9615
12146WAT    EPW49306   2.784   2.043   0.909  0.4015 -0.2264  0.4994
12147WAT      O49307   1.732   2.012   1.954  0.0542 -0.5845 -0.7761
12147WAT     H149308   1.693   1.983   1.881  0.0540 -2.5226 -0.0646
12147WAT     H249309   1.665   2.030   2.007  0.0421  1.1590 -1.3157
12147WAT    EPW49310   1.717   2.010   1.951  0.0524 -0.6132 -0.7507
12148WAT      O49311   1.046   2.792   7.750 -0.2499 -0.4601  0.3803
12148WAT     H149312   1.024   2.714   7.781 -1.1040 -0.0892  0.7367
12148WAT     H249313   1.095   2.826   7.813  1.0864 -1.1373 -0.2537
12148WAT    EPW49314   1.050   2.786   7.764 -0.1787 -0.5053  0.3393
12149WAT      O49315   2.589   3.465   1.096 -0.4747 -0.1145 -0.0008
12149WAT     H149316   2.558   3.472   1.177 -2.3372  0.1182 -0.6635
12149WAT     H249317   2.516   3.463   1.047  0.5395 -1.7270 -1.5646
12149WAT    EPW49318   2.573   3.466   1.101 -0.6000 -0.3183 -0.3297
12150WAT      O49319   1.476   1.382   1.150 -0.7181 -0.6705  0.0468
12150WAT     H149320   1.506   1.431   1.085 -0.4607 -0.5568  0.2445
12150WAT     H249321   1.398   1.356   1.123  0.2735 -2.4803 -1.2903
12150WAT    EPW49322   1.469   1.386   1.137 -0.5336 -0.9211 -0.1215
12151WAT      O49323   0.945   0.840   0.311 -0.2774  0.2458  0.0438
12151WAT     H149324   0.976   0.819   0.390  0.2729 -0.6032 -0.3907
12151WAT     H249325   1.014   0.831   0.259 -0.2339  2.2469 -0.3383
12151WAT    EPW49326   0.960   0.835   0.315 -0.1896  0.4160 -0.0769
12152WAT      O49327   1.409   2.468   1.680  0.2510 -0.2526 -0.0018
12152WAT     H149328   1.465   2.404   1.699  1.6920  1.7187  3.0006
12152WAT     H249329   1.331   2.434   1.702  0.7363 -1.5100 -0.1076
12152WAT    EPW49330   1.406   2.453   1.686  0.5355 -0.1472  0.4261
12153WAT      O49331   0.971   7.046   2.076 -0.2341 -0.1407  0.0932
12153WAT     H149332   0.945   7.030   1.994  1.3019 -1.5957 -0.1645
12153WAT     H249333   1.002   7.127   2.072 -1.4252  0.3190 -0.4115
12153WAT    EPW49334   0.971   7.056   2.063 -0.1831 -0.2877 -0.0195
12154WAT      O49335   3.068   0.679   2.237 -0.4063 -0.2897  0.5290
12154WAT     H149336   3.054   0.725   2.310 -1.1901  0.5695 -0.1428
12154WAT     H249337   3.057   0.596   2.262 -0.4135 -0.0243  1.4314
12154WAT    EPW49338   3.064   0.673   2.251 -0.5232 -0.1236  0.5631
12155WAT      O49339   1.045   3.180   1.057  0.3644 -0.0698 -0.3591
12155WAT     H149340   1.114   3.224   1.026  0.3225  0.5464  0.4012
12155WAT     H249341   1.082   3.114   1.101  0.5902  1.2545  1.5927
12155WAT    EPW49342   1.061   3.176   1.059  0.3915  0.2168  0.0415
12156WAT      O49343   1.775   3.542   2.492 -0.3087  0.2980  0.2730
12156WAT     H149344   1.788   3.509   2.572 -1.1798  0.1376  0.3542
12156WAT     H249345   1.842   3.510   2.446 -0.9926 -1.4115  0.4024
12156WAT    EPW49346   1.787   3.533   2.497 -0.5384  0.0218  0.3041
12157WAT      O49347   2.557   1.514   2.508 -0.4178  0.3969  0.3750
12157WAT     H149348   2.518   1.437   2.492  0.6660 -0.2104  0.5867
12157WAT     H249349   2.590   1.537   2.430 -3.2222  2.1522 -0.4440
12157WAT    EPW49350   2.556   1.506   2.494 -0.6720  0.5665  0.2853
12158WAT      O49351   2.207   3.346   0.819  0.2535  0.6453 -0.2677
12158WAT     H149352   2.270   3.404   0.834 -0.3939  1.0670  1.0540
12158WAT     H249353   2.249   3.270   0.815  1.0447  1.1205 -1.3946
12158WAT    EPW49354   2.222   3.344   0.821  0.2748  0.7778 -0.2389
12159WAT      O49355   2.215   2.501   2.753 -0.0668 -0.1996 -0.1533
12159WAT     H149356   2.170   2.549   2.810 -2.4778 -1.4023 -0.9002
12159WAT     H249357   2.290   2.485   2.795 -0.7501  0.9911  1.6655
12159WAT    EPW49358   2.220   2.505   2.768 -0.5239 -0.2014  0.0050
12160WAT      O49359   1.422   2.548   1.417  0.0808  0.4194  0.0607
12160WAT     H149360   1.439   2.524   1.499  0.6110 -0.2768 -0.2376
12160WAT     H249361   1.347   2.506   1.398  0.5038 -0.2563 -0.1442
12160WAT    EPW49362   1.413   2.538   1.426  0.2216  0.2167 -0.0136
12161WAT      O49363   1.507   0.681   3.155 -0.2397 -0.4244 -0.0175
12161WAT     H149364   1.509   0.765   3.180  0.3662  0.2636 -2.1949
12161WAT     H249365   1.587   0.652   3.177 -0.4371 -0.4496  0.7077
12161WAT    EPW49366   1.519   0.689   3.162 -0.1793 -0.3265 -0.2320
12162WAT      O49367   1.234   1.312   1.048  0.2225 -0.0416 -0.1109
12162WAT     H149368   1.231   1.228   1.026  1.3615 -0.0441 -0.3181
12162WAT     H249369   1.205   1.353   0.977  0.3268 -0.2358 -0.2691
12162WAT    EPW49370   1.230   1.306   1.034  0.4062 -0.0707 -0.1649
12163WAT      O49371   1.458   2.119   3.178 -0.0875  0.2026  0.3132
12163WAT     H149372   1.434   2.199   3.151  1.5272  0.5608 -0.1702
12163WAT     H249373   1.516   2.136   3.241  1.4342 -0.5265 -0.8275
12163WAT    EPW49374   1.463   2.133   3.184  0.3758  0.1478  0.0733
12164WAT      O49375   1.299   1.431   1.705  0.0940 -0.3311  0.3349
12164WAT     H149376   1.349   1.437   1.634  1.0182  1.1333  1.0578
12164WAT     H249377   1.222   1.404   1.673  0.2137  1.1377 -1.3627
12164WAT    EPW49378   1.295   1.428   1.690  0.2482  0.1022  0.1909
12165WAT      O49379   1.756   0.859   2.612  0.2053 -0.2464  0.3680
12165WAT     H149380   1.718   0.924   2.568  1.2545 -0.0688 -0.3056
12165WAT     H249381   1.783   0.804   2.549 -0.6442 -1.3314  0.9274
12165WAT    EPW49382   1.755   0.861   2.596  0.2348 -0.3804  0.3511
12166WAT      O49383   2.013   3.027   0.741 -0.8446 -0.1527  0.0957
12166WAT     H149384   1.931   3.035   0.769 -0.2962 -0.1905  1.7852
12166WAT     H249385   2.027   2.941   0.745 -0.7210 -0.1530 -0.2527
12166WAT    EPW49386   2.003   3.015   0.746 -0.7454 -0.1583  0.2938
12167WAT      O49387   2.107   2.838   1.541  0.1901  0.4113 -0.5559
12167WAT     H149388   2.068   2.905   1.580  0.1964  0.1147 -0.0378
12167WAT     H249389   2.041   2.796   1.502  0.0674  0.2577 -0.1913
12167WAT    EPW49390   2.091   2.841   1.541  0.1729  0.3448 -0.4255
12168WAT      O49391   0.838   3.062   1.249  0.0780  1.1937  0.1322
12168WAT     H149392   0.797   2.987   1.269 -0.0690  1.6208  1.5535
12168WAT     H249393   0.913   3.056   1.294  0.5029  1.4801 -0.5302
12168WAT    EPW49394   0.843   3.050   1.259  0.1191  1.2991  0.2443
12169WAT      O49395   1.048   1.721   1.061 -0.6299 -0.0749  0.4241
12169WAT     H149396   1.072   1.745   1.141  1.0929 -1.6059  0.4325
12169WAT     H249397   0.964   1.744   1.057 -0.8058 -0.0883  2.7165
12169WAT    EPW49398   1.039   1.728   1.072 -0.4014 -0.3030  0.7640
12170WAT      O49399   2.944   4.447   0.129  0.3548 -0.3825 -0.4094
12170WAT     H149400   2.889   4.467   0.064 -0.3438  1.2391  0.6315
12170WAT     H249401   2.903   4.383   0.172 -1.5338  1.7361  1.2007
12170WAT    EPW49402   2.930   4.440   0.126 -0.0274  0.1700 -0.0178
12171WAT      O49403   2.510   1.543   1.328  0.0055  0.0354 -0.2305
12171WAT     H149404   2.557   1.478   1.293  0.3290  0.8869 -1.4315
12171WAT     H249405   2.441   1.502   1.362 -0.3638 -0.8482 -1.9542
12171WAT    EPW49406   2.507   1.527   1.328 -0.0013  0.0306 -0.6626
12172WAT      O49407   0.884   0.174   0.651 -0.5008  0.2105 -0.1284
12172WAT     H149408   0.869   0.189   0.567 -0.8159  0.4014 -0.0372
12172WAT     H249409   0.815   0.209   0.692 -0.9030 -0.8502  0.1382
12172WAT    EPW49410   0.872   0.181   0.645 -0.6067  0.0820 -0.0755
12173WAT      O49411   2.959   0.847   2.458  0.2515  0.1258 -0.1844
12173WAT     H149412   2.944   0.840   2.544 -0.7221 -0.8031 -0.4152
12173WAT     H249413   3.007   0.919   2.452 -1.8329  1.7278  0.9091
12173WAT    EPW49414   2.964   0.857   2.470 -0.2002  0.2252 -0.0570
12174WAT      O49415   1.349   2.491   2.212  0.3465 -0.2933  0.2773
12174WAT     H149416   1.417   2.496   2.157  0.5233 -2.8777  0.1163
12174WAT     H249417   1.386   2.477   2.289  0.0178  0.0428  0.5013
12174WAT    EPW49418   1.364   2.489   2.215  0.3241 -0.6254  0.2866
12175WAT      O49419   2.676   2.188   1.603 -0.0560 -0.0909  0.3545
12175WAT     H149420   2.689   2.248   1.541 -0.4070 -0.1361  0.2385
12175WAT     H249421   2.621   2.132   1.566  0.1000 -0.3712  0.5400
12175WAT    EPW49422   2.670   2.189   1.588 -0.0848 -0.1390  0.3648
12176WAT      O49423   2.166   2.353   1.902  0.2103  0.5265 -0.0115
12176WAT     H149424   2.121   2.315   1.967  0.5912 -1.6062 -0.9179
12176WAT     H249425   2.243   2.313   1.905  0.4220  0.8018 -1.4490
12176WAT    EPW49426   2.171   2.342   1.912  0.2978  0.2522 -0.3577
12177WAT      O49427   1.805   2.276   7.452  0.0814  0.1594 -0.3930
12177WAT     H149428   1.745   2.334   7.427  1.7374  1.2252 -2.1707
12177WAT     H249429   1.763   2.200   7.449 -1.4360  0.9696 -0.5632
12177WAT    EPW49430   1.790   2.274   7.448  0.1019  0.4365 -0.6808
12178WAT      O49431   2.319   3.339   0.509  0.4896  0.2886  0.4096
12178WAT     H149432   2.270   3.269   0.523  1.4881 -0.6210 -0.4484
12178WAT     H249433   2.292   3.396   0.570 -1.3575 -0.2770  0.1624
12178WAT    EPW49434   2.308   3.337   0.520  0.3642  0.0707  0.2463
12179WAT      O49435   1.288   1.637   7.430 -0.2776  0.0102  0.1472
12179WAT     H149436   1.369   1.615   7.405 -0.7842 -0.5689 -1.0273
12179WAT     H249437   1.245   1.562   7.431 -1.4565  0.5868 -1.7541
12179WAT    EPW49438   1.294   1.623   7.427 -0.5266  0.0098 -0.3071
12180WAT      O49439   3.331   7.262   7.063  0.3156 -0.0641  0.0745
12180WAT     H149440   3.328   7.176   7.050 -0.4388 -0.0720  0.2529
12180WAT     H249441   3.407   7.275   7.103  0.1500 -0.7310  0.6224
12180WAT    EPW49442   3.342   7.251   7.067  0.1797 -0.1638  0.1818
12181WAT      O49443   0.827   1.275   6.145  0.2277  0.2529  0.0072
12181WAT     H149444   0.895   1.322   6.117 -0.6744  1.7511  0.2224
12181WAT     H249445   0.821   1.295   6.230 -1.6480  1.7546 -0.3978
12181WAT    EPW49446   0.836   1.285   6.153 -0.1827  0.6960 -0.0208
12182WAT      O49447   2.214   0.801   6.732 -0.1576 -0.2228 -0.6725
12182WAT     H149448   2.279   0.844   6.772  0.5950 -0.0250 -2.0542
12182WAT     H249449   2.157   0.864   6.712 -2.1645 -0.6690  2.8472
12182WAT    EPW49450   2.215   0.817   6.735 -0.3429 -0.2595 -0.3567
12183WAT      O49451   0.642   0.368   5.084 -0.5532 -0.2050  0.4557
12183WAT     H149452   0.575   0.342   5.133 -1.5183  2.2465  0.5784
12183WAT     H249453   0.697   0.404   5.142 -0.4231  0.2826  0.0332
12183WAT    EPW49454   0.640   0.369   5.100 -0.6765  0.2292  0.4114
12184WAT      O49455   1.224   7.604   0.327 -0.2686  0.0816 -0.0521
12184WAT     H149456   1.141   7.628   0.331 -0.2815  0.4336 -1.8541
12184WAT     H249457   1.220   7.517   0.319 -0.4431  0.0645  0.2195
12184WAT    EPW49458   1.211   7.594   0.326 -0.2963  0.1311 -0.2782
12185WAT      O49459   1.623   0.753   0.054  0.1020 -0.3872  0.0298
12185WAT     H149460   1.700   0.714   0.066  0.1298 -1.0127 -1.8812
12185WAT     H249461   1.644   0.838   0.054  0.6344 -0.5133  0.5390
12185WAT    EPW49462   1.638   0.760   0.056  0.1847 -0.4982 -0.1773
12186WAT      O49463   1.045   7.441   6.916 -0.0854  0.1204  0.2539
12186WAT     H149464   0.994   7.507   6.940  0.9318  0.8554  0.4539
12186WAT     H249465   1.017   7.422   6.835 -1.6472 -0.5071  0.9046
12186WAT    EPW49466   1.033   7.448   6.907 -0.1659  0.1363  0.3796
12187WAT      O49467   1.672   7.361   6.619  0.1224 -0.5208  0.2586
12187WAT     H149468   1.721   7.322   6.680  0.4414  0.5912  0.7480
12187WAT     H249469   1.601   7.310   6.614  0.0910 -0.6429  1.5785
12187WAT    EPW49470   1.668   7.348   6.627  0.1649 -0.3746  0.5259
12188WAT      O49471   0.743   0.618   5.617  0.1482 -0.4218 -0.3269
12188WAT     H149472   0.789   0.548   5.595  0.4847 -0.0862 -0.7202
12188WAT     H249473   0.665   0.586   5.639  0.1974 -0.8831 -0.8181
12188WAT    EPW49474   0.738   0.603   5.617  0.2051 -0.4404 -0.4576
12189WAT      O49475   3.392   0.596   6.668 -0.0513  0.0092  0.7673
12189WAT     H149476   3.361   0.676   6.681 -0.4981 -0.1961  0.9896
12189WAT     H249477   3.370   0.579   6.585  2.3978  1.1394 -0.2094
12189WAT    EPW49478   3.384   0.605   6.658  0.2445  0.1458  0.6559
12190WAT      O49479   0.985   0.672   6.731  0.8292  0.2110 -0.2992
12190WAT     H149480   1.019   0.663   6.652 -1.1345 -0.7822 -1.0989
12190WAT     H249481   1.052   0.701   6.779  2.7267 -1.4794 -1.7543
12190WAT    EPW49482   1.000   0.675   6.727  0.8194 -0.1854 -0.6323
12191WAT      O49483   2.379   1.666   5.344 -0.0647  0.2116  0.6218
12191WAT     H149484   2.332   1.713   5.401  1.0984  2.1282  0.0920
12191WAT     H249485   2.455   1.655   5.385  0.0273 -0.3158  0.3147
12191WAT    EPW49486   2.383   1.671   5.359  0.1207  0.4168  0.4982
12192WAT      O49487   2.147   1.457   0.023 -0.0566 -0.0098  0.7909
12192WAT     H149488   2.170   1.447  -0.060  0.3920 -1.7739  1.0745
12192WAT     H249489   2.086   1.519   0.020  1.8178  1.9022 -0.4798
12192WAT    EPW49490   2.141   1.464   0.010  0.2865  0.0121  0.6450
12193WAT      O49491   1.269   7.494   7.071  0.3132  0.0897  0.5013
12193WAT     H149492   1.315   7.553   7.027  0.4353 -0.7028 -0.4814
12193WAT     H249493   1.193   7.492   7.028  0.2232 -0.2776  0.6707
12193WAT    EPW49494   1.264   7.502   7.058  0.3180 -0.0816  0.3811
12194WAT      O49495   0.955   1.200   7.118  0.1198  0.8015  0.9207
12194WAT     H149496   0.995   1.225   7.044 -1.9298  0.9756 -0.1987
12194WAT     H249497   0.968   1.114   7.120 -1.8133  0.3836 -1.0161
12194WAT    EPW49498   0.963   1.191   7.107 -0.4686  0.7655  0.4692
12195WAT      O49499   2.174   1.391   4.033 -0.0261  0.5753  0.2028
12195WAT     H149500   2.171   1.424   3.952 -0.5554 -0.0886 -0.0538
12195WAT     H249501   2.109   1.432   4.074 -0.5080  0.0589 -0.0390
12195WAT    EPW49502   2.164   1.402   4.027 -0.1755  0.4009  0.1292
12196WAT      O49503   1.189   1.909   0.043  0.5545  0.1829  0.3295
12196WAT     H149504   1.180   1.996   0.038  1.6549  0.2441 -1.5699
12196WAT     H249505   1.192   1.884  -0.041 -0.2497 -1.7712  0.8307
12196WAT    EPW49506   1.188   1.918   0.030  0.5982 -0.0967  0.1230
12197WAT      O49507   1.831   1.219   7.451  0.1098  0.3494 -0.3203
12197WAT     H149508   1.744   1.214   7.453 -0.0171  2.0891  0.8758
12197WAT     H249509   1.847   1.259   7.375 -0.1589  0.4208 -0.3406
12197WAT    EPW49510   1.821   1.224   7.440  0.0514  0.6169 -0.1466
12198WAT      O49511   1.892   0.341   6.889  0.0123 -0.5118 -0.0008
12198WAT     H149512   1.913   0.407   6.837 -0.9551 -0.6515 -0.6124
12198WAT     H249513   1.956   0.339   6.948 -0.5662  1.7867  0.8183
12198WAT    EPW49514   1.904   0.350   6.890 -0.2160 -0.1929  0.0298
12199WAT      O49515   0.730   2.008   7.283 -0.1098 -0.3519  0.3986
12199WAT     H149516   0.713   2.020   7.368 -0.3322 -0.7372  0.4140
12199WAT     H249517   0.721   1.922   7.273 -0.2830 -0.2828 -0.0564
12199WAT    EPW49518   0.726   1.997   7.294 -0.1683 -0.3986  0.3337
12200WAT      O49519   1.191   7.662   7.724  0.1961 -0.1632 -0.1300
12200WAT     H149520   1.231   7.599   7.679  1.8276  1.4719 -1.1022
12200WAT     H249521   1.139   7.618   7.779  1.1676 -2.3325 -0.8309
12200WAT    EPW49522   1.189   7.646   7.725  0.5806 -0.2421 -0.3772
12201WAT      O49523   2.985   1.419   6.626  0.2731  0.2774 -0.2123
12201WAT     H149524   2.901   1.440   6.616  0.2942  0.7086  0.4662
12201WAT     H249525   3.022   1.446   6.552  0.2642  2.4441  0.5170
12201WAT    EPW49526   2.978   1.426   6.614  0.2749  0.6612 -0.0044
12202WAT      O49527   1.820   7.591   6.447  0.0164  0.2453 -0.0385
12202WAT     H149528   1.797   7.518   6.487  0.3279  1.1196  1.8536
12202WAT     H249529   1.817   7.571   6.362 -2.4183 -1.1930  0.3173
12202WAT    EPW49530   1.817   7.577   6.440 -0.2973  0.1620  0.2936
12203WAT      O49531   1.639   1.262   1.644 -0.0890  0.4022 -0.0278
12203WAT     H149532   1.571   1.277   1.592  0.2005 -0.9574 -0.8243
12203WAT     H249533   1.655   1.177   1.634  2.1537  0.8000 -0.3907
12203WAT    EPW49534   1.631   1.252   1.635  0.2851  0.2601 -0.1991
12204WAT      O49535   1.024   7.278   7.350 -0.0612 -0.3404 -0.0036
12204WAT     H149536   0.940   7.299   7.339  0.2952  0.8646 -0.6705
12204WAT     H249537   1.046   7.240   7.275  0.2153  0.1784 -0.1890
12204WAT    EPW49538   1.015   7.276   7.338  0.0323 -0.0857 -0.1295
12205WAT      O49539   2.197   7.216   7.174 -0.3503  0.1853  0.0097
12205WAT     H149540   2.244   7.150   7.141  1.1693  0.5714  1.2348
12205WAT     H249541   2.128   7.177   7.209  1.0033 -0.9487  1.5918
12205WAT    EPW49542   2.194   7.200   7.174  0.0742  0.0748  0.4244
12206WAT      O49543   1.671   1.438   0.166 -0.2667 -0.5193  0.0860
12206WAT     H149544   1.620   1.425   0.236 -1.2417  0.6621 -0.3714
12206WAT     H249545   1.706   1.516   0.180 -0.4286 -0.2965 -0.7234
12206WAT    EPW49546   1.669   1.447   0.178 -0.4347 -0.3118 -0.1011
12207WAT      O49547   3.342   0.571   0.242  0.2214  0.1996  0.2675
12207WAT     H149548   3.394   0.505   0.219 -0.0883  0.7123 -2.0935
12207WAT     H249549   3.373   0.639   0.198 -1.4746  0.8707  0.0196
12207WAT    EPW49550   3.354   0.571   0.232 -0.0749  0.3745 -0.1179
12208WAT      O49551   1.856   0.040   0.353  0.1283  0.1552 -0.0239
12208WAT     H149552   1.787  -0.004   0.382  1.0785 -1.7038 -0.4036
12208WAT     H249553   1.924  -0.007   0.382  1.1797 -0.9642 -3.6862
12208WAT    EPW49554   1.856   0.027   0.361  0.4240 -0.2848 -0.6210
12209WAT      O49555   0.621   1.067   4.802  0.2152  0.0367 -0.6595
12209WAT     H149556   0.554   1.095   4.850  0.5989  1.3485 -0.8691
12209WAT     H249557   0.687   1.116   4.828  0.6626  0.0651 -1.8105
12209WAT    EPW49558   0.621   1.078   4.813  0.3380  0.2347 -0.8605
12210WAT      O49559   2.718   1.131   7.824  0.0002 -0.0208 -0.3097
12210WAT     H149560   2.643   1.088   7.837 -0.0623 -0.9856 -3.1411
12210WAT     H249561   2.779   1.074   7.849 -0.1432 -1.1020 -2.2469
12210WAT    EPW49562   2.716   1.116   7.830 -0.0302 -0.3230 -1.0141
12211WAT      O49563   0.733   0.357   7.272  0.2773  0.3626  0.4031
12211WAT     H149564   0.711   0.365   7.356  0.8422  1.7967  0.4425
12211WAT     H249565   0.795   0.417   7.261  1.8482 -1.3561 -0.5050
12211WAT    EPW49566   0.739   0.367   7.283  0.5928  0.3205  0.2747
12212WAT      O49567   1.792   0.979   6.386 -0.0277  0.1088  0.1797
12212WAT     H149568   1.705   0.978   6.381 -0.0628 -1.9072  0.3897
12212WAT     H249569   1.808   1.031   6.454 -1.0344  0.7900 -0.0790
12212WAT    EPW49570   1.782   0.987   6.395 -0.1816 -0.0884  0.1725
12213WAT      O49571   1.255   5.817   6.857 -0.1368 -0.0338 -0.7091
12213WAT     H149572   1.177   5.783   6.837  0.8508 -4.1313  1.1756
12213WAT     H249573   1.241   5.853   6.936  0.0623 -2.1942  0.3852
12213WAT    EPW49574   1.241   5.817   6.866  0.0385 -0.9582 -0.2690
12214WAT      O49575   1.151   0.802   7.802 -0.5767  0.0700  0.6131
12214WAT     H149576   1.235   0.799   7.780 -0.5328 -2.0938  0.8199
12214WAT     H249577   1.122   0.721   7.784 -2.4506  0.5495  1.1744
12214WAT    EPW49578   1.159   0.789   7.796 -0.8470 -0.1788  0.7265
12215WAT      O49579   2.094   7.530   7.734 -0.4146  0.1369 -0.3482
12215WAT     H149580   2.095   7.526   7.821  1.2093  1.5010 -0.2706
12215WAT     H249581   2.015   7.564   7.716  0.1814  2.2311  0.7549
12215WAT    EPW49582   2.082   7.535   7.744 -0.0867  0.6477 -0.1738
12216WAT      O49583   1.282   1.002   6.664  0.0757 -0.3891  0.5174
12216WAT     H149584   1.238   0.962   6.727 -0.5410 -1.0571 -0.3074
12216WAT     H249585   1.323   0.936   6.622 -1.9060 -0.4053 -1.6046
12216WAT    EPW49586   1.282   0.986   6.667 -0.3081 -0.4902  0.0821
12217WAT      O49587   0.979   0.402   6.081 -0.1398 -0.2088 -0.0549
12217WAT     H149588   0.936   0.360   6.018 -0.4043 -1.1072  0.7163
12217WAT     H249589   1.013   0.338   6.130  2.4503  0.4247 -0.8405
12217WAT    EPW49590   0.978   0.386   6.079  0.2037 -0.2479 -0.0570
12218WAT      O49591   2.025   0.922   6.978 -0.1151  0.1286 -0.4033
12218WAT     H149592   2.055   0.878   6.908  0.2559 -0.9486  0.4016
12218WAT     H249593   2.038   0.866   7.044 -0.7816  0.9891  0.4802
12218WAT    EPW49594   2.032   0.907   6.977 -0.1588  0.0966 -0.1539
12219WAT      O49595   0.412   0.045   6.988  0.0978  0.7366  0.3189
12219WAT     H149596   0.462   0.115   7.000  1.1814  0.1214 -0.4350
12219WAT     H249597   0.348   0.074   6.936  0.5705  1.1686 -0.0388
12219WAT    EPW49598   0.410   0.059   6.982  0.3277  0.7096  0.1547
12220WAT      O49599   2.353   2.551   0.984 -0.0610  0.2699  0.6928
12220WAT     H149600   2.434   2.584   0.991  0.3297 -0.6861  0.7242
12220WAT     H249601   2.339   2.514   1.062 -1.4654  2.4227  1.5890
12220WAT    EPW49602   2.363   2.551   0.997 -0.2108  0.4467  0.8298
12221WAT      O49603   1.103   0.286   6.364 -0.2500  0.3518 -0.0161
12221WAT     H149604   1.114   0.276   6.450 -1.6974 -0.1869  0.1392
12221WAT     H249605   1.113   0.206   6.332 -0.7070  0.3696 -0.2130
12221WAT    EPW49606   1.106   0.273   6.372 -0.5313  0.2749 -0.0223
12222WAT      O49607   2.843   7.003   7.461 -0.1284  0.1250 -0.4740
12222WAT     H149608   2.842   7.050   7.387  0.4628  0.3626 -0.3423
12222WAT     H249609   2.803   6.929   7.439 -1.4492  0.8452 -0.5724
12222WAT    EPW49610   2.837   6.999   7.447 -0.2362  0.2665 -0.4691
12223WAT      O49611   2.027   0.919   6.203 -0.0712 -0.5187 -0.3487
12223WAT     H149612   1.961   0.953   6.249  0.7529  0.5116  0.0993
12223WAT     H249613   2.073   0.989   6.178  0.8190 -1.2196 -0.7168
12223WAT    EPW49614   2.024   0.934   6.206  0.1820 -0.4700 -0.3369
12224WAT      O49615   1.689   6.997   6.602 -0.1647  0.7648 -0.0584
12224WAT     H149616   1.617   6.971   6.561  0.9736 -1.4061 -0.8608
12224WAT     H249617   1.742   7.022   6.537  0.7000 -0.1219  0.2765
12224WAT    EPW49618   1.686   6.997   6.586  0.1312  0.3131 -0.1275
12225WAT      O49619   0.841   0.037   0.316  0.4349 -0.0403  0.0637
12225WAT     H149620   0.892  -0.023   0.354  0.8794  0.0765 -0.3498
12225WAT     H249621   0.761   0.017   0.346  0.5862 -0.7986 -0.0186
12225WAT    EPW49622   0.836   0.025   0.326  0.5229 -0.1351 -0.0095
12226WAT      O49623   2.067   0.411   0.877  0.2186 -0.4246 -0.9284
12226WAT     H149624   2.014   0.344   0.897  0.9521 -1.5280 -2.5330
12226WAT     H249625   2.020   0.458   0.821  0.1042 -0.1509 -0.6090
12226WAT    EPW49626   2.052   0.408   0.872  0.3101 -0.5471 -1.1183
12227WAT      O49627   0.886   7.588   0.707 -0.0959  0.1597  0.1724
12227WAT     H149628   0.913   7.671   0.716 -1.2900  0.3393  2.8501
12227WAT     H249629   0.804   7.590   0.737  0.0393 -2.1200  0.8246
12227WAT    EPW49630   0.878   7.601   0.713 -0.2523 -0.1505  0.6643
12228WAT      O49631   0.913   0.587   7.262 -0.2060  0.4184 -0.2569
12228WAT     H149632   0.918   0.612   7.345 -0.4870  0.2201 -0.1790
12228WAT     H249633   0.858   0.643   7.225 -0.6332  0.0771 -0.1423
12228WAT    EPW49634   0.906   0.599   7.269 -0.3106  0.3387 -0.2285
12229WAT      O49635   2.158   7.673   5.624  0.5255 -0.8031  0.1504
12229WAT     H149636   2.156   7.603   5.676 -1.0234 -0.3045  0.8241
12229WAT     H249637   2.243   7.681   5.603  0.5459 -4.1295 -1.7315
12229WAT    EPW49638   2.170   7.664   5.629  0.2997 -1.2208 -0.0281
12230WAT      O49639   0.986   0.593   7.787 -0.0644  0.6152 -0.2079
12230WAT     H149640   0.908   0.603   7.826 -0.2762  1.6960 -0.8411
12230WAT     H249641   0.966   0.595   7.702  0.5885  0.1905 -0.3763
12230WAT    EPW49642   0.971   0.595   7.780  0.0008  0.7121 -0.3263
12231WAT      O49643   2.133   1.509   6.075  0.1443  0.2238 -0.2486
12231WAT     H149644   2.100   1.440   6.116 -0.2547  1.6043  1.9135
12231WAT     H249645   2.217   1.508   6.098  0.1182  0.4968 -0.1373
12231WAT    EPW49646   2.141   1.499   6.084  0.0815  0.4681  0.0872
12232WAT      O49647   1.375   7.607   0.953  0.2151 -0.0840  0.3578
12232WAT     H149648   1.397   7.646   0.878 -1.9358  0.2055 -0.1878
12232WAT     H249649   1.313   7.660   0.986  1.4190  0.0416  2.6042
12232WAT    EPW49650   1.369   7.621   0.947  0.0752 -0.0227  0.6090
12233WAT      O49651   3.031   6.936   7.094 -0.1150 -0.3723  0.3090
12233WAT     H149652   2.992   6.987   7.153  0.2273  1.1889 -0.7590
12233WAT     H249653   3.061   6.869   7.142 -2.3027 -0.6166  1.4461
12233WAT    EPW49654   3.030   6.933   7.110 -0.3876 -0.1778  0.3192
12234WAT      O49655   1.907   0.300   0.401 -0.5500  0.1680 -0.2106
12234WAT     H149656   1.910   0.337   0.322 -0.2131  0.2421 -0.1629
12234WAT     H249657   1.895   0.216   0.383  1.1368 -0.0618 -0.3989
12234WAT    EPW49658   1.905   0.293   0.387 -0.2510  0.1450 -0.2314
12235WAT      O49659   2.025   0.003   7.217  0.3430 -0.5568  0.0267
12235WAT     H149660   2.102   0.026   7.182  1.0812 -3.5927 -0.6220
12235WAT     H249661   2.044  -0.067   7.264 -1.6886  0.0459  1.9041
12235WAT    EPW49662   2.039  -0.004   7.219  0.1519 -0.9162  0.2082
12236WAT      O49663   0.698   7.006   0.195  0.4437  0.4132 -0.1760
12236WAT     H149664   0.671   7.024   0.114  1.0707 -0.4245 -0.5852
12236WAT     H249665   0.750   6.937   0.184 -1.4075 -1.3184  1.2342
12236WAT    EPW49666   0.702   6.999   0.181  0.2629  0.0337 -0.0281
12237WAT      O49667   1.626   6.764   0.898  0.5547  0.0052  0.0422
12237WAT     H149668   1.679   6.720   0.951  0.2013 -0.7808 -0.2461
12237WAT     H249669   1.656   6.846   0.903  1.5477 -0.3467  0.1959
12237WAT    EPW49670   1.638   6.769   0.906  0.6492 -0.1629  0.0223
12238WAT      O49671   1.128   6.520   1.464 -0.1740  0.7483  0.1118
12238WAT     H149672   1.121   6.591   1.413  1.7726  2.2179  1.7124
12238WAT     H249673   1.078   6.540   1.533 -0.2008  0.2316  0.2447
12238WAT    EPW49674   1.120   6.534   1.467  0.1096  0.8890  0.3678
12239WAT      O49675   1.098   1.329   1.321  0.1450 -0.8982  0.2293
12239WAT     H149676   1.143   1.370   1.258  1.3824 -0.1854  1.5309
12239WAT     H249677   1.021   1.370   1.320  0.2483 -0.6931 -0.5973
12239WAT    EPW49678   1.093   1.341   1.311  0.3430 -0.7626  0.2994
12240WAT      O49679   1.591   7.358   7.728 -0.3660 -0.0591  0.3626
12240WAT     H149680   1.621   7.414   7.787 -0.6070 -0.4560  0.8632
12240WAT     H249681   1.514   7.392   7.704  0.6331  1.2225 -1.2782
12240WAT    EPW49682   1.584   7.371   7.733 -0.2540  0.0716  0.1942
12241WAT      O49683   0.870   2.135   0.485 -0.0330 -0.0174 -0.0757
12241WAT     H149684   0.834   2.056   0.497  0.9204 -0.5486 -0.5907
12241WAT     H249685   0.955   2.119   0.484  0.1543  0.8493 -1.3186
12241WAT    EPW49686   0.877   2.121   0.486  0.1355  0.0322 -0.3354
12242WAT      O49687   1.242   7.116   5.917 -0.0977  0.0672  0.1295
12242WAT     H149688   1.267   7.196   5.894 -0.7441  0.5329  0.9770
12242WAT     H249689   1.309   7.066   5.893  0.5725  0.9357  0.1231
12242WAT    EPW49690   1.255   7.121   5.910 -0.0942  0.2643  0.2538
12243WAT      O49691   1.389   1.073   0.729  0.2421 -0.2322 -0.8178
12243WAT     H149692   1.431   0.997   0.720 -0.8677 -0.9698 -0.0469
12243WAT     H249693   1.335   1.058   0.797 -0.3853  1.0623 -1.0138
12243WAT    EPW49694   1.387   1.059   0.738 -0.0145 -0.1499 -0.7329
12244WAT      O49695   1.518   2.203   0.988 -0.0552 -0.0274  0.1897
12244WAT     H149696   1.447   2.244   1.018 -0.0219 -0.7112  1.2752
12244WAT     H249697   1.501   2.119   1.005 -0.7976 -0.7528 -3.3087
12244WAT    EPW49698   1.505   2.196   0.995 -0.1600 -0.2356 -0.1668
12245WAT      O49699   1.908   0.401   5.814 -0.0779  0.5749 -0.3345
12245WAT     H149700   1.973   0.374   5.864  1.0235  0.3933 -1.7985
12245WAT     H249701   1.852   0.438   5.870  1.2675  0.7034  0.9537
12245WAT    EPW49702   1.909   0.403   5.829  0.2835  0.5670 -0.3605
12246WAT      O49703   1.337   1.773   0.240 -0.3410 -0.2593  0.3334
12246WAT     H149704   1.295   1.813   0.175  0.6914 -0.7911 -0.7030
12246WAT     H249705   1.420   1.798   0.229 -0.2517  0.3123  1.9783
12246WAT    EPW49706   1.343   1.783   0.229 -0.1753 -0.2534  0.4233
12247WAT      O49707   1.918   1.396   6.910 -0.2193  0.2148 -0.1318
12247WAT     H149708   1.927   1.317   6.946  0.1505  1.2843  2.2918
12247WAT     H249709   1.842   1.390   6.866 -0.9707 -1.0307  1.2552
12247WAT    EPW49710   1.908   1.383   6.909 -0.2757  0.1888  0.4311
12248WAT      O49711   1.941   7.072   7.058  0.2064  0.0565 -0.4065
12248WAT     H149712   1.870   7.023   7.069 -0.7497  1.6521  0.9461
12248WAT     H249713   1.927   7.114   6.983  0.2740 -0.4678 -0.7200
12248WAT    EPW49714   1.929   7.071   7.049  0.0752  0.2147 -0.2530
12249WAT      O49715   1.151   0.543   7.124 -0.5882  0.1797 -0.3480
12249WAT     H149716   1.175   0.460   7.112 -1.6599 -0.3301  0.8074
12249WAT     H249717   1.082   0.537   7.177  0.0033  1.8755  0.6923
12249WAT    EPW49718   1.145   0.530   7.130 -0.6591  0.3549 -0.0237
12250WAT      O49719   1.486   0.325   6.126  0.6837 -0.0372 -0.1505
12250WAT     H149720   1.455   0.297   6.202  0.1013  0.8767 -0.0360
12250WAT     H249721   1.539   0.390   6.149  0.8961 -0.0897 -0.4943
12250WAT    EPW49722   1.489   0.330   6.141  0.6290  0.0900 -0.1844
12251WAT      O49723   3.060   6.391   5.685 -0.5623  1.0143 -0.2444
12251WAT     H149724   3.015   6.353   5.620  0.4772  1.1050 -1.0517
12251WAT     H249725   3.104   6.454   5.644 -1.1646  2.1718  0.8532
12251WAT    EPW49726   3.060   6.394   5.669 -0.4977  1.1987 -0.2015
12252WAT      O49727   1.514   0.570   7.660 -0.4786 -0.0388 -0.1639
12252WAT     H149728   1.598   0.552   7.675 -0.5804 -1.7879 -1.4225
12252WAT     H249729   1.472   0.510   7.706 -1.0190  0.0760 -0.5050
12252WAT    EPW49730   1.520   0.559   7.669 -0.5735 -0.2802 -0.4002
12253WAT      O49731   2.077   6.945   1.453 -0.0652  0.2912  0.0138
12253WAT     H149732   2.039   6.983   1.522  0.3873  1.3924 -0.3154
12253WAT     H249733   2.149   6.993   1.441  1.4997 -1.7680  0.6445
12253WAT    EPW49734   2.082   6.958   1.462  0.2328  0.1497  0.0583
12254WAT      O49735   1.843   0.149   7.359 -0.4721 -0.1422  0.1756
12254WAT     H149736   1.915   0.128   7.314 -0.5777  0.5915 -0.3505
12254WAT     H249737   1.780   0.106   7.318 -0.3511 -0.7378  0.6005
12254WAT    EPW49738   1.844   0.140   7.347 -0.4698 -0.1218  0.1606
12255WAT      O49739   1.144   0.247   7.814 -0.6637 -0.2469 -0.3054
12255WAT     H149740   1.069   0.226   7.853 -0.2681 -0.2619  0.4560
12255WAT     H249741   1.179   0.170   7.792  0.2902 -0.4048  1.5577
12255WAT    EPW49742   1.138   0.233   7.817 -0.4643 -0.2724  0.0823
12256WAT      O49743   0.778   0.621   0.086 -1.0465 -0.1843  0.2402
12256WAT     H149744   0.776   0.704   0.112  0.3632 -0.0120 -0.1537
12256WAT     H249745   0.845   0.587   0.131 -2.0363 -1.3133  0.9274
12256WAT    EPW49746   0.787   0.628   0.097 -0.9844 -0.3256  0.2836
12257WAT      O49747   1.556   0.602   5.441 -0.2186 -0.4448  0.1380
12257WAT     H149748   1.609   0.663   5.473 -0.9782  0.5539 -0.4332
12257WAT     H249749   1.509   0.577   5.510 -0.4583  0.2202  0.2228
12257WAT    EPW49750   1.557   0.607   5.456 -0.3662 -0.1991  0.0662
12258WAT      O49751   2.215   0.753   6.323 -0.1881  0.0505  0.7324
12258WAT     H149752   2.172   0.817   6.281 -0.2519 -0.9408 -0.7714
12258WAT     H249753   2.261   0.797   6.383 -1.4792  1.3571  0.8474
12258WAT    EPW49754   2.215   0.769   6.326 -0.3882  0.0971  0.5272
12259WAT      O49755   1.596   7.694   7.232 -0.2653 -0.1904  0.1258
12259WAT     H149756   1.551   7.646   7.289 -1.0686 -0.4267 -0.7043
12259WAT     H249757   1.557   7.680   7.156  0.9645 -0.0887 -0.5567
12259WAT    EPW49758   1.584   7.685   7.229 -0.2023 -0.2103 -0.0976
12260WAT      O49759   2.027   1.555   7.279  0.6412 -0.2599 -0.5325
12260WAT     H149760   2.083   1.621   7.275 -0.5265  0.7448 -1.4082
12260WAT     H249761   1.995   1.560   7.360  0.6088  0.2329 -0.5699
12260WAT    EPW49762   2.030   1.565   7.290  0.4639 -0.0387 -0.6674
12261WAT      O49763   1.690   0.431   0.549 -0.5862 -0.1856  0.3381
12261WAT     H149764   1.710   0.421   0.634  0.3095  0.7174  0.2510
12261WAT     H249765   1.758   0.394   0.508 -0.8219 -0.2555  0.0047
12261WAT    EPW49766   1.703   0.424   0.556 -0.4887 -0.0625  0.2760
12262WAT      O49767   1.988   1.007   0.951 -0.0307  0.3513 -0.2507
12262WAT     H149768   2.058   1.059   0.948 -0.7241  1.3045 -0.3267
12262WAT     H249769   1.975   0.984   0.868  0.3008  0.0138 -0.2116
12262WAT    EPW49770   1.997   1.011   0.938 -0.0842  0.4423 -0.2562
12263WAT      O49771   3.041   7.269   1.254  0.1026  0.3951  0.4618
12263WAT     H149772   3.053   7.344   1.298 -1.4526  1.4275 -0.7372
12263WAT     H249773   3.030   7.295   1.172 -0.8834 -1.1067  0.0701
12263WAT    EPW49774   3.041   7.284   1.249 -0.2728  0.3258  0.2268
12264WAT      O49775   0.471   0.580   3.902  0.6240  0.3009 -0.3007
12264WAT     H149776   0.399   0.609   3.862  1.7408  0.4483 -2.3655
12264WAT     H249777   0.521   0.651   3.907  0.5590  0.2489  1.3223
12264WAT    EPW49778   0.468   0.594   3.897  0.7794  0.3150 -0.3660
12265WAT      O49779   1.830   0.067   6.863  0.3248 -0.3313 -0.0802
12265WAT     H149780   1.886   0.034   6.922  0.2584 -0.7196 -0.2336
12265WAT     H249781   1.847   0.153   6.865  0.1327 -0.3001  0.7060
12265WAT    EPW49782   1.841   0.075   6.872  0.2866 -0.3841  0.0132
12266WAT      O49783   2.608   7.527   7.545  0.0231 -0.1603 -0.5214
12266WAT     H149784   2.580   7.610   7.539  1.7927  0.3711 -2.4138
12266WAT     H249785   2.687   7.534   7.581  0.4278 -0.9595 -1.2226
12266WAT    EPW49786   2.615   7.540   7.550  0.3443 -0.1999 -0.9045
12267WAT      O49787   2.026   0.249   7.625 -0.7461  0.1338 -0.0048
12267WAT     H149788   1.952   0.232   7.669 -0.7905  0.0975 -0.0922
12267WAT     H249789   2.073   0.176   7.635 -0.5106  0.3489  0.4747
12267WAT    EPW49790   2.022   0.236   7.633 -0.7179  0.1602  0.0531
12268WAT      O49791   2.676   1.267   6.426  0.1274  0.4765  0.2603
12268WAT     H149792   2.713   1.283   6.348 -1.4711  0.9164 -0.4443
12268WAT     H249793   2.656   1.182   6.423 -0.1834  0.5544  0.0669
12268WAT    EPW49794   2.679   1.257   6.414 -0.1547  0.5530  0.1277
12269WAT      O49795   0.615   0.921   6.750  0.2475  0.5447  0.0603
12269WAT     H149796   0.545   0.961   6.783  0.6797  1.3249  0.0637
12269WAT     H249797   0.611   0.938   6.665 -0.7916 -1.3542 -0.3337
12269WAT    EPW49798   0.604   0.929   6.742  0.1579  0.3795  0.0026
12270WAT      O49799   1.783   0.778   5.916  0.4134  0.3529  0.0472
12270WAT     H149800   1.772   0.837   5.979  0.2024 -0.3770  0.6973
12270WAT     H249801   1.854   0.733   5.941  0.4491  0.1895 -0.3343
12270WAT    EPW49802   1.792   0.780   5.929  0.3875  0.2210  0.0869
12271WAT      O49803   2.128   6.517   7.262  0.4858  0.6858 -0.1655
12271WAT     H149804   2.090   6.594   7.276  0.1699  1.0561 -2.6248
12271WAT     H249805   2.109   6.500   7.179 -0.0820 -2.4070  0.4675
12271WAT    EPW49806   2.119   6.526   7.252  0.3552  0.2836 -0.4353
12272WAT      O49807   1.048   0.038   6.215 -0.4280  0.0657  0.0511
12272WAT     H149808   1.072  -0.031   6.263 -0.0045  0.2648  0.1326
12272WAT     H249809   1.047   0.008   6.134  1.0960  0.2791 -0.0910
12272WAT    EPW49810   1.052   0.024   6.210 -0.1403  0.1266  0.0421
12273WAT      O49811   1.911   7.599   0.667  0.1264  0.5416 -0.7155
12273WAT     H149812   1.880   7.576   0.746  0.7405 -1.9726 -1.0949
12273WAT     H249813   1.972   7.659   0.685 -2.3881  2.9810  0.3160
12273WAT    EPW49814   1.916   7.604   0.682 -0.1543  0.5306 -0.6192
12274WAT      O49815   1.220   1.245   5.906  0.5256  0.0379 -0.0353
12274WAT     H149816   1.184   1.180   5.951 -1.5355  0.5524 -0.8309
12274WAT     H249817   1.228   1.212   5.826  2.3128 -0.1883  0.1763
12274WAT    EPW49818   1.216   1.230   5.901  0.4851  0.0805 -0.1216
12275WAT      O49819   2.129   0.577   5.101  0.1594  0.4629 -0.1187
12275WAT     H149820   2.162   0.503   5.134  1.0498  0.6933 -0.4783
12275WAT     H249821   2.094   0.616   5.170  1.8363  0.8575  0.5567
12275WAT    EPW49822   2.129   0.572   5.116  0.5386  0.5553 -0.0721
12276WAT      O49823   0.735   1.888   0.218 -0.3606 -0.3812 -0.6440
12276WAT     H149824   0.822   1.879   0.219 -0.3732 -0.5123 -0.6355
12276WAT     H249825   0.710   1.827   0.161 -0.3873  0.2053 -1.2666
12276WAT    EPW49826   0.744   1.877   0.210 -0.3664 -0.3139 -0.7347
12277WAT      O49827   2.887   7.541   5.822  0.2629  0.0572  0.0555
12277WAT     H149828   2.812   7.566   5.785 -0.8339 -0.2102  1.9914
12277WAT     H249829   2.922   7.488   5.762 -0.3582  1.3007 -1.4936
12277WAT    EPW49830   2.881   7.537   5.808  0.0092  0.2014  0.1126
12278WAT      O49831   1.799   6.996   3.622 -0.5291 -0.1969  0.4745
12278WAT     H149832   1.788   6.912   3.602 -2.7120  0.3285 -0.9339
12278WAT     H249833   1.752   7.038   3.561  0.1162  2.0203  1.3914
12278WAT    EPW49834   1.790   6.990   3.610 -0.7562  0.2082  0.4019
12279WAT      O49835   1.519   0.689   4.643 -0.3235  0.0481  0.2204
12279WAT     H149836   1.575   0.740   4.599  1.6082 -1.3225  0.9420
12279WAT     H249837   1.497   0.738   4.711 -1.1994  1.1581 -0.8204
12279WAT    EPW49838   1.524   0.704   4.647 -0.1676  0.0096  0.1733
12280WAT      O49839   0.437   6.713   3.594  0.5323  0.2457  0.5278
12280WAT     H149840   0.395   6.751   3.528 -0.2414  0.3904  1.0895
12280WAT     H249841   0.443   6.777   3.654  0.0218 -0.2610  1.1281
12280WAT    EPW49842   0.432   6.728   3.593  0.3426  0.1922  0.6994
12281WAT      O49843   1.703   7.340   5.569  0.1381 -0.4213 -0.0339
12281WAT     H149844   1.773   7.311   5.612 -0.3691 -0.7429  0.6015
12281WAT     H249845   1.726   7.335   5.485  1.0865  0.0487  0.1906
12281WAT    EPW49846   1.717   7.335   5.563  0.2033 -0.3994  0.0931
12282WAT      O49847   1.635   0.902   4.499 -0.2600  0.2136 -0.3497
12282WAT     H149848   1.700   0.887   4.555 -0.6861 -2.8696 -0.5417
12282WAT     H249849   1.662   0.865   4.425 -1.0040  1.5844 -1.3594
12282WAT    EPW49850   1.649   0.894   4.497 -0.4328 -0.0393 -0.5272
12283WAT      O49851   1.030   7.303   3.839 -0.0433 -0.4452 -0.2754
12283WAT     H149852   1.116   7.292   3.847 -0.0959 -0.6069  0.1123
12283WAT     H249853   0.998   7.266   3.912 -0.5845 -2.2538 -1.3593
12283WAT    EPW49854   1.038   7.296   3.851 -0.1310 -0.7363 -0.3782
12284WAT      O49855   0.826   6.973   4.227 -0.3506  0.0878 -0.0246
12284WAT     H149856   0.792   7.010   4.298  2.1280  2.0272  0.2971
12284WAT     H249857   0.910   6.965   4.247  0.2409 -0.2143 -2.4013
12284WAT    EPW49858   0.833   6.977   4.240  0.1029  0.3297 -0.3282
12285WAT      O49859   1.930   6.847   3.110  0.3807 -0.2788 -0.2133
12285WAT     H149860   1.959   6.813   3.184 -1.6856  0.9201  1.2460
12285WAT     H249861   1.979   6.919   3.100  1.0701 -0.7580 -0.3732
12285WAT    EPW49862   1.941   6.853   3.119  0.1773 -0.1725 -0.0214
12286WAT      O49863   3.233   0.434   4.797  0.2317  0.3748 -0.5844
12286WAT     H149864   3.272   0.385   4.736 -0.0520  0.5681 -0.9255
12286WAT     H249865   3.180   0.485   4.751  0.4375  0.9203 -0.2229
12286WAT    EPW49866   3.231   0.434   4.781  0.2202  0.4839 -0.5814
12287WAT      O49867   1.461   0.824   4.891  0.3923  0.8104 -0.0791
12287WAT     H149868   1.528   0.776   4.921 -0.7254  0.5516  2.2148
12287WAT     H249869   1.391   0.778   4.916 -0.7128  0.9276 -2.6577
12287WAT    EPW49870   1.461   0.810   4.899  0.0639  0.7895 -0.1212
12288WAT      O49871   2.080   0.276   4.650 -0.2620  0.2173 -0.3156
12288WAT     H149872   2.102   0.250   4.570  0.9608 -0.2601  0.1540
12288WAT     H249873   2.017   0.220   4.674 -1.0671  0.7341 -1.1488
12288WAT    EPW49874   2.074   0.264   4.642 -0.2003  0.2232 -0.3693
12289WAT      O49875   1.429   1.335   6.807 -0.3703 -0.3512  0.2884
12289WAT     H149876   1.404   1.333   6.890  3.3340  0.6499  1.6102
12289WAT     H249877   1.440   1.252   6.786 -0.2805 -0.5779  1.1967
12289WAT    EPW49878   1.427   1.323   6.816  0.1902 -0.2368  0.6178
12290WAT      O49879   0.696   7.474   5.716  0.2599 -0.3220  0.1850
12290WAT     H149880   0.734   7.412   5.668  1.9088  1.7339 -1.3429
12290WAT     H249881   0.692   7.439   5.796  0.5837 -2.5711 -0.7255
12290WAT    EPW49882   0.701   7.460   5.721  0.5513 -0.3506 -0.1752
12291WAT      O49883   0.690   0.396   4.584 -0.2025 -0.2933  0.0417
12291WAT     H149884   0.637   0.364   4.522 -0.3927 -0.7163  0.4079
12291WAT     H249885   0.769   0.395   4.547 -0.2392 -0.9855 -0.0472
12291WAT    EPW49886   0.694   0.391   4.569 -0.2360 -0.4581  0.0827
12292WAT      O49887   2.265   0.525   3.504 -0.3757  0.6132 -0.1052
12292WAT     H149888   2.347   0.555   3.495 -0.7150  1.7179  0.3220
12292WAT     H249889   2.274   0.438   3.495  0.9605  0.6331  0.7654
12292WAT    EPW49890   2.279   0.516   3.501 -0.2285  0.7793  0.0865
12293WAT      O49891   0.779   7.102   4.450  0.2267 -0.4947 -0.3273
12293WAT     H149892   0.820   7.090   4.526 -0.0841  0.1834 -0.0451
12293WAT     H249893   0.768   7.188   4.446 -0.9804 -0.6397 -0.4844
12293WAT    EPW49894   0.783   7.113   4.461  0.0025 -0.4159 -0.3088
12294WAT      O49895   1.489   0.781   7.237  0.3708  0.2526  0.3089
12294WAT     H149896   1.424   0.838   7.224 -0.2990 -0.7639 -0.9864
12294WAT     H249897   1.458   0.727   7.298  1.0582  1.3018  1.6378
12294WAT    EPW49898   1.475   0.782   7.244  0.3734  0.2574  0.3139
12295WAT      O49899   2.063   0.494   4.255 -0.2734  0.4670  0.6547
12295WAT     H149900   2.051   0.515   4.171  1.2883  0.7150  0.4689
12295WAT     H249901   2.066   0.407   4.254 -0.4725  0.4619  0.4805
12295WAT    EPW49902   2.062   0.485   4.242 -0.0721  0.5029  0.6016
12296WAT      O49903   1.334   0.464   5.933  0.5565  0.0815 -0.0887
12296WAT     H149904   1.354   0.407   5.995  0.2193  1.0216  0.9132
12296WAT     H249905   1.411   0.481   5.895  0.6107 -1.2501 -0.6128
12296WAT    EPW49906   1.348   0.458   5.936  0.5147  0.0237 -0.0181
12297WAT      O49907   0.708   0.680   6.843  0.1364 -0.3264 -0.2188
12297WAT     H149908   0.785   0.664   6.804 -0.2887  0.4666 -1.4559
12297WAT     H249909   0.683   0.756   6.807 -1.5212 -0.8965 -0.3221
12297WAT    EPW49910   0.716   0.689   6.832 -0.1712 -0.2935 -0.4168
12298WAT      O49911   2.645   0.953   5.151 -0.5947  0.3493  0.2507
12298WAT     H149912   2.617   0.929   5.072 -0.8905  1.8667 -0.1434
12298WAT     H249913   2.723   0.988   5.135 -0.8648  1.1071  0.5430
12298WAT    EPW49914   2.652   0.955   5.137 -0.6783  0.6854  0.2357
12299WAT      O49915   2.040   0.092   3.180  0.7153  0.7761 -0.5345
12299WAT     H149916   2.082   0.143   3.122  0.0990  2.2441  0.2406
12299WAT     H249917   1.956   0.099   3.156  0.7184 -1.0358 -1.2386
12299WAT    EPW49918   2.034   0.101   3.168  0.6247  0.7253 -0.5240
12300WAT      O49919   1.038   0.339   5.181 -0.0148  0.2249 -0.6625
12300WAT     H149920   1.043   0.252   5.189 -0.7056  0.2638  0.2836
12300WAT     H249921   1.110   0.368   5.222  0.5081  0.0878 -1.4621
12300WAT    EPW49922   1.049   0.330   5.188 -0.0396  0.2104 -0.6409
12301WAT      O49923   1.670   0.036   4.073  0.3988  0.2742 -0.0200
12301WAT     H149924   1.667   0.119   4.097  1.6217  0.5065 -0.5679
12301WAT     H249925   1.705  -0.005   4.142 -1.3008 -0.0217  0.7206
12301WAT    EPW49926   1.675   0.042   4.087  0.3284  0.2648  0.0084
12302WAT      O49927   2.538   0.706   5.849 -0.0458  0.1977  0.0286
12302WAT     H149928   2.548   0.751   5.775 -2.2920 -2.3638 -2.0400
12302WAT     H249929   2.476   0.751   5.892 -0.7965  0.2246 -1.0381
12302WAT    EPW49930   2.530   0.719   5.845 -0.4885 -0.1767 -0.4346
12303WAT      O49931   3.110   1.073   4.929  0.5265 -0.1673 -0.5409
12303WAT     H149932   3.137   1.126   4.993  0.4390 -0.0089 -0.6350
12303WAT     H249933   3.184   1.038   4.899  0.4708 -1.3045  0.5651
12303WAT    EPW49934   3.125   1.076   4.934  0.5054 -0.3119 -0.3914
12304WAT      O49935   2.978   0.451   3.648  0.1535 -0.7078 -0.1461
12304WAT     H149936   2.940   0.527   3.665  1.7041  0.3021 -1.0348
12304WAT     H249937   3.028   0.437   3.719 -0.1843 -0.9449  0.0482
12304WAT    EPW49938   2.980   0.460   3.661  0.3326 -0.5937 -0.2487
12305WAT      O49939   0.896   7.668   3.851  0.1923  0.1699 -0.4289
12305WAT     H149940   0.958   7.721   3.881 -0.6003  1.2425 -0.6505
12305WAT     H249941   0.916   7.660   3.766 -1.1944  2.3308 -1.0272
12305WAT    EPW49942   0.908   7.675   3.843 -0.1296  0.6476 -0.5500
12306WAT      O49943   0.928   1.418   5.035  0.0814  0.3397 -0.4967
12306WAT     H149944   0.896   1.494   5.062  1.3354  0.2623  1.4150
12306WAT     H249945   0.910   1.364   5.101  1.4795 -0.3944 -0.6860
12306WAT    EPW49946   0.921   1.421   5.048  0.4732  0.2198 -0.2423
12307WAT      O49947   3.411   0.155   5.226 -0.4078 -0.7661  0.0287
12307WAT     H149948   3.493   0.173   5.204 -0.6480 -0.2831 -0.5148
12307WAT     H249949   3.364   0.187   5.158 -1.1797  0.7258  1.1875
12307WAT    EPW49950   3.416   0.163   5.212 -0.5573 -0.4743  0.1196
12308WAT      O49951   1.249   7.053   3.244 -0.1239 -0.2170  0.0121
12308WAT     H149952   1.220   6.971   3.255 -0.3662 -0.0985  0.2825
12308WAT     H249953   1.188   7.089   3.193 -0.4644  0.0375  0.5913
12308WAT    EPW49954   1.236   7.046   3.238 -0.2100 -0.1619  0.1376
12309WAT      O49955   2.624   0.102   3.309  0.4045  0.0734 -0.5900
12309WAT     H149956   2.638   0.187   3.297  0.4882  0.0481 -0.6746
12309WAT     H249957   2.662   0.065   3.239  0.8285 -0.0708 -0.2839
12309WAT    EPW49958   2.632   0.109   3.297  0.4795  0.0483 -0.5573
12310WAT      O49959   1.162   0.828   4.878 -0.3925 -0.4500 -0.0224
12310WAT     H149960   1.185   0.802   4.959  0.3530  0.1648 -0.0375
12310WAT     H249961   1.120   0.758   4.847 -2.3855 -0.0762  1.5677
12310WAT    EPW49962   1.159   0.814   4.886 -0.5768 -0.3040  0.2103
12311WAT      O49963   1.490   1.165   6.591 -0.5569  0.1216  0.0171
12311WAT     H149964   1.421   1.116   6.610 -1.2887  0.9662 -0.3704
12311WAT     H249965   1.493   1.163   6.504 -0.3944  0.5031  0.0129
12311WAT    EPW49966   1.480   1.158   6.581 -0.6410  0.3027 -0.0407
12312WAT      O49967   2.768   1.318   6.160 -0.5193  0.6056 -0.0910
12312WAT     H149968   2.855   1.325   6.170 -0.2198  1.3865 -2.4520
12312WAT     H249969   2.745   1.394   6.125 -2.1094  0.2669  0.1410
12312WAT    EPW49970   2.778   1.330   6.156 -0.7100  0.6709 -0.4055
12313WAT      O49971   1.257   0.747   5.115  0.3694  0.7124  0.0183
12313WAT     H149972   1.259   0.772   5.199 -0.4308  0.9169 -0.0128
12313WAT     H249973   1.299   0.671   5.115 -1.0946 -0.1589  0.9229
12313WAT    EPW49974   1.263   0.740   5.127  0.0349  0.6139  0.1474
12314WAT      O49975   1.770   0.823   4.265  0.0119 -0.2710 -0.1953
12314WAT     H149976   1.854   0.843   4.282  0.5300 -0.9585 -1.7688
12314WAT     H249977   1.771   0.736   4.257 -0.9439 -0.3194  0.1460
12314WAT    EPW49978   1.783   0.813   4.267 -0.0527 -0.3797 -0.3773
12315WAT      O49979   1.212   6.566   7.529 -0.4563  0.1992  0.0273
12315WAT     H149980   1.201   6.482   7.546 -1.4433  0.3490  0.1652
12315WAT     H249981   1.135   6.591   7.496  0.6121  0.4599 -2.5047
12315WAT    EPW49982   1.199   6.557   7.527 -0.4443  0.2599 -0.3263
12316WAT      O49983   2.072   6.607   6.275  0.0053 -0.3159 -0.4510
12316WAT     H149984   2.040   6.679   6.313  0.5406  0.3579 -1.2421
12316WAT     H249985   2.113   6.566   6.340 -0.4660 -0.0004  0.0524
12316WAT    EPW49986   2.073   6.611   6.290  0.0148 -0.1698 -0.4935
12317WAT      O49987   1.044   7.170   3.117 -0.0771  0.0106  0.7531
12317WAT     H149988   1.024   7.255   3.109  1.0392  0.3871  1.7396
12317WAT     H249989   1.006   7.134   3.047 -1.0613  1.2250  0.6184
12317WAT    EPW49990   1.035   7.177   3.105 -0.0576  0.2456  0.8789
12318WAT      O49991   2.085   1.249   4.874  0.6350 -0.3784 -0.0407
12318WAT     H149992   1.999   1.246   4.859  0.3294 -2.6747  1.5316
12318WAT     H249993   2.091   1.275   4.957  1.3927 -1.0124  0.1164
12318WAT    EPW49994   2.073   1.252   4.884  0.7018 -0.8113  0.2148
12319WAT      O49995   1.500   7.254   4.647 -0.2667  0.2991 -0.1429
12319WAT     H149996   1.493   7.176   4.685  2.4774 -0.1760 -0.4148
12319WAT     H249997   1.481   7.239   4.564 -1.7902  0.3942  0.1656
12319WAT    EPW49998   1.496   7.240   4.640 -0.0864  0.2430 -0.1375
12320WAT      O49999   1.854   0.299   3.925  0.3417 -0.7934  0.5068
12320WAT     H150000   1.796   0.361   3.944  0.1674 -0.6958 -0.3260
12320WAT     H250001   1.931   0.334   3.948  0.0536 -1.1046  2.0693
12320WAT    EPW50002   1.857   0.313   3.931  0.2734 -0.8250  0.6146
12321WAT      O50003   2.136   1.082   2.305  0.4062 -0.6139 -0.0750
12321WAT     H150004   2.176   1.151   2.340  1.2051 -0.0113 -2.0045
12321WAT     H250005   2.066   1.117   2.266  0.9654 -0.7987 -1.3049
12321WAT    EPW50006   2.132   1.097   2.304  0.6068 -0.5522 -0.5417
12322WAT      O50007   2.929   6.692   6.087  0.1656  0.3241 -0.4241
12322WAT     H150008   2.854   6.731   6.107  0.2720  0.4044 -0.1814
12322WAT     H250009   2.905   6.629   6.031 -0.8052 -2.6505  2.9292
12322WAT    EPW50010   2.914   6.688   6.082  0.0379 -0.1034  0.1071
12323WAT      O50011   1.609   0.301   6.681 -0.3114  0.4312  0.6136
12323WAT     H150012   1.684   0.345   6.669 -0.4900  0.6728  0.3648
12323WAT     H250013   1.618   0.232   6.628 -0.3834  0.6109  0.3632
12323WAT    EPW50014   1.622   0.298   6.671 -0.3484  0.4934  0.5399
12324WAT      O50015   1.534   0.373   4.942 -0.3993  0.0572  0.2850
12324WAT     H150016   1.605   0.418   4.917  0.1173 -1.1336 -0.4499
12324WAT     H250017   1.505   0.336   4.869 -0.5112 -1.2007  0.9321
12324WAT    EPW50018   1.541   0.374   4.928 -0.3395 -0.3045  0.2721
12325WAT      O50019   3.177   1.220   5.173 -0.5204 -0.2667  0.4710
12325WAT     H150020   3.101   1.249   5.204 -0.3603  0.8300 -0.1468
12325WAT     H250021   3.206   1.285   5.123 -0.8217 -2.0151 -2.1384
12325WAT    EPW50022   3.170   1.234   5.170 -0.5412 -0.3630 -0.0058
12326WAT      O50023   1.348   0.085   3.896  0.0463  0.3868  0.6078
12326WAT     H150024   1.345   0.022   3.836 -0.9090  0.2393  0.7908
12326WAT     H250025   1.433   0.103   3.903  0.1199  1.4450 -1.8611
12326WAT    EPW50026   1.360   0.078   3.888 -0.0839  0.5213  0.2701
12327WAT      O50027   1.717   0.813   5.549  0.0420 -0.5581  0.3737
12327WAT     H150028   1.791   0.839   5.588  0.0942 -2.0943  1.3966
12327WAT     H250029   1.689   0.885   5.508  2.5231 -0.1035 -0.7330
12327WAT    EPW50030   1.724   0.827   5.548  0.4162 -0.7179  0.3613
12328WAT      O50031   1.199   1.428   6.223  0.0895  0.2616 -0.0020
12328WAT     H150032   1.219   1.450   6.141  2.1767  0.4919  0.5138
12328WAT     H250033   1.233   1.493   6.271 -0.4804 -0.2134  1.0900
12328WAT    EPW50034   1.207   1.441   6.218  0.3136  0.2255  0.2355
12329WAT      O50035   3.234   1.413   5.509  0.6042  0.7390  0.0651
12329WAT     H150036   3.290   1.346   5.502 -1.1627 -0.8756  0.6073
12329WAT     H250037   3.226   1.442   5.427 -0.2730 -1.1893 -0.5903
12329WAT    EPW50038   3.241   1.407   5.496  0.2136  0.2157  0.0484
12330WAT      O50039   1.071   1.695   0.593 -0.4005  0.2264 -0.0359
12330WAT     H150040   1.056   1.614   0.564 -0.6625  0.2821 -0.0525
12330WAT     H250041   1.047   1.746   0.526  0.7471  0.2800 -0.4362
12330WAT    EPW50042   1.066   1.691   0.578 -0.2697  0.2426 -0.0975
12331WAT      O50043   1.333   0.298   3.634 -0.5681  0.3403 -0.0261
12331WAT     H150044   1.353   0.383   3.628  0.2205  0.1463 -0.2369
12331WAT     H250045   1.361   0.275   3.713  0.4428 -0.0284 -0.4801
12331WAT    EPW50046   1.340   0.307   3.644 -0.3023  0.2572 -0.1243
12332WAT      O50047   2.811   0.539   5.221 -0.7530  0.6247  0.0732
12332WAT     H150048   2.828   0.573   5.143 -1.6076 -0.5019 -0.6356
12332WAT     H250049   2.785   0.608   5.268  0.9928  1.5386 -0.2238
12332WAT    EPW50050   2.810   0.554   5.217 -0.6213  0.5933 -0.0754
12333WAT      O50051   2.378   7.255   3.822 -0.7326  0.1744 -0.4004
12333WAT     H150052   2.439   7.220   3.770 -1.5489 -0.2740 -1.0871
12333WAT     H250053   2.358   7.190   3.876  0.7327  0.8961  1.1043
12333WAT    EPW50054   2.384   7.240   3.822 -0.6367  0.2148 -0.2795
12334WAT      O50055   0.877   1.642   6.431  0.0749  0.0023 -0.3816
12334WAT     H150056   0.802   1.679   6.457 -1.1563 -1.7257 -1.2743
12334WAT     H250057   0.932   1.659   6.497 -0.2720  3.5623 -0.8320
12334WAT    EPW50058   0.874   1.650   6.445 -0.1582  0.2729 -0.5800
12335WAT      O50059   1.218   6.433   5.626 -0.3754 -0.3743  0.4985
12335WAT     H150060   1.223   6.503   5.574  0.0507 -0.0876  0.9141
12335WAT     H250061   1.175   6.463   5.696 -1.4540 -0.9081  0.0826
12335WAT    EPW50062   1.213   6.448   5.628 -0.4717 -0.4108  0.4984
12336WAT      O50063   0.734   0.009   5.217 -0.2564  0.2284  0.0839
12336WAT     H150064   0.740  -0.078   5.218 -3.1572 -0.0676  0.6291
12336WAT     H250065   0.713   0.027   5.135 -2.5120  0.0627  0.5738
12336WAT    EPW50066   0.732  -0.001   5.205 -1.0181  0.1602  0.2368
12337WAT      O50067   1.939   0.125   6.597 -0.4400  0.0115 -0.2184
12337WAT     H150068   1.939   0.057   6.542  0.6408 -0.4375  0.3254
12337WAT     H250069   1.900   0.094   6.668  0.0084 -0.0152  0.0131
12337WAT    EPW50070   1.933   0.110   6.599 -0.2141 -0.0588 -0.1039
12338WAT      O50071   2.286   0.420   6.152  1.2470  0.1943 -0.3394
12338WAT     H150072   2.365   0.397   6.123  3.0966  1.1942  3.2985
12338WAT     H250073   2.286   0.507   6.143  1.3041  0.3728  1.1443
12338WAT    EPW50074   2.298   0.429   6.146  1.5286  0.3684  0.4172
12339WAT      O50075   1.775   0.556   4.278  0.4495 -0.5837  0.5357
12339WAT     H150076   1.735   0.544   4.354 -0.3969 -1.0452  0.0391
12339WAT     H250077   1.856   0.528   4.292 -0.1755 -2.3935  0.7769
12339WAT    EPW50078   1.781   0.550   4.291  0.2322 -0.9192  0.4980
12340WAT      O50079   2.616   1.290   5.034 -0.4608 -1.2079  0.1333
12340WAT     H150080   2.560   1.344   4.997  0.5693 -1.0874 -1.3315
12340WAT     H250081   2.568   1.249   5.094 -1.1856  1.5440  1.5846
12340WAT    EPW50082   2.601   1.292   5.037 -0.4157 -0.7836  0.1313
12341WAT      O50083   2.290   7.490   5.951 -0.2291  0.3200 -0.8667
12341WAT     H150084   2.275   7.573   5.971 -0.6912 -0.0353  0.3511
12341WAT     H250085   2.366   7.473   5.990 -0.0481  0.2106 -1.2578
12341WAT    EPW50086   2.299   7.500   5.960 -0.2706  0.2513 -0.7445
12342WAT      O50087   3.290   0.034   6.706 -0.2855  0.4971 -0.3219
12342WAT     H150088   3.324   0.088   6.646 -0.6508  0.1296 -0.8624
12342WAT     H250089   3.231  -0.012   6.662  0.9129 -1.2485 -0.1847
12342WAT    EPW50090   3.287   0.035   6.691 -0.1624  0.1849 -0.3815
12343WAT      O50091   1.246   7.616   4.110 -0.7033  0.0239  0.8350
12343WAT     H150092   1.269   7.659   4.038 -2.3790 -0.9584 -0.3317
12343WAT     H250093   1.266   7.673   4.174 -0.4712  1.4783 -0.4684
12343WAT    EPW50094   1.252   7.631   4.109 -0.9166  0.0937  0.4701
12344WAT      O50095   1.065   0.929   5.565  0.6295  0.1713  1.0298
12344WAT     H150096   1.014   0.879   5.616  1.8091 -0.1583  1.9291
12344WAT     H250097   1.009   0.963   5.507 -0.7849  0.5367  2.5240
12344WAT    EPW50098   1.049   0.927   5.564  0.5948  0.1766  1.3834
12345WAT      O50099   3.538   7.465   6.011  0.3419  0.1281 -0.0442
12345WAT     H150100   3.536   7.454   5.925  0.4825  2.0434 -0.3229
12345WAT     H250101   3.480   7.407   6.041  0.2202 -0.4814 -1.4151
12345WAT    EPW50102   3.529   7.454   6.003  0.3447  0.3210 -0.2879
12346WAT      O50103   2.778   0.259   6.650  0.0136  0.4041  0.3375
12346WAT     H150104   2.708   0.289   6.606 -0.0167  0.6374  0.5364
12346WAT     H250105   2.803   0.189   6.605 -0.7209 -0.0425  0.6054
12346WAT    EPW50106   2.771   0.253   6.637 -0.0994  0.3726  0.4065
12347WAT      O50107   1.503   0.454   5.698 -0.0168 -0.0017  0.0291
12347WAT     H150108   1.567   0.397   5.679  0.2674  0.6081 -0.8841
12347WAT     H250109   1.432   0.417   5.665 -0.1008 -0.5243  0.7565
12347WAT    EPW50110   1.502   0.440   5.691  0.0128  0.0111  0.0016
12348WAT      O50111   2.076   0.964   4.797 -0.3978 -0.2747  0.3285
12348WAT     H150112   2.078   1.046   4.827  1.3235 -0.6366  1.3784
12348WAT     H250113   2.155   0.953   4.763 -0.5879 -1.5111  0.2398
12348WAT    EPW50114   2.088   0.975   4.797 -0.1716 -0.5108  0.4705
12349WAT      O50115   0.507   7.522   6.217 -0.3522  0.3440 -0.1253
12349WAT     H150116   0.457   7.593   6.222  0.5889  1.3656 -2.9664
12349WAT     H250117   0.559   7.539   6.149  2.4617 -1.5373  1.3806
12349WAT    EPW50118   0.507   7.535   6.208  0.2025  0.2170 -0.3225
12350WAT      O50119   1.627   1.242   5.066 -0.4566 -0.5356 -0.2368
12350WAT     H150120   1.616   1.265   4.982  2.9819  0.1133 -0.6491
12350WAT     H250121   1.683   1.175   5.062  2.5362  1.6073  1.4844
12350WAT    EPW50122   1.634   1.236   5.053  0.4934 -0.1232 -0.0435
12351WAT      O50123   1.219   7.042   5.453 -0.6566  0.1923  0.2480
12351WAT     H150124   1.210   7.054   5.367 -1.4255  0.0114  0.3026
12351WAT     H250125   1.305   7.034   5.463 -0.5572  0.2554 -0.4996
12351WAT    EPW50126   1.231   7.043   5.442 -0.7555  0.1749  0.1456
12352WAT      O50127   1.275   1.504   5.680 -0.6516 -0.1380  0.1164
12352WAT     H150128   1.315   1.579   5.661  0.8124 -1.1912 -1.2240
12352WAT     H250129   1.214   1.528   5.738 -1.1600  2.3128 -1.2665
12352WAT    EPW50130   1.272   1.519   5.686 -0.5104  0.0684 -0.2859
12353WAT      O50131   2.014   0.312   3.353 -0.1684  0.1271 -0.3232
12353WAT     H150132   1.997   0.384   3.308 -0.8030  1.2203  1.5352
12353WAT     H250133   2.040   0.255   3.293  0.2539  1.8656 -1.8687
12353WAT    EPW50134   2.015   0.314   3.338 -0.1998  0.5454 -0.2770
12354WAT      O50135   2.462   0.520   5.166 -1.1104  0.2291 -0.5816
12354WAT     H150136   2.470   0.444   5.124  0.8524  0.9972 -1.7465
12354WAT     H250137   2.474   0.579   5.104  0.8019  1.4247  0.8099
12354WAT    EPW50138   2.465   0.517   5.151 -0.5380  0.5192 -0.5481
12355WAT      O50139   2.876   0.983   4.818 -0.4530  0.2910  0.1942
12355WAT     H150140   2.831   1.048   4.780 -1.8149  0.2216  1.5802
12355WAT     H250141   2.932   1.025   4.870 -0.3007  0.3674 -0.0315
12355WAT    EPW50142   2.877   0.999   4.820 -0.6317  0.2920  0.3656
12356WAT      O50143   1.569   1.567   2.728 -0.3516  0.2677  0.3243
12356WAT     H150144   1.625   1.631   2.747 -0.5573  0.6836 -0.3873
12356WAT     H250145   1.503   1.610   2.690  0.4828 -0.5606 -2.2587
12356WAT    EPW50146   1.567   1.583   2.725 -0.2587  0.2067 -0.1623
12357WAT      O50147   2.691   0.947   2.429 -0.3192  0.1988 -0.8068
12357WAT     H150148   2.671   0.996   2.498 -1.3649 -2.0998  0.6431
12357WAT     H250149   2.773   0.923   2.445 -0.6636 -0.5914 -0.1451
12357WAT    EPW50150   2.700   0.951   2.442 -0.5245 -0.2575 -0.4949
12358WAT      O50151   0.602   7.394   3.982  0.3308 -0.0238 -0.4058
12358WAT     H150152   0.574   7.377   4.064 -0.8651  1.2770 -0.5012
12358WAT     H250153   0.584   7.320   3.939 -0.7269 -0.1060  0.1304
12358WAT    EPW50154   0.595   7.380   3.988 -0.0021  0.1562 -0.3407
12359WAT      O50155   2.404   0.135   5.126  0.1362  0.5596  0.0268
12359WAT     H150156   2.387   0.050   5.115  1.3592  0.2287  0.5681
12359WAT     H250157   2.453   0.138   5.198  1.1832  1.5870 -0.6867
12359WAT    EPW50158   2.408   0.123   5.135  0.4715  0.6625  0.0013
12360WAT      O50159   1.731   0.505   4.823  0.2369 -0.0078  0.0758
12360WAT     H150160   1.745   0.522   4.739 -2.0151  0.7964 -0.2201
12360WAT     H250161   1.807   0.473   4.851  1.1102 -0.0944 -2.1961
12360WAT    EPW50162   1.744   0.503   4.815  0.0332  0.0982 -0.3035
12361WAT      O50163   1.105   1.800   4.519 -0.0809 -0.2336 -0.2037
12361WAT     H150164   1.186   1.798   4.552  0.4090 -0.3573 -1.3453
12361WAT     H250165   1.102   1.730   4.467 -0.9370 -0.2445 -0.1593
12361WAT    EPW50166   1.117   1.789   4.516 -0.1350 -0.2535 -0.3658
12362WAT      O50167   2.333   1.395   5.737  0.2220  0.0085  0.0853
12362WAT     H150168   2.310   1.468   5.778 -2.6698 -0.5844 -0.2774
12362WAT     H250169   2.351   1.421   5.656  0.9944  0.5142  0.4071
12362WAT    EPW50170   2.332   1.409   5.731 -0.0911 -0.0044  0.0792
12363WAT      O50171   0.997   6.555   5.128  0.2830  0.3023  0.3627
12363WAT     H150172   0.996   6.526   5.210  0.7343  2.0141  1.0214
12363WAT     H250173   0.917   6.537   5.098  0.1234 -0.3626  1.1639
12363WAT    EPW50174   0.985   6.548   5.136  0.3261  0.4570  0.5784
12364WAT      O50175   2.581   0.091   5.365 -0.2350 -0.5373 -0.7298
12364WAT     H150176   2.526   0.024   5.380  1.0603 -1.2113  1.4339
12364WAT     H250177   2.616   0.106   5.443  1.9525  0.5110 -1.8364
12364WAT    EPW50178   2.578   0.083   5.379  0.2795 -0.4820 -0.5736
12365WAT      O50179   1.258   1.121   6.273  0.2594 -0.1092 -0.1111
12365WAT     H150180   1.229   1.202   6.258 -1.3464 -1.0262 -2.7154
12365WAT     H250181   1.186   1.072   6.271  1.3307 -1.7979 -0.2186
12365WAT    EPW50182   1.243   1.126   6.271  0.1805 -0.4941 -0.5117
12366WAT      O50183   1.507   2.181   6.751  0.1570 -0.3369 -0.2342
12366WAT     H150184   1.432   2.201   6.790  0.7501  0.4913  0.5180
12366WAT     H250185   1.486   2.113   6.701 -1.4086  0.7367 -1.1176
12366WAT    EPW50186   1.493   2.174   6.750  0.0133 -0.0560 -0.2536
12367WAT      O50187   0.548   1.118   4.518 -0.1032  0.5892 -0.2691
12367WAT     H150188   0.562   1.108   4.603  0.5919 -3.4283 -0.6439
12367WAT     H250189   0.622   1.153   4.489  0.4334  0.1644  0.5570
12367WAT    EPW50190   0.561   1.122   4.526  0.0788 -0.0670 -0.2024
12368WAT      O50191   1.213   0.143   2.353  0.8177  0.3400 -0.2043
12368WAT     H150192   1.195   0.057   2.354  0.5819  0.3861 -0.2686
12368WAT     H250193   1.274   0.152   2.414  0.0107  0.2994  0.6282
12368WAT    EPW50194   1.219   0.131   2.362  0.6636  0.3408 -0.0908
12369WAT      O50195   2.365   7.577   5.073 -0.6728 -0.8656  0.0507
12369WAT     H150196   2.281   7.552   5.069 -1.1924  0.6965  0.1713
12369WAT     H250197   2.379   7.612   4.994 -0.5373 -0.0454  0.4217
12369WAT    EPW50198   2.354   7.579   5.060 -0.7295 -0.5137  0.1233
12370WAT      O50199   3.636   7.117   6.847  0.1298  0.0206 -0.1865
12370WAT     H150200   3.586   7.174   6.804 -0.1358 -0.6671 -0.8064
12370WAT     H250201   3.708   7.111   6.797  0.1351 -0.2214 -0.1504
12370WAT    EPW50202   3.640   7.125   6.833  0.0913 -0.1167 -0.2727
12371WAT      O50203   1.376   0.131   4.269 -0.4965 -0.3819 -0.3549
12371WAT     H150204   1.342   0.203   4.233 -0.4670  0.5151  1.3287
12371WAT     H250205   1.459   0.153   4.285 -0.1739 -1.1923 -0.8358
12371WAT    EPW50206   1.383   0.145   4.266 -0.4445 -0.3691 -0.1772
12372WAT      O50207   2.233   7.608   6.837  0.1990  0.1338 -0.3067
12372WAT     H150208   2.181   7.554   6.883 -0.7481  1.3101  0.0424
12372WAT     H250209   2.250   7.562   6.765 -2.3375  0.1054 -1.0055
12372WAT    EPW50210   2.228   7.593   6.833 -0.3156  0.3034 -0.3584
12373WAT      O50211   0.827   1.782   5.732  0.2430  0.3008 -0.5236
12373WAT     H150212   0.778   1.746   5.670  2.4740 -1.9279 -1.1900
12373WAT     H250213   0.791   1.755   5.806 -0.7279  0.5081 -0.9084
12373WAT    EPW50214   0.815   1.773   5.734  0.4291  0.0022 -0.6789
12374WAT      O50215   2.597   0.552   2.479  0.5783 -0.1952  0.1132
12374WAT     H150216   2.548   0.617   2.449 -0.5960  0.3949  3.0330
12374WAT     H250217   2.638   0.523   2.407 -2.4033  0.6343 -2.1229
12374WAT    EPW50218   2.596   0.557   2.464 -0.0356  0.0145  0.2142
12375WAT      O50219   1.462   1.072   7.041  0.0291  0.6448 -0.4413
12375WAT     H150220   1.401   1.122   7.079  1.0123  0.8621  0.9476
12375WAT     H250221   1.534   1.088   7.089  1.6784  1.7462 -3.0800
12375WAT    EPW50222   1.464   1.082   7.054  0.4180  0.8396 -0.6259
12376WAT      O50223   1.188   0.355   1.675  0.1444  0.1080 -0.0845
12376WAT     H150224   1.261   0.391   1.706  0.0509 -0.0623  0.3407
12376WAT     H250225   1.157   0.309   1.743 -0.8471  0.9306  0.0465
12376WAT    EPW50226   1.194   0.353   1.690 -0.0159  0.2044 -0.0023
12377WAT      O50227   2.093   7.375   1.460 -0.5181  0.1578  0.0135
12377WAT     H150228   2.067   7.421   1.530 -1.6108 -2.4622  1.4521
12377WAT     H250229   2.107   7.437   1.400 -1.4607  2.3958  1.9169
12377WAT    EPW50230   2.091   7.391   1.461 -0.8188  0.1014  0.5072
12378WAT      O50231   1.333   0.549   2.975 -0.2339  0.6525  0.2487
12378WAT     H150232   1.342   0.473   3.018 -0.7906  0.1000 -0.5860
12378WAT     H250233   1.379   0.605   3.023  0.5900 -0.3165  0.6150
12378WAT    EPW50234   1.341   0.546   2.988 -0.1944  0.4278  0.1795
12379WAT      O50235   1.890   1.216   3.015  0.4200 -0.3298 -0.1982
12379WAT     H150236   1.886   1.251   2.935  0.5506  0.6013  0.1895
12379WAT     H250237   1.808   1.221   3.044  0.6299  0.6595  0.2630
12379WAT    EPW50238   1.877   1.222   3.008  0.4703 -0.0461 -0.0728
12380WAT      O50239   0.808   7.534   4.300  0.3900  0.2780  0.3291
12380WAT     H150240   0.788   7.619   4.300 -1.2725 -0.0655 -0.9942
12380WAT     H250241   0.818   7.514   4.216  0.7784 -0.8401  0.6119
12380WAT    EPW50242   0.806   7.543   4.288  0.2018  0.0621  0.1754
12381WAT      O50243   0.588   0.340   3.827 -0.1180  0.2617 -0.1157
12381WAT     H150244   0.526   0.283   3.852 -0.4775  0.9471  0.6114
12381WAT     H250245   0.554   0.417   3.848  2.2733  0.5825  3.4940
12381WAT    EPW50246   0.574   0.343   3.834  0.1821  0.4103  0.5249
12382WAT      O50247   2.668   1.661   4.312 -0.5936  0.5943 -0.0294
12382WAT     H150248   2.635   1.667   4.231 -0.2929 -1.4050 -0.3424
12382WAT     H250249   2.673   1.744   4.338  0.0201  1.3499 -2.3481
12382WAT    EPW50250   2.664   1.674   4.304 -0.4585  0.4106 -0.4182
12383WAT      O50251   2.536   0.474   3.028 -0.0142  0.5772  0.5792
12383WAT     H150252   2.510   0.427   2.960 -1.5241 -0.8329  2.0368
12383WAT     H250253   2.503   0.553   3.013  1.5499  0.9462 -1.3299
12383WAT    EPW50254   2.528   0.479   3.016 -0.0062  0.4234  0.5125
12384WAT      O50255   2.986   7.517   2.617 -0.0318 -0.1048 -0.3484
12384WAT     H150256   2.906   7.489   2.637  0.1225 -0.4957 -0.2750
12384WAT     H250257   3.037   7.449   2.635  0.4702  0.5536  0.8123
12384WAT    EPW50258   2.982   7.503   2.623  0.0651 -0.0653 -0.1661
12385WAT      O50259   2.596   0.349   2.058 -0.2392  0.9203  0.3229
12385WAT     H150260   2.615   0.339   1.974  0.6070 -0.1488  0.6229
12385WAT     H250261   2.642   0.287   2.097 -2.9214 -0.6433  1.3043
12385WAT    EPW50262   2.605   0.339   2.051 -0.5104  0.5314  0.5122
12386WAT      O50263   2.554   7.594   2.145 -0.0713  0.6223  0.2655
12386WAT     H150264   2.535   7.676   2.169  1.6249  1.0923  0.1222
12386WAT     H250265   2.476   7.557   2.136 -0.8581  1.7176  2.0318
12386WAT    EPW50266   2.540   7.601   2.147  0.0631  0.8535  0.5052
12387WAT      O50267   0.902   0.410   2.539  0.0794 -0.3371  0.3285
12387WAT     H150268   0.969   0.438   2.587  0.6548  0.6786 -1.0066
12387WAT     H250269   0.876   0.481   2.496 -0.9625 -1.0244 -0.2245
12387WAT    EPW50270   0.908   0.424   2.540  0.0105 -0.2886  0.0496
12388WAT      O50271   1.999   0.176   2.292 -0.5464 -0.2481 -0.5645
12388WAT     H150272   1.953   0.233   2.339 -1.0107  0.1037 -1.4120
12388WAT     H250273   2.064   0.224   2.260 -1.3483  0.0239 -1.8816
12388WAT    EPW50274   2.001   0.191   2.294 -0.7334 -0.1560 -0.8842
12389WAT      O50275   1.224   0.330   4.131 -0.6896  0.2300 -0.2612
12389WAT     H150276   1.281   0.356   4.070 -0.3157  0.1477  0.0473
12389WAT     H250277   1.149   0.322   4.087 -1.0593  2.6464 -0.2239
12389WAT    EPW50278   1.221   0.333   4.116 -0.6890  0.5748 -0.2101
12390WAT      O50279   2.395   7.692   2.775 -0.2799 -0.0270 -0.7390
12390WAT     H150280   2.405   7.663   2.856  1.3612 -0.7255 -1.1443
12390WAT     H250281   2.310   7.680   2.759 -0.3889 -1.0353  0.4444
12390WAT    EPW50282   2.384   7.686   2.784 -0.0536 -0.2791 -0.6240
12391WAT      O50283   2.003   2.769   2.778  0.1958 -0.1593  0.4605
12391WAT     H150284   1.979   2.697   2.821  2.1578 -0.7455  0.6445
12391WAT     H250285   1.999   2.745   2.694  0.1835 -0.2528  0.4879
12391WAT    EPW50286   1.999   2.755   2.772  0.4839 -0.2597  0.4917
12392WAT      O50287   1.820   0.347   3.644  0.3353  0.6332  0.0242
12392WAT     H150288   1.854   0.314   3.717 -2.1477 -0.0286  0.9735
12392WAT     H250289   1.871   0.313   3.581  0.0819 -2.1899  1.1867
12392WAT    EPW50290   1.833   0.337   3.645 -0.0689  0.1184  0.3361
12393WAT      O50291   0.895   0.712   3.058 -0.0520 -0.8015 -0.3036
12393WAT     H150292   0.886   0.799   3.049 -2.0243 -1.0148 -0.9019
12393WAT     H250293   0.956   0.692   2.999  0.0991  0.1064 -0.4823
12393WAT    EPW50294   0.903   0.722   3.048 -0.3210 -0.6989 -0.4184
12394WAT      O50295   1.502   1.021   2.118  0.0392 -0.3565  0.3059
12394WAT     H150296   1.539   1.024   2.039 -0.3158 -0.4220  0.1359
12394WAT     H250297   1.479   1.104   2.132 -0.0314 -0.3717  0.2779
12394WAT    EPW50298   1.504   1.034   2.109 -0.0237 -0.3684  0.2766
12395WAT      O50299   2.209   7.293   3.614 -0.3920 -0.2997  0.1246
12395WAT     H150300   2.132   7.253   3.623 -0.3886 -0.3614 -0.1250
12395WAT     H250301   2.244   7.287   3.694 -0.9138  0.2841  0.4097
12395WAT    EPW50302   2.203   7.287   3.627 -0.4686 -0.2226  0.1299
12396WAT      O50303   2.860   2.215   3.599  0.3758  0.1311  0.4382
12396WAT     H150304   2.901   2.175   3.664  1.3607 -0.6346 -0.6135
12396WAT     H250305   2.805   2.154   3.570 -1.3226  1.0266  1.6013
12396WAT    EPW50306   2.858   2.200   3.604  0.2704  0.1503  0.4547
12397WAT      O50307   2.174   0.866   2.138  0.0524 -0.0840  0.2085
12397WAT     H150308   2.158   0.927   2.199 -0.6761 -1.6260  1.6610
12397WAT     H250309   2.191   0.794   2.185  1.2394 -0.9324 -1.4299
12397WAT    EPW50310   2.174   0.864   2.154  0.1201 -0.4371  0.1811
12398WAT      O50311   1.592   7.591   3.348 -0.3552 -0.8584 -0.2990
12398WAT     H150312   1.581   7.626   3.427 -1.3454 -0.4763 -0.5931
12398WAT     H250313   1.649   7.526   3.363  0.3366 -0.0922  0.5193
12398WAT    EPW50314   1.598   7.586   3.362 -0.3993 -0.6888 -0.2216
12399WAT      O50315   1.628   0.024   5.442  0.4132 -0.2556  0.1814
12399WAT     H150316   1.655   0.084   5.384 -1.2645 -0.1082 -0.5293
12399WAT     H250317   1.629   0.066   5.518  1.1835  0.0342  0.0159
12399WAT    EPW50318   1.632   0.039   5.444  0.2792 -0.1910  0.0520
12400WAT      O50319   1.791   7.380   3.299  0.4201  1.0138 -0.5859
12400WAT     H150320   1.779   7.296   3.280 -0.5197  1.1900 -0.8475
12400WAT     H250321   1.876   7.393   3.283  0.9808 -0.2808  1.1393
12400WAT    EPW50322   1.802   7.369   3.294  0.3641  0.8486 -0.3697
12401WAT      O50323   1.438   0.419   1.782  0.0630  0.2251 -0.0895
12401WAT     H150324   1.461   0.468   1.851  0.0301 -1.3075  1.0553
12401WAT     H250325   1.467   0.339   1.803  1.3309 -0.0510 -2.4806
12401WAT    EPW50326   1.446   0.414   1.795  0.2454 -0.0421 -0.2736
12402WAT      O50327   3.214   1.369   2.310 -0.1141 -0.3959  0.2647
12402WAT     H150328   3.152   1.346   2.254 -1.0104  2.7691 -0.2439
12402WAT     H250329   3.287   1.365   2.263 -0.7000  1.0468 -0.8522
12402WAT    EPW50330   3.215   1.365   2.295 -0.3330  0.2848  0.0246
12403WAT      O50331   1.554   7.260   2.999 -0.5533  0.0769  0.1693
12403WAT     H150332   1.551   7.232   2.917 -1.0911  1.0399 -0.1577
12403WAT     H250333   1.514   7.337   2.996  0.3762  0.6325  1.1350
12403WAT    EPW50334   1.548   7.267   2.986 -0.4954  0.3012  0.2637
12404WAT      O50335   0.508   0.289   4.367  0.0108  0.2358  0.2608
12404WAT     H150336   0.446   0.248   4.412  0.6856 -0.8879  0.2059
12404WAT     H250337   0.547   0.225   4.322  0.4038  1.0905 -0.6736
12404WAT    EPW50338   0.504   0.274   4.367  0.1685  0.1960  0.1147
12405WAT      O50339   1.707   0.686   1.628 -0.4412  0.3295 -0.5281
12405WAT     H150340   1.669   0.631   1.573  0.0631 -0.2279 -0.3329
12405WAT     H250341   1.785   0.650   1.642 -0.5967  0.4102  0.6318
12405WAT    EPW50342   1.713   0.673   1.622 -0.3897  0.2591 -0.3279
12406WAT      O50343   3.280   6.708   3.741  0.2863 -0.3072  0.3739
12406WAT     H150344   3.241   6.743   3.810  1.3753 -1.3552  1.5704
12406WAT     H250345   3.219   6.657   3.706  0.5991 -2.2311  2.4404
12406WAT    EPW50346   3.266   6.706   3.746  0.4934 -0.7462  0.8559
12407WAT      O50347   0.685   7.405   7.147  0.0306  0.2959 -0.6639
12407WAT     H150348   0.639   7.473   7.177  0.4209  0.3806 -0.2490
12407WAT     H250349   0.756   7.442   7.112  0.9777  0.0460  0.8847
12407WAT    EPW50350   0.689   7.421   7.146  0.2281  0.2715 -0.3739
12408WAT      O50351   1.416   2.247   1.879 -0.0985 -0.0139 -0.1528
12408WAT     H150352   1.356   2.190   1.851  2.8639 -2.3411 -2.5162
12408WAT     H250353   1.451   2.208   1.948  0.2725  0.1257 -0.2594
12408WAT    EPW50354   1.412   2.233   1.885  0.3939 -0.3371 -0.5176
12409WAT      O50355   0.885   1.228   2.468 -0.2767  0.2561  0.5767
12409WAT     H150356   0.903   1.308   2.441 -0.7302  0.4892  0.9452
12409WAT     H250357   0.879   1.182   2.395 -1.3232  0.8363  0.2772
12409WAT    EPW50358   0.887   1.233   2.453 -0.4983  0.3762  0.5869
12410WAT      O50359   2.137   0.664   2.559  0.3348  0.5873 -0.4824
12410WAT     H150360   2.173   0.741   2.578  0.2964  0.8871 -1.5665
12410WAT     H250361   2.137   0.662   2.472 -2.0832  0.5279 -0.5618
12410WAT    EPW50362   2.142   0.675   2.549 -0.0280  0.6228 -0.6543
12411WAT      O50363   2.901   1.140   3.643  0.1358 -0.5169  0.2675
12411WAT     H150364   2.974   1.179   3.615  0.0778 -0.0262  0.7697
12411WAT     H250365   2.869   1.197   3.701  0.1583 -1.4159  1.1932
12411WAT    EPW50366   2.907   1.154   3.647  0.1306 -0.5772  0.4785
12412WAT      O50367   1.066   0.340   3.662 -0.8274 -0.0360 -0.0762
12412WAT     H150368   1.056   0.289   3.593 -1.1055  1.6370 -1.3386
12412WAT     H250369   1.153   0.353   3.666 -0.8725  0.4732 -0.6011
12412WAT    EPW50370   1.078   0.334   3.653 -0.8751  0.2863 -0.3402
12413WAT      O50371   1.606   1.377   3.928  0.8706  0.6738  0.0546
12413WAT     H150372   1.567   1.444   3.889 -1.1248 -0.6128 -0.2968
12413WAT     H250373   1.587   1.388   4.012  1.9041  1.3716  0.2139
12413WAT    EPW50374   1.597   1.389   3.934  0.7285  0.5868  0.0262
12414WAT      O50375   2.336   0.949   4.660 -0.5249 -0.5461 -0.1539
12414WAT     H150376   2.320   0.911   4.583  0.1439  0.1140 -0.6413
12414WAT     H250377   2.367   1.028   4.637 -1.0561 -0.0440  0.8095
12414WAT    EPW50378   2.339   0.955   4.645 -0.5046 -0.3744 -0.0836
12415WAT      O50379   1.711   7.416   4.730  0.1114  0.2170  0.1214
12415WAT     H150380   1.646   7.365   4.701  0.2761 -0.9609  1.7167
12415WAT     H250381   1.670   7.475   4.779  0.0292  1.0607 -0.9148
12415WAT    EPW50382   1.695   7.417   4.733  0.1235  0.1676  0.2040
12416WAT      O50383   1.283   6.321   1.819 -0.0485  0.1467 -0.4599
12416WAT     H150384   1.297   6.325   1.733 -1.9472  0.4220 -0.8068
12416WAT     H250385   1.197   6.329   1.826  0.1492  1.3364  1.5549
12416WAT    EPW50386   1.273   6.323   1.808 -0.2998  0.3631 -0.2135
12417WAT      O50387   2.339   7.415   2.181 -0.7863 -0.3617  0.6815
12417WAT     H150388   2.346   7.418   2.268 -0.1128 -1.2640  0.6728
12417WAT     H250389   2.259   7.382   2.168 -0.9261 -0.1361  0.9561
12417WAT    EPW50390   2.328   7.411   2.192 -0.7074 -0.4616  0.7208
12418WAT      O50391   2.303   7.564   3.696  0.2360  0.3310  0.3555
12418WAT     H150392   2.260   7.495   3.666  1.2755 -0.5453  0.8365
12418WAT     H250393   2.309   7.617   3.626 -3.3364  1.4414  0.7141
12418WAT    EPW50394   2.298   7.562   3.681 -0.1382  0.3656  0.4795
12419WAT      O50395   0.949   1.359   4.060  0.1362  0.3593  0.6936
12419WAT     H150396   0.989   1.285   4.036 -1.0648 -0.0073 -0.2735
12419WAT     H250397   0.992   1.383   4.132  0.0143 -1.7290  1.5367
12419WAT    EPW50398   0.962   1.351   4.067 -0.0592 -0.0033  0.6753
12420WAT      O50399   2.765   0.122   2.130  0.0001 -0.5966 -0.7373
12420WAT     H150400   2.827   0.067   2.157  0.3679 -0.2484 -0.8540
12420WAT     H250401   2.803   0.164   2.063 -0.4018 -0.4592 -0.8803
12420WAT    EPW50402   2.780   0.120   2.124 -0.0050 -0.5248 -0.7757
12421WAT      O50403   0.701   6.786   3.871 -0.0976 -0.2513  0.4218
12421WAT     H150404   0.668   6.714   3.834  0.7751 -0.3936 -0.1122
12421WAT     H250405   0.748   6.755   3.938  0.0104 -0.1571  0.3909
12421WAT    EPW50406   0.703   6.771   3.875  0.0473 -0.2584  0.3383
12422WAT      O50407   1.836   7.639   4.279 -0.4704 -0.3420  0.0923
12422WAT     H150408   1.916   7.614   4.301 -0.1124  1.0362  0.4347
12422WAT     H250409   1.793   7.643   4.355  0.3301  2.8984  0.4994
12422WAT    EPW50410   1.841   7.636   4.293 -0.2993  0.3403  0.2030
12423WAT      O50411   2.428   0.065   2.308 -0.1891 -0.3201 -0.1756
12423WAT     H150412   2.447   0.137   2.354  1.6370 -1.0476  0.2901
12423WAT     H250413   2.395   0.011   2.368  0.2014 -0.5302 -0.1516
12423WAT    EPW50414   2.426   0.068   2.324  0.1383 -0.4586 -0.1033
12424WAT      O50415   3.894   7.328   3.020  0.2468  0.4311 -0.3157
12424WAT     H150416   3.899   7.299   3.102 -2.9958 -0.3898 -0.2476
12424WAT     H250417   3.911   7.413   3.027  1.5931  0.0947  0.9188
12424WAT    EPW50418   3.897   7.336   3.033 -0.0333  0.2601 -0.1233
12425WAT      O50419   0.864   7.585   2.337  0.2854 -0.3553 -0.0959
12425WAT     H150420   0.880   7.663   2.373  0.9220 -0.1204 -0.8617
12425WAT     H250421   0.917   7.583   2.268 -0.3620 -1.1140 -0.5851
12425WAT    EPW50422   0.874   7.596   2.332  0.2838 -0.4327 -0.2813
12426WAT      O50423   1.130   0.890   1.754 -0.2549  0.5428 -0.1109
12426WAT     H150424   1.207   0.862   1.725 -0.0703  0.8910  0.0427
12426WAT     H250425   1.073   0.846   1.705  0.0309 -0.1269  0.1554
12426WAT    EPW50426   1.133   0.880   1.742 -0.1854  0.4953 -0.0489
12427WAT      O50427   0.855   7.458   4.040 -0.2844 -0.2822 -0.2043
12427WAT     H150428   0.773   7.428   4.031 -0.6248  0.3183  0.7383
12427WAT     H250429   0.862   7.517   3.975 -0.9074  0.2763  0.2148
12427WAT    EPW50430   0.844   7.463   4.029 -0.4267 -0.1110 -0.0032
12428WAT      O50431   2.014   7.437   1.737  0.1400 -0.3017 -0.4174
12428WAT     H150432   1.929   7.434   1.756  0.2010 -3.4706 -0.0376
12428WAT     H250433   2.052   7.399   1.806  1.8249  0.5415 -0.8207
12428WAT    EPW50434   2.007   7.431   1.750  0.3979 -0.6453 -0.4209
12429WAT      O50435   0.919   0.872   2.042  0.0577 -0.0714  0.0389
12429WAT     H150436   0.966   0.848   1.973 -1.0342 -0.1970 -0.6823
12429WAT     H250437   0.965   0.843   2.110  1.1960  0.1390 -0.6306
12429WAT    EPW50438   0.933   0.864   2.042  0.0646 -0.0589 -0.1666
12430WAT      O50439   3.102   0.892   1.842  0.2807 -0.0197 -0.8187
12430WAT     H150440   3.146   0.956   1.801 -1.2470  3.1425  1.9226
12430WAT     H250441   3.019   0.912   1.827 -0.2994  0.3999  2.3102
12430WAT    EPW50442   3.096   0.905   1.834 -0.0306  0.5094  0.0484
12431WAT      O50443   0.714   0.254   3.582  0.5578  0.1422 -0.0842
12431WAT     H150444   0.751   0.328   3.553  0.8977  0.1657  0.4015
12431WAT     H250445   0.688   0.275   3.663  0.7470 -0.2956  0.0918
12431WAT    EPW50446   0.716   0.268   3.590  0.6359  0.0810  0.0136
12432WAT      O50447   2.284   1.843   2.934 -0.0046 -0.0653  0.0872
12432WAT     H150448   2.225   1.803   2.884 -0.1497 -0.1364  0.3138
12432WAT     H250449   2.259   1.823   3.016 -0.6222  1.2303  0.2428
12432WAT    EPW50450   2.272   1.834   2.939 -0.1173  0.1156  0.1436
12433WAT      O50451   3.347   0.367   4.503 -0.2483 -0.0882  0.3684
12433WAT     H150452   3.409   0.336   4.450 -1.7423 -0.8869 -0.9976
12433WAT     H250453   3.313   0.434   4.459 -0.6149  0.1001  0.9302
12433WAT    EPW50454   3.351   0.372   4.489 -0.5231 -0.1784  0.2496
12434WAT      O50455   2.665   7.311   1.560 -0.1241  0.0733 -0.3639
12434WAT     H150456   2.740   7.318   1.604 -1.0397  0.2389  1.2730
12434WAT     H250457   2.683   7.346   1.482  1.6907 -0.6157 -0.2874
12434WAT    EPW50458   2.679   7.317   1.555  0.0087 -0.0040 -0.1108
12435WAT      O50459   2.180   7.112   2.608 -0.0404 -0.0322  0.2220
12435WAT     H150460   2.218   7.042   2.574 -2.1909 -1.4129  0.5311
12435WAT     H250461   2.114   7.129   2.554  0.9714  2.4101 -0.4036
12435WAT    EPW50462   2.176   7.104   2.595 -0.2086  0.1247  0.1752
12436WAT      O50463   2.725   1.371   3.105  0.1418 -0.5570  0.4213
12436WAT     H150464   2.769   1.344   3.035 -0.8030  0.3036 -0.5277
12436WAT     H250465   2.671   1.304   3.123 -0.0785 -0.5108 -0.0731
12436WAT    EPW50466   2.723   1.357   3.098 -0.0303 -0.4231  0.2081
12437WAT      O50467   3.563   7.563   3.046  1.0004 -0.1496 -0.1448
12437WAT     H150468   3.584   7.598   2.969  0.9627  0.2007  0.0021
12437WAT     H250469   3.580   7.478   3.035 -1.6798 -0.6240 -1.5009
12437WAT    EPW50470   3.569   7.556   3.033  0.5989 -0.1679 -0.3234
12438WAT      O50471   1.823   1.181   4.858  0.1234 -0.9445  0.4527
12438WAT     H150472   1.834   1.142   4.780 -1.9897 -1.1353  0.1805
12438WAT     H250473   1.751   1.229   4.846  0.2335 -0.3222  2.0752
12438WAT    EPW50474   1.814   1.182   4.844 -0.1725 -0.8808  0.6522
12439WAT      O50475   2.031   0.958   3.639  0.7473  0.1118  0.0871
12439WAT     H150476   2.069   1.028   3.673 -0.5803  1.2380 -0.6387
12439WAT     H250477   2.068   0.951   3.560  0.2876  0.5336 -0.1753
12439WAT    EPW50478   2.042   0.967   3.632  0.4833  0.3405 -0.0589
12440WAT      O50479   1.359   6.963   4.481 -0.1262 -0.3433 -0.4804
12440WAT     H150480   1.282   6.967   4.439 -0.4004  1.2046  0.0722
12440WAT     H250481   1.388   6.883   4.463 -2.6870 -1.6934  0.7114
12440WAT    EPW50482   1.352   6.952   4.472 -0.5450 -0.3141 -0.2227
12441WAT      O50483   2.412   1.263   2.676  0.5237  0.3459 -0.5803
12441WAT     H150484   2.381   1.199   2.727  1.1724  1.1981  0.9664
12441WAT     H250485   2.360   1.261   2.606  0.1974 -1.4931 -0.3263
12441WAT    EPW50486   2.400   1.253   2.673  0.5713  0.2001 -0.3143
12442WAT      O50487   1.222   7.425   3.480 -0.0742  0.2317 -0.5135
12442WAT     H150488   1.142   7.391   3.469 -0.8267  2.0159 -0.9192
12442WAT     H250489   1.265   7.398   3.408  0.3028 -2.1558  0.4961
12442WAT    EPW50490   1.217   7.416   3.468 -0.1297  0.1426 -0.4243
12443WAT      O50491   2.292   0.597   3.815 -0.0430  0.5152 -0.2810
12443WAT     H150492   2.248   0.574   3.743 -0.0153  0.7456 -0.3724
12443WAT     H250493   2.352   0.534   3.822 -0.0162  0.5155 -0.4862
12443WAT    EPW50494   2.294   0.584   3.805 -0.0349  0.5493 -0.3248
12444WAT      O50495   1.617   6.698   4.210  0.0065  0.0927  0.0941
12444WAT     H150496   1.587   6.696   4.291 -4.1792 -0.9319 -1.2201
12444WAT     H250497   1.642   6.616   4.195 -0.1186  0.0618  0.0557
12444WAT    EPW50498   1.616   6.686   4.220 -0.6303 -0.0632 -0.1057
12445WAT      O50499   1.943   7.171   2.478  0.5739 -0.3293 -0.1911
12445WAT     H150500   1.880   7.135   2.525  0.5760  0.6162  0.5737
12445WAT     H250501   1.925   7.146   2.396 -0.2239 -0.8700  0.1409
12445WAT    EPW50502   1.931   7.162   2.473  0.4564 -0.2695 -0.0291
12446WAT      O50503   0.972   7.455   3.067  0.1888 -0.0715 -0.4664
12446WAT     H150504   0.956   7.454   2.981 -1.2969 -1.2202 -0.2100
12446WAT     H250505   0.898   7.486   3.102  0.3508 -0.6969  0.4625
12446WAT    EPW50506   0.959   7.459   3.059 -0.0067 -0.3336 -0.2913
12447WAT      O50507   2.043   7.336   2.167  0.6909  0.2691  0.5597
12447WAT     H150508   2.060   7.421   2.179  5.0722 -0.3756  0.8610
12447WAT     H250509   2.056   7.325   2.081 -0.0687 -0.0615  0.4849
12447WAT    EPW50510   2.048   7.347   2.156  1.2259  0.1250  0.5932
12448WAT      O50511   2.028   0.028   1.773  0.6256  0.0510 -0.4618
12448WAT     H150512   2.091   0.030   1.834 -1.3064  1.9522  1.6919
12448WAT     H250513   2.000  -0.054   1.775  0.8500 -0.0297  1.0434
12448WAT    EPW50514   2.034   0.016   1.782  0.3733  0.3199  0.0787
12449WAT      O50515   2.313   0.296   0.920  0.2975  0.0211 -0.1976
12449WAT     H150516   2.242   0.338   0.890  1.1842  1.8923  0.1912
12449WAT     H250517   2.316   0.224   0.871 -0.7077  0.9139 -1.6586
12449WAT    EPW50518   2.303   0.291   0.908  0.2800  0.4294 -0.3560
12450WAT      O50519   1.940   0.913   5.732  0.1951 -0.2639  0.2155
12450WAT     H150520   1.894   0.889   5.802 -0.4951 -0.5056 -0.3118
12450WAT     H250521   1.917   0.996   5.720  0.2921 -0.2306  0.2609
12450WAT    EPW50522   1.930   0.922   5.741  0.1074 -0.2947  0.1443
12451WAT      O50523   0.470   0.529   4.200  0.1618 -0.3141  1.1041
12451WAT     H150524   0.465   0.448   4.233  1.8886 -1.0565 -0.2682
12451WAT     H250525   0.439   0.520   4.119 -0.6241  0.6504  1.2856
12451WAT    EPW50526   0.465   0.516   4.193  0.3008 -0.2813  0.9282
12452WAT      O50527   2.232   6.762   3.109 -0.6931 -0.1649  0.0968
12452WAT     H150528   2.210   6.837   3.147  1.0238 -0.6321  2.2301
12452WAT     H250529   2.224   6.779   3.024  0.0027  2.5771  0.4711
12452WAT    EPW50530   2.227   6.776   3.102 -0.3367  0.1712  0.4672
12453WAT      O50531   4.544   0.575   2.712 -0.1234  0.4732 -0.4753
12453WAT     H150532   4.576   0.497   2.691 -0.4500  0.5661 -1.3853
12453WAT     H250533   4.597   0.630   2.669 -0.0814  0.7316 -0.0897
12453WAT    EPW50534   4.557   0.572   2.702 -0.1654  0.5251 -0.5528
12454WAT      O50535   1.331   7.171   1.083 -0.5237 -0.1446 -0.0346
12454WAT     H150536   1.384   7.227   1.124 -2.9020  1.4394  1.1885
12454WAT     H250537   1.322   7.206   1.003 -0.2420 -0.0372 -0.0201
12454WAT    EPW50538   1.337   7.185   1.077 -0.8334  0.1053  0.1482
12455WAT      O50539   0.744   0.375   2.870 -0.2709 -0.0882 -0.0839
12455WAT     H150540   0.823   0.338   2.871  0.1068  0.6556  2.1590
12455WAT     H250541   0.738   0.408   2.789  2.1161  0.6257 -0.0431
12455WAT    EPW50542   0.755   0.375   2.858  0.1375  0.1271  0.2534
12456WAT      O50543   4.109   1.430   1.816 -0.2261  0.2936  0.3338
12456WAT     H150544   4.117   1.436   1.729 -0.2034  1.9984  0.4283
12456WAT     H250545   4.023   1.441   1.829 -0.2763 -0.2875  0.5141
12456WAT    EPW50546   4.097   1.432   1.805 -0.2301  0.4596  0.3744
12457WAT      O50547   0.844   0.575   2.169 -0.0141  0.0262  0.1243
12457WAT     H150548   0.882   0.620   2.234  1.2102 -0.1344 -0.4568
12457WAT     H250549   0.815   0.637   2.115  0.9886  0.1618 -0.2903
12457WAT    EPW50550   0.845   0.591   2.171  0.3149  0.0225 -0.0227
12458WAT      O50551   0.907   0.947   2.575 -0.1785 -0.3409 -0.6567
12458WAT     H150552   0.873   1.026   2.561  1.4097  0.2626 -1.4122
12458WAT     H250553   0.850   0.909   2.629 -1.5565  0.8960 -1.1640
12458WAT    EPW50554   0.894   0.953   2.581 -0.1475 -0.0690 -0.8433
12459WAT      O50555   1.846   7.550   1.955  0.0412  0.2337  0.3747
12459WAT     H150556   1.811   7.561   1.876 -1.5716 -0.1238  0.9897
12459WAT     H250557   1.839   7.628   1.992 -2.0448 -0.2592  1.1845
12459WAT    EPW50558   1.840   7.563   1.949 -0.5052  0.1081  0.5851
12460WAT      O50559   2.852   0.532   3.189  0.0473  0.7138  0.3642
12460WAT     H150560   2.906   0.512   3.255 -1.1532  0.9577  1.4599
12460WAT     H250561   2.777   0.495   3.213 -0.5134  1.1487 -0.6883
12460WAT    EPW50562   2.849   0.524   3.202 -0.2129  0.8141  0.3706
12461WAT      O50563   3.118   1.565   3.387  0.0645  0.2572  0.1437
12461WAT     H150564   3.172   1.631   3.373  0.9189  0.0914  2.2779
12461WAT     H250565   3.160   1.496   3.353  1.0242  0.2134  1.3480
12461WAT    EPW50566   3.132   1.564   3.380  0.3325  0.2262  0.6369
12462WAT      O50567   2.588   1.774   3.670  0.3857 -0.9121  0.7960
12462WAT     H150568   2.552   1.722   3.730  1.7741 -1.8441  0.8655
12462WAT     H250569   2.629   1.719   3.616  1.7037  0.0726  0.7264
12462WAT    EPW50570   2.589   1.758   3.671  0.7855 -0.9043  0.7960
12463WAT      O50571   2.451   0.315   2.460 -0.3488  0.0024  0.2325
12463WAT     H150572   2.494   0.391   2.463  1.3468 -0.9003  0.6482
12463WAT     H250573   2.440   0.295   2.544  1.8878 -1.5394  0.2552
12463WAT    EPW50574   2.456   0.323   2.473  0.2321 -0.3587  0.2973
12464WAT      O50575   1.838   7.102   5.833 -0.6133 -0.1330 -0.3739
12464WAT     H150576   1.842   7.109   5.746 -0.9352  1.8605 -0.2774
12464WAT     H250577   1.906   7.051   5.853  1.0863  1.5262 -1.6093
12464WAT    EPW50578   1.849   7.095   5.823 -0.4098  0.4066 -0.5421
12465WAT      O50579   0.745   0.098   3.349  0.6252  0.2506 -0.0561
12465WAT     H150580   0.829   0.117   3.334  0.0278  2.5102 -0.9480
12465WAT     H250581   0.726   0.146   3.420 -0.5108  1.8797 -1.3749
12465WAT    EPW50582   0.755   0.108   3.358  0.3691  0.8251 -0.3827
12466WAT      O50583   2.280   0.886   2.471  0.3969 -0.0303  0.2245
12466WAT     H150584   2.221   0.919   2.416 -0.1447 -0.0854  0.7661
12466WAT     H250585   2.351   0.875   2.421  0.5843  1.8766 -0.0069
12466WAT    EPW50586   2.282   0.890   2.456  0.3446  0.2433  0.2703
12467WAT      O50587   1.105   5.744   2.326  0.1574  0.2525  0.7912
12467WAT     H150588   1.070   5.809   2.373  1.4525  0.9249  0.8837
12467WAT     H250589   1.126   5.782   2.251 -1.1368 -0.6284 -0.0428
12467WAT    EPW50590   1.103   5.759   2.322  0.1575  0.2217  0.6817
12468WAT      O50591   1.125   2.155   1.523  0.5125  0.0863  0.4192
12468WAT     H150592   1.056   2.179   1.476  0.5988 -0.4114  0.0296
12468WAT     H250593   1.138   2.223   1.577  0.4320  0.6756 -0.2931
12468WAT    EPW50594   1.117   2.169   1.524  0.5134  0.0998  0.2564
12469WAT      O50595   3.215   1.046   4.195  0.0444  0.2742  0.0648
12469WAT     H150596   3.298   1.045   4.167 -0.5478  0.0595 -1.7592
12469WAT     H250597   3.181   1.115   4.156 -1.0610 -0.5701 -0.4940
12469WAT    EPW50598   3.222   1.056   4.185 -0.2064  0.1178 -0.2872
12470WAT      O50599   1.042   0.902   1.214 -0.0810 -0.1895  0.4933
12470WAT     H150600   1.092   0.838   1.247  1.7773  1.0937  0.3095
12470WAT     H250601   1.044   0.964   1.276 -0.8891  0.1701  0.1777
12470WAT    EPW50602   1.050   0.902   1.228  0.0742  0.0532  0.4195
12471WAT      O50603   2.583   0.636   4.477 -0.3246 -0.1182  0.2818
12471WAT     H150604   2.635   0.571   4.450 -0.3435  0.3265 -0.8550
12471WAT     H250605   2.622   0.664   4.550  0.1658 -0.8189  0.2995
12471WAT    EPW50606   2.597   0.631   4.484 -0.2549 -0.1560  0.1165
12472WAT      O50607   1.015   0.192   3.298 -0.3753  0.0411 -0.1311
12472WAT     H150608   1.059   0.214   3.226  0.3934 -0.7367  0.0775
12472WAT     H250609   1.058   0.122   3.328  0.5126  1.4415  2.1379
12472WAT    EPW50610   1.028   0.185   3.292 -0.1306  0.1331  0.2349
12473WAT      O50611   2.495   0.152   1.650 -0.6178 -0.4071  0.2613
12473WAT     H150612   2.437   0.087   1.657  0.6997 -1.7303 -0.4261
12473WAT     H250613   2.508   0.158   1.564 -0.4686  0.5561  0.3474
12473WAT    EPW50614   2.488   0.143   1.638 -0.4011 -0.4603  0.1725
12474WAT      O50615   1.815   0.967   5.060  0.0533 -0.1443 -0.0568
12474WAT     H150616   1.772   0.899   5.027  0.3709  0.0199 -0.8468
12474WAT     H250617   1.808   1.027   4.997 -1.9772  1.3036  1.4140
12474WAT    EPW50618   1.808   0.966   5.045 -0.1997  0.0939  0.0438
12475WAT      O50619   1.477   7.404   1.171  0.0897 -0.7203 -0.4050
12475WAT     H150620   1.445   7.463   1.227  1.2658  1.2322 -1.6811
12475WAT     H250621   1.447   7.430   1.094  2.6917 -0.1813 -1.3334
12475WAT    EPW50622   1.468   7.416   1.168  0.6478 -0.3523 -0.7306
12476WAT      O50623   1.987   6.585   1.934  0.0124 -0.0639  0.2132
12476WAT     H150624   1.987   6.541   1.859  1.0373 -1.8354  1.1848
12476WAT     H250625   1.941   6.534   1.988  1.0522  0.1077  1.3283
12476WAT    EPW50626   1.980   6.571   1.931  0.3174 -0.3003  0.5214
12477WAT      O50627   0.753   0.264   1.558 -0.3508 -0.0901 -0.3099
12477WAT     H150628   0.743   0.196   1.506 -0.0920 -0.5973  0.2849
12477WAT     H250629   0.721   0.237   1.635  0.7727  0.0504  0.2334
12477WAT    EPW50630   0.747   0.250   1.562 -0.1466 -0.1443 -0.1417
12478WAT      O50631   1.450   7.529   1.463  0.8310 -0.4025  0.9101
12478WAT     H150632   1.367   7.509   1.446  0.4181 -0.1742  2.4787
12478WAT     H250633   1.483   7.456   1.496  1.6921 -0.9260 -0.9759
12478WAT    EPW50634   1.443   7.515   1.465  0.8972 -0.4461  0.8632
12479WAT      O50635   0.943   0.145   2.413  0.0974 -0.2383  0.2115
12479WAT     H150636   0.933   0.222   2.453 -0.8212 -0.4219  0.3532
12479WAT     H250637   1.027   0.145   2.389  0.5882  0.0172  1.8466
12479WAT    EPW50638   0.954   0.156   2.415  0.0342 -0.2277  0.4740
12480WAT      O50639   1.032   7.564   2.113 -0.1554  0.7265  0.1714
12480WAT     H150640   1.096   7.616   2.083 -0.6094  1.3164  0.2123
12480WAT     H250641   0.981   7.552   2.043 -0.4448  0.9358  0.3448
12480WAT    EPW50642   1.034   7.570   2.098 -0.2652  0.8445  0.2031
12481WAT      O50643   1.055   7.055   3.576 -0.7085 -0.2277 -0.0074
12481WAT     H150644   1.001   7.108   3.620 -1.4108 -1.0324  0.1083
12481WAT     H250645   1.013   7.041   3.501  0.8430  1.8081 -1.3829
12481WAT    EPW50646   1.041   7.061   3.571 -0.5831 -0.0459 -0.1935
12482WAT      O50647   1.625   0.027   1.407 -0.2779 -0.7946 -0.1182
12482WAT     H150648   1.597   0.063   1.332 -1.3363 -0.7339  0.2938
12482WAT     H250649   1.566  -0.036   1.423 -0.0092 -0.8677  0.6119
12482WAT    EPW50650   1.612   0.023   1.398 -0.3946 -0.7964  0.0505
12483WAT      O50651   1.619   2.062   2.330  0.1770  0.0950 -0.0981
12483WAT     H150652   1.666   1.990   2.347 -0.4226 -0.3388 -0.2707
12483WAT     H250653   1.570   2.071   2.402  0.2866  0.3653 -0.0554
12483WAT    EPW50654   1.619   2.052   2.343  0.1046  0.0708 -0.1173
12484WAT      O50655   0.986   5.996   1.928 -0.0350 -0.3460  0.5087
12484WAT     H150656   1.065   5.959   1.932 -0.0620 -0.4469  0.2044
12484WAT     H250657   0.973   6.007   1.842 -0.5881 -0.8544  0.5132
12484WAT    EPW50658   0.995   5.992   1.916 -0.1207 -0.4360  0.4644
12485WAT      O50659   1.538   1.393   0.408 -0.5088 -0.1148 -0.2740
12485WAT     H150660   1.572   1.341   0.469 -2.3116 -2.0491 -0.7792
12485WAT     H250661   1.499   1.456   0.454  1.9126  1.0635  0.3420
12485WAT    EPW50662   1.537   1.395   0.424 -0.4174 -0.2265 -0.2576
12486WAT      O50663   1.119   0.324   0.753  0.3942  0.4154  0.1909
12486WAT     H150664   1.190   0.283   0.724  0.7535  1.0213  0.1935
12486WAT     H250665   1.053   0.273   0.726  0.8779 -1.6244  2.5149
12486WAT    EPW50666   1.120   0.310   0.745  0.5187  0.2036  0.5346
12487WAT      O50667   3.804   0.598   1.715 -0.1702  0.7316 -0.2120
12487WAT     H150668   3.767   0.584   1.793 -0.0881  1.3776 -0.0502
12487WAT     H250669   3.747   0.565   1.659  0.2806 -0.7728  0.1620
12487WAT    EPW50670   3.790   0.591   1.719 -0.0915  0.6048 -0.1329
12488WAT      O50671   1.174   0.320   1.390 -0.0919 -0.4303 -0.4667
12488WAT     H150672   1.193   0.350   1.469 -0.8075 -0.4917 -0.2608
12488WAT     H250673   1.096   0.356   1.373 -0.3584 -1.1255 -0.7646
12488WAT    EPW50674   1.165   0.330   1.399 -0.2370 -0.5421 -0.4803
12489WAT      O50675   1.424   7.565   2.031  0.1158 -0.3271  0.3896
12489WAT     H150676   1.452   7.586   1.952  0.3074  0.6175  0.6984
12489WAT     H250677   1.483   7.507   2.059  1.3892  1.0813  0.7475
12489WAT    EPW50678   1.437   7.560   2.024  0.3322  0.0205  0.4881
12490WAT      O50679   2.530   1.870   0.548  0.2632  0.2096 -0.0797
12490WAT     H150680   2.525   1.936   0.605 -2.3433 -0.6149  0.8042
12490WAT     H250681   2.591   1.818   0.582  0.4223  0.8789  0.6795
12490WAT    EPW50682   2.538   1.872   0.562 -0.0984  0.1867  0.1630
12491WAT      O50683   1.393   7.427   2.675  0.0594  0.8146 -0.1592
12491WAT     H150684   1.432   7.503   2.694  0.6448  0.7257 -0.9368
12491WAT     H250685   1.456   7.381   2.634 -0.5891  0.3086 -0.6214
12491WAT    EPW50686   1.408   7.431   2.672  0.0501  0.7267 -0.3424
12492WAT      O50687   1.635   1.084   2.485  0.3901 -0.1089 -0.1011
12492WAT     H150688   1.580   1.127   2.536 -1.2346  0.3649 -2.1210
12492WAT     H250689   1.628   1.125   2.408  0.4178 -2.5747 -1.5261
12492WAT    EPW50690   1.626   1.096   2.481  0.1542 -0.4031 -0.6100
12493WAT      O50691   1.062   5.927   2.543  0.1325  0.4892  0.3722
12493WAT     H150692   1.007   5.868   2.576 -0.4363  0.4142 -0.6812
12493WAT     H250693   1.022   6.003   2.558  0.1102  0.4945  0.2800
12493WAT    EPW50694   1.048   5.930   2.550  0.0452  0.4789  0.2030
12494WAT      O50695   1.001   0.511   1.900  0.5566  0.5523  0.2844
12494WAT     H150696   1.018   0.430   1.873  0.2069  0.9172 -1.1060
12494WAT     H250697   0.978   0.500   1.984  1.0265 -0.7071  0.2722
12494WAT    EPW50698   1.000   0.497   1.909  0.5743  0.4201  0.0772
12495WAT      O50699   2.502   1.506   1.890 -0.0131  0.4612  0.3533
12495WAT     H150700   2.463   1.460   1.827  1.6964 -0.0770 -0.3687
12495WAT     H250701   2.535   1.446   1.943  2.9957  0.6368 -1.0531
12495WAT    EPW50702   2.501   1.491   1.888  0.6839  0.4076  0.0389
12496WAT      O50703   2.732   7.556   0.424 -0.0313  0.2447  0.0561
12496WAT     H150704   2.672   7.519   0.372 -0.8529 -0.6404  1.5761
12496WAT     H250705   2.790   7.492   0.437  1.0849  0.9729 -1.0729
12496WAT    EPW50706   2.732   7.541   0.418  0.0123  0.2215  0.1138
12497WAT      O50707   0.988   0.484   0.188 -0.0339 -0.3078 -0.4531
12497WAT     H150708   1.030   0.456   0.117  0.3084  0.7093 -0.6647
12497WAT     H250709   1.053   0.503   0.244 -0.2564  0.0973 -0.3325
12497WAT    EPW50710   1.004   0.483   0.186 -0.0162 -0.0977 -0.4665
12498WAT      O50711   1.327   0.450   2.500 -0.2019  0.1837  0.1183
12498WAT     H150712   1.296   0.438   2.419  0.1149  0.2595 -0.0137
12498WAT     H250713   1.368   0.526   2.496 -0.1802  0.1864  0.3533
12498WAT    EPW50714   1.328   0.459   2.488 -0.1519  0.1953  0.1335
12499WAT      O50715   0.858   7.550   1.041  0.2934  0.1561 -0.2583
12499WAT     H150716   0.851   7.637   1.037  1.0909  0.2255 -0.3725
12499WAT     H250717   0.942   7.536   1.023  0.0832 -0.6669 -0.6304
12499WAT    EPW50718   0.870   7.561   1.038  0.3802  0.0448 -0.3301
12500WAT      O50719   2.444   5.501   1.848  0.2860  0.3990  0.3943
12500WAT     H150720   2.452   5.428   1.802  2.8388  0.2915  0.8534
12500WAT     H250721   2.437   5.563   1.787  1.9146  0.0980 -0.1458
12500WAT    EPW50722   2.444   5.500   1.832  0.9037  0.3387  0.3824
12501WAT      O50723   1.422   0.367   0.601  0.0490  0.0519 -0.7256
12501WAT     H150724   1.386   0.333   0.530  2.0767 -1.2061 -1.2153
12501WAT     H250725   1.507   0.359   0.588  0.5210 -0.6869  2.0494
12501WAT    EPW50726   1.429   0.361   0.589  0.4182 -0.2430 -0.3880
12502WAT      O50727   1.483   6.529   1.837  0.2568  0.3022  0.2208
12502WAT     H150728   1.438   6.459   1.863 -1.9496  2.1420  1.8220
12502WAT     H250729   1.468   6.533   1.752  0.2456 -1.0242  0.1363
12502WAT    EPW50730   1.474   6.519   1.829 -0.0708  0.3781  0.4449
12503WAT      O50731   1.600   7.324   2.561 -0.1977 -0.1596  0.1223
12503WAT     H150732   1.648   7.262   2.598 -1.0910 -0.2864  1.1349
12503WAT     H250733   1.658   7.377   2.524  0.6952 -0.4834  1.0260
12503WAT    EPW50734   1.616   7.323   2.561 -0.1977 -0.2262  0.4054
12504WAT      O50735   0.919   0.480   1.177 -0.3710 -0.5561  0.1097
12504WAT     H150736   0.901   0.463   1.261 -1.4399  0.6182  0.1486
12504WAT     H250737   0.845   0.517   1.148 -0.2490 -1.4887 -1.5228
12504WAT    EPW50738   0.905   0.483   1.185 -0.5109 -0.5204 -0.1257
12505WAT      O50739   3.479   0.897   3.553 -0.1535  0.1524  0.1502
12505WAT     H150740   3.455   0.981   3.548 -2.7005 -0.5740 -2.6567
12505WAT     H250741   3.421   0.862   3.608  0.6724  0.1401  1.0274
12505WAT    EPW50742   3.467   0.904   3.560 -0.4078  0.0433 -0.1348
12506WAT      O50743   0.895   7.532   1.894 -0.2006  0.6909  0.0045
12506WAT     H150744   0.858   7.461   1.860 -0.3450  2.1609 -3.2706
12506WAT     H250745   0.827   7.575   1.930 -0.9703  1.1860 -1.9120
12506WAT    EPW50746   0.879   7.528   1.894 -0.3357  0.9812 -0.7624
12507WAT      O50747   2.075   0.131   1.516  0.3777 -0.0126  0.2346
12507WAT     H150748   2.074   0.101   1.598 -0.3405  1.7670  0.9348
12507WAT     H250749   2.124   0.203   1.521  0.1560  0.2369 -0.8579
12507WAT    EPW50750   2.082   0.137   1.529  0.2388  0.2871  0.1766
12508WAT      O50751   1.022   7.160   1.040 -0.1089 -0.4833 -0.2326
12508WAT     H150752   1.020   7.223   0.980 -1.0555  1.3897  1.6478
12508WAT     H250753   1.037   7.087   0.994 -1.0387  0.8197 -2.7120
12508WAT    EPW50754   1.024   7.158   1.025 -0.3861 -0.0141 -0.3211
12509WAT      O50755   0.708   6.986   2.521  0.1083 -0.0591  0.4164
12509WAT     H150756   0.688   6.901   2.523 -0.2960 -0.0199 -1.1349
12509WAT     H250757   0.713   7.004   2.436  0.9087  1.3153  0.7232
12509WAT    EPW50758   0.706   6.976   2.509  0.1668  0.1497  0.2325
12510WAT      O50759   3.039   0.481   3.370 -0.9558 -0.1497 -0.3444
12510WAT     H150760   3.011   0.464   3.451 -0.8555 -2.8971 -0.7717
12510WAT     H250761   3.112   0.433   3.364  0.4030  1.8945 -1.3252
12510WAT    EPW50762   3.046   0.471   3.381 -0.7403 -0.2536 -0.5524
12511WAT      O50763   1.260   6.910   1.181  0.1952 -0.3367 -0.0844
12511WAT     H150764   1.279   6.976   1.127  2.7113 -0.6684  0.2424
12511WAT     H250765   1.297   6.841   1.143  0.5651 -0.8946  1.2140
12511WAT    EPW50766   1.268   6.910   1.168  0.6215 -0.4681  0.1557
12512WAT      O50767   1.389   0.248   1.258  0.4520  0.3222 -0.8168
12512WAT     H150768   1.366   0.171   1.224  0.0036  1.1174 -2.3813
12512WAT     H250769   1.322   0.268   1.310  1.5361 -1.3157  1.3901
12512WAT    EPW50770   1.376   0.239   1.261  0.5459  0.1977 -0.7219
12513WAT      O50771   1.924   0.232   1.222  0.0732 -0.5768 -0.3347
12513WAT     H150772   1.905   0.280   1.292  0.0224  0.3354 -0.9618
12513WAT     H250773   1.887   0.154   1.240  1.4910 -0.9270  1.3874
12513WAT    EPW50774   1.916   0.227   1.235  0.2751 -0.4938 -0.1729
12514WAT      O50775   1.391   5.892   1.402  0.0504 -0.0610 -0.5113
12514WAT     H150776   1.425   5.873   1.480  0.7753  0.7782 -0.5975
12514WAT     H250777   1.412   5.823   1.353 -0.3400 -0.5560  0.0076
12514WAT    EPW50778   1.399   5.879   1.406  0.0998 -0.0102 -0.4474
12515WAT      O50779   2.238   0.061   7.655 -0.4955 -0.6697  0.2505
12515WAT     H150780   2.294   0.067   7.722 -1.1300  0.2959  0.7186
12515WAT     H250781   2.193  -0.012   7.672  0.1254 -1.0502  0.2651
12515WAT    EPW50782   2.240   0.051   7.668 -0.4975 -0.5833  0.3218
12516WAT      O50783   2.187   1.014   1.594  0.4849 -0.1735 -0.5756
12516WAT     H150784   2.232   0.949   1.632  0.7546  0.7662  0.7906
12516WAT     H250785   2.235   1.034   1.524  0.3305 -1.5036 -1.1002
12516WAT    EPW50786   2.201   1.007   1.589  0.5019 -0.2311 -0.4513
12517WAT      O50787   1.403   0.835   1.124 -0.2703  0.1050 -0.1522
12517WAT     H150788   1.423   0.830   1.209  2.5008  0.1607 -0.7308
12517WAT     H250789   1.388   0.752   1.101  1.5016 -0.2618 -0.1106
12517WAT    EPW50790   1.403   0.822   1.133  0.4008  0.0590 -0.2315
12518WAT      O50791   1.583   0.143   2.162 -0.1444  0.3810 -0.5542
12518WAT     H150792   1.668   0.137   2.143 -0.5532  1.1424 -2.8358
12518WAT     H250793   1.566   0.066   2.200  1.3482 -0.1794 -0.9424
12518WAT    EPW50794   1.593   0.131   2.165  0.0157  0.4107 -0.9486
12519WAT      O50795   0.775   0.185   1.870  0.1234  0.3056 -0.1814
12519WAT     H150796   0.760   0.107   1.905  1.4666  0.3057  0.5017
12519WAT     H250797   0.786   0.236   1.940  0.0773  0.9259 -0.6210
12519WAT    EPW50798   0.775   0.181   1.885  0.3150  0.3972 -0.1454
12520WAT      O50799   0.842   6.889   0.701  0.3135 -0.0773 -0.4901
12520WAT     H150800   0.855   6.804   0.717 -0.6668  0.0631  1.2915
12520WAT     H250801   0.919   6.925   0.721  0.6918 -0.5145 -1.1241
12520WAT    EPW50802   0.855   6.881   0.706  0.2246 -0.1212 -0.3206
12521WAT      O50803   1.682   0.981   1.549  0.1211 -0.5699 -0.7840
12521WAT     H150804   1.685   0.902   1.587 -0.2532 -0.3835 -0.3562
12521WAT     H250805   1.766   0.998   1.531  0.2980 -0.7103 -0.1329
12521WAT    EPW50806   1.695   0.972   1.552  0.0919 -0.5631 -0.6246
12522WAT      O50807   1.717   6.959   1.420 -0.1120  0.0708  0.3899
12522WAT     H150808   1.769   7.021   1.454 -2.2056  1.3594  1.4817
12522WAT     H250809   1.643   7.002   1.403 -1.0551 -1.7943 -0.5209
12522WAT    EPW50810   1.714   6.975   1.422 -0.5606 -0.0144  0.4166
12523WAT      O50811   1.484   0.514   1.520 -0.3916  0.3292 -0.1188
12523WAT     H150812   1.478   0.469   1.594 -1.8543  0.8179  0.0900
12523WAT     H250813   1.407   0.554   1.514 -0.2497  0.4058 -1.8410
12523WAT    EPW50814   1.472   0.513   1.530 -0.5867  0.4127 -0.3424
12524WAT      O50815   1.323   7.270   1.884 -0.1554  0.3438  0.7406
12524WAT     H150816   1.383   7.271   1.946  2.3735 -0.8684 -1.5003
12524WAT     H250817   1.299   7.186   1.879 -0.4323  0.4439  0.1818
12524WAT    EPW50818   1.328   7.258   1.892  0.1772  0.1795  0.3271
12525WAT      O50819   0.866   7.094   1.307 -0.1459  0.0176  0.2711
12525WAT     H150820   0.893   7.137   1.378 -0.5348  1.8750 -0.6531
12525WAT     H250821   0.925   7.114   1.246 -0.4210 -0.6530 -0.2307
12525WAT    EPW50822   0.878   7.103   1.309 -0.2440  0.1929  0.0604
12526WAT      O50823   2.325   1.255   7.386  0.1287 -0.1341 -0.3334
12526WAT     H150824   2.350   1.205   7.454 -0.2268  1.0428  0.6982
12526WAT     H250825   2.399   1.268   7.342  0.4876 -0.3698  0.1877
12526WAT    EPW50826   2.340   1.249   7.390  0.1292  0.0049 -0.1040
12527WAT      O50827   0.667   6.829   3.109 -0.0360  0.1400  0.2129
12527WAT     H150828   0.636   6.819   3.027  0.1507  0.7982  0.0624
12527WAT     H250829   0.750   6.803   3.103  0.3062  1.2563 -0.0684
12527WAT    EPW50830   0.674   6.823   3.096  0.0421  0.4021  0.1491
12528WAT      O50831   1.813   0.519   0.815  0.7832 -0.0532 -0.2713
12528WAT     H150832   1.795   0.604   0.818  1.1228 -0.0047  0.4125
12528WAT     H250833   1.783   0.488   0.890  0.6646 -0.5435 -0.5144
12528WAT    EPW50834   1.806   0.527   0.826  0.8159 -0.1185 -0.2062
12529WAT      O50835   3.361   0.241   0.707  0.2211 -0.1369 -0.0333
12529WAT     H150836   3.372   0.324   0.734  0.8741 -0.2615  0.0908
12529WAT     H250837   3.395   0.194   0.771 -2.4845 -0.6342  1.1576
12529WAT    EPW50838   3.367   0.246   0.720 -0.0821 -0.2287  0.1610
12530WAT      O50839   1.277   0.056   0.544  0.3291  0.1945  0.1047
12530WAT     H150840   1.349   0.034   0.586 -0.6246 -0.4722  1.4497
12530WAT     H250841   1.266  -0.009   0.486  0.3212 -0.1602  0.5044
12530WAT    EPW50842   1.286   0.043   0.541  0.1871  0.0436  0.3624
12531WAT      O50843   1.196   6.746   1.769 -0.2070 -0.0455  0.2057
12531WAT     H150844   1.220   6.830   1.775 -1.6670  0.4833 -0.7355
12531WAT     H250845   1.256   6.712   1.716  0.1860  0.4770  0.2958
12531WAT    EPW50846   1.209   6.754   1.762 -0.3646  0.1098  0.0800
12532WAT      O50847   1.489   7.113   1.354  0.6698  0.2271  0.4157
12532WAT     H150848   1.408   7.080   1.360  0.8541 -0.5091 -0.7770
12532WAT     H250849   1.498   7.158   1.428 -0.5950 -0.2028  0.8657
12532WAT    EPW50850   1.478   7.115   1.366  0.5102  0.0549  0.3060
12533WAT      O50851   0.647   0.208   0.806 -0.5389 -0.1880 -0.1920
12533WAT     H150852   0.626   0.123   0.802 -0.8826 -0.6937  5.2480
12533WAT     H250853   0.570   0.247   0.818 -0.1787  0.6031 -0.3907
12533WAT    EPW50854   0.632   0.201   0.807 -0.5365 -0.1459  0.5822
12534WAT      O50855   1.539   7.106   2.336  0.2460  0.1361  0.4945
12534WAT     H150856   1.536   7.156   2.407  0.9758  0.9809 -0.0543
12534WAT     H250857   1.623   7.104   2.315 -0.0843  0.9492 -1.0663
12534WAT    EPW50858   1.551   7.113   2.343  0.3050  0.3810  0.1829
12535WAT      O50859   1.243   0.888   0.187  0.2724  0.0914 -0.0737
12535WAT     H150860   1.203   0.852   0.119 -0.2986 -3.6637  1.9550
12535WAT     H250861   1.299   0.944   0.152 -1.6492  0.1524 -3.4090
12535WAT    EPW50862   1.245   0.891   0.172 -0.0958 -0.4543 -0.2667
12536WAT      O50863   1.051   7.404   0.883  0.9996 -0.3167 -0.2888
12536WAT     H150864   1.129   7.412   0.844  0.3815 -0.8216 -1.7146
12536WAT     H250865   0.994   7.424   0.819 -0.0753 -1.2364  0.3407
12536WAT    EPW50866   1.054   7.408   0.868  0.7495 -0.5272 -0.4064
12537WAT      O50867   1.956   0.567   1.385 -0.1818 -0.3648  0.0958
12537WAT     H150868   1.936   0.520   1.455  0.8101  0.6756  1.1236
12537WAT     H250869   2.021   0.618   1.412  0.2233  0.0803 -1.5824
12537WAT    EPW50870   1.963   0.568   1.399  0.0246 -0.1454 -0.0003
12538WAT      O50871   1.902   1.180   2.534  0.2655  0.3735  0.3669
12538WAT     H150872   1.823   1.151   2.512  0.4633  0.0252  0.0917
12538WAT     H250873   1.918   1.243   2.477  0.5593 -0.1744 -0.1736
12538WAT    EPW50874   1.893   1.185   2.522  0.3381  0.2411  0.2464
12539WAT      O50875   1.753   7.566   0.905 -0.2061  0.1771  0.4961
12539WAT     H150876   1.669   7.563   0.883 -0.0201 -0.4519 -0.1671
12539WAT     H250877   1.762   7.502   0.963 -0.0286 -0.3016 -0.0434
12539WAT    EPW50878   1.742   7.556   0.910 -0.1524  0.0135  0.3184
12540WAT      O50879   1.862   0.600   2.201  0.4629 -0.2391  0.4160
12540WAT     H150880   1.847   0.557   2.127 -0.4943 -1.6772  1.4000
12540WAT     H250881   1.788   0.644   2.215  0.0773 -1.1001  1.2158
12540WAT    EPW50882   1.849   0.600   2.192  0.2645 -0.5787  0.6795
12541WAT      O50883   1.804   7.163   0.609 -0.3898  0.4278  0.2980
12541WAT     H150884   1.885   7.133   0.619 -0.0430  0.5419 -1.6636
12541WAT     H250885   1.754   7.094   0.629  0.2574 -0.1044  0.1258
12541WAT    EPW50886   1.808   7.149   0.613 -0.2430  0.3661 -0.0172
12542WAT      O50887   1.126   7.295   2.118 -0.6460  0.4516  0.1662
12542WAT     H150888   1.113   7.377   2.145  1.4310  1.4105 -1.4644
12542WAT     H250889   1.191   7.302   2.060 -0.3432 -2.3774  0.0071
12542WAT    EPW50890   1.133   7.308   2.113 -0.2944  0.1753 -0.0981
12543WAT      O50891   2.586   2.427   0.749 -0.1991  0.8767  0.2542
12543WAT     H150892   2.563   2.509   0.769 -0.1724  0.8931  0.2170
12543WAT     H250893   2.521   2.400   0.697  0.8703  1.6190 -1.5698
12543WAT    EPW50894   2.573   2.435   0.744 -0.0372  0.9888 -0.0207
12544WAT      O50895   0.951   6.197   0.826  0.1571 -0.5724  0.7849
12544WAT     H150896   0.946   6.126   0.877 -0.3038 -0.3496  1.0560
12544WAT     H250897   0.877   6.194   0.780  1.3239 -1.7455 -1.1979
12544WAT    EPW50898   0.940   6.186   0.827  0.2614 -0.7127  0.5321
12545WAT      O50899   2.937   6.862   1.186  0.5770 -0.3694  0.3877
12545WAT     H150900   2.950   6.847   1.101  3.1759  1.3103  0.3726
12545WAT     H250901   2.884   6.931   1.187  0.9123 -0.0972  0.0681
12545WAT    EPW50902   2.931   6.870   1.173  1.0104 -0.0811  0.3382
12546WAT      O50903   2.493   6.769   1.957 -0.0842 -0.2979 -0.1126
12546WAT     H150904   2.536   6.745   2.029 -1.3844 -0.4110  0.6660
12546WAT     H250905   2.409   6.768   1.982 -0.5213  0.2950 -1.4527
12546WAT    EPW50906   2.487   6.765   1.971 -0.3408 -0.2271 -0.1955
12547WAT      O50907   1.709   0.574   3.315 -0.2515  0.4975  0.5798
12547WAT     H150908   1.710   0.618   3.390 -0.8208 -0.4419  1.1697
12547WAT     H250909   1.690   0.492   3.340  0.6195 -0.0566 -0.4812
12547WAT    EPW50910   1.707   0.568   3.329 -0.2069  0.2769  0.5102
12548WAT      O50911   2.888   2.731   1.102 -0.1203  0.1186  0.5444
12548WAT     H150912   2.893   2.646   1.086 -0.3002  0.5839 -2.6808
12548WAT     H250913   2.926   2.740   1.180 -2.9097 -3.2130  2.5522
12548WAT    EPW50914   2.895   2.720   1.111 -0.5589 -0.3048  0.3646
12549WAT      O50915   1.012   0.644   1.642 -0.1320  0.7287 -0.5334
12549WAT     H150916   1.023   0.601   1.717 -0.8929  0.0999 -0.7775
12549WAT     H250917   1.091   0.641   1.605 -0.1683 -0.4142 -0.5328
12549WAT    EPW50918   1.025   0.637   1.648 -0.2498  0.4670 -0.5693
12550WAT      O50919   3.887   1.069   2.154  0.2724 -0.0930 -0.7140
12550WAT     H150920   3.899   0.983   2.143 -2.0284 -0.3794 -1.5828
12550WAT     H250921   3.885   1.100   2.072 -1.7413  0.2954 -0.5562
12550WAT    EPW50922   3.889   1.061   2.140 -0.3650 -0.0780 -0.8190
12551WAT      O50923   1.461   0.829   1.420 -0.1806  0.0101  0.2745
12551WAT     H150924   1.535   0.786   1.400 -1.0100 -1.0774 -0.5566
12551WAT     H250925   1.490   0.905   1.450  1.2916  0.5760 -2.2241
12551WAT    EPW50926   1.476   0.834   1.421 -0.0856 -0.0670 -0.2174
12552WAT      O50927   0.646   7.227   1.199  0.4820 -0.4617 -0.6812
12552WAT     H150928   0.713   7.201   1.248 -0.3558  1.6020  1.7401
12552WAT     H250929   0.589   7.162   1.208  0.7894 -0.6341  0.1674
12552WAT    EPW50930   0.648   7.213   1.207  0.4036 -0.1823 -0.1982
12553WAT      O50931   2.489   0.607   1.768  0.5508  0.1810 -0.1332
12553WAT     H150932   2.461   0.525   1.781 -0.0790  0.3465 -0.4084
12553WAT     H250933   2.510   0.609   1.684  1.1495  0.1402  0.0074
12553WAT    EPW50934   2.488   0.595   1.758  0.5462  0.1994 -0.1531
12554WAT      O50935   1.024   6.370   1.807  0.2310  0.6184  0.0171
12554WAT     H150936   0.994   6.451   1.799 -1.5321  0.1070  0.8836
12554WAT     H250937   0.977   6.325   1.749  1.4264  0.2543 -0.6934
12554WAT    EPW50938   1.012   6.375   1.797  0.1472  0.4891  0.0401
12555WAT      O50939   1.761   7.382   2.149 -0.1899 -0.8944 -0.1748
12555WAT     H150940   1.841   7.355   2.174  1.0883  1.8351 -0.8535
12555WAT     H250941   1.778   7.433   2.080 -2.3585  1.0065  0.5880
12555WAT    EPW50942   1.776   7.385   2.142 -0.3214 -0.2104 -0.1624
12556WAT      O50943   1.905   1.873   1.739 -0.5609  0.0479  0.2459
12556WAT     H150944   1.853   1.873   1.669 -0.3273  0.5104  0.0718
12556WAT     H250945   1.853   1.903   1.803 -0.9360 -0.8995  0.3995
12556WAT    EPW50946   1.889   1.877   1.738 -0.5818 -0.0237  0.2429
12557WAT      O50947   1.421   1.630   1.257 -0.7363  0.6690  0.1987
12557WAT     H150948   1.463   1.683   1.202  0.9958 -0.0869  0.7360
12557WAT     H250949   1.424   1.552   1.218 -0.4527  0.3391  0.8631
12557WAT    EPW50950   1.427   1.626   1.243 -0.4385  0.5086  0.3762
12558WAT      O50951   2.488   0.818   2.313 -0.1509  0.5090 -0.1626
12558WAT     H150952   2.514   0.751   2.262  0.2346  2.7136 -3.1570
12558WAT     H250953   2.563   0.848   2.346 -0.1097  0.5955 -0.3351
12558WAT    EPW50954   2.503   0.813   2.310 -0.0878  0.8474 -0.6304
12559WAT      O50955   0.981   1.245   2.022 -0.7364 -0.2715 -0.0575
12559WAT     H150956   0.939   1.201   2.084  0.7836  1.4337  2.3582
12559WAT     H250957   1.050   1.195   2.004 -0.1192  0.1063  1.1553
12559WAT    EPW50958   0.985   1.231   2.028 -0.4207  0.0362  0.4785
12560WAT      O50959   1.060   0.206   1.888 -0.2224  0.2755  0.1794
12560WAT     H150960   0.989   0.156   1.880  1.1395 -1.6932 -0.3404
12560WAT     H250961   1.114   0.158   1.937  1.1413  1.2549 -0.2744
12560WAT    EPW50962   1.058   0.192   1.894  0.1802  0.1294  0.0356
12561WAT      O50963   1.090   1.837   3.107  0.5537  0.0093 -0.2120
12561WAT     H150964   1.044   1.911   3.100 -0.0341 -0.3986 -0.8228
12561WAT     H250965   1.041   1.788   3.161  0.1533 -0.5000 -1.0154
12561WAT    EPW50966   1.076   1.840   3.114  0.4077 -0.1262 -0.4209
12562WAT      O50967   2.872   1.284   2.850 -0.0168 -0.0970  0.0413
12562WAT     H150968   2.909   1.326   2.784  0.2220  1.9021  1.3676
12562WAT     H250969   2.916   1.208   2.853  0.5292  0.1152 -1.5200
12562WAT    EPW50970   2.884   1.279   2.841  0.0991  0.2296  0.0066
12563WAT      O50971   0.713   7.673   2.048 -0.2307 -0.1674  0.2711
12563WAT     H150972   0.669   7.613   2.095  0.7865 -1.0276  0.1710
12563WAT     H250973   0.726   7.738   2.104 -0.7378 -0.3395  0.5969
12563WAT    EPW50974   0.708   7.674   2.063 -0.1553 -0.3199  0.3044
12564WAT      O50975   1.828   1.448   1.527 -0.0008  0.1937  0.0118
12564WAT     H150976   1.794   1.374   1.559  0.6436 -0.9284 -1.7299
12564WAT     H250977   1.766   1.507   1.541 -1.4401 -1.1495 -0.4030
12564WAT    EPW50978   1.814   1.446   1.534 -0.1182 -0.1705 -0.3068
12565WAT      O50979   1.216   1.020   0.531  0.2127 -0.5108 -0.3826
12565WAT     H150980   1.282   1.024   0.587  0.8529  0.5214 -1.1670
12565WAT     H250981   1.193   0.936   0.531  3.2639 -1.4772 -2.0474
12565WAT    EPW50982   1.222   1.008   0.539  0.7580 -0.5011 -0.7444
12566WAT      O50983   2.287   0.318   1.576  0.4927  0.2202 -0.1412
12566WAT     H150984   2.360   0.282   1.607  1.0800  1.5629  0.0869
12566WAT     H250985   2.250   0.354   1.646  1.4961  2.7011 -0.7804
12566WAT    EPW50986   2.292   0.318   1.591  0.7277  0.7850 -0.2020
12567WAT      O50987   2.228   0.766   1.732 -0.4445  0.4987  0.8943
12567WAT     H150988   2.305   0.733   1.757  0.2457  2.2197  1.1845
12567WAT     H250989   2.181   0.765   1.805 -0.1956  0.7236  1.0642
12567WAT    EPW50990   2.233   0.761   1.747 -0.3057  0.7861  0.9623
12568WAT      O50991   1.458   7.506   2.981 -0.5142  0.1090 -0.0345
12568WAT     H150992   1.430   7.568   2.928 -0.2545  2.0744  1.9891
12568WAT     H250993   1.544   7.522   2.989 -0.1441 -1.4189 -0.5868
12568WAT    EPW50994   1.467   7.517   2.975 -0.4212  0.1736  0.1829
12569WAT      O50995   0.778   7.385   2.533  0.1850  0.3380 -0.3900
12569WAT     H150996   0.792   7.440   2.466  0.0016 -1.1219 -1.6820
12569WAT     H250997   0.727   7.431   2.587  0.2610  1.5324 -1.2850
12569WAT    EPW50998   0.773   7.400   2.531  0.1691  0.2988 -0.7130
12570WAT      O50999   3.646   0.367   1.883 -0.3578 -0.0481  0.2202
12570WAT     H151000   3.613   0.293   1.916  0.5137 -0.5986 -0.0990
12570WAT     H251001   3.732   0.352   1.881 -0.1039  1.2162  0.7141
12570WAT    EPW51002   3.654   0.353   1.887 -0.1915  0.0573  0.2460
12571WAT      O51003   0.997   1.473   2.354 -0.1175 -0.3894 -0.7971
12571WAT     H151004   0.963   1.549   2.328 -2.5403 -1.8429 -2.3838
12571WAT     H251005   1.064   1.460   2.299  0.0839  0.4189 -0.7483
12571WAT    EPW51006   1.002   1.482   2.342 -0.4456 -0.4847 -1.0243
   7.75279   7.69708   7.86611
