Generic title
 1080
    1C5    HO5'    1   3.308   5.223   3.406  1.5484 -0.8304 -0.8215
    1C5     O5'    2   3.355   5.221   3.490  0.5171 -0.0795 -0.1970
    1C5     C5'    3   3.412   5.349   3.507 -0.3344  0.4629  0.2269
    1C5     H5'    4   3.358   5.433   3.464 -0.6629 -0.2949 -0.8700
    1C5    H5''    5   3.507   5.350   3.452 -1.3525 -3.3585 -1.9639
    1C5     C4'    6   3.438   5.377   3.655 -0.2034 -1.0696  0.0751
    1C5     H4'    7   3.475   5.478   3.669 -2.5806 -0.0856 -0.1840
    1C5     O4'    8   3.320   5.349   3.732 -0.3335 -0.1162 -0.6147
    1C5     C1'    9   3.353   5.307   3.865 -0.2826  0.6049  0.0462
    1C5     H1'   10   3.332   5.385   3.939 -0.0644  2.0767 -1.3890
    1C5      N1   11   3.289   5.174   3.904  0.5184  0.3350 -0.4262
    1C5      C6   12   3.238   5.087   3.815  0.1513 -0.1971 -0.2502
    1C5      H6   13   3.231   5.111   3.710 -1.0676 -0.8239 -0.3335
    1C5      C5   14   3.179   4.968   3.847 -0.2614  0.2215 -0.0910
    1C5      H5   15   3.137   4.897   3.778 -0.2834  0.3263 -0.1857
    1C5      C4   16   3.175   4.947   3.984 -0.3754  0.3561  0.4082
    1C5      N4   17   3.128   4.840   4.025 -0.7640  0.3042  0.7460
    1C5     H41   18   3.133   4.826   4.125  2.4650 -1.1349  0.5131
    1C5     H42   19   3.094   4.765   3.967 -1.2293  0.9965  0.1061
    1C5      N3   20   3.217   5.028   4.078  0.0078 -0.4730 -0.7206
    1C5      C2   21   3.281   5.138   4.037  0.7807  0.2483 -0.2103
    1C5      O2   22   3.344   5.207   4.119  0.0142 -0.1369 -0.2046
    1C5     C3'   23   3.540   5.275   3.707  0.6977  0.6638  1.1188
    1C5     H3'   24   3.522   5.173   3.674  1.0062  0.5210  1.3804
    1C5     C2'   25   3.504   5.282   3.855  0.2541  1.0532  0.5180
    1C5     H2'   26   3.544   5.189   3.894  1.4422  0.1863 -2.4805
    1C5     O2'   27   3.559   5.396   3.916  0.4340 -0.2861 -0.1491
    1C5    HO2'   28   3.631   5.373   3.975 -0.1677  0.2181  0.8035
    1C5     O3'   29   3.673   5.308   3.681 -0.2065  0.3396  0.5273
    2U        P   30   3.785   5.198   3.686  0.5241 -0.0784  0.1828
    2U      OP1   31   3.913   5.266   3.648  0.3563  0.1405 -0.4053
    2U      OP2   32   3.740   5.085   3.604  0.0142  0.0839 -0.5285
    2U      O5'   33   3.791   5.160   3.839  0.0487  0.4939  0.4604
    2U      C5'   34   3.860   5.246   3.929 -0.3346 -0.4274  0.7140
    2U      H5'   35   3.836   5.351   3.909  4.5804  0.3770 -2.7718
    2U     H5''   36   3.966   5.232   3.911 -0.4070  0.3994 -0.4465
    2U      C4'   37   3.845   5.214   4.075 -0.0666 -0.6069  0.0524
    2U      H4'   38   3.883   5.298   4.133 -2.0617  1.6163 -1.6486
    2U      O4'   39   3.711   5.195   4.120 -0.4965 -0.0754 -0.1029
    2U      C1'   40   3.697   5.089   4.215  0.7763 -0.0555 -0.4309
    2U      H1'   41   3.644   5.128   4.301 -1.0230 -3.0155 -0.0374
    2U       N1   42   3.622   4.967   4.164 -0.1666  0.2453 -1.3132
    2U       C6   43   3.594   4.952   4.033  0.5671 -0.9690 -1.0174
    2U       H6   44   3.641   5.018   3.962  0.3093 -0.6791 -0.9290
    2U       C5   45   3.515   4.852   3.988  0.2941 -0.0241  0.4675
    2U       H5   46   3.492   4.840   3.883  0.6230 -5.9333  0.7630
    2U       C4   47   3.448   4.759   4.076  0.8191 -0.2057  0.1704
    2U       O4   48   3.394   4.654   4.041  0.4253 -0.4501  0.6836
    2U       N3   49   3.478   4.777   4.205 -0.0721 -1.3834  0.3998
    2U       H3   50   3.456   4.705   4.272  0.1862 -1.6997  0.1514
    2U       C2   51   3.565   4.878   4.252 -0.0886 -0.1481 -0.7985
    2U       O2   52   3.584   4.873   4.375  0.1604  0.0913  0.3229
    2U      C3'   53   3.915   5.089   4.118  0.3821 -0.2501 -0.2021
    2U      H3'   54   3.886   5.018   4.041 -1.8104  1.2772 -0.8775
    2U      C2'   55   3.844   5.060   4.250 -0.4084 -0.5384 -0.0311
    2U      H2'   56   3.862   4.962   4.294  1.6489 -0.5358 -0.7697
    2U      O2'   57   3.879   5.156   4.345  0.3429 -0.6368 -0.1735
    2U     HO2'   58   3.866   5.114   4.430 -0.3950 -1.5658 -0.7326
    2U      O3'   59   4.052   5.097   4.131 -0.3290  0.0413  0.3938
    3G        P   60   4.148   4.970   4.127  0.4906  0.2773  0.3705
    3G      OP1   61   4.283   5.035   4.131  0.6189  0.1272  0.5560
    3G      OP2   62   4.114   4.882   4.016  0.0107  0.1780  0.3088
    3G      O5'   63   4.111   4.898   4.265  0.0988 -0.2664  0.3169
    3G      C5'   64   4.159   4.946   4.389  0.0100 -0.5324  0.8980
    3G      H5'   65   4.118   5.047   4.392  0.3759 -0.0402 -3.6375
    3G     H5''   66   4.267   4.942   4.398  0.1909 -0.0200 -0.6773
    3G      C4'   67   4.104   4.852   4.495  0.6048  0.1076  0.3680
    3G      H4'   68   4.128   4.887   4.596  2.0790 -0.2449  0.1569
    3G      O4'   69   3.964   4.833   4.480 -0.2284 -0.2998 -0.2013
    3G      C1'   70   3.926   4.709   4.529 -0.1182  0.3094 -0.2613
    3G      H1'   71   3.859   4.708   4.615 -1.0640 -2.5995 -0.9075
    3G       N9   72   3.847   4.639   4.423 -0.8367 -0.0288 -0.1094
    3G       C8   73   3.831   4.671   4.290 -0.5718 -0.6068  0.8677
    3G       H8   74   3.886   4.750   4.243 -0.5453 -1.9910 -1.6154
    3G       N7   75   3.740   4.603   4.230 -0.4791 -0.0971 -0.2305
    3G       C5   76   3.698   4.515   4.330 -0.6037 -0.3614  0.4357
    3G       C6   77   3.614   4.410   4.317 -0.0688 -0.6330  0.5982
    3G       O6   78   3.550   4.380   4.215  0.5923 -0.7197  0.1029
    3G       N1   79   3.606   4.325   4.430  0.5369  0.3146 -0.4408
    3G       H1   80   3.557   4.237   4.418  2.7676 -0.7992 -2.4349
    3G       C2   81   3.671   4.354   4.540  0.9950  0.2481  0.0089
    3G       N2   82   3.630   4.278   4.638 -0.3337 -0.1903 -0.1648
    3G      H21   83   3.561   4.207   4.619  0.2422 -0.5813 -0.7956
    3G      H22   84   3.663   4.293   4.733  0.5453 -2.7464  0.0105
    3G       N3   85   3.756   4.452   4.562  0.0207 -0.6088  0.5544
    3G       C4   86   3.770   4.529   4.452  0.5720 -0.5464  0.2318
    3G      C3'   87   4.158   4.714   4.473  0.2107  0.5058  0.3807
    3G      H3'   88   4.149   4.693   4.367 -1.0621 -0.2301  0.6226
    3G      C2'   89   4.056   4.636   4.551 -0.0096 -0.2641 -0.0145
    3G      H2'   90   4.048   4.534   4.513  1.2668 -0.2511 -0.3726
    3G      O2'   91   4.083   4.634   4.687  0.7145 -0.6399  0.3598
    3G     HO2'   92   4.036   4.560   4.726  0.6361 -0.9453 -0.3083
    3G      O3'   93   4.291   4.700   4.520  0.4652 -0.5021  0.0923
    4G        P   94   4.381   4.592   4.462 -0.3662 -0.0010  0.2670
    4G      OP1   95   4.527   4.615   4.498  0.1269 -0.4665 -0.2724
    4G      OP2   96   4.345   4.574   4.316 -0.2044 -0.5472 -0.0301
    4G      O5'   97   4.327   4.470   4.545 -0.5043  0.4804 -0.5231
    4G      C5'   98   4.322   4.336   4.489  0.1735  0.4940  0.4497
    4G      H5'   99   4.414   4.278   4.498 -0.1809 -0.0500  0.5986
    4G     H5''  100   4.286   4.333   4.386  1.2915 -0.7913  0.0581
    4G      C4'  101   4.223   4.251   4.563 -0.1049  0.1004 -0.6272
    4G      H4'  102   4.260   4.256   4.666 -2.7494 -1.8219  0.5229
    4G      O4'  103   4.094   4.307   4.582  0.3916  0.5478  0.7177
    4G      C1'  104   3.996   4.203   4.567  0.6011 -0.0496 -0.4857
    4G      H1'  105   3.906   4.205   4.629  0.2923 -1.6349 -0.8261
    4G       N9  106   3.948   4.202   4.424 -0.2705 -0.4574 -0.3625
    4G       C8  107   3.985   4.287   4.321 -0.0325 -0.5714  0.6268
    4G       H8  108   4.059   4.365   4.332 -0.8227  0.7928 -2.6499
    4G       N7  109   3.917   4.271   4.213  1.0855  0.0890  0.3690
    4G       C5  110   3.821   4.173   4.248 -0.6450 -0.5937 -0.5147
    4G       C6  111   3.718   4.115   4.169  0.6883 -0.2138 -0.0689
    4G       O6  112   3.691   4.133   4.049  0.5805 -0.0838 -0.3824
    4G       N1  113   3.650   4.016   4.243 -0.2378  0.1912  0.3433
    4G       H1  114   3.588   3.950   4.199 -0.9422  1.0137  0.0762
    4G       C2  115   3.686   3.974   4.364  0.0189  0.4244  0.1285
    4G       N2  116   3.623   3.868   4.413 -0.4338 -0.5838  0.5132
    4G      H21  117   3.538   3.831   4.375 -0.4640  0.4953 -0.5346
    4G      H22  118   3.628   3.846   4.512 -0.1365 -0.4002  0.5402
    4G       N3  119   3.776   4.026   4.441 -0.5642  0.3173 -0.5681
    4G       C4  120   3.840   4.129   4.380 -0.2708 -0.3819  0.0183
    4G      C3'  121   4.212   4.102   4.544 -0.3523 -0.2737  0.0030
    4G      H3'  122   4.216   4.084   4.437 -1.3531  3.1939 -0.7321
    4G      C2'  123   4.074   4.076   4.595  0.0686  0.2434  0.1645
    4G      H2'  124   4.025   3.988   4.552 -0.0860 -0.3306  1.4764
    4G      O2'  125   4.080   4.067   4.736 -0.1355  0.2354 -0.2773
    4G     HO2'  126   3.995   4.039   4.771  1.1222 -1.4472  1.6399
    4G      O3'  127   4.320   4.042   4.622 -0.1397  0.0321  0.6999
    5G        P  128   4.409   3.923   4.549  0.2092  0.0834  0.2589
    5G      OP1  129   4.512   3.880   4.641 -0.9022 -0.0404 -0.5781
    5G      OP2  130   4.446   3.961   4.410 -0.3166  0.2365 -0.3633
    5G      O5'  131   4.298   3.807   4.532 -1.0188  0.3998 -0.0527
    5G      C5'  132   4.223   3.752   4.641 -0.0883  0.8032 -0.5627
    5G      H5'  133   4.194   3.834   4.706 -0.7824  0.1974 -0.0945
    5G     H5''  134   4.289   3.681   4.692 -0.8665 -0.4770 -1.3027
    5G      C4'  135   4.098   3.672   4.601 -0.3130  0.3215  0.3174
    5G      H4'  136   4.048   3.628   4.687  0.6777  0.1625  0.8262
    5G      O4'  137   3.999   3.755   4.544 -0.1973  0.0021  0.6045
    5G      C1'  138   3.923   3.689   4.440 -0.1930 -0.1188 -0.4163
    5G      H1'  139   3.815   3.686   4.456 -0.2827 -3.9297 -0.7116
    5G       N9  140   3.940   3.754   4.310  0.4488 -0.3903  0.3575
    5G       C8  141   4.026   3.854   4.265 -0.6858 -0.3758 -1.1273
    5G       H8  142   4.107   3.891   4.326  1.0104 -1.9124 -2.3322
    5G       N7  143   4.000   3.899   4.143  0.0053 -0.2145 -0.0635
    5G       C5  144   3.890   3.821   4.104  0.3280 -0.0791 -0.9414
    5G       C6  145   3.814   3.815   3.983  0.2259  0.3903 -0.1208
    5G       O6  146   3.826   3.888   3.885  0.2079  0.1669  0.0326
    5G       N1  147   3.715   3.721   3.976 -0.4790  0.0632  0.6921
    5G       H1  148   3.651   3.714   3.898 -1.3319  0.3249  1.3463
    5G       C2  149   3.686   3.635   4.078  0.6706  0.5543  0.3036
    5G       N2  150   3.587   3.551   4.061  0.4838 -0.1932 -0.4352
    5G      H21  151   3.529   3.547   3.978  1.3732 -0.5688 -1.0612
    5G      H22  152   3.568   3.491   4.139  2.4013  0.9143  0.9524
    5G       N3  153   3.746   3.641   4.193  0.2907  0.0561 -0.3461
    5G       C4  154   3.850   3.732   4.205 -0.4364  0.2837  0.5237
    5G      C3'  155   4.123   3.565   4.496  0.1750  0.2255 -0.0920
    5G      H3'  156   4.196   3.593   4.420 -1.2975  0.5307 -1.4415
    5G      C2'  157   3.978   3.546   4.440  0.3919 -0.0811 -0.9611
    5G      H2'  158   3.979   3.501   4.340 -0.7398 -1.9356 -0.1925
    5G      O2'  159   3.914   3.449   4.525 -0.1018 -0.4449 -0.4683
    5G     HO2'  160   3.974   3.378   4.550 -0.5064 -1.1656 -1.4805
    5G      O3'  161   4.166   3.438   4.551  0.4188  0.2025  0.9881
    6U        P  162   4.271   3.342   4.472  0.0066  0.1919 -0.2165
    6U      OP1  163   4.404   3.333   4.539  0.0592 -0.1024 -0.2761
    6U      OP2  164   4.267   3.382   4.333 -0.4488  0.1264  0.4823
    6U      O5'  165   4.210   3.192   4.481 -0.2475 -0.0855 -0.7389
    6U      C5'  166   4.204   3.123   4.607  0.3621  0.1240  0.0995
    6U      H5'  167   4.191   3.191   4.691 -0.4324  2.2667 -1.6666
    6U     H5''  168   4.299   3.070   4.618  0.7797  0.2772 -2.1393
    6U      C4'  169   4.091   3.021   4.601  0.0372  0.6848 -0.3349
    6U      H4'  170   4.098   2.968   4.695 -1.5213 -0.4085 -0.7983
    6U      O4'  171   3.973   3.086   4.595  0.2330 -0.1921  0.3090
    6U      C1'  172   3.884   3.003   4.516  0.1979 -0.5394  0.0435
    6U      H1'  173   3.792   2.987   4.572  0.2142  0.2457  0.3037
    6U       N1  174   3.849   3.070   4.388  0.5821 -0.5521 -0.4628
    6U       C6  175   3.918   3.174   4.334  0.3988 -0.6117  0.0512
    6U       H6  176   3.998   3.222   4.389 -0.5337  0.8314  0.1928
    6U       C5  177   3.879   3.226   4.210  0.0370 -0.7916 -0.1181
    6U       H5  178   3.932   3.315   4.180 -2.0446  0.4769 -0.2164
    6U       C4  179   3.769   3.180   4.133  0.3436  0.1124 -0.3651
    6U       O4  180   3.734   3.213   4.018 -0.1242  0.0478  0.5354
    6U       N3  181   3.694   3.083   4.198  0.5686  0.1839 -0.0599
    6U       H3  182   3.616   3.047   4.146 -1.9295  0.0148  3.4802
    6U       C2  183   3.736   3.022   4.317  0.2572 -0.5947  1.0746
    6U       O2  184   3.671   2.926   4.358  0.5082  0.0089  0.7762
    6U      C3'  185   4.103   2.916   4.486  0.4313 -0.0917  0.7548
    6U      H3'  186   4.131   2.976   4.400  1.4793 -1.8044 -0.1581
    6U      C2'  187   3.955   2.870   4.488 -0.5548 -0.5941 -0.0605
    6U      H2'  188   3.935   2.820   4.394  1.0624 -3.3805  0.9652
    6U      O2'  189   3.936   2.780   4.595  0.1955 -0.2048 -0.1731
    6U     HO2'  190   3.850   2.738   4.600  0.5121 -0.6979  3.1279
    6U      O3'  191   4.195   2.817   4.516 -0.3627  0.1123 -0.3936
    7C        P  192   4.286   2.764   4.396  0.4100 -0.0547  0.0811
    7C      OP1  193   4.347   2.637   4.439  0.3169  0.4757 -0.3816
    7C      OP2  194   4.369   2.876   4.339  0.3441 -0.5213 -0.3149
    7C      O5'  195   4.189   2.722   4.277 -0.4016  0.4760 -0.0880
    7C      C5'  196   4.100   2.611   4.289 -0.3405 -0.1332 -0.1000
    7C      H5'  197   4.051   2.613   4.387  1.5669  1.5225  0.8906
    7C     H5''  198   4.157   2.518   4.282 -0.4578 -0.4164  2.0258
    7C      C4'  199   3.993   2.620   4.181 -0.3175 -0.3440 -0.0173
    7C      H4'  200   3.919   2.541   4.197 -2.2794  1.5762  0.8716
    7C      O4'  201   3.929   2.746   4.178 -0.0583 -1.0093  0.2822
    7C      C1'  202   3.904   2.794   4.043  0.0489 -0.1161 -0.2130
    7C      H1'  203   3.796   2.801   4.034 -0.1608 -2.9494 -0.7207
    7C       N1  204   3.974   2.918   4.001 -0.1342  0.4027 -0.4987
    7C       C6  205   4.089   2.959   4.076  0.0189  0.1510  0.8652
    7C       H6  206   4.109   2.911   4.171  1.7937  2.0147  1.5152
    7C       C5  207   4.154   3.068   4.030  0.0769  0.3209  0.4151
    7C       H5  208   4.244   3.090   4.085  0.6912 -1.8137  0.3580
    7C       C4  209   4.099   3.136   3.916 -0.0200  0.7263 -0.9955
    7C       N4  210   4.159   3.237   3.870 -0.3632  0.1073  0.1365
    7C      H41  211   4.118   3.284   3.791  2.1059 -0.5317 -1.6539
    7C      H42  212   4.258   3.248   3.890  0.0214 -0.3402 -1.3377
    7C       N3  213   3.984   3.104   3.857 -0.0408 -0.3553  0.3323
    7C       C2  214   3.919   2.995   3.901  0.2186 -0.4267 -0.0212
    7C       O2  215   3.820   2.961   3.849  0.0724  0.3005 -0.5325
    7C      C3'  216   4.051   2.616   4.037 -0.5252 -0.0083 -0.1003
    7C      H3'  217   4.149   2.663   4.033 -0.1409 -0.6174  1.6014
    7C      C2'  218   3.949   2.689   3.945 -0.2040  0.4433  0.0527
    7C      H2'  219   3.999   2.736   3.860  1.4886  0.4687  1.0091
    7C      O2'  220   3.835   2.608   3.903 -0.2615 -0.5238  0.0320
    7C     HO2'  221   3.753   2.657   3.910  0.0197 -0.0886  0.2911
    7C      O3'  222   4.064   2.481   4.000  0.5149 -0.2477 -0.3113
    8G        P  223   4.209   2.423   3.965 -0.0763  0.1124  0.2658
    8G      OP1  224   4.179   2.324   3.859 -0.2427  0.4708  0.4248
    8G      OP2  225   4.287   2.386   4.090  0.0580  0.0810  0.6674
    8G      O5'  226   4.293   2.544   3.899 -0.3324 -0.4968 -0.0393
    8G      C5'  227   4.347   2.543   3.771  0.4733 -0.5589 -0.5805
    8G      H5'  228   4.414   2.457   3.768 -0.2872 -1.3067  1.6660
    8G     H5''  229   4.403   2.636   3.767 -2.2198  1.1235 -2.4857
    8G      C4'  230   4.244   2.546   3.652 -0.3232 -0.5920  0.0121
    8G      H4'  231   4.187   2.453   3.651 -0.5139 -0.5142  1.3721
    8G      O4'  232   4.146   2.652   3.656 -0.5097 -0.1346 -0.5946
    8G      C1'  233   4.193   2.760   3.575  0.2748  0.7820 -0.0566
    8G      H1'  234   4.118   2.812   3.515  1.3399  0.6894 -1.5400
    8G       N9  235   4.253   2.862   3.669 -0.4051 -0.1529  0.4951
    8G       C8  236   4.281   2.854   3.800 -0.0909 -0.3037 -0.5732
    8G       H8  237   4.254   2.771   3.863  2.2857  0.0381  1.0238
    8G       N7  238   4.350   2.955   3.847 -0.0028 -0.5665  0.3250
    8G       C5  239   4.367   3.033   3.730 -0.0377 -0.5429 -0.0690
    8G       C6  240   4.441   3.157   3.716 -0.4126  0.8564  0.3814
    8G       O6  241   4.507   3.221   3.795  0.5021  0.0891  0.1752
    8G       N1  242   4.426   3.208   3.593  0.2838  0.4328  0.3744
    8G       H1  243   4.475   3.295   3.578  0.9911  0.3381  1.9522
    8G       C2  244   4.347   3.154   3.495 -0.0261  0.4628  0.2361
    8G       N2  245   4.335   3.226   3.384  0.6599 -0.0901  0.6288
    8G      H21  246   4.360   3.323   3.387 -1.7388  0.5684  1.9738
    8G      H22  247   4.256   3.199   3.327  0.5060 -0.5842  1.0639
    8G       N3  248   4.274   3.038   3.501 -0.2476  0.4938 -0.4376
    8G       C4  249   4.294   2.981   3.621 -0.5466 -0.1173  0.2247
    8G      C3'  250   4.327   2.562   3.523  0.7327 -0.3295 -0.4028
    8G      H3'  251   4.429   2.578   3.557  0.0676 -0.0851  1.6103
    8G      C2'  252   4.286   2.706   3.471  0.4363  0.3341  0.1989
    8G      H2'  253   4.371   2.771   3.452  0.1885  0.2933 -1.1830
    8G      O2'  254   4.208   2.692   3.352  0.4076 -0.7768  0.4317
    8G     HO2'  255   4.246   2.760   3.296  1.3683 -1.5134  0.1691
    8G      O3'  256   4.318   2.454   3.435 -0.2077 -0.1198  0.0105
    9C        P  257   4.444   2.355   3.439 -0.0926  0.3884 -0.2284
    9C      OP1  258   4.422   2.243   3.345 -0.0805 -0.5262  0.3150
    9C      OP2  259   4.476   2.315   3.578 -0.1085  0.0436  0.1862
    9C      O5'  260   4.556   2.452   3.379  0.1175  0.1997 -0.0623
    9C      C5'  261   4.676   2.469   3.439 -0.3720 -0.2219  0.5916
    9C      H5'  262   4.724   2.372   3.450  2.3717  1.0395  0.5110
    9C     H5''  263   4.664   2.514   3.537 -0.2330  0.4389  0.3057
    9C      C4'  264   4.775   2.555   3.360  0.3986 -0.7017 -0.3719
    9C      H4'  265   4.875   2.552   3.402  0.4058  2.1381  0.0146
    9C      O4'  266   4.802   2.518   3.226 -0.7643 -0.5247  0.4902
    9C      C1'  267   4.791   2.633   3.136  0.3580 -0.0120  0.0666
    9C      H1'  268   4.863   2.634   3.055  2.5344  0.3781  1.9165
    9C       N1  269   4.661   2.640   3.069 -0.0069  0.0659 -0.5170
    9C       C6  270   4.559   2.549   3.093 -0.5689 -0.7164  0.4846
    9C       H6  271   4.586   2.466   3.156 -0.0993 -0.1683  1.0269
    9C       C5  272   4.445   2.561   3.026 -0.1256  0.0551 -0.6098
    9C       H5  273   4.366   2.489   3.041  0.8365 -1.0333 -0.6063
    9C       C4  274   4.440   2.671   2.934  0.0812  0.4199  0.5904
    9C       N4  275   4.330   2.679   2.861 -0.6924 -0.5720 -0.1181
    9C      H41  276   4.334   2.752   2.791  0.8127  1.5070  1.9762
    9C      H42  277   4.257   2.614   2.886 -1.7207  0.3566 -0.5826
    9C       N3  278   4.532   2.760   2.909 -0.7648 -0.2772 -0.6040
    9C       C2  279   4.648   2.738   2.973 -0.6765  0.1085 -0.1430
    9C       O2  280   4.743   2.809   2.945 -0.2905 -0.4283 -0.0272
    9C      C3'  281   4.733   2.704   3.356 -0.2778 -0.1073 -0.8516
    9C      H3'  282   4.625   2.714   3.342 -0.1531 -0.5679 -2.3141
    9C      C2'  283   4.807   2.751   3.231 -0.1310 -0.1928  0.5755
    9C      H2'  284   4.754   2.842   3.202  1.2502  1.1558  2.1323
    9C      O2'  285   4.946   2.774   3.246  0.9755 -0.1242  0.0411
    9C     HO2'  286   4.973   2.857   3.205 -2.2647  2.0764  1.9083
    9C      O3'  287   4.796   2.768   3.466  0.4680  0.8729  0.0253
   10A        P  288   4.719   2.874   3.548  0.0644 -0.0315 -0.0154
   10A      OP1  289   4.823   2.930   3.638  0.1263 -0.3338 -0.7902
   10A      OP2  290   4.603   2.802   3.605 -0.5559  0.0627 -0.1891
   10A      O5'  291   4.682   2.989   3.450  0.1032  0.5316  0.4527
   10A      C5'  292   4.781   3.070   3.381  0.8168  0.0543 -0.0501
   10A      H5'  293   4.868   3.005   3.369 -0.0441 -1.5400  1.7533
   10A     H5''  294   4.819   3.140   3.455  1.2241  1.0197 -1.1543
   10A      C4'  295   4.735   3.147   3.255  0.0232  0.4208  0.4017
   10A      H4'  296   4.823   3.200   3.219  0.3540 -0.4554 -0.1331
   10A      O4'  297   4.682   3.061   3.153 -0.5840 -0.0316 -0.0314
   10A      C1'  298   4.577   3.126   3.087 -0.3247  0.4454 -0.2790
   10A      H1'  299   4.591   3.128   2.978 -2.7446 -3.0303 -0.8086
   10A       N9  300   4.467   3.031   3.107 -0.0788 -0.4711  0.3630
   10A       C8  301   4.448   2.935   3.203 -0.2998 -1.2089  0.7406
   10A       H8  302   4.519   2.918   3.282  1.2491  0.9736 -0.0829
   10A       N7  303   4.331   2.878   3.194  0.3481 -0.0398 -0.1083
   10A       C5  304   4.276   2.930   3.078  0.2998  0.0260  0.1023
   10A       C6  305   4.160   2.908   2.997 -0.5625 -0.1060  0.2523
   10A       N6  306   4.065   2.820   3.022 -0.0573 -0.2110 -0.4328
   10A      H61  307   3.969   2.840   2.996  0.6433  1.5518 -1.8947
   10A      H62  308   4.077   2.767   3.107  0.3845  0.6835  0.0692
   10A       N1  309   4.133   2.977   2.889 -0.3659  0.6397  0.6872
   10A       C2  310   4.222   3.063   2.841 -0.7060 -0.0354 -0.4689
   10A       H2  311   4.200   3.122   2.754  0.9072  1.7189  0.2330
   10A       N3  312   4.334   3.097   2.907 -0.5278 -0.4374  0.4083
   10A       C4  313   4.360   3.023   3.019  0.0018 -0.2228 -0.5890
   10A      C3'  314   4.625   3.258   3.283 -0.4739  0.1808  0.7825
   10A      H3'  315   4.557   3.222   3.360 -2.6282 -0.3452 -1.2731
   10A      C2'  316   4.561   3.267   3.143 -0.6835 -0.5833  0.3994
   10A      H2'  317   4.457   3.296   3.156 -1.2469 -2.7704  1.0962
   10A      O2'  318   4.630   3.364   3.057 -0.5302  0.2887  0.4415
   10A     HO2'  319   4.668   3.421   3.124  2.1714 -0.9686  0.1249
   10A      O3'  320   4.700   3.376   3.320 -0.3908 -0.2872 -0.1746
   11G        P  321   4.666   3.463   3.449  0.5646  0.4080 -0.1256
   11G      OP1  322   4.764   3.575   3.463  0.0798  0.1266 -0.1910
   11G      OP2  323   4.652   3.373   3.566  0.1454 -0.1034 -0.7122
   11G      O5'  324   4.519   3.519   3.410 -0.9244  0.2749 -0.4657
   11G      C5'  325   4.509   3.609   3.297 -0.6752 -0.4180 -1.0466
   11G      H5'  326   4.526   3.558   3.202  0.7681 -0.1797 -0.9378
   11G     H5''  327   4.595   3.676   3.300  0.3462 -1.7054  0.3690
   11G      C4'  328   4.384   3.701   3.294 -1.3019  0.1553  0.2748
   11G      H4'  329   4.399   3.762   3.205  3.6127 -0.4672  0.3778
   11G      O4'  330   4.268   3.615   3.268 -0.5665 -0.3713 -0.0735
   11G      C1'  331   4.176   3.661   3.364  0.1248  0.3204  0.1500
   11G      H1'  332   4.082   3.682   3.313  0.5488 -0.1615 -0.8628
   11G       N9  333   4.142   3.546   3.448 -0.3415  0.0510 -0.4378
   11G       C8  334   4.201   3.501   3.569  0.1349  0.0269  0.6567
   11G       H8  335   4.294   3.537   3.610 -0.0835 -2.3858  3.5729
   11G       N7  336   4.150   3.389   3.614 -0.3826  0.3315  0.1520
   11G       C5  337   4.046   3.368   3.524  1.0203 -0.2626 -0.1676
   11G       C6  338   3.944   3.262   3.518  1.0225 -0.5036  0.2845
   11G       O6  339   3.940   3.159   3.583  0.1569  0.6275 -0.5402
   11G       N1  340   3.848   3.280   3.420 -0.6890 -0.5177  0.3399
   11G       H1  341   3.768   3.219   3.420 -0.8880 -0.2692 -0.1674
   11G       C2  342   3.854   3.379   3.327 -0.5145 -0.0386 -0.3564
   11G       N2  343   3.752   3.391   3.244  0.0117 -0.4716  0.1195
   11G      H21  344   3.675   3.327   3.254  1.1529 -1.8569  0.3946
   11G      H22  345   3.756   3.464   3.175 -0.0294 -0.1617  0.4454
   11G       N3  346   3.942   3.474   3.325 -1.0499 -0.3560  0.3380
   11G       C4  347   4.037   3.464   3.425  0.3817 -0.6856 -0.5306
   11G      C3'  348   4.372   3.774   3.422 -0.5897 -0.4246  0.2319
   11G      H3'  349   4.412   3.716   3.505 -0.8286 -1.8018 -0.6011
   11G      C2'  350   4.224   3.782   3.433  0.2775 -0.0002  0.7029
   11G      H2'  351   4.192   3.788   3.537 -0.6366 -0.5404  0.4599
   11G      O2'  352   4.157   3.887   3.362  0.2815  0.3280  0.1013
   11G     HO2'  353   4.140   3.964   3.418 -1.7538  0.0967 -0.1109
   11G      O3'  354   4.412   3.913   3.427 -0.1692 -0.3446  0.5372
   12U        P  355   4.545   3.970   3.368 -0.0553 -0.2611  0.1141
   12U      OP1  356   4.558   3.945   3.217 -0.3298  0.1180  0.0597
   12U      OP2  357   4.659   3.916   3.446  0.3622  0.2728 -0.7353
   12U      O5'  358   4.536   4.121   3.398  0.1826 -0.1733  0.2576
   12U      C5'  359   4.419   4.204   3.386 -0.1022 -0.4639  0.2064
   12U      H5'  360   4.402   4.265   3.475 -0.6283  0.8216 -0.7390
   12U     H5''  361   4.329   4.143   3.381  0.1293 -0.7784 -0.1567
   12U      C4'  362   4.417   4.311   3.275 -0.4264 -0.6210  0.1270
   12U      H4'  363   4.349   4.390   3.308  1.4303  0.8436  0.5861
   12U      O4'  364   4.543   4.380   3.269 -0.3196 -1.0471  0.7804
   12U      C1'  365   4.567   4.416   3.135  0.4269 -0.7021 -0.2367
   12U      H1'  366   4.541   4.521   3.122  0.8647 -0.5242  0.2841
   12U       N1  367   4.705   4.379   3.100  0.3830  0.0083  0.8560
   12U       C6  368   4.763   4.263   3.146 -0.1222 -0.0477 -0.5887
   12U       H6  369   4.715   4.192   3.211 -0.9973  0.8604 -0.2120
   12U       C5  370   4.892   4.234   3.107 -0.0346  0.2327  0.0170
   12U       H5  371   4.943   4.146   3.144 -0.1972 -0.9442 -2.3906
   12U       C4  372   4.970   4.310   3.023 -0.4401  0.4842 -0.2741
   12U       O4  373   5.081   4.275   2.991  0.0363 -0.5968  0.1773
   12U       N3  374   4.908   4.417   2.968  0.2540  0.5179  0.1220
   12U       H3  375   4.965   4.479   2.912  3.1611 -1.9066  0.1614
   12U       C2  376   4.777   4.456   3.005  0.3439  0.1766 -0.0190
   12U       O2  377   4.722   4.550   2.949 -0.4096  0.2842  0.4245
   12U      C3'  378   4.383   4.256   3.133 -0.0949 -0.7209  0.5097
   12U      H3'  379   4.421   4.154   3.127  1.2280 -0.2568  0.6239
   12U      C2'  380   4.468   4.346   3.043 -0.1219  0.1307  0.1184
   12U      H2'  381   4.500   4.274   2.968 -2.5316  1.7038 -2.6452
   12U      O2'  382   4.395   4.439   2.972  0.3035  0.2673  0.1382
   12U     HO2'  383   4.319   4.456   3.028 -0.8684 -3.2382 -0.1685
   12U      O3'  384   4.243   4.252   3.098  1.1721 -0.3786 -0.6425
   13A        P  385   4.142   4.376   3.145 -0.1153 -0.2709  0.1221
   13A      OP1  386   4.213   4.503   3.160  0.0979 -0.0893 -0.2056
   13A      OP2  387   4.059   4.335   3.255  0.3709 -0.2081 -0.1191
   13A      O5'  388   4.045   4.396   3.025 -0.2575  0.0098  0.2060
   13A      C5'  389   4.075   4.463   2.905  0.1599 -0.3353  0.2093
   13A      H5'  390   4.179   4.494   2.897  0.0223  0.0684 -0.0296
   13A     H5''  391   4.018   4.556   2.906  0.8798  0.1635  2.5910
   13A      C4'  392   4.049   4.374   2.785  1.0637 -0.3764 -0.9318
   13A      H4'  393   4.048   4.443   2.700 -0.5319  1.3515  0.3927
   13A      O4'  394   4.135   4.266   2.774 -0.0922 -0.3721 -0.2080
   13A      C1'  395   4.066   4.166   2.702  0.7210  0.6201  0.2430
   13A      H1'  396   4.110   4.165   2.602 -0.8142  1.2867 -0.4753
   13A       N9  397   4.090   4.027   2.761 -0.5596 -0.2752  0.6027
   13A       C8  398   4.184   3.990   2.852  0.1241  0.5658  0.0586
   13A       H8  399   4.247   4.067   2.895 -1.9017  0.7694  2.9674
   13A       N7  400   4.196   3.861   2.877  0.0377 -0.9211 -0.0320
   13A       C5  401   4.089   3.815   2.798 -0.4124  0.3631 -0.6722
   13A       C6  402   4.034   3.685   2.775  0.1976  0.7981  0.4714
   13A       N6  403   4.075   3.583   2.845  0.2950 -0.0388 -0.0592
   13A      H61  404   4.029   3.499   2.812 -1.1818  0.4285  0.7151
   13A      H62  405   4.154   3.590   2.908 -0.5554 -1.2527  1.2136
   13A       N1  406   3.942   3.644   2.684  0.1513  0.1291  0.0068
   13A       C2  407   3.888   3.753   2.618  0.3584 -0.0034  0.1204
   13A       H2  408   3.809   3.731   2.548 -0.2760 -2.6056  1.5188
   13A       N3  409   3.931   3.883   2.626 -0.2063  0.1147  0.1436
   13A       C4  410   4.034   3.909   2.719  0.0191 -0.0660  0.7193
   13A      C3'  411   3.913   4.316   2.790  0.0548  0.0149  0.1413
   13A      H3'  412   3.899   4.272   2.889  1.6879 -0.3221  0.2505
   13A      C2'  413   3.925   4.211   2.683 -0.2085 -0.0719  0.0612
   13A      H2'  414   3.857   4.126   2.696 -0.6882  0.4704  1.2947
   13A      O2'  415   3.900   4.285   2.567 -0.5758 -0.0321  0.1361
   13A     HO2'  416   3.835   4.229   2.523 -1.1199 -2.3156  3.4430
   13A      O3'  417   3.816   4.419   2.768  0.0590 -0.2766  0.4093
   14A        P  418   3.706   4.448   2.871 -0.1048  0.1254  0.3180
   14A      OP1  419   3.650   4.579   2.835  0.1298  0.1416  0.7136
   14A      OP2  420   3.746   4.426   3.005  0.2361 -0.6097 -0.8046
   14A      O5'  421   3.595   4.337   2.839 -0.6360  0.2565  0.0951
   14A      C5'  422   3.532   4.333   2.719  0.7364 -0.2180  0.0209
   14A      H5'  423   3.598   4.365   2.638 -1.8739 -0.1810 -2.2407
   14A     H5''  424   3.435   4.382   2.718  2.1686  3.0431  2.3525
   14A      C4'  425   3.507   4.183   2.691 -0.1828  0.4424 -0.2642
   14A      H4'  426   3.453   4.187   2.597  0.3805  0.5924 -0.5836
   14A      O4'  427   3.619   4.097   2.670  0.0031 -0.1285  0.3557
   14A      C1'  428   3.582   3.967   2.714  0.7436 -0.3396  0.3390
   14A      H1'  429   3.592   3.890   2.638 -1.5698  0.7206 -1.1444
   14A       N9  430   3.677   3.936   2.825  0.0345 -0.3158  0.5731
   14A       C8  431   3.761   4.021   2.891  0.0418  0.2591 -0.0175
   14A       H8  432   3.757   4.126   2.867 -0.4593  0.2224 -0.0961
   14A       N7  433   3.840   3.960   2.978  0.0328  0.3193 -0.8395
   14A       C5  434   3.803   3.827   2.969  0.3976  0.0817  0.3213
   14A       C6  435   3.844   3.712   3.038  0.3471  0.4828 -0.1167
   14A       N6  436   3.925   3.706   3.142 -0.0612 -0.3505  0.1232
   14A      H61  437   3.915   3.626   3.203 -1.0006  0.1676  0.6746
   14A      H62  438   3.975   3.792   3.157 -0.6614  0.1121 -0.4751
   14A       N1  439   3.774   3.596   3.019 -0.9621 -0.8468  0.1973
   14A       C2  440   3.676   3.592   2.931 -0.2138  0.0171 -0.3777
   14A       H2  441   3.618   3.501   2.927 -1.8585  1.0054 -0.2972
   14A       N3  442   3.631   3.688   2.846 -0.3520 -0.1756  0.2454
   14A       C4  443   3.698   3.807   2.878  0.0667 -1.0694 -0.0446
   14A      C3'  444   3.422   4.119   2.792 -1.2141  0.2800  0.5865
   14A      H3'  445   3.464   4.136   2.891 -0.1127  1.4582 -0.0515
   14A      C2'  446   3.442   3.974   2.758 -0.6416  0.1817  0.1166
   14A      H2'  447   3.435   3.911   2.847 -0.8661 -1.5535 -1.0612
   14A      O2'  448   3.355   3.919   2.656 -0.3688 -0.4492 -0.3577
   14A     HO2'  449   3.365   3.824   2.656  1.6132 -0.2761  0.0235
   14A      O3'  450   3.294   4.168   2.790  0.1788 -0.4009  0.7717
   15C        P  451   3.216   4.185   2.936 -0.1128 -0.3017 -0.0410
   15C      OP1  452   3.084   4.243   2.914 -0.1771 -0.0047  0.6419
   15C      OP2  453   3.309   4.257   3.027  0.0668  0.8348  0.6324
   15C      O5'  454   3.207   4.040   2.988  0.1662 -0.4780  0.0426
   15C      C5'  455   3.132   3.943   2.920 -0.4614  0.1259  0.2910
   15C      H5'  456   3.172   3.915   2.822 -1.4336 -0.8711  0.1591
   15C     H5''  457   3.026   3.968   2.911 -0.3499  1.5761  2.2625
   15C      C4'  458   3.148   3.809   2.993  0.2460 -0.3367 -0.5380
   15C      H4'  459   3.071   3.742   2.955  1.0150 -2.0393  0.7608
   15C      O4'  460   3.279   3.756   2.973  0.0764 -0.4291  0.2064
   15C      C1'  461   3.326   3.696   3.096 -0.1005 -0.8930  0.8675
   15C      H1'  462   3.373   3.600   3.079  3.0842  0.3080  2.0742
   15C       N1  463   3.437   3.773   3.162 -0.6817  0.0737  0.6986
   15C       C6  464   3.474   3.904   3.130 -0.0117 -0.2329  0.0773
   15C       H6  465   3.410   3.953   3.057  2.0899  0.2963 -1.5051
   15C       C5  466   3.577   3.961   3.193 -0.0215 -0.0128  0.6410
   15C       H5  467   3.599   4.062   3.160 -0.1564  0.4114  1.7959
   15C       C4  468   3.646   3.884   3.291 -0.4580 -0.1862 -0.3040
   15C       N4  469   3.756   3.933   3.339 -0.3378 -0.9031  0.1044
   15C      H41  470   3.808   3.870   3.399  1.5792  2.2897  2.1298
   15C      H42  471   3.795   4.018   3.302 -0.4923 -0.8173  0.1401
   15C       N3  472   3.610   3.767   3.330 -0.1122  0.0052  0.4068
   15C       C2  473   3.515   3.703   3.256  0.0995  0.3126  0.2048
   15C       O2  474   3.491   3.585   3.276  0.0881 -0.1006  0.2421
   15C      C3'  475   3.129   3.816   3.145  0.1034 -1.0999  0.1368
   15C      H3'  476   3.187   3.902   3.179  0.1642 -0.8279 -0.6434
   15C      C2'  477   3.202   3.687   3.189 -0.3768 -0.8136 -0.1353
   15C      H2'  478   3.232   3.692   3.294 -1.2411  0.4069  0.0731
   15C      O2'  479   3.133   3.564   3.159 -0.5016 -0.0877  0.0303
   15C     HO2'  480   3.186   3.494   3.198 -1.6104 -0.7172  0.4543
   15C      O3'  481   2.991   3.829   3.183 -0.3754  0.5130  0.0049
   16C        P  482   2.948   3.887   3.324 -0.0947  0.1056  0.4131
   16C      OP1  483   2.801   3.885   3.336  0.3217  0.8514  0.6482
   16C      OP2  484   3.015   4.013   3.347 -0.7437 -0.0194 -0.0560
   16C      O5'  485   3.013   3.773   3.423  0.0366 -0.4120 -0.4311
   16C      C5'  486   2.947   3.644   3.428  0.0543 -0.0488  0.2739
   16C      H5'  487   2.959   3.598   3.330  2.0932 -0.3050  0.6009
   16C     H5''  488   2.844   3.646   3.464 -0.3420 -1.2241 -0.7273
   16C      C4'  489   3.023   3.553   3.525  0.3829 -0.2750 -0.4668
   16C      H4'  490   2.986   3.450   3.527  2.4166 -1.0357  0.2328
   16C      O4'  491   3.161   3.548   3.498 -0.1323  0.6203  0.3642
   16C      C1'  492   3.232   3.524   3.623 -0.0184 -0.0547  0.4809
   16C      H1'  493   3.286   3.429   3.626 -2.5626 -1.6894 -1.6111
   16C       N1  494   3.335   3.639   3.635 -0.5317 -0.7626 -0.8357
   16C       C6  495   3.339   3.750   3.547  0.4999 -0.1745 -0.2717
   16C       H6  496   3.266   3.769   3.470  1.5511  2.2108 -0.7870
   16C       C5  497   3.422   3.851   3.573  0.2005  0.1889  0.2360
   16C       H5  498   3.412   3.938   3.509  0.9150 -0.6612 -1.0902
   16C       C4  499   3.517   3.839   3.676 -0.4250  0.6173 -0.2269
   16C       N4  500   3.609   3.925   3.692 -0.2144  0.0812  0.1276
   16C      H41  501   3.674   3.911   3.769  0.0455  1.6630  0.2311
   16C      H42  502   3.601   4.009   3.637 -0.4730 -0.7014 -1.0667
   16C       N3  503   3.518   3.733   3.758 -0.4239 -0.9334 -0.4536
   16C       C2  504   3.422   3.639   3.747  0.0371  0.1600  0.9449
   16C       O2  505   3.414   3.550   3.830 -0.1721  0.1089  0.1936
   16C      C3'  506   3.009   3.604   3.669 -0.1033 -0.2142  0.2532
   16C      H3'  507   3.037   3.709   3.675 -3.0314  0.6481  0.2893
   16C      C2'  508   3.119   3.527   3.731  0.1348  0.1501 -0.0019
   16C      H2'  509   3.145   3.571   3.828 -0.1677  0.5094 -0.0811
   16C      O2'  510   3.084   3.387   3.745 -0.3039  0.3131 -0.0930
   16C     HO2'  511   3.157   3.340   3.785 -0.7301 -0.3104 -0.0259
   16C      O3'  512   2.879   3.580   3.719  0.0158 -0.5273  0.4700
   17C        P  513   2.817   3.681   3.823 -0.2358 -0.0992 -0.1897
   17C      OP1  514   2.671   3.648   3.834 -0.1795 -0.1935  0.0982
   17C      OP2  515   2.857   3.819   3.791 -0.4161 -0.0609  0.6170
   17C      O5'  516   2.892   3.635   3.952  0.3051  0.1692 -0.5567
   17C      C5'  517   2.875   3.510   4.022 -0.0368 -0.2369  0.3756
   17C      H5'  518   2.894   3.428   3.953 -1.3966 -0.9223  0.7816
   17C     H5''  519   2.773   3.504   4.059  0.2783 -0.0468  1.3103
   17C      C4'  520   2.978   3.502   4.134 -0.3753 -0.5648 -0.5105
   17C      H4'  521   2.964   3.413   4.195 -0.1991  0.5074  1.1575
   17C      O4'  522   3.114   3.522   4.085  0.0776  0.4872 -0.3233
   17C      C1'  523   3.187   3.595   4.178 -0.0944  0.2224 -0.8343
   17C      H1'  524   3.267   3.530   4.214 -0.8278  0.1899  0.7796
   17C       N1  525   3.233   3.726   4.131  0.2815 -0.3378  0.7065
   17C       C6  526   3.181   3.784   4.016 -0.2924  0.0146  0.0708
   17C       H6  527   3.094   3.749   3.961 -0.3773 -0.4440  0.4970
   17C       C5  528   3.263   3.872   3.956  0.7281 -0.3072  0.3838
   17C       H5  529   3.249   3.905   3.854 -1.1446  0.9680  1.0095
   17C       C4  530   3.384   3.916   4.015  1.0330  0.4153 -0.5020
   17C       N4  531   3.446   4.022   3.963  0.4812 -0.1216 -0.1038
   17C      H41  532   3.528   4.059   4.007  1.1631 -1.4901 -0.1732
   17C      H42  533   3.411   4.071   3.881  4.8283  0.6230 -1.7619
   17C       N3  534   3.426   3.870   4.130 -0.2006 -0.2907 -0.7115
   17C       C2  535   3.355   3.768   4.188 -0.6422  0.5109 -0.1648
   17C       O2  536   3.370   3.750   4.308  0.4200 -0.4689  0.1710
   17C      C3'  537   2.956   3.618   4.230 -0.3906 -0.0328  0.2578
   17C      H3'  538   2.936   3.708   4.171  1.2384  0.2394  0.0644
   17C      C2'  539   3.093   3.622   4.296  0.1780 -0.6231 -0.4227
   17C      H2'  540   3.109   3.719   4.344 -2.9226 -0.0851 -0.2613
   17C      O2'  541   3.097   3.518   4.392 -0.3945  0.3894 -0.1349
   17C     HO2'  542   3.165   3.535   4.458  0.8944 -0.0561 -1.3101
   17C      O3'  543   2.850   3.607   4.317  0.4573 -0.1444 -0.1651
   18C        P  544   2.799   3.732   4.390 -0.3328  0.0294  0.1564
   18C      OP1  545   2.675   3.679   4.459 -0.6034 -0.4761  0.4403
   18C      OP2  546   2.794   3.848   4.297  0.3526 -0.2297 -0.4335
   18C      O5'  547   2.911   3.770   4.495 -0.0768 -0.1636  0.3213
   18C      C5'  548   2.926   3.692   4.609 -0.0795 -0.3577 -0.2614
   18C      H5'  549   2.938   3.585   4.589  2.0199 -0.0269 -1.0405
   18C     H5''  550   2.839   3.710   4.672 -0.4256 -0.9710 -0.5549
   18C      C4'  551   3.043   3.751   4.683 -0.9318 -0.3519 -0.0766
   18C      H4'  552   3.070   3.690   4.769  0.9759  1.5357  0.7693
   18C      O4'  553   3.164   3.754   4.601 -0.1966 -0.5008  0.3968
   18C      C1'  554   3.244   3.868   4.639  0.5655  0.2404  0.0472
   18C      H1'  555   3.346   3.840   4.664  0.4513 -0.7634 -0.5374
   18C       N1  556   3.264   3.961   4.524 -0.0222  0.7130  0.4571
   18C       C6  557   3.176   3.960   4.424  0.0701 -0.4978  0.0558
   18C       H6  558   3.089   3.897   4.428  0.5014 -1.2971 -1.9658
   18C       C5  559   3.194   4.043   4.311 -0.1060  0.2583  0.3512
   18C       H5  560   3.118   4.026   4.237  0.0258 -2.4890  0.7471
   18C       C4  561   3.312   4.119   4.312 -0.5716 -0.2439  0.1854
   18C       N4  562   3.340   4.191   4.203  0.6042 -0.1314 -0.6871
   18C      H41  563   3.408   4.265   4.189  0.4284  0.5689  1.7209
   18C      H42  564   3.268   4.177   4.133  2.3906 -2.7201 -2.2043
   18C       N3  565   3.397   4.122   4.411 -0.5777 -0.2061 -0.0408
   18C       C2  566   3.378   4.049   4.519 -0.2040  0.7265 -0.1369
   18C       O2  567   3.464   4.050   4.609 -0.1599 -0.1144 -0.0929
   18C      C3'  568   3.032   3.897   4.728 -0.2114  0.5060  0.3985
   18C      H3'  569   2.997   3.954   4.641  0.9181 -0.9664 -1.0905
   18C      C2'  570   3.181   3.937   4.759  0.4101 -0.8616 -0.0450
   18C      H2'  571   3.188   4.045   4.754 -1.1549 -0.7081  0.4772
   18C      O2'  572   3.229   3.881   4.879  0.0952  0.3784  0.0499
   18C     HO2'  573   3.264   3.941   4.945  1.9313 -0.6699  0.1042
   18C      O3'  574   2.949   3.916   4.839 -0.1110  0.1003 -0.0787
   19A        P  575   2.873   4.054   4.857  0.0041 -0.0656 -0.1079
   19A      OP1  576   2.780   4.033   4.975 -0.6924 -0.3543 -0.1447
   19A      OP2  577   2.807   4.079   4.728 -0.0216  0.3916  0.3991
   19A      O5'  578   2.972   4.178   4.886  0.2713  0.4621 -0.1500
   19A      C5'  579   3.029   4.181   5.016  0.3007 -0.5236 -0.6200
   19A      H5'  580   3.055   4.081   5.049  0.2740 -0.3463 -0.0526
   19A     H5''  581   2.964   4.220   5.095 -2.8381 -2.7099 -1.9029
   19A      C4'  582   3.151   4.269   5.013  0.2472  0.5913  0.0504
   19A      H4'  583   3.203   4.253   5.107 -3.6668  0.5453  2.4124
   19A      O4'  584   3.243   4.235   4.911 -0.0500  0.1054  0.4280
   19A      C1'  585   3.301   4.354   4.849 -0.1781  1.1023 -0.2892
   19A      H1'  586   3.409   4.341   4.857  0.0311  3.3353  2.0856
   19A       N9  587   3.256   4.374   4.706  0.0515  0.1342  0.4296
   19A       C8  588   3.173   4.297   4.633  0.5493  0.2267  0.7530
   19A       H8  589   3.102   4.229   4.679 -1.3767  2.5424  1.3727
   19A       N7  590   3.167   4.324   4.504  0.3910  0.6116  0.1914
   19A       C5  591   3.256   4.429   4.490  0.0273  0.7806 -0.0182
   19A       C6  592   3.306   4.502   4.381 -0.7762 -0.2772  0.1765
   19A       N6  593   3.261   4.496   4.260  0.0309 -0.3133  0.2969
   19A      H61  594   3.300   4.557   4.189 -0.2084 -1.3909 -0.7861
   19A      H62  595   3.176   4.448   4.236  0.5635 -0.9814 -0.3417
   19A       N1  596   3.398   4.596   4.402 -0.3357  0.0353  0.0779
   19A       C2  597   3.444   4.613   4.527 -0.6479  0.1041 -0.4146
   19A       H2  598   3.517   4.692   4.533 -0.9856  0.4071 -0.1874
   19A       N3  599   3.407   4.550   4.636 -0.1879  0.9552 -0.1463
   19A       C4  600   3.305   4.461   4.608 -0.4298  0.6267 -0.2780
   19A      C3'  601   3.115   4.414   4.990  0.2040 -0.2227 -0.1429
   19A      H3'  602   3.040   4.415   4.911  0.2510 -1.8420 -0.2448
   19A      C2'  603   3.256   4.463   4.948 -0.0531  0.2630  0.2502
   19A      H2'  604   3.253   4.561   4.899  0.7420 -0.5335 -1.5151
   19A      O2'  605   3.357   4.468   5.049  0.2179 -0.3131  0.6275
   19A     HO2'  606   3.428   4.515   5.005 -0.9280 -1.1328 -2.3128
   19A      O3'  607   3.084   4.479   5.113 -0.2725  0.2095  0.1943
   20G        P  608   3.005   4.619   5.105  0.2495  0.1903 -0.1504
   20G      OP1  609   2.972   4.636   5.245  0.5262 -0.0431 -0.0666
   20G      OP2  610   2.898   4.605   5.004 -0.8129  0.1777  0.3286
   20G      O5'  611   3.102   4.733   5.055 -0.8114  0.1567  0.2238
   20G      C5'  612   3.221   4.767   5.130  0.3989 -0.2327  0.5846
   20G      H5'  613   3.283   4.678   5.147 -0.2726 -0.5069  1.7737
   20G     H5''  614   3.186   4.803   5.227  2.7853  1.7318  0.7934
   20G      C4'  615   3.304   4.888   5.079  0.2882  0.4968  0.2905
   20G      H4'  616   3.395   4.898   5.139 -0.0473  1.9885  0.5858
   20G      O4'  617   3.345   4.849   4.954 -0.8097  0.1300  0.1968
   20G      C1'  618   3.301   4.941   4.857 -0.0746  0.2042 -0.2044
   20G      H1'  619   3.385   5.009   4.842  1.9555 -2.1810 -0.2740
   20G       N9  620   3.245   4.872   4.737 -0.0855 -0.2015  0.6961
   20G       C8  621   3.147   4.773   4.733  0.0138 -1.0195 -0.2329
   20G       H8  622   3.123   4.720   4.824 -1.7180  1.7172  1.0446
   20G       N7  623   3.113   4.735   4.613  0.1273 -0.0850 -0.4217
   20G       C5  624   3.179   4.828   4.527 -0.0263  0.9297 -0.6045
   20G       C6  625   3.175   4.844   4.389 -0.0922 -0.2699 -1.1388
   20G       O6  626   3.119   4.780   4.301  0.6042 -0.6782 -0.3850
   20G       N1  627   3.243   4.957   4.350 -0.4363 -0.5654 -0.1639
   20G       H1  628   3.242   4.985   4.252 -0.4632 -1.5663 -0.4575
   20G       C2  629   3.297   5.049   4.434 -0.6240 -0.0192 -0.7870
   20G       N2  630   3.366   5.150   4.385  0.5254 -0.2440 -0.3380
   20G      H21  631   3.370   5.175   4.287  2.4141  1.4683  0.1005
   20G      H22  632   3.404   5.215   4.452 -0.2010 -0.7563  0.5965
   20G       N3  633   3.317   5.027   4.563 -0.1966  0.0817 -0.0571
   20G       C4  634   3.253   4.916   4.605 -0.1308 -0.6308  0.2486
   20G      C3'  635   3.245   5.033   5.069 -0.4330  0.3347  0.1196
   20G      H3'  636   3.157   5.039   5.133 -0.8129 -1.0366 -0.2240
   20G      C2'  637   3.189   5.021   4.922 -0.4761 -0.1605 -0.3648
   20G      H2'  638   3.090   4.976   4.920  0.1988 -1.6766 -0.5110
   20G      O2'  639   3.185   5.154   4.858 -0.5522  0.5409  0.0915
   20G     HO2'  640   3.141   5.148   4.773 -2.1661 -1.0082  0.9884
   20G      O3'  641   3.342   5.126   5.081  0.6927 -0.0587 -0.0513
   21U        P  642   3.384   5.176   5.221 -0.4124  0.1828 -0.1828
   21U      OP1  643   3.388   5.073   5.322 -0.2020  0.2492  0.4075
   21U      OP2  644   3.308   5.302   5.247 -0.1029 -0.1705  0.0733
   21U      O5'  645   3.537   5.217   5.198 -0.0528  0.2973  0.5080
   21U      C5'  646   3.638   5.127   5.214 -0.5806  0.1399  0.5352
   21U      H5'  647   3.621   5.033   5.161  2.3195 -0.4522  0.4637
   21U     H5''  648   3.650   5.105   5.321  1.5691  0.2310  0.3570
   21U      C4'  649   3.766   5.199   5.174  0.2971  0.0717  0.5086
   21U      H4'  650   3.841   5.151   5.237  0.6870  1.3691  1.0641
   21U      O4'  651   3.786   5.167   5.036  0.1247 -0.1048  0.3081
   21U      C1'  652   3.814   5.291   4.963 -0.4704  1.1252 -0.0483
   21U      H1'  653   3.916   5.279   4.926  0.0032  1.4869  1.0846
   21U       N1  654   3.719   5.310   4.852  0.5743 -0.6590  0.1914
   21U       C6  655   3.593   5.249   4.849  0.2144 -0.4455  0.0203
   21U       H6  656   3.549   5.198   4.934 -1.9326 -0.6101 -1.1156
   21U       C5  657   3.518   5.259   4.739 -0.2345 -0.4702  0.2714
   21U       H5  658   3.421   5.212   4.727 -0.6973  0.9929 -2.9170
   21U       C4  659   3.561   5.330   4.624  0.2800  0.1415 -0.2828
   21U       O4  660   3.501   5.354   4.519  1.1182  0.1172  0.0408
   21U       N3  661   3.682   5.388   4.635 -0.3492 -0.3787  0.1938
   21U       H3  662   3.715   5.445   4.558 -2.0204  3.1028  1.8168
   21U       C2  663   3.767   5.378   4.742  0.1982 -0.1916 -0.0313
   21U       O2  664   3.878   5.426   4.733  0.3414  0.5705 -0.3909
   21U      C3'  665   3.780   5.355   5.194  0.1037  0.2998  0.0605
   21U      H3'  666   3.681   5.389   5.222 -0.4292 -1.8037  0.9567
   21U      C2'  667   3.811   5.409   5.055  0.2049 -0.2064 -0.2520
   21U      H2'  668   3.730   5.477   5.028 -0.0703  0.1959  1.4344
   21U      O2'  669   3.935   5.475   5.058  0.2162  0.8680 -0.0885
   21U     HO2'  670   3.997   5.415   5.100 -1.7602 -1.2572  0.0298
   21U      O3'  671   3.858   5.395   5.311 -0.3657  0.0624  0.4146
   22U        P  672   4.005   5.345   5.346  0.1140  0.0596  0.3104
   22U      OP1  673   4.050   5.454   5.437 -0.1979 -0.1827  0.3075
   22U      OP2  674   4.073   5.321   5.215  0.0120  0.1734  0.1081
   22U      O5'  675   3.986   5.209   5.422 -0.2129  0.3011 -0.0266
   22U      C5'  676   4.084   5.106   5.425 -0.0008  0.1699 -0.2746
   22U      H5'  677   4.172   5.142   5.477 -0.1740  0.3920 -0.1315
   22U     H5''  678   4.090   5.075   5.321  1.7724  0.5630 -0.3186
   22U      C4'  679   4.023   4.994   5.504 -0.4766 -0.1483  0.1509
   22U      H4'  680   4.089   4.908   5.494 -0.0087  0.4078 -2.1388
   22U      O4'  681   4.020   5.025   5.637 -0.6600  0.5206 -0.0677
   22U      C1'  682   3.896   4.986   5.695  0.8539  0.4495 -0.0696
   22U      H1'  683   3.920   4.905   5.764  1.9943  0.2521 -0.6776
   22U       N1  684   3.840   5.100   5.773 -0.3848  0.4386  0.0922
   22U       C6  685   3.829   5.224   5.723 -0.2432 -0.2654  0.2636
   22U       H6  686   3.857   5.241   5.620 -0.5086 -0.6000  0.1346
   22U       C5  687   3.799   5.327   5.802 -0.6352  0.2325  0.0576
   22U       H5  688   3.783   5.423   5.757 -1.2597  0.4497  0.7143
   22U       C4  689   3.756   5.308   5.939 -0.4693  0.3155 -0.1312
   22U       O4  690   3.720   5.401   6.014 -0.5881 -0.2424  0.1525
   22U       N3  691   3.755   5.179   5.983  0.3803  0.2815  0.0597
   22U       H3  692   3.737   5.152   6.079 -0.8279 -1.0084 -0.5014
   22U       C2  693   3.811   5.074   5.905 -0.8330  0.2881 -0.0422
   22U       O2  694   3.821   4.961   5.952 -0.2896  0.5867  0.8321
   22U      C3'  695   3.877   4.958   5.460  0.5293  1.3081 -0.0365
   22U      H3'  696   3.825   5.045   5.419  1.1021  0.9694 -1.5571
   22U      C2'  697   3.797   4.931   5.592 -1.3417 -0.1969 -0.0867
   22U      H2'  698   3.705   4.989   5.601 -0.6507  0.7520  1.2877
   22U      O2'  699   3.751   4.800   5.617  0.1313 -0.4046 -0.2019
   22U     HO2'  700   3.820   4.742   5.585  1.4179 -0.2398  2.0421
   22U      O3'  701   3.880   4.861   5.359  0.2648  1.1682  0.1899
   23A        P  702   3.955   4.718   5.369 -0.3350  0.2497  0.2097
   23A      OP1  703   3.949   4.670   5.511 -0.2386  0.2209  0.1136
   23A      OP2  704   4.093   4.728   5.311  0.9544 -0.5704  0.0088
   23A      O5'  705   3.866   4.616   5.276 -0.3019 -0.2742 -0.1477
   23A      C5'  706   3.720   4.611   5.286  0.0275 -0.0871 -0.0135
   23A      H5'  707   3.682   4.683   5.358 -0.2746  0.8715 -1.1000
   23A     H5''  708   3.700   4.510   5.324  1.6318 -0.9071 -1.2053
   23A      C4'  709   3.656   4.631   5.147  0.0379  0.0425  1.2903
   23A      H4'  710   3.553   4.597   5.159  0.8554 -2.6304  1.3543
   23A      O4'  711   3.673   4.765   5.107 -0.0550 -0.3510 -0.2338
   23A      C1'  712   3.662   4.769   4.967  0.3518  0.5006 -0.3698
   23A      H1'  713   3.570   4.825   4.950 -1.5768 -1.6534  2.1716
   23A       N9  714   3.777   4.850   4.921 -0.2312  0.6186  0.3894
   23A       C8  715   3.909   4.838   4.953  0.3770 -0.0784 -0.3697
   23A       H8  716   3.941   4.788   5.043 -1.1189  1.1585  0.8964
   23A       N7  717   3.984   4.919   4.885  0.0081  0.1829  0.7399
   23A       C5  718   3.892   4.962   4.787  0.3344  0.0843  0.0133
   23A       C6  719   3.904   5.046   4.668  1.2723 -0.9451  0.0214
   23A       N6  720   4.016   5.110   4.637 -0.6657 -1.1739 -0.3066
   23A      H61  721   4.026   5.182   4.566 -3.1006 -0.5892 -0.1579
   23A      H62  722   4.092   5.089   4.700 -0.2718  0.3726 -0.2133
   23A       N1  723   3.795   5.077   4.595  0.0474  0.4547  0.1748
   23A       C2  724   3.679   5.019   4.632 -0.1440  0.4953  0.5570
   23A       H2  725   3.589   5.038   4.576  0.1005  0.4718  0.1489
   23A       N3  726   3.656   4.935   4.733 -0.5467 -0.1532  0.3907
   23A       C4  727   3.767   4.914   4.806 -0.4827  0.4920  0.1272
   23A      C3'  728   3.715   4.540   5.032  0.0351  0.8488 -0.7036
   23A      H3'  729   3.821   4.550   5.055 -0.5118  1.1463  2.0678
   23A      C2'  730   3.658   4.626   4.914  0.3698  0.4913 -0.2776
   23A      H2'  731   3.712   4.614   4.820 -1.7201 -3.0825 -1.2333
   23A      O2'  732   3.521   4.602   4.890 -0.2781  0.0432  0.3190
   23A     HO2'  733   3.499   4.621   4.799  1.5623  2.7421  0.3222
   23A      O3'  734   3.652   4.416   5.058  0.3755  0.1302 -0.5588
   24A        P  735   3.719   4.273   5.027 -0.2117 -0.3919 -0.1078
   24A      OP1  736   3.866   4.299   5.011  0.4320  0.1437  0.0241
   24A      OP2  737   3.656   4.215   4.907 -0.1540  0.2369  0.0499
   24A      O5'  738   3.692   4.184   5.158  0.9846 -0.1303  0.2476
   24A      C5'  739   3.748   4.211   5.279 -0.0219 -0.4343  0.3493
   24A      H5'  740   3.730   4.317   5.298  1.5942 -0.2674  1.0811
   24A     H5''  741   3.855   4.194   5.280  0.2634  0.9594 -1.1564
   24A      C4'  742   3.684   4.128   5.385 -0.7351 -0.4437  0.6839
   24A      H4'  743   3.740   4.155   5.475  1.2956  1.5173 -1.0695
   24A      O4'  744   3.544   4.143   5.395  0.1511 -0.2791 -0.0618
   24A      C1'  745   3.481   4.022   5.436  0.7432 -0.9199 -0.0485
   24A      H1'  746   3.431   4.025   5.533  2.5734 -0.2737  0.9292
   24A       N9  747   3.381   3.993   5.326 -0.4282 -0.4031  0.2314
   24A       C8  748   3.373   4.045   5.198  0.0254  0.2291 -0.5630
   24A       H8  749   3.440   4.120   5.157 -0.7168  0.2472 -1.7872
   24A       N7  750   3.278   3.991   5.129 -0.5919  0.5986 -0.1984
   24A       C5  751   3.217   3.903   5.214  0.5535 -0.3832 -0.3486
   24A       C6  752   3.104   3.816   5.214 -0.2195  0.5600  0.0364
   24A       N6  753   3.025   3.799   5.111 -0.4364  0.1667 -0.0942
   24A      H61  754   2.949   3.738   5.135 -1.2285  1.5841  1.1491
   24A      H62  755   3.050   3.836   5.020  0.8148 -2.5548 -0.9597
   24A       N1  756   3.076   3.737   5.315  0.3851  1.3520 -0.0845
   24A       C2  757   3.147   3.748   5.426 -0.6014 -0.1894 -0.5520
   24A       H2  758   3.116   3.678   5.502  0.9718 -1.2784 -0.8721
   24A       N3  759   3.244   3.831   5.452 -0.3999 -0.3926 -0.0097
   24A       C4  760   3.281   3.903   5.337 -0.3398 -0.6092  0.8657
   24A      C3'  761   3.702   3.978   5.351  0.7039  0.7149  0.5797
   24A      H3'  762   3.673   3.951   5.249 -0.2415  0.4463  0.9094
   24A      C2'  763   3.591   3.914   5.439  0.3296 -0.1291 -0.1327
   24A      H2'  764   3.549   3.820   5.402 -0.2659 -0.6025  1.6152
   24A      O2'  765   3.619   3.899   5.571  0.1329 -0.1841 -0.1601
   24A     HO2'  766   3.555   3.845   5.617 -1.3166 -0.2120 -2.0868
   24A      O3'  767   3.825   3.925   5.393  0.1133 -0.3055  0.0939
   25C        P  768   3.896   3.807   5.316  0.2593 -0.1504  0.2927
   25C      OP1  769   4.025   3.805   5.387  0.8701  0.0499 -0.3089
   25C      OP2  770   3.888   3.827   5.170  0.1966  0.1684 -0.0354
   25C      O5'  771   3.807   3.692   5.360  0.4201 -0.2531 -0.1670
   25C      C5'  772   3.818   3.637   5.492  0.4432  0.4513 -0.1819
   25C      H5'  773   3.806   3.714   5.568 -0.5426  0.2080 -0.0754
   25C     H5''  774   3.916   3.593   5.506  0.2076  0.1864  0.6754
   25C      C4'  775   3.703   3.538   5.519  0.3226 -1.0348  0.1810
   25C      H4'  776   3.699   3.505   5.623  0.3812 -1.5872  0.0124
   25C      O4'  777   3.572   3.594   5.494  0.1823  0.0122 -0.1478
   25C      C1'  778   3.479   3.496   5.443  0.1084  0.3733  0.7511
   25C      H1'  779   3.394   3.494   5.512 -1.8389 -1.2402 -1.5653
   25C       N1  780   3.423   3.521   5.305 -0.2265  0.0896 -0.1923
   25C       C6  781   3.468   3.625   5.226 -0.0901  0.8717  0.0652
   25C       H6  782   3.565   3.668   5.247  1.0563 -1.0938 -0.8615
   25C       C5  783   3.408   3.660   5.108  0.9444 -0.2811 -0.4177
   25C       H5  784   3.451   3.729   5.037  0.8558  0.1134 -0.0929
   25C       C4  785   3.284   3.590   5.078 -0.6637 -0.2517  0.2924
   25C       N4  786   3.228   3.601   4.961  0.0941  0.1120 -0.4861
   25C      H41  787   3.132   3.572   4.955  0.9363 -3.4047  0.6838
   25C      H42  788   3.261   3.675   4.901 -0.4258  1.2210  0.5443
   25C       N3  789   3.241   3.490   5.152 -0.0083 -0.2694  0.0978
   25C       C2  790   3.310   3.457   5.266  0.3390 -0.3764  0.0755
   25C       O2  791   3.262   3.369   5.339 -0.0223 -0.4732  0.5758
   25C      C3'  792   3.702   3.411   5.435  0.3310  0.5453 -0.6028
   25C      H3'  793   3.707   3.437   5.330  0.2344 -1.0553 -1.0320
   25C      C2'  794   3.559   3.362   5.448  0.3822  0.7687 -0.1493
   25C      H2'  795   3.528   3.310   5.357  1.2325 -1.9709  1.0369
   25C      O2'  796   3.529   3.296   5.572 -0.5016  0.2075 -0.3899
   25C     HO2'  797   3.435   3.278   5.577 -0.0255 -2.5794  0.2133
   25C      O3'  798   3.798   3.321   5.480 -0.7545  0.1772 -0.4329
   26A        P  799   3.863   3.233   5.367 -0.5902 -0.1672 -0.1821
   26A      OP1  800   3.954   3.137   5.434 -0.1950 -0.3141  0.3189
   26A      OP2  801   3.927   3.324   5.271  0.3425 -0.0524 -0.4395
   26A      O5'  802   3.735   3.157   5.305 -0.0467  0.0294  0.1467
   26A      C5'  803   3.715   3.126   5.173  0.2947 -0.1554  0.0143
   26A      H5'  804   3.762   3.035   5.138  0.6797  0.5121 -1.2795
   26A     H5''  805   3.767   3.193   5.104  0.6305 -0.3809  0.0455
   26A      C4'  806   3.564   3.117   5.139  0.4539  0.8539  0.3026
   26A      H4'  807   3.513   3.063   5.219  2.8472  1.2859  2.2602
   26A      O4'  808   3.518   3.244   5.122  0.1492 -0.6604 -0.5413
   26A      C1'  809   3.416   3.249   5.026 -0.3675  0.3426  0.2404
   26A      H1'  810   3.325   3.281   5.076 -0.2121  1.0087  0.1004
   26A       N9  811   3.461   3.346   4.920  0.2866  0.1521 -0.0583
   26A       C8  812   3.568   3.435   4.921  0.0278 -0.2851 -0.9111
   26A       H8  813   3.625   3.451   5.011 -0.1817  2.6790 -1.1816
   26A       N7  814   3.580   3.507   4.811  0.3017 -0.4224  0.5891
   26A       C5  815   3.461   3.474   4.737 -1.1140 -0.2893 -0.5503
   26A       C6  816   3.405   3.528   4.617  0.4703  0.5326 -0.0796
   26A       N6  817   3.466   3.618   4.541  0.0189  0.0849  0.2882
   26A      H61  818   3.412   3.640   4.458  1.6278  2.0441 -0.2990
   26A      H62  819   3.563   3.635   4.561  0.1447 -0.3691  0.0926
   26A       N1  820   3.287   3.479   4.573 -0.5548  0.6630 -0.3754
   26A       C2  821   3.234   3.379   4.641  0.1680  0.2117 -0.5160
   26A       H2  822   3.146   3.334   4.598  1.5683 -1.4221 -1.8147
   26A       N3  823   3.273   3.323   4.757  0.0751 -0.0702  0.2688
   26A       C4  824   3.394   3.373   4.799  0.6149 -0.6155 -0.4451
   26A      C3'  825   3.525   3.033   5.013  0.4389  0.2325 -0.0427
   26A      H3'  826   3.597   3.052   4.933  1.8783 -0.0753  1.1205
   26A      C2'  827   3.390   3.103   4.987 -0.3447 -0.0718 -0.2280
   26A      H2'  828   3.373   3.092   4.880  1.0955  0.3702 -0.5183
   26A      O2'  829   3.287   3.056   5.069 -0.3289 -0.3832 -0.5819
   26A     HO2'  830   3.206   3.051   5.016  0.0700  0.1305 -1.2668
   26A      O3'  831   3.523   2.896   5.050  0.0025  0.5696  0.5922
   27A        P  832   3.592   2.791   4.951  0.0704  0.0397  0.0768
   27A      OP1  833   3.580   2.658   5.012  0.0253  0.0544 -0.3024
   27A      OP2  834   3.724   2.839   4.916  0.1663  0.3787 -0.1289
   27A      O5'  835   3.499   2.801   4.819 -0.3432  0.3193 -0.1319
   27A      C5'  836   3.362   2.768   4.829  0.1595 -0.0555 -0.4631
   27A      H5'  837   3.319   2.805   4.922  0.1267  0.7341 -0.7843
   27A     H5''  838   3.357   2.659   4.828  4.5298 -0.4155 -1.1712
   27A      C4'  839   3.276   2.819   4.713 -0.3609 -0.5727  0.4103
   27A      H4'  840   3.173   2.786   4.727 -1.1153  1.5255  0.1411
   27A      O4'  841   3.274   2.964   4.703  0.3323  0.1730  0.0600
   27A      C1'  842   3.267   2.997   4.558 -0.2091  0.0572 -0.9757
   27A      H1'  843   3.176   3.056   4.548 -1.3175 -1.3966 -0.0035
   27A       N9  844   3.392   3.074   4.524 -0.3573  0.0672 -0.1567
   27A       C8  845   3.510   3.077   4.597 -0.1102 -0.3360 -0.2032
   27A       H8  846   3.542   3.007   4.673  1.1872  0.8597  0.4060
   27A       N7  847   3.591   3.176   4.578 -0.0262 -0.2852  0.4852
   27A       C5  848   3.526   3.237   4.463  0.1924 -0.4753  0.3980
   27A       C6  849   3.558   3.341   4.369  0.2494  0.0392 -0.8676
   27A       N6  850   3.670   3.411   4.371  0.7354  0.5614  0.3532
   27A      H61  851   3.674   3.488   4.306  1.8532  0.0291 -0.2348
   27A      H62  852   3.741   3.392   4.440  1.0358 -0.7228 -0.2761
   27A       N1  853   3.477   3.362   4.268  0.3704 -0.5986  0.0185
   27A       C2  854   3.366   3.293   4.255  0.2762 -0.0360 -0.2202
   27A       H2  855   3.297   3.327   4.179 -0.4989 -0.1324  0.4212
   27A       N3  856   3.320   3.192   4.327  0.1848  0.0937 -0.2922
   27A       C4  857   3.404   3.176   4.434  0.3343  1.6615 -0.8764
   27A      C3'  858   3.329   2.773   4.579 -0.4725  0.9151  0.6614
   27A      H3'  859   3.436   2.794   4.582 -0.0751 -0.8959  0.7049
   27A      C2'  860   3.254   2.861   4.479  0.0527 -0.0937 -0.2491
   27A      H2'  861   3.315   2.865   4.389 -0.4798  0.3971 -0.5886
   27A      O2'  862   3.116   2.825   4.456 -0.7900 -0.0401 -0.2124
   27A     HO2'  863   3.115   2.765   4.381 -1.7133  1.0452 -1.0949
   27A      O3'  864   3.300   2.633   4.558  0.6228  0.3445  0.0028
   28A        P  865   3.394   2.539   4.470  0.5095  0.1931  0.3240
   28A      OP1  866   3.384   2.399   4.519 -0.0041  0.2492  0.2115
   28A      OP2  867   3.526   2.600   4.466  0.1695 -0.3086 -0.1724
   28A      O5'  868   3.337   2.544   4.319 -0.5864  0.0609 -0.3995
   28A      C5'  869   3.206   2.490   4.305 -0.4165  0.1919  0.2748
   28A      H5'  870   3.148   2.529   4.389 -0.7737  0.7199 -0.2069
   28A     H5''  871   3.201   2.381   4.299 -1.5245  0.1446  1.6784
   28A      C4'  872   3.146   2.543   4.177  0.4315 -0.0363  0.3848
   28A      H4'  873   3.046   2.500   4.171 -0.4612  1.8176  1.2342
   28A      O4'  874   3.137   2.684   4.185  0.3369 -0.1846 -0.5506
   28A      C1'  875   3.146   2.752   4.065 -0.3483  0.0484  0.1863
   28A      H1'  876   3.050   2.798   4.040  0.6832  2.2802  0.0962
   28A       N9  877   3.260   2.850   4.059  0.5665  1.0141  0.6025
   28A       C8  878   3.377   2.854   4.124  0.4196 -0.4380 -0.4464
   28A       H8  879   3.408   2.776   4.193 -0.0848 -0.6581 -0.4556
   28A       N7  880   3.446   2.961   4.101  0.4619 -0.1362 -0.1279
   28A       C5  881   3.368   3.038   4.012  0.4468 -0.0260 -0.8424
   28A       C6  882   3.370   3.167   3.950 -0.1652  0.1424 -0.1021
   28A       N6  883   3.467   3.257   3.950  0.3775  0.6159  0.1835
   28A      H61  884   3.458   3.329   3.880 -0.1226 -0.0319 -0.4247
   28A      H62  885   3.556   3.232   3.991 -0.0767 -0.9622  0.2864
   28A       N1  886   3.273   3.205   3.863 -0.0310  0.6028 -0.8093
   28A       C2  887   3.178   3.117   3.846  0.2988  0.7382  0.7821
   28A       H2  888   3.097   3.148   3.782  1.2624  0.9557 -0.3693
   28A       N3  889   3.155   3.000   3.901  0.3525  0.3544 -0.5576
   28A       C4  890   3.254   2.965   3.990 -0.0959 -0.4505  0.2822
   28A      C3'  891   3.218   2.517   4.046  0.0972 -0.2109 -1.4508
   28A      H3'  892   3.326   2.528   4.058  0.5545 -4.0939 -0.4282
   28A      C2'  893   3.167   2.641   3.963 -0.0940  0.0287  0.2914
   28A      H2'  894   3.229   2.669   3.878  1.6901  0.6005  1.7175
   28A      O2'  895   3.040   2.615   3.901  0.3414 -0.7396 -0.1044
   28A     HO2'  896   3.041   2.603   3.806 -2.2710 -0.1439 -0.2988
   28A      O3'  897   3.194   2.389   3.981 -0.2036  0.1466  0.2559
   29A        P  898   3.295   2.356   3.858 -0.1333  0.0504  0.0178
   29A      OP1  899   3.255   2.220   3.815  0.2905 -0.0032 -0.5692
   29A      OP2  900   3.438   2.383   3.888  0.9586 -0.2006  0.1012
   29A      O5'  901   3.257   2.449   3.733 -0.3161  0.0850  0.5896
   29A      C5'  902   3.145   2.433   3.651 -0.1320  0.0390  0.0462
   29A      H5'  903   3.064   2.415   3.722  0.3258 -0.7205  0.3886
   29A     H5''  904   3.157   2.345   3.588 -1.2158 -0.5332  0.6112
   29A      C4'  905   3.117   2.553   3.555  0.4047  0.1845  0.3894
   29A      H4'  906   3.020   2.538   3.510 -0.2076  1.4719  1.1991
   29A      O4'  907   3.108   2.674   3.634 -0.9574  0.0815 -0.2604
   29A      C1'  908   3.141   2.787   3.552  0.0155 -0.3500 -0.4298
   29A      H1'  909   3.061   2.860   3.548  0.2130 -0.0169  0.9897
   29A       N9  910   3.265   2.840   3.603  0.0025  0.2412 -0.2749
   29A       C8  911   3.360   2.788   3.685  0.0781  0.7810 -0.4564
   29A       H8  912   3.358   2.684   3.717  0.3619  1.0639  0.5033
   29A       N7  913   3.458   2.865   3.721 -0.6240  0.2042  0.1627
   29A       C5  914   3.432   2.983   3.650 -0.6696  0.4760 -0.1858
   29A       C6  915   3.491   3.113   3.657  0.3600 -0.0746  0.6162
   29A       N6  916   3.607   3.147   3.715  0.2646 -0.0147  0.3991
   29A      H61  917   3.639   3.241   3.732  0.5157  0.0923 -0.5824
   29A      H62  918   3.667   3.073   3.748 -0.3288 -0.5744  0.2633
   29A       N1  919   3.435   3.209   3.586  0.1766  0.6019  0.1751
   29A       C2  920   3.321   3.184   3.523  0.4076  0.2484  0.1081
   29A       H2  921   3.274   3.269   3.477  0.2833  0.2278  0.1980
   29A       N3  922   3.245   3.070   3.528  0.1740 -0.5185  1.0537
   29A       C4  923   3.308   2.970   3.589  0.6767 -0.3793 -0.4301
   29A      C3'  924   3.216   2.586   3.442  0.3596 -0.1152 -0.1381
   29A      H3'  925   3.320   2.596   3.474  0.2462 -0.8374  0.4778
   29A      C2'  926   3.164   2.727   3.415 -0.2352  0.0477 -0.4416
   29A      H2'  927   3.240   2.789   3.368  0.1315 -1.5268 -2.0135
   29A      O2'  928   3.051   2.720   3.336 -0.0706 -0.7584  0.4616
   29A     HO2'  929   3.019   2.806   3.310 -1.2010 -0.9067  1.2434
   29A      O3'  930   3.212   2.494   3.333  0.3831 -0.1204  0.0695
   30C        P  931   3.327   2.483   3.219  0.3735  0.3608  0.3054
   30C      OP1  932   3.286   2.373   3.129 -0.0626 -0.0960  0.2103
   30C      OP2  933   3.455   2.461   3.290 -0.0631  0.3086 -0.2419
   30C      O5'  934   3.360   2.628   3.153  0.6278 -0.0140 -0.2745
   30C      C5'  935   3.254   2.683   3.078  0.0443  0.1928  0.2880
   30C      H5'  936   3.156   2.661   3.122 -1.2364  3.1999 -0.8135
   30C     H5''  937   3.268   2.634   2.982  1.8471 -2.0891  1.6157
   30C      C4'  938   3.266   2.832   3.054 -0.5723  0.5867  0.9286
   30C      H4'  939   3.180   2.866   2.996 -0.2733  0.9745  0.7118
   30C      O4'  940   3.266   2.898   3.172 -0.0630  0.0573 -0.2231
   30C      C1'  941   3.366   3.003   3.170 -0.6141  0.0136  0.6840
   30C      H1'  942   3.319   3.097   3.200 -0.7664  0.2934 -0.3750
   30C       N1  943   3.478   2.981   3.262 -0.2853 -0.0769  0.1593
   30C       C6  944   3.499   2.861   3.326  0.3621 -0.8980 -0.2884
   30C       H6  945   3.421   2.786   3.324 -0.6040  0.0614  0.1346
   30C       C5  946   3.610   2.837   3.397  0.3770 -0.5258 -0.6166
   30C       H5  947   3.626   2.744   3.449  0.4166 -0.4443 -0.4830
   30C       C4  948   3.703   2.945   3.414 -0.4412 -0.0714  0.1301
   30C       N4  949   3.799   2.931   3.496  0.0085  0.1971 -0.5193
   30C      H41  950   3.847   3.017   3.522 -0.2848 -0.1992  1.5143
   30C      H42  951   3.804   2.860   3.567  1.0962 -1.5291 -2.2349
   30C       N3  952   3.690   3.060   3.356 -0.1809 -0.7450 -0.1585
   30C       C2  953   3.577   3.080   3.277 -0.2234  0.6619  0.5855
   30C       O2  954   3.561   3.191   3.229 -0.2144 -0.2165 -0.3350
   30C      C3'  955   3.383   2.874   2.975 -0.5460 -1.1361 -0.8094
   30C      H3'  956   3.471   2.817   3.003 -0.0147  1.1270  2.9377
   30C      C2'  957   3.402   3.025   3.020 -0.4137  0.6485  0.4248
   30C      H2'  958   3.500   3.069   3.002  0.3777 -1.7427 -1.6536
   30C      O2'  959   3.294   3.107   2.971 -0.0391 -0.1599 -0.2303
   30C     HO2'  960   3.325   3.197   2.979  1.8563 -0.8421  0.6549
   30C      O3'  961   3.359   2.880   2.838  0.2452  0.0907 -0.2804
   31A        P  962   3.473   2.872   2.732 -0.0549 -0.1845  0.1113
   31A      OP1  963   3.415   2.861   2.599  0.4595 -0.2707  0.8177
   31A      OP2  964   3.566   2.759   2.767  0.5979 -0.8032 -0.0228
   31A      O5'  965   3.549   3.008   2.737  0.5257 -0.5551  0.6452
   31A      C5'  966   3.492   3.125   2.670 -0.0258  0.2672  0.3000
   31A      H5'  967   3.401   3.153   2.723  0.5845 -0.6262  1.9082
   31A     H5''  968   3.467   3.094   2.569 -2.1352 -1.3406  1.2493
   31A      C4'  969   3.586   3.245   2.682  0.2583  0.7466 -0.1388
   31A      H4'  970   3.548   3.337   2.639 -1.1592  0.8963  1.3638
   31A      O4'  971   3.631   3.270   2.814 -0.2043  0.1839 -0.3052
   31A      C1'  972   3.770   3.303   2.813  0.1555 -0.4064 -0.4199
   31A      H1'  973   3.785   3.404   2.851  0.0900 -0.8281  0.7663
   31A       N9  974   3.832   3.207   2.904 -0.3991  0.0708  0.3053
   31A       C8  975   3.779   3.085   2.946 -0.4454 -0.7614  0.2368
   31A       H8  976   3.691   3.041   2.902  0.4957  0.2938 -2.9225
   31A       N7  977   3.827   3.038   3.058 -0.1933  0.5429 -0.1911
   31A       C5  978   3.939   3.118   3.078  0.0287 -1.0534  0.7530
   31A       C6  979   4.051   3.126   3.167  0.1183  0.1183 -0.7731
   31A       N6  980   4.054   3.047   3.271 -0.4838 -0.8265 -0.5999
   31A      H61  981   4.138   3.035   3.325 -0.1521 -1.7883 -1.2920
   31A      H62  982   3.966   3.000   3.284 -1.6084  1.2753 -0.2002
   31A       N1  983   4.141   3.225   3.165  1.0500 -0.0009 -0.7818
   31A       C2  984   4.133   3.317   3.066  0.3937 -0.2270 -0.0195
   31A       H2  985   4.205   3.397   3.066  1.0977 -0.7257 -3.2374
   31A       N3  986   4.039   3.322   2.967  0.3055  0.5812  0.3464
   31A       C4  987   3.944   3.220   2.981 -0.3925  0.3927 -0.2342
   31A      C3'  988   3.714   3.203   2.597 -0.2813  0.3403  0.1384
   31A      H3'  989   3.751   3.103   2.617  1.1416  1.1462  1.8584
   31A      C2'  990   3.812   3.296   2.664 -0.3058 -0.0274  0.4206
   31A      H2'  991   3.917   3.274   2.642 -0.0949  0.9549  0.4203
   31A      O2'  992   3.787   3.422   2.616  0.4385 -0.5796  0.0014
   31A     HO2'  993   3.850   3.488   2.648 -0.1742 -0.5837  1.2758
   31A      O3'  994   3.697   3.223   2.455  0.0335 -0.5956 -0.3000
   32A        P  995   3.775   3.149   2.335 -0.4768 -0.5893 -0.0879
   32A      OP1  996   3.682   3.091   2.236  0.2085  0.1909  0.0564
   32A      OP2  997   3.872   3.060   2.396 -0.1735 -0.0347 -0.0784
   32A      O5'  998   3.865   3.270   2.276  0.5632 -0.4216  0.3197
   32A      C5'  999   3.799   3.390   2.233 -0.2620 -0.8895 -0.4367
   32A      H5' 1000   3.709   3.406   2.292  0.3619 -0.3300  0.3867
   32A     H5'' 1001   3.762   3.387   2.130  0.6451  1.4083 -0.8927
   32A      C4' 1002   3.878   3.518   2.234 -0.0958  0.1885 -0.1306
   32A      H4' 1003   3.822   3.591   2.175  0.0520  0.2242 -0.2277
   32A      O4' 1004   3.909   3.561   2.367 -0.3789  0.2345 -0.1361
   32A      C1' 1005   4.049   3.606   2.374  0.3336 -0.1939 -0.0379
   32A      H1' 1006   4.047   3.709   2.410 -1.3933 -0.7598  1.6420
   32A       N9 1007   4.124   3.509   2.462 -0.1113 -0.0577  0.1494
   32A       C8 1008   4.103   3.377   2.485 -1.3946  0.5032  0.3307
   32A       H8 1009   4.036   3.313   2.430  0.2780 -1.1419  0.1308
   32A       N7 1010   4.181   3.328   2.581 -0.3634  0.7581  0.7006
   32A       C5 1011   4.254   3.437   2.627 -1.1766 -0.1234 -0.7321
   32A       C6 1012   4.350   3.466   2.726 -0.8463  1.0248  0.3819
   32A       N6 1013   4.403   3.376   2.804 -0.1275  0.0255 -0.1588
   32A      H61 1014   4.474   3.406   2.869  0.1014 -1.3552  0.2586
   32A      H62 1015   4.366   3.283   2.811  0.5384 -0.1904  0.7116
   32A       N1 1016   4.404   3.584   2.748  0.3122 -0.9039 -0.5769
   32A       C2 1017   4.363   3.681   2.662  0.2927  0.2177 -1.0087
   32A       H2 1018   4.405   3.780   2.668  0.7071 -0.0275  0.5192
   32A       N3 1019   4.271   3.672   2.561  0.3510  0.5444 -0.4578
   32A       C4 1020   4.222   3.545   2.550  0.1679  0.2657  0.2233
   32A      C3' 1021   4.011   3.510   2.160 -0.3635  1.2740 -0.3806
   32A      H3' 1022   4.049   3.410   2.184 -0.5574  1.7609  2.1933
   32A      C2' 1023   4.104   3.611   2.234  0.1121  0.2019  0.3399
   32A      H2' 1024   4.209   3.581   2.233 -0.4371 -1.9562 -1.5443
   32A      O2' 1025   4.084   3.743   2.189  0.5619 -0.5673 -0.6342
   32A     HO2' 1026   4.162   3.766   2.139  0.6131  1.0943  0.1495
   32A      O3' 1027   4.010   3.531   2.023 -0.2324 -0.3044  0.1308
   33G3       P 1028   4.082   3.432   1.924  0.1058  0.6397  0.1102
   33G3     OP1 1029   4.073   3.488   1.787 -0.2903  0.1975 -0.3389
   33G3     OP2 1030   4.019   3.298   1.946  0.1748 -0.5289 -0.0784
   33G3     O5' 1031   4.241   3.428   1.952 -0.7717  0.4131 -0.4091
   33G3     C5' 1032   4.291   3.332   2.045  0.8239  0.3745 -0.0415
   33G3     H5' 1033   4.315   3.251   1.976  2.4302  0.8711 -0.1078
   33G3    H5'' 1034   4.212   3.291   2.108  0.0552  3.3285  1.0636
   33G3     C4' 1035   4.411   3.369   2.128 -0.5117 -0.2618  0.5608
   33G3     H4' 1036   4.448   3.466   2.095 -0.0978 -0.8754 -0.8754
   33G3     O4' 1037   4.375   3.380   2.264 -0.5025 -0.8366  0.1943
   33G3     C1' 1038   4.468   3.297   2.344  0.1127 -0.3646  0.4220
   33G3     H1' 1039   4.501   3.350   2.433 -2.8741 -0.5348  1.7385
   33G3      N9 1040   4.410   3.174   2.397 -1.1683  0.2520 -0.2476
   33G3      C8 1041   4.305   3.110   2.347  1.0559 -0.0396  0.3174
   33G3      H8 1042   4.243   3.151   2.269 -1.4125 -1.6820  1.3160
   33G3      N7 1043   4.285   2.993   2.400  0.2998 -0.1414 -0.7029
   33G3      C5 1044   4.379   2.983   2.504  0.0398  1.1356  0.5532
   33G3      C6 1045   4.416   2.871   2.591 -0.2957  0.0037  0.7430
   33G3      O6 1046   4.367   2.758   2.598  0.5102  0.0716  0.0776
   33G3      N1 1047   4.523   2.901   2.674 -0.4078  0.6765  0.9764
   33G3      H1 1048   4.545   2.831   2.744  1.5277  0.3385  0.0914
   33G3      C2 1049   4.592   3.013   2.667  0.3251  0.2361 -0.0055
   33G3      N2 1050   4.680   3.028   2.763 -0.4769 -0.7843 -0.2055
   33G3     H21 1051   4.672   2.975   2.848 -0.2588  1.7056  1.4543
   33G3     H22 1052   4.725   3.118   2.758  0.2815 -0.9390  2.4540
   33G3      N3 1053   4.569   3.109   2.579 -0.1229 -0.1014 -0.0412
   33G3      C4 1054   4.460   3.094   2.501 -0.4277  0.1083  0.5692
   33G3     C3' 1055   4.520   3.266   2.122  0.3015  0.5351 -0.1754
   33G3     H3' 1056   4.478   3.166   2.121  0.0625  0.6226 -1.9048
   33G3     C2' 1057   4.593   3.282   2.257 -0.6618 -0.1190  0.4945
   33G3     H2' 1058   4.655   3.193   2.266  0.1541 -0.0688 -3.0654
   33G3     O2' 1059   4.657   3.408   2.264  0.2228 -0.2370 -0.4246
   33G3    HO2' 1060   4.750   3.397   2.243  0.0875  1.1500 -1.9213
   33G3     O3' 1061   4.609   3.283   2.018 -0.0399 -0.8000 -0.4119
   33G3    HO3' 1062   4.637   3.374   2.023 -2.6545  0.0513  0.8506
   34pq0     N1 1063   3.722   3.607   3.553 -0.0936  0.0641  0.3397
   34pq0     C2 1064   3.668   3.501   3.600  0.2828  0.3572 -0.0097
   34pq0     N3 1065   3.698   3.417   3.696 -0.3052  0.3647  0.9625
   34pq0     C4 1066   3.804   3.464   3.761  0.2965  0.2345 -1.0493
   34pq0     C5 1067   3.873   3.577   3.724  0.4929  0.0940  0.7779
   34pq0     C6 1068   3.827   3.660   3.611  0.4888  0.2437  0.5716
   34pq0     O6 1069   3.875   3.757   3.558 -0.5128 -0.2606  0.0359
   34pq0     C7 1070   3.973   3.595   3.821 -0.4617 -0.2577 -0.1857
   34pq0    C10 1071   4.078   3.695   3.824 -0.7105  0.0088  0.2106
   34pq0    N11 1072   4.176   3.760   3.827  0.9084  0.2499 -0.5933
   34pq0     C8 1073   3.968   3.488   3.910  0.0092  0.1274 -0.2840
   34pq0     N9 1074   3.858   3.415   3.875 -0.4273  0.6719  1.1123
   34pq0     N2 1075   3.560   3.468   3.530  0.0228 -0.6133 -0.1081
   34pq0     H1 1076   3.676   3.653   3.476  0.1174  1.5644  1.0751
   34pq0     H2 1077   4.035   3.459   3.990 -1.0256 -0.4069  0.4158
   34pq0     H3 1078   3.825   3.326   3.907  0.1796  0.1081  0.2324
   34pq0     H4 1079   3.571   3.499   3.434  1.5168  1.7514  0.7530
   34pq0     H5 1080   3.531   3.372   3.544 -1.0996 -0.0951  1.3594
   7.75279   7.69708   7.86611
