Generic title
57072
    1C5    HO5'    1   3.417   5.451   3.642
    1C5     O5'    2   3.495   5.478   3.591
    1C5     C5'    3   3.611   5.437   3.662
    1C5     H5'    4   3.700   5.459   3.604
    1C5    H5''    5   3.607   5.330   3.680
    1C5     C4'    6   3.618   5.512   3.796
    1C5     H4'    7   3.647   5.615   3.776
    1C5     O4'    8   3.492   5.514   3.863
    1C5     C1'    9   3.511   5.489   4.002
    1C5     H1'   10   3.464   5.567   4.062
    1C5      N1   11   3.453   5.356   4.039
    1C5      C6   12   3.429   5.259   3.945
    1C5      H6   13   3.457   5.275   3.842
    1C5      C5   14   3.368   5.143   3.979
    1C5      H5   15   3.349   5.067   3.905
    1C5      C4   16   3.332   5.126   4.115
    1C5      N4   17   3.275   5.016   4.153
    1C5     H41   18   3.271   4.938   4.091
    1C5     H42   19   3.258   5.004   4.253
    1C5      N3   20   3.352   5.218   4.207
    1C5      C2   21   3.411   5.335   4.171
    1C5      O2   22   3.423   5.421   4.259
    1C5     C3'   23   3.722   5.454   3.891
    1C5     H3'   24   3.727   5.346   3.882
    1C5     C2'   25   3.662   5.494   4.026
    1C5     H2'   26   3.693   5.425   4.105
    1C5     O2'   27   3.702   5.627   4.055
    1C5    HO2'   28   3.787   5.634   4.007
    1C5     O3'   29   3.847   5.518   3.872
    2U        P   30   3.981   5.432   3.871
    2U      OP1   31   4.094   5.525   3.844
    2U      OP2   32   3.958   5.319   3.781
    2U      O5'   33   3.985   5.385   4.024
    2U      C5'   34   4.015   5.478   4.127
    2U      H5'   35   3.956   5.568   4.112
    2U     H5''   36   4.120   5.505   4.122
    2U      C4'   37   3.985   5.428   4.269
    2U      H4'   38   4.013   5.508   4.338
    2U      O4'   39   3.847   5.400   4.292
    2U      C1'   40   3.838   5.293   4.386
    2U      H1'   41   3.777   5.324   4.471
    2U       N1   42   3.773   5.173   4.325
    2U       C6   43   3.769   5.153   4.188
    2U       H6   44   3.825   5.218   4.123
    2U       C5   45   3.695   5.052   4.136
    2U       H5   46   3.693   5.036   4.029
    2U       C4   47   3.621   4.960   4.219
    2U       O4   48   3.547   4.871   4.179
    2U       N3   49   3.634   4.984   4.354
    2U       H3   50   3.595   4.915   4.417
    2U       C2   51   3.708   5.084   4.411
    2U       O2   52   3.713   5.095   4.533
    2U      C3'   53   4.063   5.305   4.313
    2U      H3'   54   4.059   5.228   4.236
    2U      C2'   55   3.980   5.265   4.436
    2U      H2'   56   3.995   5.161   4.463
    2U      O2'   57   4.006   5.352   4.546
    2U     HO2'   58   3.987   5.304   4.629
    2U      O3'   59   4.196   5.341   4.347
    3G        P   60   4.312   5.234   4.345
    3G      OP1   61   4.429   5.306   4.402
    3G      OP2   62   4.324   5.185   4.207
    3G      O5'   63   4.270   5.116   4.444
    3G      C5'   64   4.295   5.126   4.584
    3G      H5'   65   4.250   5.219   4.620
    3G     H5''   66   4.403   5.131   4.599
    3G      C4'   67   4.241   5.011   4.670
    3G      H4'   68   4.269   5.029   4.773
    3G      O4'   69   4.099   5.003   4.664
    3G      C1'   70   4.059   4.868   4.686
    3G      H1'   71   3.998   4.858   4.776
    3G       N9   72   3.980   4.818   4.572
    3G       C8   73   3.977   4.866   4.443
    3G       H8   74   4.038   4.948   4.410
    3G       N7   75   3.892   4.804   4.366
    3G       C5   76   3.840   4.703   4.447
    3G       C6   77   3.744   4.599   4.421
    3G       O6   78   3.679   4.577   4.319
    3G       N1   79   3.722   4.516   4.529
    3G       H1   80   3.658   4.439   4.517
    3G       C2   81   3.780   4.531   4.651
    3G       N2   82   3.745   4.445   4.742
    3G      H21   83   3.683   4.368   4.720
    3G      H22   84   3.787   4.447   4.836
    3G       N3   85   3.867   4.629   4.681
    3G       C4   86   3.894   4.711   4.574
    3G      C3'   87   4.294   4.872   4.634
    3G      H3'   88   4.289   4.859   4.525
    3G      C2'   89   4.187   4.785   4.702
    3G      H2'   90   4.178   4.690   4.649
    3G      O2'   91   4.207   4.763   4.841
    3G     HO2'   92   4.179   4.671   4.855
    3G      O3'   93   4.425   4.849   4.683
    4G        P   94   4.520   4.739   4.617
    4G      OP1   95   4.643   4.735   4.701
    4G      OP2   96   4.534   4.772   4.474
    4G      O5'   97   4.441   4.600   4.636
    4G      C5'   98   4.442   4.534   4.762
    4G      H5'   99   4.426   4.609   4.839
    4G     H5''  100   4.541   4.489   4.777
    4G      C4'  101   4.336   4.427   4.784
    4G      H4'  102   4.339   4.400   4.889
    4G      O4'  103   4.204   4.474   4.755
    4G      C1'  104   4.126   4.363   4.710
    4G      H1'  105   4.033   4.356   4.767
    4G       N9  106   4.089   4.377   4.567
    4G       C8  107   4.133   4.467   4.473
    4G       H8  108   4.210   4.540   4.494
    4G       N7  109   4.072   4.459   4.358
    4G       C5  110   3.983   4.352   4.375
    4G       C6  111   3.884   4.294   4.288
    4G       O6  112   3.847   4.326   4.175
    4G       N1  113   3.817   4.187   4.344
    4G       H1  114   3.747   4.141   4.288
    4G       C2  115   3.838   4.143   4.470
    4G       N2  116   3.767   4.042   4.511
    4G      H21  117   3.700   3.997   4.449
    4G      H22  118   3.778   4.017   4.608
    4G       N3  119   3.924   4.197   4.556
    4G       C4  120   3.995   4.301   4.502
    4G      C3'  121   4.353   4.296   4.707
    4G      H3'  122   4.369   4.318   4.601
    4G      C2'  123   4.212   4.238   4.730
    4G      H2'  124   4.189   4.160   4.657
    4G      O2'  125   4.190   4.192   4.864
    4G     HO2'  126   4.094   4.182   4.876
    4G      O3'  127   4.459   4.217   4.760
    5G        P  128   4.527   4.103   4.675
    5G      OP1  129   4.624   4.033   4.762
    5G      OP2  130   4.577   4.160   4.548
    5G      O5'  131   4.412   3.999   4.639
    5G      C5'  132   4.357   3.915   4.739
    5G      H5'  133   4.312   3.976   4.818
    5G     H5''  134   4.436   3.855   4.782
    5G      C4'  135   4.250   3.821   4.683
    5G      H4'  136   4.217   3.755   4.764
    5G      O4'  137   4.136   3.888   4.632
    5G      C1'  138   4.085   3.812   4.523
    5G      H1'  139   3.981   3.783   4.541
    5G       N9  140   4.090   3.895   4.400
    5G       C8  141   4.172   4.001   4.372
    5G       H8  142   4.247   4.036   4.442
    5G       N7  143   4.152   4.055   4.256
    5G       C5  144   4.046   3.981   4.201
    5G       C6  145   3.973   3.993   4.078
    5G       O6  146   3.982   4.075   3.987
    5G       N1  147   3.875   3.897   4.063
    5G       H1  148   3.823   3.899   3.977
    5G       C2  149   3.846   3.803   4.155
    5G       N2  150   3.748   3.721   4.126
    5G      H21  151   3.708   3.723   4.033
    5G      H22  152   3.727   3.647   4.192
    5G       N3  153   3.908   3.790   4.273
    5G       C4  154   4.008   3.882   4.290
    5G      C3'  155   4.303   3.734   4.570
    5G      H3'  156   4.356   3.796   4.498
    5G      C2'  157   4.171   3.685   4.510
    5G      H2'  158   4.184   3.656   4.405
    5G      O2'  159   4.109   3.582   4.585
    5G     HO2'  160   4.172   3.509   4.596
    5G      O3'  161   4.391   3.634   4.622
    6U        P  162   4.479   3.542   4.527
    6U      OP1  163   4.604   3.511   4.600
    6U      OP2  164   4.488   3.606   4.394
    6U      O5'  165   4.388   3.411   4.524
    6U      C5'  166   4.379   3.331   4.641
    6U      H5'  167   4.357   3.395   4.726
    6U     H5''  168   4.475   3.282   4.659
    6U      C4'  169   4.269   3.225   4.633
    6U      H4'  170   4.264   3.174   4.729
    6U      O4'  171   4.143   3.284   4.608
    6U      C1'  172   4.066   3.196   4.527
    6U      H1'  173   3.972   3.169   4.576
    6U       N1  174   4.033   3.256   4.394
    6U       C6  175   4.103   3.365   4.343
    6U       H6  176   4.189   3.402   4.396
    6U       C5  177   4.063   3.426   4.229
    6U       H5  178   4.116   3.512   4.191
    6U       C4  179   3.947   3.381   4.156
    6U       O4  180   3.899   3.434   4.056
    6U       N3  181   3.890   3.268   4.208
    6U       H3  182   3.810   3.233   4.158
    6U       C2  183   3.926   3.203   4.323
    6U       O2  184   3.864   3.102   4.357
    6U      C3'  185   4.293   3.119   4.526
    6U      H3'  186   4.331   3.165   4.435
    6U      C2'  187   4.149   3.069   4.509
    6U      H2'  188   4.134   3.027   4.410
    6U      O2'  189   4.120   2.973   4.609
    6U     HO2'  190   4.203   2.927   4.624
    6U      O3'  191   4.376   3.013   4.574
    7C        P  192   4.474   2.933   4.476
    7C      OP1  193   4.497   2.803   4.542
    7C      OP2  194   4.589   3.021   4.445
    7C      O5'  195   4.388   2.910   4.343
    7C      C5'  196   4.291   2.808   4.333
    7C      H5'  197   4.224   2.813   4.419
    7C     H5''  198   4.341   2.711   4.334
    7C      C4'  199   4.206   2.819   4.205
    7C      H4'  200   4.133   2.738   4.205
    7C      O4'  201   4.135   2.942   4.196
    7C      C1'  202   4.128   2.985   4.061
    7C      H1'  203   4.023   2.994   4.029
    7C       N1  204   4.196   3.116   4.041
    7C       C6  205   4.296   3.159   4.125
    7C       H6  206   4.326   3.099   4.209
    7C       C5  207   4.359   3.278   4.102
    7C       H5  208   4.438   3.311   4.168
    7C       C4  209   4.316   3.352   3.989
    7C       N4  210   4.374   3.465   3.958
    7C      H41  211   4.449   3.500   4.014
    7C      H42  212   4.344   3.507   3.871
    7C       N3  213   4.218   3.313   3.911
    7C       C2  214   4.155   3.196   3.934
    7C       O2  215   4.063   3.161   3.860
    7C      C3'  216   4.288   2.807   4.077
    7C      H3'  217   4.381   2.862   4.087
    7C      C2'  218   4.195   2.876   3.977
    7C      H2'  219   4.252   2.919   3.893
    7C      O2'  220   4.097   2.785   3.930
    7C     HO2'  221   4.141   2.700   3.925
    7C      O3'  222   4.308   2.670   4.041
    8G        P  223   4.451   2.621   3.997
    8G      OP1  224   4.441   2.482   3.946
    8G      OP2  225   4.548   2.650   4.103
    8G      O5'  226   4.486   2.714   3.873
    8G      C5'  227   4.418   2.696   3.749
    8G      H5'  228   4.311   2.700   3.766
    8G     H5''  229   4.443   2.598   3.709
    8G      C4'  230   4.455   2.801   3.645
    8G      H4'  231   4.411   2.772   3.550
    8G      O4'  232   4.408   2.931   3.679
    8G      C1'  233   4.492   3.026   3.613
    8G      H1'  234   4.435   3.084   3.540
    8G       N9  235   4.548   3.120   3.712
    8G       C8  236   4.581   3.098   3.844
    8G       H8  237   4.558   3.005   3.894
    8G       N7  238   4.645   3.196   3.901
    8G       C5  239   4.652   3.294   3.800
    8G       C6  240   4.713   3.425   3.798
    8G       O6  241   4.773   3.484   3.888
    8G       N1  242   4.701   3.488   3.676
    8G       H1  243   4.757   3.571   3.662
    8G       C2  244   4.633   3.437   3.570
    8G       N2  245   4.621   3.511   3.463
    8G      H21  246   4.650   3.607   3.465
    8G      H22  247   4.557   3.477   3.392
    8G       N3  248   4.576   3.316   3.567
    8G       C4  249   4.590   3.249   3.686
    8G      C3'  250   4.605   2.817   3.625
    8G      H3'  251   4.650   2.836   3.722
    8G      C2'  252   4.604   2.947   3.543
    8G      H2'  253   4.700   2.998   3.550
    8G      O2'  254   4.568   2.926   3.407
    8G     HO2'  255   4.604   3.000   3.355
    8G      O3'  256   4.664   2.703   3.563
    9C        P  257   4.808   2.652   3.606
    9C      OP1  258   4.842   2.531   3.530
    9C      OP2  259   4.820   2.649   3.754
    9C      O5'  260   4.906   2.766   3.555
    9C      C5'  261   5.043   2.764   3.589
    9C      H5'  262   5.082   2.662   3.587
    9C     H5''  263   5.057   2.804   3.690
    9C      C4'  264   5.124   2.849   3.490
    9C      H4'  265   5.226   2.856   3.526
    9C      O4'  266   5.124   2.792   3.360
    9C      C1'  267   5.120   2.897   3.263
    9C      H1'  268   5.206   2.891   3.197
    9C       N1  269   4.994   2.892   3.182
    9C       C6  270   4.883   2.821   3.223
    9C       H6  271   4.881   2.772   3.319
    9C       C5  272   4.774   2.812   3.142
    9C       H5  273   4.688   2.757   3.175
    9C       C4  274   4.780   2.878   3.017
    9C       N4  275   4.679   2.871   2.935
    9C      H41  276   4.593   2.832   2.967
    9C      H42  277   4.685   2.919   2.845
    9C       N3  278   4.885   2.946   2.976
    9C       C2  279   4.993   2.955   3.058
    9C       O2  280   5.090   3.019   3.016
    9C      C3'  281   5.069   2.991   3.476
    9C      H3'  282   4.960   2.989   3.468
    9C      C2'  283   5.130   3.029   3.341
    9C      H2'  284   5.071   3.108   3.294
    9C      O2'  285   5.266   3.066   3.355
    9C     HO2'  286   5.271   3.119   3.436
    9C      O3'  287   5.113   3.078   3.579
   10A        P  288   5.015   3.188   3.637
   10A      OP1  289   5.091   3.259   3.742
   10A      OP2  290   4.891   3.117   3.673
   10A      O5'  291   4.992   3.284   3.511
   10A      C5'  292   5.095   3.368   3.463
   10A      H5'  293   5.187   3.311   3.454
   10A     H5''  294   5.112   3.448   3.534
   10A      C4'  295   5.063   3.430   3.327
   10A      H4'  296   5.150   3.488   3.296
   10A      O4'  297   5.037   3.333   3.226
   10A      C1'  298   4.927   3.374   3.146
   10A      H1'  299   4.954   3.371   3.040
   10A       N9  300   4.810   3.285   3.166
   10A       C8  301   4.772   3.212   3.275
   10A       H8  302   4.824   3.214   3.370
   10A       N7  303   4.668   3.136   3.255
   10A       C5  304   4.630   3.167   3.124
   10A       C6  305   4.525   3.128   3.039
   10A       N6  306   4.429   3.044   3.072
   10A      H61  307   4.349   3.039   3.012
   10A      H62  308   4.422   3.017   3.169
   10A       N1  309   4.514   3.176   2.915
   10A       C2  310   4.606   3.264   2.875
   10A       H2  311   4.595   3.300   2.775
   10A       N3  312   4.711   3.309   2.943
   10A       C4  313   4.716   3.258   3.069
   10A      C3'  314   4.945   3.527   3.329
   10A      H3'  315   4.868   3.492   3.398
   10A      C2'  316   4.896   3.518   3.185
   10A      H2'  317   4.789   3.540   3.178
   10A      O2'  318   4.971   3.605   3.100
   10A     HO2'  319   4.987   3.684   3.154
   10A      O3'  320   4.989   3.659   3.357
   11G        P  321   4.939   3.738   3.486
   11G      OP1  322   5.028   3.856   3.500
   11G      OP2  323   4.929   3.643   3.598
   11G      O5'  324   4.792   3.785   3.445
   11G      C5'  325   4.768   3.849   3.320
   11G      H5'  326   4.765   3.774   3.241
   11G     H5''  327   4.848   3.920   3.299
   11G      C4'  328   4.635   3.926   3.317
   11G      H4'  329   4.622   3.966   3.217
   11G      O4'  330   4.527   3.838   3.347
   11G      C1'  331   4.455   3.889   3.458
   11G      H1'  332   4.372   3.951   3.423
   11G       N9  333   4.400   3.776   3.537
   11G       C8  334   4.439   3.726   3.659
   11G       H8  335   4.517   3.771   3.719
   11G       N7  336   4.379   3.615   3.693
   11G       C5  337   4.288   3.594   3.590
   11G       C6  338   4.193   3.489   3.566
   11G       O6  339   4.174   3.385   3.626
   11G       N1  340   4.116   3.509   3.454
   11G       H1  341   4.047   3.438   3.434
   11G       C2  342   4.133   3.611   3.368
   11G       N2  343   4.057   3.611   3.261
   11G      H21  344   3.985   3.539   3.251
   11G      H22  345   4.069   3.686   3.197
   11G       N3  346   4.223   3.708   3.381
   11G       C4  347   4.297   3.695   3.496
   11G      C3'  348   4.632   4.041   3.418
   11G      H3'  349   4.732   4.068   3.452
   11G      C2'  350   4.554   3.977   3.533
   11G      H2'  351   4.623   3.914   3.589
   11G      O2'  352   4.493   4.070   3.621
   11G     HO2'  353   4.449   4.138   3.569
   11G      O3'  354   4.566   4.153   3.360
   12U        P  355   4.641   4.240   3.247
   12U      OP1  356   4.574   4.218   3.117
   12U      OP2  357   4.786   4.212   3.256
   12U      O5'  358   4.621   4.393   3.288
   12U      C5'  359   4.655   4.442   3.417
   12U      H5'  360   4.730   4.377   3.462
   12U     H5''  361   4.567   4.438   3.479
   12U      C4'  362   4.711   4.585   3.415
   12U      H4'  363   4.721   4.618   3.519
   12U      O4'  364   4.839   4.582   3.352
   12U      C1'  365   4.832   4.664   3.236
   12U      H1'  366   4.864   4.764   3.264
   12U       N1  367   4.917   4.615   3.125
   12U       C6  368   4.913   4.483   3.085
   12U       H6  369   4.851   4.413   3.141
   12U       C5  370   4.988   4.440   2.980
   12U       H5  371   4.984   4.336   2.951
   12U       C4  372   5.074   4.531   2.907
   12U       O4  373   5.145   4.501   2.811
   12U       N3  374   5.071   4.660   2.951
   12U       H3  375   5.128   4.726   2.903
   12U       C2  376   4.996   4.708   3.057
   12U       O2  377   5.003   4.828   3.085
   12U      C3'  378   4.626   4.688   3.337
   12U      H3'  379   4.520   4.664   3.341
   12U      C2'  380   4.684   4.672   3.196
   12U      H2'  381   4.650   4.580   3.150
   12U      O2'  382   4.657   4.785   3.114
   12U     HO2'  383   4.644   4.857   3.177
   12U      O3'  384   4.653   4.825   3.371
   13A        P  385   4.597   4.894   3.502
   13A      OP1  386   4.617   5.039   3.482
   13A      OP2  387   4.662   4.830   3.619
   13A      O5'  388   4.443   4.859   3.492
   13A      C5'  389   4.354   4.878   3.601
   13A      H5'  390   4.351   4.983   3.628
   13A     H5''  391   4.389   4.819   3.686
   13A      C4'  392   4.212   4.832   3.565
   13A      H4'  393   4.145   4.858   3.646
   13A      O4'  394   4.165   4.892   3.444
   13A      C1'  395   4.070   4.805   3.384
   13A      H1'  396   3.970   4.847   3.396
   13A       N9  397   4.096   4.789   3.238
   13A       C8  398   4.035   4.859   3.137
   13A       H8  399   3.957   4.932   3.158
   13A       N7  400   4.078   4.834   3.016
   13A       C5  401   4.177   4.736   3.040
   13A       C6  402   4.266   4.664   2.957
   13A       N6  403   4.275   4.679   2.827
   13A      H61  404   4.345   4.626   2.778
   13A      H62  405   4.219   4.749   2.782
   13A       N1  406   4.350   4.572   3.006
   13A       C2  407   4.347   4.552   3.138
   13A       H2  408   4.415   4.478   3.176
   13A       N3  409   4.271   4.613   3.227
   13A       C4  410   4.187   4.706   3.174
   13A      C3'  411   4.201   4.681   3.543
   13A      H3'  412   4.283   4.647   3.480
   13A      C2'  413   4.068   4.676   3.467
   13A      H2'  414   4.059   4.587   3.406
   13A      O2'  415   3.959   4.690   3.557
   13A     HO2'  416   3.973   4.624   3.626
   13A      O3'  417   4.192   4.607   3.665
   14A        P  418   4.294   4.487   3.698
   14A      OP1  419   4.286   4.459   3.842
   14A      OP2  420   4.425   4.521   3.640
   14A      O5'  421   4.234   4.361   3.618
   14A      C5'  422   4.246   4.351   3.477
   14A      H5'  423   4.348   4.324   3.451
   14A     H5''  424   4.223   4.446   3.431
   14A      C4'  425   4.149   4.248   3.417
   14A      H4'  426   4.146   4.265   3.309
   14A      O4'  427   4.195   4.114   3.437
   14A      C1'  428   4.082   4.029   3.454
   14A      H1'  429   4.082   3.949   3.379
   14A       N9  430   4.087   3.966   3.588
   14A       C8  431   4.173   3.991   3.692
   14A       H8  432   4.239   4.077   3.694
   14A       N7  433   4.171   3.901   3.787
   14A       C5  434   4.070   3.814   3.745
   14A       C6  435   4.010   3.696   3.798
   14A       N6  436   4.043   3.641   3.913
   14A      H61  437   3.995   3.556   3.941
   14A      H62  438   4.119   3.681   3.965
   14A       N1  439   3.915   3.631   3.731
   14A       C2  440   3.876   3.681   3.615
   14A       H2  441   3.799   3.626   3.563
   14A       N3  442   3.920   3.790   3.553
   14A       C4  443   4.018   3.853   3.625
   14A      C3'  444   4.005   4.257   3.468
   14A      H3'  445   4.005   4.271   3.576
   14A      C2'  446   3.956   4.115   3.435
   14A      H2'  447   3.877   4.084   3.503
   14A      O2'  448   3.912   4.109   3.299
   14A     HO2'  449   3.860   4.190   3.288
   14A      O3'  450   3.929   4.358   3.402
   15C        P  451   3.779   4.393   3.447
   15C      OP1  452   3.748   4.534   3.414
   15C      OP2  453   3.753   4.343   3.583
   15C      O5'  454   3.690   4.307   3.346
   15C      C5'  455   3.560   4.353   3.316
   15C      H5'  456   3.565   4.455   3.279
   15C     H5''  457   3.501   4.352   3.408
   15C      C4'  458   3.485   4.272   3.210
   15C      H4'  459   3.385   4.315   3.202
   15C      O4'  460   3.550   4.283   3.084
   15C      C1'  461   3.566   4.152   3.032
   15C      H1'  462   3.474   4.121   2.981
   15C       N1  463   3.678   4.146   2.933
   15C       C6  464   3.797   4.083   2.961
   15C       H6  465   3.815   4.037   3.057
   15C       C5  466   3.895   4.077   2.867
   15C       H5  467   3.988   4.028   2.889
   15C       C4  468   3.869   4.138   2.742
   15C       N4  469   3.962   4.137   2.650
   15C      H41  470   4.052   4.100   2.675
   15C      H42  471   3.945   4.189   2.566
   15C       N3  472   3.757   4.202   2.712
   15C       C2  473   3.659   4.205   2.807
   15C       O2  474   3.554   4.262   2.777
   15C      C3'  475   3.472   4.124   3.247
   15C      H3'  476   3.495   4.106   3.352
   15C      C2'  477   3.578   4.063   3.156
   15C      H2'  478   3.675   4.079   3.204
   15C      O2'  479   3.559   3.926   3.125
   15C     HO2'  480   3.566   3.875   3.207
   15C      O3'  481   3.341   4.080   3.213
   16C        P  482   3.221   4.098   3.314
   16C      OP1  483   3.098   4.060   3.240
   16C      OP2  484   3.231   4.234   3.373
   16C      O5'  485   3.254   3.987   3.425
   16C      C5'  486   3.222   3.851   3.403
   16C      H5'  487   3.267   3.819   3.309
   16C     H5''  488   3.114   3.842   3.394
   16C      C4'  489   3.269   3.755   3.513
   16C      H4'  490   3.217   3.660   3.498
   16C      O4'  491   3.408   3.725   3.508
   16C      C1'  492   3.458   3.713   3.642
   16C      H1'  493   3.518   3.622   3.653
   16C       N1  494   3.544   3.830   3.677
   16C       C6  495   3.552   3.941   3.596
   16C       H6  496   3.489   3.947   3.508
   16C       C5  497   3.637   4.041   3.625
   16C       H5  498   3.642   4.128   3.561
   16C       C4  499   3.720   4.027   3.739
   16C       N4  500   3.800   4.125   3.771
   16C      H41  501   3.802   4.208   3.712
   16C      H42  502   3.865   4.112   3.848
   16C       N3  503   3.713   3.923   3.820
   16C       C2  504   3.625   3.823   3.792
   16C       O2  505   3.616   3.729   3.870
   16C      C3'  506   3.235   3.798   3.656
   16C      H3'  507   3.263   3.902   3.671
   16C      C2'  508   3.333   3.704   3.730
   16C      H2'  509   3.353   3.738   3.832
   16C      O2'  510   3.290   3.568   3.729
   16C     HO2'  511   3.353   3.514   3.780
   16C      O3'  512   3.098   3.776   3.686
   17C        P  513   3.024   3.855   3.804
   17C      OP1  514   2.889   3.794   3.816
   17C      OP2  515   3.034   4.000   3.778
   17C      O5'  516   3.105   3.821   3.936
   17C      C5'  517   3.096   3.693   3.996
   17C      H5'  518   3.129   3.617   3.926
   17C     H5''  519   2.992   3.674   4.022
   17C      C4'  520   3.178   3.683   4.124
   17C      H4'  521   3.154   3.587   4.170
   17C      O4'  522   3.318   3.686   4.102
   17C      C1'  523   3.380   3.754   4.211
   17C      H1'  524   3.462   3.694   4.253
   17C       N1  525   3.437   3.885   4.165
   17C       C6  526   3.405   3.938   4.042
   17C       H6  527   3.329   3.891   3.982
   17C       C5  528   3.470   4.047   3.995
   17C       H5  529   3.445   4.087   3.898
   17C       C4  530   3.572   4.102   4.077
   17C       N4  531   3.636   4.208   4.035
   17C      H41  532   3.638   4.225   3.936
   17C      H42  533   3.714   4.242   4.091
   17C       N3  534   3.600   4.057   4.197
   17C       C2  535   3.535   3.947   4.243
   17C       O2  536   3.562   3.906   4.356
   17C      C3'  537   3.146   3.791   4.227
   17C      H3'  538   3.148   3.890   4.180
   17C      C2'  539   3.270   3.771   4.317
   17C      H2'  540   3.288   3.858   4.380
   17C      O2'  541   3.259   3.652   4.393
   17C     HO2'  542   3.332   3.646   4.458
   17C      O3'  543   3.022   3.766   4.291
   18C        P  544   2.939   3.878   4.368
   18C      OP1  545   2.822   3.807   4.424
   18C      OP2  546   2.913   3.991   4.277
   18C      O5'  547   3.033   3.929   4.487
   18C      C5'  548   3.056   3.850   4.602
   18C      H5'  549   3.091   3.751   4.571
   18C     H5''  550   2.963   3.838   4.657
   18C      C4'  551   3.161   3.910   4.696
   18C      H4'  552   3.168   3.845   4.784
   18C      O4'  553   3.291   3.915   4.636
   18C      C1'  554   3.361   4.029   4.684
   18C      H1'  555   3.458   4.000   4.726
   18C       N1  556   3.385   4.128   4.575
   18C       C6  557   3.316   4.123   4.456
   18C       H6  558   3.235   4.052   4.445
   18C       C5  559   3.347   4.205   4.354
   18C       H5  560   3.293   4.199   4.261
   18C       C4  561   3.453   4.297   4.375
   18C       N4  562   3.490   4.376   4.278
   18C      H41  563   3.462   4.353   4.186
   18C      H42  564   3.569   4.437   4.297
   18C       N3  565   3.520   4.307   4.488
   18C       C2  566   3.488   4.223   4.590
   18C       O2  567   3.549   4.235   4.695
   18C      C3'  568   3.131   4.052   4.747
   18C      H3'  569   3.102   4.116   4.664
   18C      C2'  570   3.273   4.087   4.796
   18C      H2'  571   3.287   4.194   4.804
   18C      O2'  572   3.308   4.019   4.916
   18C     HO2'  573   3.348   4.082   4.979
   18C      O3'  574   3.033   4.054   4.851
   19A        P  575   2.945   4.184   4.884
   19A      OP1  576   2.863   4.151   5.003
   19A      OP2  577   2.871   4.226   4.763
   19A      O5'  578   3.047   4.301   4.928
   19A      C5'  579   3.111   4.297   5.055
   19A      H5'  580   3.143   4.195   5.074
   19A     H5''  581   3.040   4.324   5.133
   19A      C4'  582   3.234   4.387   5.070
   19A      H4'  583   3.282   4.361   5.165
   19A      O4'  584   3.329   4.360   4.967
   19A      C1'  585   3.400   4.479   4.935
   19A      H1'  586   3.508   4.461   4.938
   19A       N9  587   3.363   4.524   4.798
   19A       C8  588   3.274   4.465   4.711
   19A       H8  589   3.210   4.383   4.741
   19A       N7  590   3.274   4.514   4.590
   19A       C5  591   3.371   4.615   4.598
   19A       C6  592   3.426   4.706   4.506
   19A       N6  593   3.396   4.709   4.377
   19A      H61  594   3.456   4.763   4.317
   19A      H62  595   3.342   4.631   4.343
   19A       N1  596   3.518   4.796   4.542
   19A       C2  597   3.559   4.794   4.669
   19A       H2  598   3.634   4.867   4.695
   19A       N3  599   3.520   4.712   4.766
   19A       C4  600   3.424   4.624   4.724
   19A      C3'  601   3.214   4.539   5.071
   19A      H3'  602   3.148   4.568   4.989
   19A      C2'  603   3.359   4.580   5.043
   19A      H2'  604   3.365   4.683   5.006
   19A      O2'  605   3.444   4.560   5.155
   19A     HO2'  606   3.535   4.579   5.127
   19A      O3'  607   3.166   4.590   5.196
   20G        P  608   3.107   4.737   5.211
   20G      OP1  609   3.072   4.759   5.353
   20G      OP2  610   2.998   4.752   5.113
   20G      O5'  611   3.218   4.846   5.173
   20G      C5'  612   3.334   4.868   5.252
   20G      H5'  613   3.396   4.779   5.252
   20G     H5''  614   3.305   4.889   5.355
   20G      C4'  615   3.420   4.986   5.202
   20G      H4'  616   3.511   4.990   5.262
   20G      O4'  617   3.452   4.966   5.065
   20G      C1'  618   3.393   5.068   4.987
   20G      H1'  619   3.469   5.142   4.963
   20G       N9  620   3.336   5.015   4.862
   20G       C8  621   3.250   4.910   4.844
   20G       H8  622   3.219   4.846   4.926
   20G       N7  623   3.207   4.896   4.722
   20G       C5  624   3.273   4.997   4.652
   20G       C6  625   3.268   5.035   4.514
   20G       O6  626   3.201   4.988   4.422
   20G       N1  627   3.347   5.144   4.485
   20G       H1  628   3.350   5.174   4.389
   20G       C2  629   3.419   5.213   4.577
   20G       N2  630   3.477   5.323   4.533
   20G      H21  631   3.471   5.349   4.436
   20G      H22  632   3.528   5.379   4.600
   20G       N3  633   3.423   5.185   4.707
   20G       C4  634   3.351   5.073   4.738
   20G      C3'  635   3.347   5.121   5.211
   20G      H3'  636   3.270   5.121   5.288
   20G      C2'  637   3.284   5.131   5.072
   20G      H2'  638   3.193   5.071   5.068
   20G      O2'  639   3.257   5.266   5.038
   20G     HO2'  640   3.327   5.316   5.081
   20G      O3'  641   3.437   5.231   5.227
   21U        P  642   3.475   5.284   5.371
   21U      OP1  643   3.463   5.174   5.468
   21U      OP2  644   3.401   5.410   5.393
   21U      O5'  645   3.629   5.325   5.354
   21U      C5'  646   3.734   5.228   5.360
   21U      H5'  647   3.714   5.147   5.290
   21U     H5''  648   3.740   5.187   5.460
   21U      C4'  649   3.871   5.291   5.323
   21U      H4'  650   3.951   5.225   5.358
   21U      O4'  651   3.882   5.304   5.182
   21U      C1'  652   3.894   5.441   5.147
   21U      H1'  653   4.000   5.463   5.130
   21U       N1  654   3.815   5.471   5.026
   21U       C6  655   3.687   5.420   5.012
   21U       H6  656   3.646   5.358   5.091
   21U       C5  657   3.617   5.441   4.898
   21U       H5  658   3.518   5.398   4.886
   21U       C4  659   3.673   5.515   4.787
   21U       O4  660   3.617   5.538   4.681
   21U       N3  661   3.800   5.564   4.809
   21U       H3  662   3.846   5.606   4.731
   21U       C2  663   3.872   5.551   4.926
   21U       O2  664   3.978   5.613   4.939
   21U      C3'  665   3.889   5.431   5.383
   21U      H3'  666   3.824   5.444   5.469
   21U      C2'  667   3.846   5.522   5.268
   21U      H2'  668   3.737   5.529   5.266
   21U      O2'  669   3.904   5.651   5.278
   21U     HO2'  670   3.981   5.640   5.336
   21U      O3'  671   4.025   5.458   5.416
   22U        P  672   4.066   5.478   5.568
   22U      OP1  673   3.963   5.564   5.629
   22U      OP2  674   4.207   5.521   5.573
   22U      O5'  675   4.050   5.331   5.628
   22U      C5'  676   4.153   5.233   5.618
   22U      H5'  677   4.245   5.272   5.663
   22U     H5''  678   4.173   5.211   5.513
   22U      C4'  679   4.114   5.103   5.691
   22U      H4'  680   4.196   5.032   5.679
   22U      O4'  681   4.093   5.126   5.830
   22U      C1'  682   3.958   5.096   5.864
   22U      H1'  683   3.956   4.995   5.907
   22U       N1  684   3.908   5.195   5.963
   22U       C6  685   3.923   5.331   5.939
   22U       H6  686   3.967   5.363   5.846
   22U       C5  687   3.887   5.423   6.033
   22U       H5  688   3.903   5.528   6.013
   22U       C4  689   3.834   5.383   6.161
   22U       O4  690   3.798   5.460   6.251
   22U       N3  691   3.821   5.247   6.178
   22U       H3  692   3.788   5.215   6.266
   22U       C2  693   3.855   5.150   6.085
   22U       O2  694   3.836   5.032   6.112
   22U      C3'  695   3.984   5.042   5.634
   22U      H3'  696   3.964   5.078   5.534
   22U      C2'  697   3.879   5.093   5.733
   22U      H2'  698   3.849   5.194   5.705
   22U      O2'  699   3.768   5.006   5.737
   22U     HO2'  700   3.797   4.928   5.687
   22U      O3'  701   3.989   4.900   5.636
   23A        P  702   4.066   4.822   5.520
   23A      OP1  703   4.094   4.684   5.567
   23A      OP2  704   4.178   4.906   5.476
   23A      O5'  705   3.957   4.820   5.403
   23A      C5'  706   3.830   4.761   5.418
   23A      H5'  707   3.772   4.817   5.491
   23A     H5''  708   3.841   4.658   5.452
   23A      C4'  709   3.753   4.760   5.285
   23A      H4'  710   3.653   4.720   5.300
   23A      O4'  711   3.741   4.891   5.230
   23A      C1'  712   3.763   4.883   5.089
   23A      H1'  713   3.679   4.927   5.035
   23A       N9  714   3.884   4.959   5.055
   23A       C8  715   4.011   4.955   5.108
   23A       H8  716   4.039   4.886   5.186
   23A       N7  717   4.094   5.043   5.058
   23A       C5  718   4.014   5.110   4.964
   23A       C6  719   4.033   5.219   4.876
   23A       N6  720   4.145   5.289   4.867
   23A      H61  721   4.147   5.364   4.799
   23A      H62  722   4.223   5.264   4.926
   23A       N1  723   3.937   5.261   4.795
   23A       C2  724   3.820   5.197   4.800
   23A       H2  725   3.743   5.233   4.734
   23A       N3  726   3.785   5.098   4.881
   23A       C4  727   3.888   5.059   4.961
   23A      C3'  728   3.821   4.673   5.180
   23A      H3'  729   3.929   4.684   5.187
   23A      C2'  730   3.771   4.735   5.049
   23A      H2'  731   3.840   4.716   4.966
   23A      O2'  732   3.639   4.693   5.019
   23A     HO2'  733   3.618   4.706   4.924
   23A      O3'  734   3.780   4.540   5.196
   24A        P  735   3.869   4.420   5.143
   24A      OP1  736   4.010   4.453   5.175
   24A      OP2  737   3.830   4.390   5.005
   24A      O5'  738   3.816   4.309   5.246
   24A      C5'  739   3.850   4.321   5.383
   24A      H5'  740   3.832   4.423   5.416
   24A     H5''  741   3.956   4.299   5.395
   24A      C4'  742   3.771   4.228   5.476
   24A      H4'  743   3.809   4.244   5.577
   24A      O4'  744   3.630   4.255   5.479
   24A      C1'  745   3.561   4.132   5.498
   24A      H1'  746   3.498   4.137   5.587
   24A       N9  747   3.474   4.101   5.382
   24A       C8  748   3.484   4.142   5.252
   24A       H8  749   3.564   4.208   5.216
   24A       N7  750   3.389   4.097   5.175
   24A       C5  751   3.311   4.019   5.261
   24A       C6  752   3.193   3.940   5.246
   24A       N6  753   3.127   3.924   5.133
   24A      H61  754   3.050   3.860   5.129
   24A      H62  755   3.165   3.964   5.048
   24A       N1  756   3.138   3.879   5.351
   24A       C2  757   3.200   3.890   5.468
   24A       H2  758   3.155   3.837   5.551
   24A       N3  759   3.309   3.960   5.498
   24A       C4  760   3.361   4.022   5.388
   24A      C3'  761   3.788   4.080   5.445
   24A      H3'  762   3.782   4.062   5.337
   24A      C2'  763   3.666   4.023   5.519
   24A      H2'  764   3.636   3.928   5.476
   24A      O2'  765   3.693   4.011   5.659
   24A     HO2'  766   3.782   3.975   5.660
   24A      O3'  767   3.909   4.032   5.502
   25C        P  768   3.993   3.916   5.434
   25C      OP1  769   4.111   3.896   5.519
   25C      OP2  770   4.009   3.944   5.290
   25C      O5'  771   3.894   3.792   5.453
   25C      C5'  772   3.882   3.729   5.579
   25C      H5'  773   3.857   3.804   5.654
   25C     H5''  774   3.977   3.684   5.606
   25C      C4'  775   3.774   3.621   5.581
   25C      H4'  776   3.774   3.575   5.680
   25C      O4'  777   3.643   3.674   5.557
   25C      C1'  778   3.565   3.575   5.492
   25C      H1'  779   3.479   3.547   5.553
   25C       N1  780   3.516   3.621   5.358
   25C       C6  781   3.586   3.712   5.282
   25C       H6  782   3.681   3.750   5.318
   25C       C5  783   3.538   3.752   5.162
   25C       H5  784   3.594   3.822   5.102
   25C       C4  785   3.416   3.695   5.118
   25C       N4  786   3.363   3.729   5.004
   25C      H41  787   3.404   3.804   4.951
   25C      H42  788   3.278   3.684   4.977
   25C       N3  789   3.346   3.609   5.189
   25C       C2  790   3.394   3.572   5.310
   25C       O2  791   3.325   3.495   5.377
   25C      C3'  792   3.796   3.509   5.480
   25C      H3'  793   3.825   3.550   5.383
   25C      C2'  794   3.654   3.452   5.476
   25C      H2'  795   3.635   3.401   5.382
   25C      O2'  796   3.634   3.362   5.585
   25C     HO2'  797   3.718   3.313   5.589
   25C      O3'  798   3.889   3.413   5.527
   26A        P  799   3.959   3.310   5.429
   26A      OP1  800   4.027   3.211   5.516
   26A      OP2  801   4.039   3.387   5.333
   26A      O5'  802   3.835   3.238   5.357
   26A      C5'  803   3.828   3.221   5.216
   26A      H5'  804   3.879   3.129   5.188
   26A     H5''  805   3.874   3.305   5.164
   26A      C4'  806   3.680   3.214   5.173
   26A      H4'  807   3.625   3.163   5.252
   26A      O4'  808   3.624   3.343   5.156
   26A      C1'  809   3.535   3.345   5.045
   26A      H1'  810   3.435   3.377   5.075
   26A       N9  811   3.587   3.440   4.943
   26A       C8  812   3.697   3.522   4.953
   26A       H8  813   3.768   3.516   5.034
   26A       N7  814   3.708   3.610   4.857
   26A       C5  815   3.596   3.584   4.777
   26A       C6  816   3.544   3.642   4.659
   26A       N6  817   3.601   3.742   4.595
   26A      H61  818   3.563   3.777   4.509
   26A      H62  819   3.692   3.770   4.627
   26A       N1  820   3.430   3.598   4.606
   26A       C2  821   3.368   3.498   4.667
   26A       H2  822   3.276   3.464   4.622
   26A       N3  823   3.404   3.435   4.779
   26A       C4  824   3.521   3.482   4.829
   26A      C3'  825   3.657   3.137   5.043
   26A      H3'  826   3.738   3.156   4.973
   26A      C2'  827   3.527   3.201   4.994
   26A      H2'  828   3.518   3.196   4.886
   26A      O2'  829   3.416   3.137   5.057
   26A     HO2'  830   3.446   3.045   5.069
   26A      O3'  831   3.638   2.999   5.072
   27A        P  832   3.703   2.886   4.980
   27A      OP1  833   3.660   2.755   5.033
   27A      OP2  834   3.848   2.915   4.969
   27A      O5'  835   3.629   2.911   4.841
   27A      C5'  836   3.493   2.874   4.825
   27A      H5'  837   3.434   2.916   4.906
   27A     H5''  838   3.486   2.765   4.830
   27A      C4'  839   3.431   2.921   4.693
   27A      H4'  840   3.328   2.885   4.689
   27A      O4'  841   3.426   3.062   4.686
   27A      C1'  842   3.448   3.102   4.551
   27A      H1'  843   3.363   3.160   4.515
   27A       N9  844   3.567   3.191   4.546
   27A       C8  845   3.674   3.196   4.631
   27A       H8  846   3.689   3.123   4.710
   27A       N7  847   3.755   3.297   4.611
   27A       C5  848   3.696   3.362   4.501
   27A       C6  849   3.728   3.476   4.423
   27A       N6  850   3.834   3.553   4.442
   27A      H61  851   3.849   3.630   4.378
   27A      H62  852   3.900   3.531   4.515
   27A       N1  853   3.651   3.514   4.321
   27A       C2  854   3.543   3.441   4.295
   27A       H2  855   3.483   3.473   4.212
   27A       N3  856   3.499   3.333   4.359
   27A       C4  857   3.582   3.298   4.461
   27A      C3'  858   3.502   2.867   4.568
   27A      H3'  859   3.610   2.868   4.583
   27A      C2'  860   3.460   2.975   4.466
   27A      H2'  861   3.536   2.987   4.388
   27A      O2'  862   3.331   2.952   4.411
   27A     HO2'  863   3.343   2.900   4.331
   27A      O3'  864   3.452   2.735   4.545
   28A        P  865   3.522   2.628   4.450
   28A      OP1  866   3.451   2.500   4.468
   28A      OP2  867   3.668   2.627   4.476
   28A      O5'  868   3.493   2.677   4.300
   28A      C5'  869   3.364   2.659   4.243
   28A      H5'  870   3.292   2.716   4.302
   28A     H5''  871   3.337   2.554   4.250
   28A      C4'  872   3.353   2.702   4.096
   28A      H4'  873   3.254   2.674   4.061
   28A      O4'  874   3.366   2.844   4.086
   28A      C1'  875   3.462   2.870   3.984
   28A      H1'  876   3.415   2.867   3.886
   28A       N9  877   3.523   3.004   4.004
   28A       C8  878   3.634   3.037   4.078
   28A       H8  879   3.690   2.966   4.137
   28A       N7  880   3.667   3.162   4.070
   28A       C5  881   3.570   3.218   3.986
   28A       C6  882   3.545   3.348   3.936
   28A       N6  883   3.620   3.454   3.960
   28A      H61  884   3.600   3.541   3.914
   28A      H62  885   3.711   3.440   4.003
   28A       N1  886   3.439   3.371   3.857
   28A       C2  887   3.363   3.267   3.825
   28A       H2  888   3.280   3.289   3.760
   28A       N3  889   3.374   3.140   3.863
   28A       C4  890   3.481   3.122   3.946
   28A      C3'  891   3.457   2.638   4.003
   28A      H3'  892   3.501   2.547   4.046
   28A      C2'  893   3.559   2.752   3.996
   28A      H2'  894   3.612   2.758   4.091
   28A      O2'  895   3.653   2.741   3.890
   28A     HO2'  896   3.715   2.815   3.894
   28A      O3'  897   3.395   2.617   3.877
   29A        P  898   3.384   2.475   3.806
   29A      OP1  899   3.251   2.418   3.839
   29A      OP2  900   3.504   2.392   3.829
   29A      O5'  901   3.381   2.516   3.650
   29A      C5'  902   3.484   2.597   3.593
   29A      H5'  903   3.541   2.538   3.521
   29A     H5''  904   3.552   2.635   3.669
   29A      C4'  905   3.419   2.716   3.520
   29A      H4'  906   3.323   2.683   3.481
   29A      O4'  907   3.395   2.826   3.608
   29A      C1'  908   3.420   2.949   3.540
   29A      H1'  909   3.337   3.019   3.553
   29A       N9  910   3.543   3.012   3.594
   29A       C8  911   3.645   2.954   3.663
   29A       H8  912   3.649   2.848   3.681
   29A       N7  913   3.736   3.036   3.707
   29A       C5  914   3.692   3.161   3.659
   29A       C6  915   3.739   3.295   3.667
   29A       N6  916   3.848   3.334   3.730
   29A      H61  917   3.871   3.433   3.731
   29A      H62  918   3.909   3.268   3.776
   29A       N1  919   3.672   3.393   3.606
   29A       C2  920   3.561   3.363   3.540
   29A       H2  921   3.511   3.446   3.493
   29A       N3  922   3.504   3.244   3.525
   29A       C4  923   3.575   3.146   3.588
   29A      C3'  924   3.499   2.772   3.402
   29A      H3'  925   3.605   2.777   3.427
   29A      C2'  926   3.437   2.912   3.393
   29A      H2'  927   3.503   2.982   3.342
   29A      O2'  928   3.309   2.905   3.329
   29A     HO2'  929   3.323   2.844   3.255
   29A      O3'  930   3.475   2.698   3.283
   30C        P  931   3.583   2.692   3.165
   30C      OP1  932   3.519   2.625   3.049
   30C      OP2  933   3.712   2.643   3.217
   30C      O5'  934   3.607   2.844   3.127
   30C      C5'  935   3.518   2.915   3.042
   30C      H5'  936   3.418   2.913   3.084
   30C     H5''  937   3.516   2.867   2.944
   30C      C4'  938   3.563   3.060   3.026
   30C      H4'  939   3.492   3.110   2.960
   30C      O4'  940   3.568   3.130   3.149
   30C      C1'  941   3.676   3.224   3.146
   30C      H1'  942   3.639   3.326   3.163
   30C       N1  943   3.780   3.194   3.249
   30C       C6  944   3.792   3.070   3.307
   30C       H6  945   3.728   2.989   3.274
   30C       C5  946   3.883   3.049   3.405
   30C       H5  947   3.891   2.952   3.452
   30C       C4  948   3.963   3.159   3.445
   30C       N4  949   4.049   3.147   3.543
   30C      H41  950   4.040   3.070   3.606
   30C      H42  951   4.088   3.234   3.579
   30C       N3  952   3.954   3.278   3.389
   30C       C2  953   3.863   3.298   3.291
   30C       O2  954   3.856   3.410   3.240
   30C      C3'  955   3.702   3.073   2.963
   30C      H3'  956   3.770   3.004   3.012
   30C      C2'  957   3.734   3.217   3.004
   30C      H2'  958   3.842   3.236   3.004
   30C      O2'  959   3.665   3.309   2.921
   30C     HO2'  960   3.674   3.273   2.831
   30C      O3'  961   3.698   3.055   2.822
   31A        P  962   3.825   3.001   2.743
   31A      OP1  963   3.787   2.973   2.603
   31A      OP2  964   3.890   2.895   2.823
   31A      O5'  965   3.923   3.128   2.741
   31A      C5'  966   3.895   3.242   2.660
   31A      H5'  967   3.817   3.302   2.707
   31A     H5''  968   3.859   3.209   2.563
   31A      C4'  969   4.019   3.329   2.638
   31A      H4'  970   3.993   3.407   2.565
   31A      O4'  971   4.060   3.391   2.759
   31A      C1'  972   4.189   3.344   2.795
   31A      H1'  973   4.265   3.420   2.772
   31A       N9  974   4.192   3.312   2.940
   31A       C8  975   4.122   3.213   3.005
   31A       H8  976   4.048   3.152   2.956
   31A       N7  977   4.154   3.197   3.130
   31A       C5  978   4.252   3.296   3.151
   31A       C6  979   4.335   3.334   3.259
   31A       N6  980   4.333   3.277   3.378
   31A      H61  981   4.396   3.312   3.449
   31A      H62  982   4.254   3.219   3.402
   31A       N1  983   4.426   3.431   3.246
   31A       C2  984   4.433   3.493   3.129
   31A       H2  985   4.506   3.572   3.122
   31A       N3  986   4.363   3.469   3.018
   31A       C4  987   4.274   3.368   3.035
   31A      C3'  988   4.136   3.248   2.582
   31A      H3'  989   4.101   3.154   2.538
   31A      C2'  990   4.217   3.220   2.709
   31A      H2'  991   4.174   3.132   2.757
   31A      O2'  992   4.354   3.197   2.685
   31A     HO2'  993   4.403   3.192   2.769
   31A      O3'  994   4.203   3.327   2.486
   32A        P  995   4.221   3.272   2.338
   32A      OP1  996   4.091   3.288   2.268
   32A      OP2  997   4.282   3.138   2.345
   32A      O5'  998   4.327   3.377   2.278
   32A      C5'  999   4.282   3.493   2.210
   32A      H5' 1000   4.198   3.536   2.266
   32A     H5'' 1001   4.247   3.464   2.112
   32A      C4' 1002   4.389   3.602   2.195
   32A      H4' 1003   4.352   3.674   2.123
   32A      O4' 1004   4.410   3.673   2.317
   32A      C1' 1005   4.548   3.705   2.329
   32A      H1' 1006   4.563   3.811   2.348
   32A       N9 1007   4.608   3.629   2.442
   32A       C8 1008   4.563   3.515   2.505
   32A       H8 1009   4.475   3.460   2.472
   32A       N7 1010   4.633   3.480   2.609
   32A       C5 1011   4.732   3.578   2.617
   32A       C6 1012   4.838   3.606   2.707
   32A       N6 1013   4.865   3.539   2.817
   32A      H61 1014   4.932   3.578   2.881
   32A      H62 1015   4.804   3.462   2.843
   32A       N1 1016   4.918   3.711   2.687
   32A       C2 1017   4.895   3.788   2.582
   32A       H2 1018   4.962   3.872   2.569
   32A       N3 1019   4.798   3.777   2.491
   32A       C4 1020   4.719   3.668   2.514
   32A      C3' 1021   4.526   3.553   2.145
   32A      H3' 1022   4.553   3.459   2.193
   32A      C2' 1023   4.614   3.668   2.196
   32A      H2' 1024   4.716   3.636   2.212
   32A      O2' 1025   4.612   3.779   2.106
   32A     HO2' 1026   4.596   3.739   2.020
   32A      O3' 1027   4.534   3.548   2.003
   33G3       P 1028   4.588   3.418   1.927
   33G3     OP1 1029   4.619   3.461   1.790
   33G3     OP2 1030   4.493   3.306   1.945
   33G3     O5' 1031   4.726   3.381   2.000
   33G3     C5' 1032   4.837   3.469   1.990
   33G3     H5' 1033   4.801   3.572   1.990
   33G3    H5'' 1034   4.887   3.451   1.896
   33G3     C4' 1035   4.936   3.455   2.106
   33G3     H4' 1036   5.011   3.534   2.097
   33G3     O4' 1037   4.872   3.472   2.232
   33G3     C1' 1038   4.939   3.396   2.330
   33G3     H1' 1039   4.976   3.459   2.412
   33G3      N9 1040   4.847   3.294   2.387
   33G3      C8 1041   4.743   3.228   2.326
   33G3      H8 1042   4.705   3.254   2.228
   33G3      N7 1043   4.697   3.126   2.395
   33G3      C5 1044   4.769   3.134   2.516
   33G3      C6 1045   4.765   3.054   2.635
   33G3      O6 1046   4.695   2.956   2.662
   33G3      N1 1047   4.857   3.092   2.730
   33G3      H1 1048   4.858   3.043   2.817
   33G3      C2 1049   4.944   3.195   2.714
   33G3      N2 1050   5.031   3.216   2.809
   33G3     H21 1051   5.033   3.156   2.891
   33G3     H22 1052   5.089   3.296   2.798
   33G3      N3 1053   4.954   3.270   2.605
   33G3      C4 1054   4.862   3.236   2.510
   33G3     C3' 1055   5.008   3.321   2.115
   33G3     H3' 1056   4.936   3.240   2.103
   33G3     C2' 1057   5.057   3.326   2.261
   33G3     H2' 1058   5.074   3.226   2.301
   33G3     O2' 1059   5.172   3.407   2.275
   33G3    HO2' 1060   5.236   3.380   2.208
   33G3     O3' 1061   5.117   3.307   2.023
   33G3    HO3' 1062   5.127   3.212   2.006
   34K+      K+ 1063   4.956   4.171   4.100
   35K+      K+ 1064   4.623   3.442   5.229
   36K+      K+ 1065   2.814   4.441   4.060
   37K+      K+ 1066   4.706   4.330   5.486
   38K+      K+ 1067   5.240   2.921   4.426
   39K+      K+ 1068   4.214   2.267   3.368
   40K+      K+ 1069   4.965   4.860   4.026
   41K+      K+ 1070   4.143   2.247   4.851
   42K+      K+ 1071   2.563   3.274   4.079
   43K+      K+ 1072   2.838   3.621   2.727
   44K+      K+ 1073   3.352   4.430   6.132
   45K+      K+ 1074   4.462   2.568   2.419
   46K+      K+ 1075   4.676   5.111   5.003
   47K+      K+ 1076   3.081   4.707   3.276
   48K+      K+ 1077   2.886   3.344   5.109
   49K+      K+ 1078   4.498   5.654   3.270
   50K+      K+ 1079   2.518   5.289   5.443
   51K+      K+ 1080   5.689   4.090   3.318
   52K+      K+ 1081   4.087   1.835   4.267
   53K+      K+ 1082   3.737   3.125   1.855
   54K+      K+ 1083   4.621   5.799   4.457
   55K+      K+ 1084   3.512   2.576   5.806
   56K+      K+ 1085   4.791   2.649   4.019
   57K+      K+ 1086   4.769   4.533   2.343
   58K+      K+ 1087   2.918   2.137   3.401
   59K+      K+ 1088   3.724   5.908   5.678
   60K+      K+ 1089   4.223   4.075   6.418
   61K+      K+ 1090   2.248   4.330   4.397
   62K+      K+ 1091   3.700   4.895   2.240
   63K+      K+ 1092   2.841   5.755   4.689
   64K+      K+ 1093   5.758   2.814   2.613
   65K+      K+ 1094   2.765   2.154   4.638
   66K+      K+ 1095   4.691   2.783   1.176
   67K+      K+ 1096   4.718   5.694   6.282
   68K+      K+ 1097   2.197   3.695   3.178
   69K+      K+ 1098   5.046   3.718   4.641
   70K+      K+ 1099   3.395   2.361   2.237
   71K+      K+ 1100   3.541   6.416   4.539
   72K+      K+ 1101   4.301   3.976   1.434
   73K+      K+ 1102   2.601   4.356   5.709
   74K+      K+ 1103   5.319   1.904   3.359
   75K+      K+ 1104   4.534   2.949   6.209
   76K+      K+ 1105   6.210   5.292   2.518
   77K+      K+ 1106   3.582   5.793   7.181
   78K+      K+ 1107   3.592   5.976   3.220
   79K+      K+ 1108   5.990   3.649   1.292
   80K+      K+ 1109   2.858   3.219   6.680
   81K+      K+ 1110   6.226   3.484   3.497
   82K+      K+ 1111   4.416   6.692   5.599
   83K+      K+ 1112   2.875   1.195   3.819
   84K+      K+ 1113   2.492   6.201   3.143
   85K+      K+ 1114   4.319   5.082   7.362
   86K+      K+ 1115   4.417   2.744   5.320
   87Cl-    Cl- 1116   6.050   3.856   3.893
   88Cl-    Cl- 1117   2.994   6.144   3.920
   89Cl-    Cl- 1118   3.713   3.294   6.562
   90Cl-    Cl- 1119   4.250   5.706   7.062
   91Cl-    Cl- 1120   5.293   2.568   5.166
   92Cl-    Cl- 1121   2.668   1.699   3.842
   93Cl-    Cl- 1122   3.123   5.629   2.458
   94Cl-    Cl- 1123   3.640   6.783   5.192
   95Cl-    Cl- 1124   3.985   2.532   1.616
   96Cl-    Cl- 1125   2.610   3.957   6.354
   97Cl-    Cl- 1126   6.151   3.366   1.898
   98Cl-    Cl- 1127   3.945   1.861   5.476
   99Cl-    Cl- 1128   2.006   5.175   4.711
  100Cl-    Cl- 1129   4.190   4.793   1.647
  101Cl-    Cl- 1130   5.038   6.291   5.398
  102Cl-    Cl- 1131   4.660   1.457   3.614
  103Cl-    Cl- 1132   4.824   3.697   6.055
  104Cl-    Cl- 1133   2.821   2.774   2.345
  105Cl-    Cl- 1134   3.502   4.862   7.269
  106Cl-    Cl- 1135   6.179   4.616   3.074
  107Cl-    Cl- 1136   5.703   1.705   2.640
  108WAT      O 1137   6.922   7.304   7.049
  108WAT     H1 1138   6.847   7.299   7.004
  108WAT     H2 1139   6.917   7.237   7.104
  108WAT    EPW 1140   6.910   7.293   7.050
  109WAT      O 1141   7.186   7.911   6.891
  109WAT     H1 1142   7.155   7.863   6.825
  109WAT     H2 1143   7.199   7.852   6.954
  109WAT    EPW 1144   7.183   7.895   6.890
  110WAT      O 1145   7.594   7.020   7.234
  110WAT     H1 1146   7.594   7.100   7.199
  110WAT     H2 1147   7.640   6.973   7.178
  110WAT    EPW 1148   7.601   7.025   7.221
  111WAT      O 1149   7.282   7.785   7.486
  111WAT     H1 1150   7.204   7.776   7.449
  111WAT     H2 1151   7.332   7.729   7.441
  111WAT    EPW 1152   7.278   7.775   7.474
  112WAT      O 1153   7.386   7.546   7.378
  112WAT     H1 1154   7.429   7.503   7.441
  112WAT     H2 1155   7.304   7.514   7.384
  112WAT    EPW 1156   7.380   7.535   7.388
  113WAT      O 1157   7.355   7.016   7.395
  113WAT     H1 1158   7.310   7.066   7.339
  113WAT     H2 1159   7.437   7.020   7.364
  113WAT    EPW 1160   7.360   7.024   7.382
  114WAT      O 1161   7.739   7.024   7.474
  114WAT     H1 1162   7.737   7.104   7.509
  114WAT     H2 1163   7.697   7.034   7.398
  114WAT    EPW 1164   7.733   7.037   7.468
  115WAT      O 1165   7.014   7.482   7.675
  115WAT     H1 1166   6.938   7.523   7.658
  115WAT     H2 1167   6.990   7.399   7.686
  115WAT    EPW 1168   6.999   7.476   7.674
  116WAT      O 1169   6.948   7.117   7.262
  116WAT     H1 1170   6.938   7.031   7.262
  116WAT     H2 1171   6.897   7.144   7.328
  116WAT    EPW 1172   6.939   7.108   7.272
  117WAT      O 1173   7.799   7.386   7.279
  117WAT     H1 1174   7.748   7.347   7.220
  117WAT     H2 1175   7.879   7.376   7.247
  117WAT    EPW 1176   7.803   7.379   7.266
  118WAT      O 1177   7.725   7.315   7.540
  118WAT     H1 1178   7.748   7.334   7.457
  118WAT     H2 1179   7.737   7.391   7.582
  118WAT    EPW 1180   7.730   7.329   7.534
  119WAT      O 1181   7.322   6.772   7.536
  119WAT     H1 1182   7.330   6.854   7.508
  119WAT     H2 1183   7.307   6.727   7.463
  119WAT    EPW 1184   7.321   6.777   7.521
  120WAT      O 1185   7.256   7.202   7.584
  120WAT     H1 1186   7.278   7.131   7.539
  120WAT     H2 1187   7.177   7.183   7.615
  120WAT    EPW 1188   7.248   7.189   7.582
  121WAT      O 1189   7.060   7.753   7.321
  121WAT     H1 1190   7.015   7.679   7.307
  121WAT     H2 1191   7.110   7.760   7.250
  121WAT    EPW 1192   7.060   7.743   7.309
  122WAT      O 1193   7.625   7.261   7.102
  122WAT     H1 1194   7.626   7.232   7.019
  122WAT     H2 1195   7.578   7.334   7.098
  122WAT    EPW 1196   7.618   7.267   7.089
  123WAT      O 1197   7.221   7.434   7.098
  123WAT     H1 1198   7.218   7.365   7.151
  123WAT     H2 1199   7.194   7.402   7.021
  123WAT    EPW 1200   7.217   7.419   7.094
  124WAT      O 1201   7.452   7.661   7.687
  124WAT     H1 1202   7.392   7.703   7.640
  124WAT     H2 1203   7.431   7.577   7.678
  124WAT    EPW 1204   7.440   7.655   7.678
  125WAT      O 1205   7.406   6.836   7.076
  125WAT     H1 1206   7.435   6.863   7.154
  125WAT     H2 1207   7.375   6.909   7.040
  125WAT    EPW 1208   7.405   6.851   7.083
  126WAT      O 1209   7.238   7.726   7.105
  126WAT     H1 1210   7.230   7.639   7.107
  126WAT     H2 1211   7.319   7.739   7.137
  126WAT    EPW 1212   7.249   7.715   7.110
  127WAT      O 1213   6.911   6.833   7.267
  127WAT     H1 1214   6.912   6.778   7.199
  127WAT     H2 1215   6.886   6.783   7.334
  127WAT    EPW 1216   6.908   6.818   7.267
  128WAT      O 1217   7.717   7.652   7.343
  128WAT     H1 1218   7.714   7.643   7.429
  128WAT     H2 1219   7.742   7.573   7.315
  128WAT    EPW 1220   7.720   7.639   7.351
  129WAT      O 1221   7.328   7.080   6.974
  129WAT     H1 1222   7.269   7.073   6.911
  129WAT     H2 1223   7.395   7.120   6.935
  129WAT    EPW 1224   7.329   7.085   6.959
  130WAT      O 1225   7.715   7.599   7.620
  130WAT     H1 1226   7.633   7.618   7.642
  130WAT     H2 1227   7.762   7.652   7.671
  130WAT    EPW 1228   7.710   7.610   7.631
  131WAT      O 1229   7.460   7.392   7.602
  131WAT     H1 1230   7.534   7.348   7.586
  131WAT     H2 1231   7.400   7.329   7.607
  131WAT    EPW 1232   7.462   7.376   7.600
  132WAT      O 1233   6.957   7.494   7.263
  132WAT     H1 1234   7.016   7.461   7.318
  132WAT     H2 1235   6.968   7.447   7.190
  132WAT    EPW 1236   6.967   7.482   7.260
  133WAT      O 1237   7.479   7.614   6.836
  133WAT     H1 1238   7.471   7.579   6.916
  133WAT     H2 1239   7.404   7.592   6.796
  133WAT    EPW 1240   7.467   7.606   6.842
  134WAT      O 1241   7.486   7.496   7.085
  134WAT     H1 1242   7.496   7.564   7.139
  134WAT     H2 1243   7.403   7.472   7.098
  134WAT    EPW 1244   7.475   7.502   7.095
  135WAT      O 1245   6.982   7.195   7.669
  135WAT     H1 1246   6.918   7.186   7.611
  135WAT     H2 1247   6.955   7.147   7.737
  135WAT    EPW 1248   6.969   7.187   7.670
  136WAT      O 1249   7.651   7.806   6.945
  136WAT     H1 1250   7.592   7.761   6.899
  136WAT     H2 1251   7.725   7.763   6.931
  136WAT    EPW 1252   7.653   7.793   6.936
  137WAT      O 1253   7.219   7.178   7.216
  137WAT     H1 1254   7.241   7.145   7.138
  137WAT     H2 1255   7.135   7.158   7.225
  137WAT    EPW 1256   7.210   7.170   7.206
  138WAT      O 1257   7.120   7.325   6.857
  138WAT     H1 1258   7.048   7.319   6.906
  138WAT     H2 1259   7.127   7.245   6.822
  138WAT    EPW 1260   7.110   7.312   6.859
  139WAT      O 1261   7.681   6.858   7.018
  139WAT     H1 1262   7.701   6.866   6.934
  139WAT     H2 1263   7.595   6.842   7.017
  139WAT    EPW 1264   7.671   6.857   7.006
  140WAT      O 1265   7.148   7.419   7.444
  140WAT     H1 1266   7.112   7.452   7.517
  140WAT     H2 1267   7.185   7.345   7.472
  140WAT    EPW 1268   7.148   7.413   7.459
  141WAT      O 1269   7.512   7.761   7.183
  141WAT     H1 1270   7.561   7.788   7.116
  141WAT     H2 1271   7.571   7.737   7.243
  141WAT    EPW 1272   7.528   7.761   7.182
  142WAT      O 1273   6.912   7.329   5.167
  142WAT     H1 1274   6.845   7.373   5.133
  142WAT     H2 1275   6.881   7.248   5.178
  142WAT    EPW 1276   6.898   7.324   5.163
  143WAT      O 1277   7.194   7.914   4.995
  143WAT     H1 1278   7.162   7.870   4.927
  143WAT     H2 1279   7.202   7.853   5.057
  143WAT    EPW 1280   7.190   7.898   4.994
  144WAT      O 1281   7.610   6.993   5.347
  144WAT     H1 1282   7.613   7.075   5.317
  144WAT     H2 1283   7.659   6.949   5.291
  144WAT    EPW 1284   7.618   6.999   5.334
  145WAT      O 1285   7.196   7.741   5.667
  145WAT     H1 1286   7.148   7.753   5.595
  145WAT     H2 1287   7.258   7.685   5.642
  145WAT    EPW 1288   7.198   7.735   5.653
  146WAT      O 1289   7.592   7.255   6.173
  146WAT     H1 1290   7.650   7.251   6.108
  146WAT     H2 1291   7.561   7.174   6.177
  146WAT    EPW 1292   7.596   7.242   6.164
  147WAT      O 1293   7.352   7.518   5.596
  147WAT     H1 1294   7.386   7.470   5.660
  147WAT     H2 1295   7.274   7.482   5.582
  147WAT    EPW 1296   7.346   7.505   5.603
  148WAT      O 1297   7.369   7.024   5.510
  148WAT     H1 1298   7.327   7.075   5.453
  148WAT     H2 1299   7.451   7.023   5.479
  148WAT    EPW 1300   7.375   7.032   5.497
  149WAT      O 1301   7.705   6.950   5.610
  149WAT     H1 1302   7.699   7.029   5.648
  149WAT     H2 1303   7.684   6.966   5.527
  149WAT    EPW 1304   7.701   6.964   5.604
  150WAT      O 1305   6.979   7.413   5.894
  150WAT     H1 1306   6.910   7.461   5.917
  150WAT     H2 1307   6.951   7.331   5.904
  150WAT    EPW 1308   6.965   7.408   5.899
  151WAT      O 1309   7.182   6.980   5.929
  151WAT     H1 1310   7.154   6.906   5.893
  151WAT     H2 1311   7.244   6.954   5.984
  151WAT    EPW 1312   7.187   6.965   5.932
  152WAT      O 1313   7.559   7.182   6.834
  152WAT     H1 1314   7.577   7.134   6.764
  152WAT     H2 1315   7.592   7.260   6.815
  152WAT    EPW 1316   7.567   7.186   6.821
  153WAT      O 1317   7.145   7.056   6.768
  153WAT     H1 1318   7.070   7.015   6.754
  153WAT     H2 1319   7.199   7.018   6.711
  153WAT    EPW 1320   7.142   7.044   6.757
  154WAT      O 1321   7.722   6.853   6.746
  154WAT     H1 1322   7.747   6.792   6.689
  154WAT     H2 1323   7.684   6.914   6.696
  154WAT    EPW 1324   7.720   6.853   6.730
  155WAT      O 1325   6.872   7.186   6.543
  155WAT     H1 1326   6.854   7.263   6.578
  155WAT     H2 1327   6.939   7.203   6.489
  155WAT    EPW 1328   6.879   7.200   6.540
  156WAT      O 1329   6.990   7.085   5.426
  156WAT     H1 1330   6.969   7.001   5.414
  156WAT     H2 1331   6.943   7.108   5.496
  156WAT    EPW 1332   6.980   7.076   5.435
  157WAT      O 1333   7.767   7.351   5.463
  157WAT     H1 1334   7.733   7.316   5.391
  157WAT     H2 1335   7.852   7.357   5.445
  157WAT    EPW 1336   7.774   7.347   5.450
  158WAT      O 1337   7.680   7.218   5.700
  158WAT     H1 1338   7.714   7.266   5.636
  158WAT     H2 1339   7.720   7.248   5.772
  158WAT    EPW 1340   7.691   7.229   5.701
  159WAT      O 1341   7.322   6.771   5.620
  159WAT     H1 1342   7.337   6.853   5.594
  159WAT     H2 1343   7.320   6.726   5.545
  159WAT    EPW 1344   7.324   6.777   5.605
  160WAT      O 1345   7.427   7.713   6.000
  160WAT     H1 1346   7.427   7.669   6.075
  160WAT     H2 1347   7.355   7.684   5.959
  160WAT    EPW 1348   7.416   7.702   6.005
  161WAT      O 1349   7.248   7.157   5.724
  161WAT     H1 1350   7.285   7.108   5.662
  161WAT     H2 1351   7.231   7.101   5.788
  161WAT    EPW 1352   7.251   7.142   5.724
  162WAT      O 1353   7.132   7.340   6.122
  162WAT     H1 1354   7.212   7.350   6.089
  162WAT     H2 1355   7.080   7.362   6.056
  162WAT    EPW 1356   7.136   7.345   6.107
  163WAT      O 1357   7.676   7.426   6.787
  163WAT     H1 1358   7.616   7.488   6.800
  163WAT     H2 1359   7.707   7.443   6.708
  163WAT    EPW 1360   7.672   7.438   6.777
  164WAT      O 1361   7.059   7.745   5.425
  164WAT     H1 1362   7.021   7.666   5.418
  164WAT     H2 1363   7.110   7.749   5.355
  164WAT    EPW 1364   7.061   7.734   5.413
  165WAT      O 1365   7.642   7.243   5.230
  165WAT     H1 1366   7.649   7.213   5.148
  165WAT     H2 1367   7.591   7.313   5.222
  165WAT    EPW 1368   7.636   7.249   5.217
  166WAT      O 1369   7.248   7.522   6.707
  166WAT     H1 1370   7.204   7.462   6.753
  166WAT     H2 1371   7.266   7.481   6.632
  166WAT    EPW 1372   7.244   7.507   6.703
  167WAT      O 1373   7.218   7.434   5.205
  167WAT     H1 1374   7.215   7.366   5.259
  167WAT     H2 1375   7.185   7.403   5.130
  167WAT    EPW 1376   7.213   7.419   5.202
  168WAT      O 1377   7.152   7.644   5.920
  168WAT     H1 1378   7.158   7.678   5.840
  168WAT     H2 1379   7.107   7.570   5.907
  168WAT    EPW 1380   7.146   7.638   5.906
  169WAT      O 1381   7.360   7.581   6.256
  169WAT     H1 1382   7.362   7.519   6.195
  169WAT     H2 1383   7.289   7.628   6.236
  169WAT    EPW 1384   7.350   7.579   6.244
  170WAT      O 1385   7.092   7.749   6.674
  170WAT     H1 1386   7.070   7.749   6.589
  170WAT     H2 1387   7.141   7.678   6.682
  170WAT    EPW 1388   7.096   7.738   6.663
  171WAT      O 1389   7.765   7.318   5.950
  171WAT     H1 1390   7.735   7.400   5.955
  171WAT     H2 1391   7.848   7.325   5.974
  171WAT    EPW 1392   7.773   7.331   5.954
  172WAT      O 1393   7.418   6.840   5.188
  172WAT     H1 1394   7.460   6.876   5.256
  172WAT     H2 1395   7.379   6.908   5.151
  172WAT    EPW 1396   7.419   6.856   5.193
  173WAT      O 1397   7.233   7.720   5.204
  173WAT     H1 1398   7.223   7.634   5.205
  173WAT     H2 1399   7.315   7.731   5.232
  173WAT    EPW 1400   7.244   7.709   5.209
  174WAT      O 1401   6.903   6.818   5.390
  174WAT     H1 1402   6.901   6.765   5.320
  174WAT     H2 1403   6.871   6.768   5.454
  174WAT    EPW 1404   6.898   6.803   5.389
  175WAT      O 1405   7.626   7.600   5.490
  175WAT     H1 1406   7.552   7.578   5.530
  175WAT     H2 1407   7.672   7.526   5.487
  175WAT    EPW 1408   7.622   7.586   5.495
  176WAT      O 1409   7.320   7.075   5.084
  176WAT     H1 1410   7.261   7.070   5.019
  176WAT     H2 1411   7.389   7.113   5.047
  176WAT    EPW 1412   7.321   7.080   5.069
  177WAT      O 1413   7.681   7.580   5.975
  177WAT     H1 1414   7.606   7.622   5.959
  177WAT     H2 1415   7.715   7.626   6.041
  177WAT    EPW 1416   7.675   7.593   5.983
  178WAT      O 1417   7.166   7.762   6.171
  178WAT     H1 1418   7.222   7.825   6.149
  178WAT     H2 1419   7.146   7.724   6.095
  178WAT    EPW 1420   7.171   7.766   6.156
  179WAT      O 1421   7.444   7.340   5.786
  179WAT     H1 1422   7.517   7.301   5.759
  179WAT     H2 1423   7.382   7.280   5.770
  179WAT    EPW 1424   7.445   7.326   5.779
  180WAT      O 1425   6.958   7.481   5.409
  180WAT     H1 1426   6.996   7.439   5.475
  180WAT     H2 1427   6.968   7.426   5.341
  180WAT    EPW 1428   6.965   7.467   5.409
  181WAT      O 1429   7.477   7.585   4.939
  181WAT     H1 1430   7.468   7.547   5.017
  181WAT     H2 1431   7.401   7.570   4.900
  181WAT    EPW 1432   7.465   7.577   4.945
  182WAT      O 1433   7.487   7.467   5.189
  182WAT     H1 1434   7.499   7.544   5.229
  182WAT     H2 1435   7.402   7.451   5.201
  182WAT    EPW 1436   7.476   7.476   5.197
  183WAT      O 1437   6.939   7.133   5.911
  183WAT     H1 1438   6.913   7.119   5.829
  183WAT     H2 1439   7.014   7.089   5.917
  183WAT    EPW 1440   6.946   7.124   5.900
  184WAT      O 1441   7.765   7.730   6.195
  184WAT     H1 1442   7.779   7.816   6.199
  184WAT     H2 1443   7.713   7.715   6.264
  184WAT    EPW 1444   7.759   7.741   6.206
  185WAT      O 1445   7.556   7.284   6.449
  185WAT     H1 1446   7.568   7.206   6.486
  185WAT     H2 1447   7.571   7.269   6.365
  185WAT    EPW 1448   7.560   7.270   6.442
  186WAT      O 1449   7.665   6.861   6.378
  186WAT     H1 1450   7.682   6.847   6.294
  186WAT     H2 1451   7.700   6.792   6.418
  186WAT    EPW 1452   7.673   6.849   6.372
  187WAT      O 1453   7.666   7.761   5.049
  187WAT     H1 1454   7.604   7.722   5.002
  187WAT     H2 1455   7.738   7.716   5.027
  187WAT    EPW 1456   7.668   7.748   5.039
  188WAT      O 1457   7.394   7.398   6.052
  188WAT     H1 1458   7.411   7.391   5.967
  188WAT     H2 1459   7.457   7.352   6.090
  188WAT    EPW 1460   7.406   7.391   6.045
  189WAT      O 1461   7.654   6.817   6.097
  189WAT     H1 1462   7.568   6.819   6.079
  189WAT     H2 1463   7.691   6.841   6.022
  189WAT    EPW 1464   7.647   6.821   6.083
  190WAT      O 1465   6.884   6.950   6.688
  190WAT     H1 1466   6.886   7.024   6.641
  190WAT     H2 1467   6.800   6.926   6.684
  190WAT    EPW 1468   6.872   6.957   6.680
  191WAT      O 1469   7.230   7.183   5.330
  191WAT     H1 1470   7.245   7.146   5.253
  191WAT     H2 1471   7.151   7.155   5.353
  191WAT    EPW 1472   7.221   7.174   5.322
  192WAT      O 1473   7.305   7.400   6.464
  192WAT     H1 1474   7.316   7.461   6.402
  192WAT     H2 1475   7.382   7.359   6.467
  192WAT    EPW 1476   7.318   7.403   6.456
  193WAT      O 1477   7.089   7.250   6.374
  193WAT     H1 1478   7.100   7.266   6.289
  193WAT     H2 1479   7.157   7.291   6.411
  193WAT    EPW 1480   7.101   7.259   6.367
  194WAT      O 1481   7.329   6.937   6.597
  194WAT     H1 1482   7.356   6.853   6.594
  194WAT     H2 1483   7.291   6.949   6.519
  194WAT    EPW 1484   7.328   6.926   6.585
  195WAT      O 1485   7.006   7.720   6.402
  195WAT     H1 1486   7.052   7.745   6.331
  195WAT     H2 1487   6.977   7.641   6.381
  195WAT    EPW 1488   7.008   7.712   6.388
  196WAT      O 1489   7.108   7.326   4.968
  196WAT     H1 1490   7.036   7.322   5.017
  196WAT     H2 1491   7.113   7.245   4.934
  196WAT    EPW 1492   7.098   7.313   4.970
  197WAT      O 1493   7.578   7.684   6.402
  197WAT     H1 1494   7.540   7.726   6.469
  197WAT     H2 1495   7.511   7.649   6.358
  197WAT    EPW 1496   7.563   7.685   6.406
  198WAT      O 1497   7.463   7.026   6.258
  198WAT     H1 1498   7.380   7.012   6.282
  198WAT     H2 1499   7.506   6.960   6.296
  198WAT    EPW 1500   7.457   7.014   6.267
  199WAT      O 1501   7.735   7.482   6.523
  199WAT     H1 1502   7.687   7.414   6.496
  199WAT     H2 1503   7.698   7.550   6.484
  199WAT    EPW 1504   7.722   7.482   6.513
  200WAT      O 1505   7.699   6.843   5.123
  200WAT     H1 1506   7.723   6.857   5.041
  200WAT     H2 1507   7.613   6.829   5.118
  200WAT    EPW 1508   7.690   6.843   5.110
  201WAT      O 1509   7.204   6.996   6.359
  201WAT     H1 1510   7.146   6.934   6.339
  201WAT     H2 1511   7.157   7.069   6.359
  201WAT    EPW 1512   7.189   6.997   6.356
  202WAT      O 1513   7.096   7.378   5.633
  202WAT     H1 1514   7.053   7.397   5.706
  202WAT     H2 1515   7.134   7.301   5.651
  202WAT    EPW 1516   7.095   7.369   5.646
  203WAT      O 1517   7.507   7.729   5.276
  203WAT     H1 1518   7.566   7.753   5.217
  203WAT     H2 1519   7.554   7.707   5.346
  203WAT    EPW 1520   7.522   7.730   5.278
  204WAT      O 1521   7.586   7.036   6.582
  204WAT     H1 1522   7.618   6.991   6.514
  204WAT     H2 1523   7.503   7.009   6.586
  204WAT    EPW 1524   7.578   7.026   6.572
  205WAT      O 1525   6.916   7.331   3.254
  205WAT     H1 1526   6.851   7.379   3.219
  205WAT     H2 1527   6.879   7.253   3.266
  205WAT    EPW 1528   6.901   7.327   3.251
  206WAT      O 1529   7.197   7.905   3.092
  206WAT     H1 1530   7.166   7.859   3.024
  206WAT     H2 1531   7.203   7.845   3.156
  206WAT    EPW 1532   7.193   7.889   3.091
  207WAT      O 1533   7.613   6.996   3.439
  207WAT     H1 1534   7.615   7.078   3.409
  207WAT     H2 1535   7.665   6.953   3.384
  207WAT    EPW 1536   7.621   7.001   3.426
  208WAT      O 1537   7.196   7.741   3.762
  208WAT     H1 1538   7.146   7.751   3.691
  208WAT     H2 1539   7.256   7.683   3.737
  208WAT    EPW 1540   7.198   7.734   3.748
  209WAT      O 1541   7.597   7.250   4.267
  209WAT     H1 1542   7.657   7.252   4.204
  209WAT     H2 1543   7.578   7.165   4.275
  209WAT    EPW 1544   7.603   7.238   4.259
  210WAT      O 1545   7.349   7.515   3.694
  210WAT     H1 1546   7.384   7.467   3.757
  210WAT     H2 1547   7.271   7.478   3.682
  210WAT    EPW 1548   7.342   7.503   3.701
  211WAT      O 1549   7.373   7.030   3.615
  211WAT     H1 1550   7.331   7.079   3.557
  211WAT     H2 1551   7.456   7.029   3.586
  211WAT    EPW 1552   7.379   7.037   3.602
  212WAT      O 1553   7.698   6.947   3.704
  212WAT     H1 1554   7.695   7.025   3.743
  212WAT     H2 1555   7.682   6.966   3.620
  212WAT    EPW 1556   7.695   6.961   3.697
  213WAT      O 1557   6.978   7.418   3.991
  213WAT     H1 1558   6.908   7.465   4.012
  213WAT     H2 1559   6.952   7.336   4.000
  213WAT    EPW 1560   6.964   7.413   3.995
  214WAT      O 1561   7.175   6.980   4.040
  214WAT     H1 1562   7.158   6.903   4.003
  214WAT     H2 1563   7.220   6.960   4.111
  214WAT    EPW 1564   7.179   6.966   4.045
  215WAT      O 1565   7.558   7.164   4.954
  215WAT     H1 1566   7.568   7.117   4.881
  215WAT     H2 1567   7.594   7.241   4.933
  215WAT    EPW 1568   7.565   7.169   4.940
  216WAT      O 1569   7.137   7.057   4.873
  216WAT     H1 1570   7.058   7.023   4.859
  216WAT     H2 1571   7.186   7.022   4.809
  216WAT    EPW 1572   7.133   7.047   4.861
  217WAT      O 1573   7.747   6.863   4.853
  217WAT     H1 1574   7.780   6.807   4.795
  217WAT     H2 1575   7.693   6.912   4.805
  217WAT    EPW 1576   7.744   6.862   4.837
  218WAT      O 1577   6.868   7.185   4.633
  218WAT     H1 1578   6.854   7.261   4.673
  218WAT     H2 1579   6.934   7.203   4.578
  218WAT    EPW 1580   6.876   7.199   4.631
  219WAT      O 1581   6.991   7.088   3.518
  219WAT     H1 1582   6.968   7.005   3.506
  219WAT     H2 1583   6.945   7.111   3.588
  219WAT    EPW 1584   6.981   7.079   3.527
  220WAT      O 1585   7.767   7.350   3.557
  220WAT     H1 1586   7.733   7.316   3.485
  220WAT     H2 1587   7.853   7.353   3.540
  220WAT    EPW 1588   7.775   7.345   3.544
  221WAT      O 1589   7.679   7.217   3.796
  221WAT     H1 1590   7.713   7.265   3.731
  221WAT     H2 1591   7.720   7.246   3.867
  221WAT    EPW 1592   7.690   7.228   3.797
  222WAT      O 1593   7.330   6.773   3.713
  222WAT     H1 1594   7.344   6.855   3.688
  222WAT     H2 1595   7.326   6.729   3.637
  222WAT    EPW 1596   7.332   6.779   3.698
  223WAT      O 1597   7.425   7.704   4.096
  223WAT     H1 1598   7.434   7.637   4.151
  223WAT     H2 1599   7.353   7.685   4.052
  223WAT    EPW 1600   7.416   7.692   4.098
  224WAT      O 1601   7.248   7.156   3.832
  224WAT     H1 1602   7.286   7.107   3.770
  224WAT     H2 1603   7.232   7.099   3.896
  224WAT    EPW 1604   7.251   7.140   3.832
  225WAT      O 1605   7.137   7.346   4.215
  225WAT     H1 1606   7.217   7.356   4.181
  225WAT     H2 1607   7.085   7.370   4.149
  225WAT    EPW 1608   7.141   7.351   4.200
  226WAT      O 1609   7.680   7.404   4.892
  226WAT     H1 1610   7.617   7.464   4.903
  226WAT     H2 1611   7.709   7.418   4.811
  226WAT    EPW 1612   7.675   7.415   4.882
  227WAT      O 1613   7.053   7.738   3.523
  227WAT     H1 1614   7.017   7.659   3.516
  227WAT     H2 1615   7.105   7.743   3.453
  227WAT    EPW 1616   7.056   7.728   3.512
  228WAT      O 1617   7.642   7.245   3.321
  228WAT     H1 1618   7.648   7.216   3.239
  228WAT     H2 1619   7.594   7.317   3.313
  228WAT    EPW 1620   7.636   7.252   3.308
  229WAT      O 1621   7.238   7.517   4.811
  229WAT     H1 1622   7.193   7.459   4.858
  229WAT     H2 1623   7.257   7.474   4.738
  229WAT    EPW 1624   7.234   7.502   4.807
  230WAT      O 1625   7.224   7.430   3.300
  230WAT     H1 1626   7.222   7.362   3.355
  230WAT     H2 1627   7.192   7.397   3.226
  230WAT    EPW 1628   7.219   7.415   3.297
  231WAT      O 1629   7.152   7.646   4.016
  231WAT     H1 1630   7.157   7.681   3.936
  231WAT     H2 1631   7.105   7.574   4.003
  231WAT    EPW 1632   7.146   7.641   4.002
  232WAT      O 1633   7.355   7.569   4.370
  232WAT     H1 1634   7.361   7.511   4.306
  232WAT     H2 1635   7.291   7.623   4.344
  232WAT    EPW 1636   7.346   7.568   4.357
  233WAT      O 1637   7.094   7.752   4.775
  233WAT     H1 1638   7.075   7.753   4.690
  233WAT     H2 1639   7.142   7.679   4.785
  233WAT    EPW 1640   7.099   7.742   4.764
  234WAT      O 1641   7.766   7.324   4.043
  234WAT     H1 1642   7.739   7.406   4.048
  234WAT     H2 1643   7.850   7.328   4.067
  234WAT    EPW 1644   7.774   7.336   4.047
  235WAT      O 1645   7.425   6.842   3.278
  235WAT     H1 1646   7.465   6.875   3.347
  235WAT     H2 1647   7.387   6.911   3.241
  235WAT    EPW 1648   7.425   6.857   3.283
  236WAT      O 1649   7.230   7.715   3.305
  236WAT     H1 1650   7.222   7.629   3.304
  236WAT     H2 1651   7.312   7.728   3.335
  236WAT    EPW 1652   7.241   7.705   3.309
  237WAT      O 1653   6.903   6.821   3.477
  237WAT     H1 1654   6.899   6.769   3.407
  237WAT     H2 1655   6.878   6.769   3.542
  237WAT    EPW 1656   6.899   6.806   3.476
  238WAT      O 1657   7.639   7.605   3.585
  238WAT     H1 1658   7.567   7.585   3.630
  238WAT     H2 1659   7.682   7.529   3.580
  238WAT    EPW 1660   7.635   7.591   3.591
  239WAT      O 1661   7.329   7.081   3.180
  239WAT     H1 1662   7.269   7.074   3.117
  239WAT     H2 1663   7.396   7.120   3.140
  239WAT    EPW 1664   7.330   7.085   3.164
  240WAT      O 1665   7.688   7.589   4.068
  240WAT     H1 1666   7.615   7.633   4.049
  240WAT     H2 1667   7.719   7.630   4.138
  240WAT    EPW 1668   7.682   7.601   4.075
  241WAT      O 1669   7.177   7.760   4.270
  241WAT     H1 1670   7.244   7.811   4.247
  241WAT     H2 1671   7.152   7.723   4.195
  241WAT    EPW 1672   7.183   7.762   4.256
  242WAT      O 1673   7.444   7.340   3.885
  242WAT     H1 1674   7.517   7.301   3.858
  242WAT     H2 1675   7.382   7.280   3.872
  242WAT    EPW 1676   7.446   7.326   3.879
  243WAT      O 1677   6.958   7.473   3.504
  243WAT     H1 1678   6.998   7.431   3.570
  243WAT     H2 1679   6.973   7.421   3.435
  243WAT    EPW 1680   6.966   7.459   3.504
  244WAT      O 1681   7.485   7.594   3.032
  244WAT     H1 1682   7.479   7.555   3.109
  244WAT     H2 1683   7.411   7.571   2.991
  244WAT    EPW 1684   7.473   7.585   3.037
  245WAT      O 1685   7.492   7.472   3.280
  245WAT     H1 1686   7.502   7.548   3.322
  245WAT     H2 1687   7.407   7.454   3.291
  245WAT    EPW 1688   7.481   7.481   3.288
  246WAT      O 1689   6.940   7.139   4.005
  246WAT     H1 1690   6.915   7.124   3.923
  246WAT     H2 1691   7.013   7.092   4.013
  246WAT    EPW 1692   6.947   7.130   3.994
  247WAT      O 1693   7.765   7.725   4.299
  247WAT     H1 1694   7.786   7.808   4.312
  247WAT     H2 1695   7.713   7.705   4.366
  247WAT    EPW 1696   7.761   7.734   4.311
  248WAT      O 1697   7.544   7.263   4.551
  248WAT     H1 1698   7.551   7.184   4.588
  248WAT     H2 1699   7.561   7.248   4.467
  248WAT    EPW 1700   7.548   7.249   4.544
  249WAT      O 1701   7.625   6.811   4.531
  249WAT     H1 1702   7.705   6.776   4.535
  249WAT     H2 1703   7.577   6.756   4.578
  249WAT    EPW 1704   7.630   6.798   4.538
  250WAT      O 1705   7.640   7.799   3.146
  250WAT     H1 1706   7.586   7.749   3.099
  250WAT     H2 1707   7.718   7.785   3.109
  250WAT    EPW 1708   7.643   7.790   3.133
  251WAT      O 1709   7.403   7.404   4.152
  251WAT     H1 1710   7.418   7.394   4.066
  251WAT     H2 1711   7.463   7.354   4.189
  251WAT    EPW 1712   7.414   7.395   4.145
  252WAT      O 1713   7.603   6.794   4.146
  252WAT     H1 1714   7.521   6.805   4.172
  252WAT     H2 1715   7.596   6.780   4.060
  252WAT    EPW 1716   7.590   6.793   4.137
  253WAT      O 1717   6.886   6.955   4.788
  253WAT     H1 1718   6.883   7.027   4.739
  253WAT     H2 1719   6.802   6.935   4.799
  253WAT    EPW 1720   6.873   6.963   4.782
  254WAT      O 1721   7.236   7.182   3.429
  254WAT     H1 1722   7.253   7.145   3.351
  254WAT     H2 1723   7.156   7.153   3.449
  254WAT    EPW 1724   7.227   7.172   3.420
  255WAT      O 1725   7.299   7.389   4.573
  255WAT     H1 1726   7.311   7.451   4.512
  255WAT     H2 1727   7.374   7.346   4.573
  255WAT    EPW 1728   7.312   7.392   4.564
  256WAT      O 1729   7.086   7.251   4.463
  256WAT     H1 1730   7.099   7.273   4.379
  256WAT     H2 1731   7.153   7.289   4.504
  256WAT    EPW 1732   7.098   7.260   4.456
  257WAT      O 1733   7.291   6.934   4.673
  257WAT     H1 1734   7.286   6.848   4.659
  257WAT     H2 1735   7.272   6.968   4.595
  257WAT    EPW 1736   7.288   6.926   4.659
  258WAT      O 1737   7.012   7.723   4.500
  258WAT     H1 1738   7.060   7.747   4.431
  258WAT     H2 1739   6.983   7.644   4.478
  258WAT    EPW 1740   7.015   7.715   4.487
  259WAT      O 1741   7.116   7.321   3.062
  259WAT     H1 1742   7.043   7.322   3.111
  259WAT     H2 1743   7.118   7.240   3.030
  259WAT    EPW 1744   7.105   7.309   3.065
  260WAT      O 1745   7.581   7.669   4.505
  260WAT     H1 1746   7.545   7.712   4.572
  260WAT     H2 1747   7.512   7.637   4.462
  260WAT    EPW 1748   7.565   7.670   4.508
  261WAT      O 1749   7.500   7.012   4.369
  261WAT     H1 1750   7.415   6.997   4.373
  261WAT     H2 1751   7.536   6.937   4.396
  261WAT    EPW 1752   7.493   6.999   4.374
  262WAT      O 1753   7.728   7.458   4.625
  262WAT     H1 1754   7.677   7.392   4.598
  262WAT     H2 1755   7.693   7.527   4.585
  262WAT    EPW 1756   7.715   7.458   4.615
  263WAT      O 1757   7.701   6.847   3.211
  263WAT     H1 1758   7.723   6.859   3.128
  263WAT     H2 1759   7.615   6.836   3.209
  263WAT    EPW 1760   7.692   6.847   3.199
  264WAT      O 1761   7.217   7.008   4.419
  264WAT     H1 1762   7.158   6.944   4.410
  264WAT     H2 1763   7.169   7.080   4.425
  264WAT    EPW 1764   7.201   7.009   4.419
  265WAT      O 1765   7.096   7.373   3.731
  265WAT     H1 1766   7.053   7.396   3.803
  265WAT     H2 1767   7.134   7.297   3.753
  265WAT    EPW 1768   7.095   7.365   3.745
  266WAT      O 1769   7.502   7.730   3.379
  266WAT     H1 1770   7.556   7.765   3.319
  266WAT     H2 1771   7.556   7.710   3.445
  266WAT    EPW 1772   7.518   7.732   3.380
  267WAT      O 1773   7.556   7.017   4.701
  267WAT     H1 1774   7.588   6.968   4.637
  267WAT     H2 1775   7.471   6.996   4.703
  267WAT    EPW 1776   7.548   7.007   4.692
  268WAT      O 1777   6.898   7.318   1.340
  268WAT     H1 1778   6.832   7.368   1.312
  268WAT     H2 1779   6.864   7.238   1.340
  268WAT    EPW 1780   6.883   7.314   1.336
  269WAT      O 1781   7.191   7.926   1.209
  269WAT     H1 1782   7.159   7.882   1.142
  269WAT     H2 1783   7.201   7.865   1.271
  269WAT    EPW 1784   7.188   7.911   1.209
  270WAT      O 1785   7.619   7.001   1.546
  270WAT     H1 1786   7.618   7.083   1.517
  270WAT     H2 1787   7.671   6.960   1.489
  270WAT    EPW 1788   7.627   7.007   1.533
  271WAT      O 1789   7.195   7.740   1.851
  271WAT     H1 1790   7.140   7.750   1.784
  271WAT     H2 1791   7.247   7.675   1.825
  271WAT    EPW 1792   7.195   7.732   1.837
  272WAT      O 1793   7.578   7.242   2.366
  272WAT     H1 1794   7.638   7.237   2.302
  272WAT     H2 1795   7.548   7.160   2.371
  272WAT    EPW 1796   7.582   7.229   2.357
  273WAT      O 1797   7.317   7.501   1.785
  273WAT     H1 1798   7.362   7.458   1.846
  273WAT     H2 1799   7.238   7.464   1.788
  273WAT    EPW 1800   7.312   7.489   1.794
  274WAT      O 1801   7.372   7.037   1.727
  274WAT     H1 1802   7.333   7.087   1.666
  274WAT     H2 1803   7.456   7.039   1.704
  274WAT    EPW 1804   7.379   7.045   1.714
  275WAT      O 1805   7.701   6.954   1.810
  275WAT     H1 1806   7.693   7.033   1.847
  275WAT     H2 1807   7.685   6.970   1.726
  275WAT    EPW 1808   7.697   6.968   1.803
  276WAT      O 1809   6.940   7.452   2.107
  276WAT     H1 1810   6.896   7.528   2.107
  276WAT     H2 1811   6.890   7.399   2.154
  276WAT    EPW 1812   6.926   7.456   2.114
  277WAT      O 1813   7.237   6.975   2.147
  277WAT     H1 1814   7.190   6.907   2.117
  277WAT     H2 1815   7.301   6.937   2.191
  277WAT    EPW 1816   7.239   6.959   2.149
  278WAT      O 1817   7.569   7.173   3.045
  278WAT     H1 1818   7.582   7.124   2.974
  278WAT     H2 1819   7.602   7.251   3.023
  278WAT    EPW 1820   7.576   7.178   3.031
  279WAT      O 1821   7.138   7.051   2.978
  279WAT     H1 1822   7.061   7.015   2.956
  279WAT     H2 1823   7.193   7.017   2.920
  279WAT    EPW 1824   7.134   7.041   2.966
  280WAT      O 1825   7.741   6.858   2.938
  280WAT     H1 1826   7.760   6.795   2.881
  280WAT     H2 1827   7.697   6.917   2.891
  280WAT    EPW 1828   7.737   6.857   2.923
  281WAT      O 1829   6.865   7.182   2.723
  281WAT     H1 1830   6.855   7.259   2.763
  281WAT     H2 1831   6.928   7.197   2.665
  281WAT    EPW 1832   6.873   7.195   2.721
  282WAT      O 1833   6.994   7.099   1.621
  282WAT     H1 1834   6.972   7.016   1.607
  282WAT     H2 1835   6.950   7.120   1.693
  282WAT    EPW 1836   6.984   7.090   1.630
  283WAT      O 1837   7.769   7.355   1.665
  283WAT     H1 1838   7.734   7.322   1.592
  283WAT     H2 1839   7.855   7.355   1.648
  283WAT    EPW 1840   7.777   7.351   1.652
  284WAT      O 1841   7.670   7.220   1.897
  284WAT     H1 1842   7.707   7.269   1.835
  284WAT     H2 1843   7.710   7.245   1.970
  284WAT    EPW 1844   7.681   7.231   1.898
  285WAT      O 1845   7.328   6.779   1.827
  285WAT     H1 1846   7.342   6.862   1.804
  285WAT     H2 1847   7.327   6.736   1.751
  285WAT    EPW 1848   7.330   6.785   1.812
  286WAT      O 1849   7.441   7.700   2.203
  286WAT     H1 1850   7.429   7.663   2.281
  286WAT     H2 1851   7.372   7.673   2.157
  286WAT    EPW 1852   7.429   7.691   2.207
  287WAT      O 1853   7.236   7.159   1.941
  287WAT     H1 1854   7.274   7.114   1.876
  287WAT     H2 1855   7.239   7.103   2.008
  287WAT    EPW 1856   7.242   7.144   1.941
  288WAT      O 1857   7.118   7.291   2.275
  288WAT     H1 1858   7.200   7.313   2.258
  288WAT     H2 1859   7.072   7.343   2.223
  288WAT    EPW 1860   7.123   7.302   2.265
  289WAT      O 1861   7.683   7.413   2.966
  289WAT     H1 1862   7.624   7.474   2.986
  289WAT     H2 1863   7.707   7.433   2.885
  289WAT    EPW 1864   7.678   7.425   2.957
  290WAT      O 1865   7.040   7.728   1.620
  290WAT     H1 1866   7.009   7.647   1.612
  290WAT     H2 1867   7.095   7.736   1.553
  290WAT    EPW 1868   7.043   7.718   1.609
  291WAT      O 1869   7.644   7.253   1.430
  291WAT     H1 1870   7.651   7.224   1.348
  291WAT     H2 1871   7.593   7.323   1.422
  291WAT    EPW 1872   7.637   7.259   1.416
  292WAT      O 1873   7.252   7.505   2.903
  292WAT     H1 1874   7.206   7.448   2.950
  292WAT     H2 1875   7.260   7.467   2.825
  292WAT    EPW 1876   7.247   7.491   2.898
  293WAT      O 1877   7.221   7.437   1.404
  293WAT     H1 1878   7.221   7.371   1.461
  293WAT     H2 1879   7.188   7.401   1.331
  293WAT    EPW 1880   7.216   7.422   1.401
  294WAT      O 1881   7.170   7.639   2.105
  294WAT     H1 1882   7.172   7.675   2.026
  294WAT     H2 1883   7.113   7.573   2.096
  294WAT    EPW 1884   7.162   7.634   2.092
  295WAT      O 1885   7.344   7.577   2.447
  295WAT     H1 1886   7.346   7.515   2.386
  295WAT     H2 1887   7.275   7.625   2.424
  295WAT    EPW 1888   7.334   7.575   2.435
  296WAT      O 1889   7.102   7.738   2.875
  296WAT     H1 1890   7.088   7.738   2.789
  296WAT     H2 1891   7.149   7.665   2.887
  296WAT    EPW 1892   7.107   7.727   2.864
  297WAT      O 1893   7.761   7.300   2.150
  297WAT     H1 1894   7.736   7.383   2.160
  297WAT     H2 1895   7.846   7.301   2.173
  297WAT    EPW 1896   7.770   7.312   2.155
  298WAT      O 1897   7.432   6.844   1.389
  298WAT     H1 1898   7.473   6.876   1.459
  298WAT     H2 1899   7.395   6.914   1.353
  298WAT    EPW 1900   7.433   6.859   1.394
  299WAT      O 1901   7.230   7.722   1.411
  299WAT     H1 1902   7.222   7.635   1.408
  299WAT     H2 1903   7.310   7.733   1.444
  299WAT    EPW 1904   7.241   7.711   1.416
  300WAT      O 1905   6.907   6.833   1.577
  300WAT     H1 1906   6.904   6.780   1.508
  300WAT     H2 1907   6.880   6.783   1.643
  300WAT    EPW 1908   6.902   6.818   1.576
  301WAT      O 1909   7.664   7.620   1.687
  301WAT     H1 1910   7.612   7.613   1.757
  301WAT     H2 1911   7.698   7.540   1.681
  301WAT    EPW 1912   7.661   7.607   1.697
  302WAT      O 1913   7.345   7.087   1.292
  302WAT     H1 1914   7.285   7.080   1.229
  302WAT     H2 1915   7.412   7.126   1.253
  302WAT    EPW 1916   7.346   7.092   1.277
  303WAT      O 1917   7.690   7.562   2.195
  303WAT     H1 1918   7.617   7.609   2.180
  303WAT     H2 1919   7.716   7.588   2.274
  303WAT    EPW 1920   7.683   7.573   2.205
  304WAT      O 1921   7.170   7.774   2.347
  304WAT     H1 1922   7.233   7.831   2.329
  304WAT     H2 1923   7.154   7.735   2.270
  304WAT    EPW 1924   7.177   7.776   2.333
  305WAT      O 1925   7.434   7.345   1.981
  305WAT     H1 1926   7.507   7.305   1.954
  305WAT     H2 1927   7.373   7.284   1.971
  305WAT    EPW 1928   7.436   7.330   1.976
  306WAT      O 1929   6.951   7.457   1.606
  306WAT     H1 1930   6.983   7.418   1.677
  306WAT     H2 1931   6.964   7.399   1.542
  306WAT    EPW 1932   6.957   7.443   1.607
  307WAT      O 1933   7.482   7.596   1.134
  307WAT     H1 1934   7.478   7.557   1.212
  307WAT     H2 1935   7.405   7.580   1.098
  307WAT    EPW 1936   7.470   7.588   1.140
  308WAT      O 1937   7.489   7.476   1.383
  308WAT     H1 1938   7.499   7.551   1.427
  308WAT     H2 1939   7.404   7.457   1.395
  308WAT    EPW 1940   7.478   7.485   1.391
  309WAT      O 1941   6.937   7.073   2.115
  309WAT     H1 1942   6.924   7.093   2.031
  309WAT     H2 1943   7.022   7.088   2.127
  309WAT    EPW 1944   6.947   7.078   2.105
  310WAT      O 1945   7.750   7.637   2.458
  310WAT     H1 1946   7.691   7.689   2.495
  310WAT     H2 1947   7.766   7.577   2.519
  310WAT    EPW 1948   7.743   7.636   2.472
  311WAT      O 1949   7.538   7.278   2.641
  311WAT     H1 1950   7.555   7.204   2.683
  311WAT     H2 1951   7.554   7.259   2.557
  311WAT    EPW 1952   7.543   7.264   2.635
  312WAT      O 1953   7.663   6.861   2.582
  312WAT     H1 1954   7.687   6.851   2.499
  312WAT     H2 1955   7.695   6.791   2.622
  312WAT    EPW 1956   7.671   6.850   2.576
  313WAT      O 1957   7.643   7.794   1.255
  313WAT     H1 1958   7.588   7.746   1.206
  313WAT     H2 1959   7.722   7.769   1.226
  313WAT    EPW 1960   7.647   7.783   1.243
  314WAT      O 1961   7.376   7.387   2.250
  314WAT     H1 1962   7.398   7.388   2.166
  314WAT     H2 1963   7.440   7.340   2.287
  314WAT    EPW 1964   7.389   7.380   2.243
  315WAT      O 1965   7.686   6.815   2.305
  315WAT     H1 1966   7.602   6.811   2.282
  315WAT     H2 1967   7.727   6.838   2.231
  315WAT    EPW 1968   7.680   6.818   2.290
  316WAT      O 1969   6.887   6.952   2.879
  316WAT     H1 1970   6.885   7.024   2.830
  316WAT     H2 1971   6.802   6.934   2.892
  316WAT    EPW 1972   6.874   6.960   2.873
  317WAT      O 1973   7.241   7.190   1.536
  317WAT     H1 1974   7.261   7.152   1.460
  317WAT     H2 1975   7.161   7.160   1.554
  317WAT    EPW 1976   7.232   7.180   1.527
  318WAT      O 1977   7.284   7.390   2.649
  318WAT     H1 1978   7.297   7.455   2.592
  318WAT     H2 1979   7.361   7.350   2.651
  318WAT    EPW 1980   7.297   7.394   2.641
  319WAT      O 1981   7.074   7.245   2.541
  319WAT     H1 1982   7.087   7.251   2.455
  319WAT     H2 1983   7.143   7.287   2.575
  319WAT    EPW 1984   7.086   7.252   2.534
  320WAT      O 1985   7.325   6.940   2.803
  320WAT     H1 1986   7.351   6.857   2.798
  320WAT     H2 1987   7.286   6.955   2.726
  320WAT    EPW 1988   7.323   6.930   2.791
  321WAT      O 1989   7.060   7.696   2.597
  321WAT     H1 1990   7.082   7.735   2.522
  321WAT     H2 1991   7.007   7.631   2.572
  321WAT    EPW 1992   7.055   7.692   2.582
  322WAT      O 1993   7.114   7.328   1.168
  322WAT     H1 1994   7.039   7.323   1.213
  322WAT     H2 1995   7.126   7.246   1.139
  322WAT    EPW 1996   7.105   7.315   1.170
  323WAT      O 1997   7.520   7.690   2.636
  323WAT     H1 1998   7.470   7.730   2.694
  323WAT     H2 1999   7.463   7.656   2.579
  323WAT    EPW 2000   7.504   7.691   2.636
  324WAT      O 2001   7.455   7.012   2.454
  324WAT     H1 2002   7.372   7.001   2.480
  324WAT     H2 2003   7.498   6.948   2.495
  324WAT    EPW 2004   7.449   7.001   2.464
  325WAT      O 2005   7.706   7.489   2.698
  325WAT     H1 2006   7.659   7.419   2.677
  325WAT     H2 2007   7.649   7.555   2.693
  325WAT    EPW 2008   7.691   7.488   2.694
  326WAT      O 2009   7.711   6.852   1.322
  326WAT     H1 2010   7.733   6.864   1.239
  326WAT     H2 2011   7.625   6.837   1.318
  326WAT    EPW 2012   7.701   6.851   1.309
  327WAT      O 2013   7.199   6.996   2.565
  327WAT     H1 2014   7.145   6.932   2.541
  327WAT     H2 2015   7.152   7.068   2.552
  327WAT    EPW 2016   7.184   6.997   2.560
  328WAT      O 2017   7.069   7.372   1.852
  328WAT     H1 2018   7.019   7.391   1.921
  328WAT     H2 2019   7.107   7.297   1.875
  328WAT    EPW 2020   7.067   7.363   1.866
  329WAT      O 2021   7.504   7.731   1.489
  329WAT     H1 2022   7.556   7.765   1.427
  329WAT     H2 2023   7.559   7.710   1.553
  329WAT    EPW 2024   7.520   7.733   1.489
  330WAT      O 2025   7.583   7.036   2.784
  330WAT     H1 2026   7.613   6.991   2.716
  330WAT     H2 2027   7.500   7.010   2.791
  330WAT    EPW 2028   7.575   7.026   2.775
  331WAT      O 2029   7.581   7.215   0.476
  331WAT     H1 2030   7.653   7.180   0.440
  331WAT     H2 2031   7.533   7.146   0.497
  331WAT    EPW 2032   7.585   7.200   0.474
  332WAT      O 2033   6.970   7.504   0.336
  332WAT     H1 2034   6.918   7.563   0.299
  332WAT     H2 2035   6.914   7.446   0.369
  332WAT    EPW 2036   6.954   7.504   0.335
  333WAT      O 2037   7.187   6.955   0.377
  333WAT     H1 2038   7.209   7.036   0.353
  333WAT     H2 2039   7.259   6.908   0.362
  333WAT    EPW 2040   7.201   6.960   0.371
  334WAT      O 2041   7.582   7.182   1.154
  334WAT     H1 2042   7.593   7.131   1.084
  334WAT     H2 2043   7.613   7.259   1.128
  334WAT    EPW 2044   7.588   7.186   1.140
  335WAT      O 2045   7.160   7.059   1.088
  335WAT     H1 2046   7.084   7.019   1.074
  335WAT     H2 2047   7.215   7.023   1.031
  335WAT    EPW 2048   7.157   7.048   1.078
  336WAT      O 2049   7.757   6.869   1.050
  336WAT     H1 2050   7.777   6.805   0.994
  336WAT     H2 2051   7.710   6.925   1.002
  336WAT    EPW 2052   7.753   6.868   1.035
  337WAT      O 2053   6.893   7.189   0.861
  337WAT     H1 2054   6.877   7.265   0.899
  337WAT     H2 2055   6.953   7.208   0.800
  337WAT    EPW 2056   6.899   7.203   0.857
  338WAT      O 2057   7.368   7.787   0.377
  338WAT     H1 2058   7.382   7.761   0.459
  338WAT     H2 2059   7.439   7.760   0.334
  338WAT    EPW 2060   7.381   7.779   0.383
  339WAT      O 2061   7.176   7.315   0.402
  339WAT     H1 2062   7.254   7.351   0.386
  339WAT     H2 2063   7.120   7.370   0.363
  339WAT    EPW 2064   7.179   7.329   0.394
  340WAT      O 2065   7.685   7.422   1.063
  340WAT     H1 2066   7.623   7.481   1.081
  340WAT     H2 2067   7.712   7.444   0.983
  340WAT    EPW 2068   7.680   7.434   1.054
  341WAT      O 2069   7.239   7.524   1.015
  341WAT     H1 2070   7.196   7.466   1.063
  341WAT     H2 2071   7.260   7.479   0.943
  341WAT    EPW 2072   7.236   7.509   1.011
  342WAT      O 2073   7.338   7.595   0.598
  342WAT     H1 2074   7.370   7.546   0.532
  342WAT     H2 2075   7.260   7.621   0.568
  342WAT    EPW 2076   7.331   7.591   0.584
  343WAT      O 2077   7.089   7.759   0.995
  343WAT     H1 2078   7.063   7.761   0.912
  343WAT     H2 2079   7.137   7.687   1.000
  343WAT    EPW 2080   7.092   7.749   0.984
  344WAT      O 2081   7.809   7.087   0.363
  344WAT     H1 2082   7.828   7.105   0.280
  344WAT     H2 2083   7.884   7.101   0.405
  344WAT    EPW 2084   7.823   7.092   0.357
  345WAT      O 2085   7.615   7.667   0.309
  345WAT     H1 2086   7.668   7.708   0.253
  345WAT     H2 2087   7.658   7.672   0.385
  345WAT    EPW 2088   7.629   7.674   0.312
  346WAT      O 2089   7.114   7.701   0.476
  346WAT     H1 2090   7.165   7.738   0.416
  346WAT     H2 2091   7.068   7.642   0.431
  346WAT    EPW 2092   7.115   7.698   0.461
  347WAT      O 2093   7.731   7.679   0.561
  347WAT     H1 2094   7.765   7.613   0.607
  347WAT     H2 2095   7.676   7.717   0.617
  347WAT    EPW 2096   7.728   7.675   0.576
  348WAT      O 2097   7.558   7.282   0.748
  348WAT     H1 2098   7.572   7.209   0.794
  348WAT     H2 2099   7.569   7.256   0.665
  348WAT    EPW 2100   7.562   7.267   0.742
  349WAT      O 2101   7.682   6.864   0.705
  349WAT     H1 2102   7.692   6.852   0.619
  349WAT     H2 2103   7.720   6.794   0.740
  349WAT    EPW 2104   7.689   6.852   0.697
  350WAT      O 2105   7.435   7.439   0.391
  350WAT     H1 2106   7.487   7.491   0.343
  350WAT     H2 2107   7.487   7.372   0.410
  350WAT    EPW 2108   7.451   7.437   0.386
  351WAT      O 2109   7.689   6.835   0.428
  351WAT     H1 2110   7.609   6.834   0.392
  351WAT     H2 2111   7.724   6.909   0.397
  351WAT    EPW 2112   7.682   6.846   0.418
  352WAT      O 2113   6.912   6.951   1.003
  352WAT     H1 2114   6.908   7.025   0.956
  352WAT     H2 2115   6.836   6.911   0.985
  352WAT    EPW 2116   6.900   6.956   0.994
  353WAT      O 2117   7.304   7.390   0.780
  353WAT     H1 2118   7.313   7.456   0.723
  353WAT     H2 2119   7.382   7.350   0.777
  353WAT    EPW 2120   7.317   7.394   0.771
  354WAT      O 2121   7.094   7.257   0.661
  354WAT     H1 2122   7.115   7.267   0.577
  354WAT     H2 2123   7.162   7.291   0.703
  354WAT    EPW 2124   7.107   7.263   0.655
  355WAT      O 2125   7.337   6.937   0.913
  355WAT     H1 2126   7.365   6.854   0.906
  355WAT     H2 2127   7.290   6.949   0.840
  355WAT    EPW 2128   7.334   6.926   0.901
  356WAT      O 2129   6.986   7.728   0.727
  356WAT     H1 2130   7.027   7.748   0.653
  356WAT     H2 2131   6.962   7.645   0.716
  356WAT    EPW 2132   6.989   7.719   0.715
  357WAT      O 2133   7.531   7.709   0.765
  357WAT     H1 2134   7.493   7.754   0.829
  357WAT     H2 2135   7.464   7.678   0.719
  357WAT    EPW 2136   7.515   7.711   0.767
  358WAT      O 2137   7.440   7.006   0.582
  358WAT     H1 2138   7.356   7.000   0.601
  358WAT     H2 2139   7.473   6.930   0.609
  358WAT    EPW 2140   7.433   6.994   0.589
  359WAT      O 2141   7.719   7.502   0.796
  359WAT     H1 2142   7.672   7.431   0.776
  359WAT     H2 2143   7.659   7.566   0.797
  359WAT    EPW 2144   7.703   7.501   0.793
  360WAT      O 2145   7.184   6.991   0.690
  360WAT     H1 2146   7.139   6.933   0.643
  360WAT     H2 2147   7.144   7.067   0.672
  360WAT    EPW 2148   7.171   6.994   0.681
  361WAT      O 2149   7.592   7.042   0.896
  361WAT     H1 2150   7.623   6.996   0.829
  361WAT     H2 2151   7.509   7.015   0.901
  361WAT    EPW 2152   7.584   7.031   0.887
  362WAT      O 2153   6.943   6.108   7.389
  362WAT     H1 2154   6.865   6.105   7.427
  362WAT     H2 2155   6.949   6.031   7.348
  362WAT    EPW 2156   6.932   6.096   7.389
  363WAT      O 2157   6.925   5.459   7.037
  363WAT     H1 2158   6.859   5.506   7.004
  363WAT     H2 2159   6.896   5.377   7.032
  363WAT    EPW 2160   6.911   5.454   7.031
  364WAT      O 2161   7.220   6.061   6.984
  364WAT     H1 2162   7.196   6.016   6.913
  364WAT     H2 2163   7.237   6.000   7.043
  364WAT    EPW 2164   7.219   6.045   6.982
  365WAT      O 2165   7.204   6.215   7.393
  365WAT     H1 2166   7.255   6.179   7.453
  365WAT     H2 2167   7.127   6.176   7.405
  365WAT    EPW 2168   7.200   6.204   7.403
  366WAT      O 2169   7.584   5.079   7.267
  366WAT     H1 2170   7.623   5.130   7.208
  366WAT     H2 2171   7.633   5.007   7.267
  366WAT    EPW 2172   7.597   5.076   7.258
  367WAT      O 2173   7.053   6.482   6.959
  367WAT     H1 2174   7.107   6.495   6.892
  367WAT     H2 2175   7.098   6.430   7.012
  367WAT    EPW 2176   7.068   6.476   6.957
  368WAT      O 2177   7.142   5.839   7.511
  368WAT     H1 2178   7.092   5.853   7.440
  368WAT     H2 2179   7.196   5.775   7.485
  368WAT    EPW 2180   7.142   5.831   7.497
  369WAT      O 2181   7.307   5.635   7.412
  369WAT     H1 2182   7.363   5.623   7.478
  369WAT     H2 2183   7.240   5.583   7.434
  369WAT    EPW 2184   7.305   5.625   7.425
  370WAT      O 2185   7.683   6.219   7.666
  370WAT     H1 2186   7.667   6.162   7.730
  370WAT     H2 2187   7.744   6.272   7.700
  370WAT    EPW 2188   7.690   6.218   7.680
  371WAT      O 2189   7.693   6.133   7.400
  371WAT     H1 2190   7.694   6.153   7.485
  371WAT     H2 2191   7.774   6.105   7.385
  371WAT    EPW 2192   7.706   6.132   7.410
  372WAT      O 2193   7.367   5.190   7.413
  372WAT     H1 2194   7.326   5.240   7.353
  372WAT     H2 2195   7.438   5.162   7.371
  372WAT    EPW 2196   7.371   5.193   7.398
  373WAT      O 2197   7.735   5.186   7.482
  373WAT     H1 2198   7.723   5.272   7.491
  373WAT     H2 2199   7.685   5.165   7.414
  373WAT    EPW 2200   7.726   5.196   7.473
  374WAT      O 2201   6.958   5.600   7.729
  374WAT     H1 2202   6.961   5.686   7.741
  374WAT     H2 2203   6.964   5.568   7.810
  374WAT    EPW 2204   6.960   5.608   7.743
  375WAT      O 2205   6.970   6.561   7.616
  375WAT     H1 2206   6.907   6.612   7.585
  375WAT     H2 2207   7.011   6.532   7.545
  375WAT    EPW 2208   6.967   6.565   7.601
  376WAT      O 2209   7.550   6.359   7.319
  376WAT     H1 2210   7.506   6.362   7.394
  376WAT     H2 2211   7.602   6.290   7.329
  376WAT    EPW 2212   7.551   6.349   7.331
  377WAT      O 2213   7.108   6.477   7.385
  377WAT     H1 2214   7.151   6.404   7.404
  377WAT     H2 2215   7.169   6.529   7.351
  377WAT    EPW 2216   7.124   6.474   7.383
  378WAT      O 2217   7.288   6.239   7.761
  378WAT     H1 2218   7.329   6.296   7.708
  378WAT     H2 2219   7.315   6.161   7.733
  378WAT    EPW 2220   7.298   6.236   7.749
  379WAT      O 2221   7.537   6.623   7.637
  379WAT     H1 2222   7.610   6.660   7.605
  379WAT     H2 2223   7.474   6.679   7.615
  379WAT    EPW 2224   7.539   6.637   7.629
  380WAT      O 2225   7.841   6.440   6.876
  380WAT     H1 2226   7.824   6.498   6.939
  380WAT     H2 2227   7.876   6.373   6.919
  380WAT    EPW 2228   7.843   6.439   6.892
  381WAT      O 2229   6.995   5.253   7.308
  381WAT     H1 2230   6.976   5.169   7.297
  381WAT     H2 2231   6.949   5.275   7.379
  381WAT    EPW 2232   6.985   5.244   7.317
  382WAT      O 2233   7.832   5.502   7.056
  382WAT     H1 2234   7.790   5.426   7.070
  382WAT     H2 2235   7.795   5.534   6.984
  382WAT    EPW 2236   7.821   5.495   7.048
  383WAT      O 2237   7.680   5.465   7.470
  383WAT     H1 2238   7.624   5.464   7.403
  383WAT     H2 2239   7.748   5.510   7.439
  383WAT    EPW 2240   7.682   5.471   7.455
  384WAT      O 2241   7.307   4.939   7.527
  384WAT     H1 2242   7.316   5.021   7.500
  384WAT     H2 2243   7.306   4.893   7.453
  384WAT    EPW 2244   7.308   4.944   7.512
  385WAT      O 2245   7.299   5.348   7.634
  385WAT     H1 2246   7.329   5.294   7.572
  385WAT     H2 2247   7.234   5.303   7.671
  385WAT    EPW 2248   7.294   5.334   7.630
  386WAT      O 2249   7.339   6.013   7.589
  386WAT     H1 2250   7.392   5.997   7.521
  386WAT     H2 2251   7.269   5.964   7.572
  386WAT    EPW 2252   7.337   6.003   7.576
  387WAT      O 2253   7.195   6.641   7.761
  387WAT     H1 2254   7.121   6.624   7.718
  387WAT     H2 2255   7.241   6.689   7.704
  387WAT    EPW 2256   7.191   6.646   7.746
  388WAT      O 2257   7.480   5.953   7.360
  388WAT     H1 2258   7.542   6.014   7.360
  388WAT     H2 2259   7.523   5.880   7.338
  388WAT    EPW 2260   7.495   5.951   7.356
  389WAT      O 2261   7.025   6.147   7.797
  389WAT     H1 2262   6.982   6.221   7.816
  389WAT     H2 2263   7.107   6.174   7.784
  389WAT    EPW 2264   7.031   6.162   7.798
  390WAT      O 2265   7.004   5.864   7.272
  390WAT     H1 2266   6.986   5.779   7.269
  390WAT     H2 2267   7.082   5.869   7.233
  390WAT    EPW 2268   7.013   5.852   7.266
  391WAT      O 2269   6.922   6.332   7.232
  391WAT     H1 2270   6.980   6.385   7.270
  391WAT     H2 2271   6.920   6.263   7.285
  391WAT    EPW 2272   6.931   6.330   7.245
  392WAT      O 2273   6.936   6.154   7.008
  392WAT     H1 2274   7.015   6.116   7.005
  392WAT     H2 2275   6.945   6.214   7.071
  392WAT    EPW 2276   6.949   6.157   7.017
  393WAT      O 2277   6.978   5.882   7.731
  393WAT     H1 2278   7.030   5.870   7.662
  393WAT     H2 2279   6.999   5.962   7.759
  393WAT    EPW 2280   6.989   5.892   7.725
  394WAT      O 2281   7.650   5.294   7.103
  394WAT     H1 2282   7.620   5.292   7.021
  394WAT     H2 2283   7.600   5.354   7.142
  394WAT    EPW 2284   7.638   5.303   7.096
  395WAT      O 2285   7.459   6.366   7.582
  395WAT     H1 2286   7.479   6.448   7.604
  395WAT     H2 2287   7.526   6.320   7.614
  395WAT    EPW 2288   7.472   6.372   7.590
  396WAT      O 2289   7.255   5.601   7.078
  396WAT     H1 2290   7.250   5.538   7.139
  396WAT     H2 2291   7.213   5.567   7.010
  396WAT    EPW 2292   7.248   5.587   7.077
  397WAT      O 2293   7.482   5.835   7.765
  397WAT     H1 2294   7.433   5.884   7.711
  397WAT     H2 2295   7.480   5.756   7.728
  397WAT    EPW 2296   7.474   5.831   7.751
  398WAT      O 2297   7.594   6.628   7.274
  398WAT     H1 2298   7.590   6.545   7.302
  398WAT     H2 2299   7.652   6.626   7.210
  398WAT    EPW 2300   7.602   6.615   7.269
  399WAT      O 2301   7.412   4.974   7.076
  399WAT     H1 2302   7.462   5.004   7.141
  399WAT     H2 2303   7.372   5.045   7.046
  399WAT    EPW 2304   7.414   4.989   7.081
  400WAT      O 2305   7.802   6.622   7.089
  400WAT     H1 2306   7.868   6.646   7.141
  400WAT     H2 2307   7.773   6.699   7.057
  400WAT    EPW 2308   7.807   6.637   7.092
  401WAT      O 2309   7.265   5.873   7.180
  401WAT     H1 2310   7.275   5.788   7.165
  401WAT     H2 2311   7.329   5.892   7.237
  401WAT    EPW 2312   7.276   5.863   7.186
  402WAT      O 2313   6.913   4.983   7.270
  402WAT     H1 2314   6.913   4.930   7.200
  402WAT     H2 2315   6.881   4.933   7.334
  402WAT    EPW 2316   6.909   4.968   7.269
  403WAT      O 2317   7.864   5.616   7.305
  403WAT     H1 2318   7.947   5.643   7.311
  403WAT     H2 2319   7.861   5.577   7.227
  403WAT    EPW 2320   7.876   5.614   7.294
  404WAT      O 2321   7.315   5.220   6.987
  404WAT     H1 2322   7.252   5.214   6.927
  404WAT     H2 2323   7.381   5.259   6.944
  404WAT    EPW 2324   7.316   5.225   6.972
  405WAT      O 2325   7.640   6.043   7.874
  405WAT     H1 2326   7.595   5.971   7.853
  405WAT     H2 2327   7.637   6.044   7.961
  405WAT    EPW 2328   7.633   6.032   7.884
  406WAT      O 2329   7.428   6.627   6.879
  406WAT     H1 2330   7.451   6.557   6.926
  406WAT     H2 2331   7.416   6.689   6.939
  406WAT    EPW 2332   7.430   6.625   6.895
  407WAT      O 2333   7.471   5.578   7.628
  407WAT     H1 2334   7.545   5.545   7.595
  407WAT     H2 2335   7.425   5.508   7.650
  407WAT    EPW 2336   7.475   5.563   7.627
  408WAT      O 2337   6.962   5.589   7.283
  408WAT     H1 2338   6.997   5.546   7.350
  408WAT     H2 2339   6.969   5.533   7.217
  408WAT    EPW 2340   6.968   5.574   7.283
  409WAT      O 2341   7.442   5.718   6.908
  409WAT     H1 2342   7.390   5.681   6.968
  409WAT     H2 2343   7.395   5.712   6.834
  409WAT    EPW 2344   7.427   5.712   6.906
  410WAT      O 2345   7.514   5.490   7.250
  410WAT     H1 2346   7.540   5.573   7.239
  410WAT     H2 2347   7.432   5.497   7.278
  410WAT    EPW 2348   7.506   5.503   7.252
  411WAT      O 2349   7.056   5.222   7.693
  411WAT     H1 2350   6.983   5.243   7.650
  411WAT     H2 2351   7.045   5.137   7.710
  411WAT    EPW 2352   7.044   5.212   7.689
  412WAT      O 2353   7.742   6.740   7.489
  412WAT     H1 2354   7.745   6.827   7.490
  412WAT     H2 2355   7.695   6.721   7.418
  412WAT    EPW 2356   7.735   6.750   7.479
  413WAT      O 2357   7.612   5.908   7.022
  413WAT     H1 2358   7.560   5.855   6.976
  413WAT     H2 2359   7.586   5.988   6.998
  413WAT    EPW 2360   7.600   5.912   7.012
  414WAT      O 2361   7.239   5.355   7.224
  414WAT     H1 2362   7.255   5.312   7.150
  414WAT     H2 2363   7.160   5.328   7.247
  414WAT    EPW 2364   7.230   5.344   7.217
  415WAT      O 2365   7.130   5.479   6.855
  415WAT     H1 2366   7.058   5.475   6.904
  415WAT     H2 2367   7.136   5.399   6.820
  415WAT    EPW 2368   7.120   5.467   6.857
  416WAT      O 2369   7.463   6.400   7.050
  416WAT     H1 2370   7.504   6.393   7.126
  416WAT     H2 2371   7.380   6.380   7.069
  416WAT    EPW 2372   7.457   6.396   7.064
  417WAT      O 2373   7.214   6.304   7.116
  417WAT     H1 2374   7.215   6.282   7.200
  417WAT     H2 2375   7.215   6.228   7.074
  417WAT    EPW 2376   7.214   6.290   7.122
  418WAT      O 2377   7.489   6.146   6.927
  418WAT     H1 2378   7.407   6.120   6.937
  418WAT     H2 2379   7.490   6.226   6.963
  418WAT    EPW 2380   7.477   6.154   6.934
  419WAT      O 2381   7.692   4.974   6.982
  419WAT     H1 2382   7.708   4.992   6.899
  419WAT     H2 2383   7.605   4.967   6.985
  419WAT    EPW 2384   7.682   4.975   6.970
  420WAT      O 2385   7.091   5.493   7.511
  420WAT     H1 2386   7.046   5.526   7.577
  420WAT     H2 2387   7.145   5.435   7.549
  420WAT    EPW 2388   7.093   5.490   7.526
  421WAT      O 2389   7.311   6.645   7.283
  421WAT     H1 2390   7.293   6.697   7.215
  421WAT     H2 2391   7.397   6.634   7.278
  421WAT    EPW 2392   7.321   6.651   7.272
  422WAT      O 2393   7.622   5.745   7.246
  422WAT     H1 2394   7.631   5.794   7.175
  422WAT     H2 2395   7.704   5.721   7.264
  422WAT    EPW 2396   7.635   5.749   7.238
  423WAT      O 2397   7.213   6.442   7.962
  423WAT     H1 2398   7.243   6.376   7.914
  423WAT     H2 2399   7.221   6.511   7.910
  423WAT    EPW 2400   7.218   6.443   7.947
  424WAT      O 2401   6.931   6.117   5.500
  424WAT     H1 2402   6.865   6.110   5.556
  424WAT     H2 2403   6.945   6.035   5.474
  424WAT    EPW 2404   6.924   6.104   5.504
  425WAT      O 2405   6.921   5.464   5.172
  425WAT     H1 2406   6.856   5.511   5.137
  425WAT     H2 2407   6.891   5.382   5.169
  425WAT    EPW 2408   6.907   5.459   5.166
  426WAT      O 2409   7.209   6.060   5.094
  426WAT     H1 2410   7.184   6.016   5.023
  426WAT     H2 2411   7.226   5.998   5.153
  426WAT    EPW 2412   7.208   6.045   5.092
  427WAT      O 2413   7.190   6.221   5.478
  427WAT     H1 2414   7.244   6.184   5.535
  427WAT     H2 2415   7.113   6.184   5.495
  427WAT    EPW 2416   7.187   6.210   5.489
  428WAT      O 2417   7.598   5.076   5.377
  428WAT     H1 2418   7.636   5.135   5.325
  428WAT     H2 2419   7.644   5.003   5.362
  428WAT    EPW 2420   7.610   5.074   5.367
  429WAT      O 2421   7.050   6.493   5.055
  429WAT     H1 2422   7.104   6.506   4.988
  429WAT     H2 2423   7.094   6.439   5.107
  429WAT    EPW 2424   7.064   6.487   5.053
  430WAT      O 2425   6.949   6.325   6.189
  430WAT     H1 2426   6.976   6.302   6.269
  430WAT     H2 2427   6.880   6.273   6.176
  430WAT    EPW 2428   6.942   6.314   6.199
  431WAT      O 2429   7.586   6.167   6.662
  431WAT     H1 2430   7.562   6.154   6.745
  431WAT     H2 2431   7.517   6.138   6.617
  431WAT    EPW 2432   7.572   6.161   6.668
  432WAT      O 2433   7.138   5.875   5.678
  432WAT     H1 2434   7.096   5.875   5.602
  432WAT     H2 2435   7.194   5.808   5.671
  432WAT    EPW 2436   7.140   5.865   5.666
  433WAT      O 2437   7.576   5.402   6.180
  433WAT     H1 2438   7.645   5.381   6.131
  433WAT     H2 2439   7.535   5.326   6.190
  433WAT    EPW 2440   7.580   5.388   6.174
  434WAT      O 2441   7.546   6.472   6.423
  434WAT     H1 2442   7.586   6.508   6.355
  434WAT     H2 2443   7.611   6.439   6.471
  434WAT    EPW 2444   7.561   6.472   6.420
  435WAT      O 2445   7.305   5.655   5.660
  435WAT     H1 2446   7.369   5.597   5.677
  435WAT     H2 2447   7.233   5.606   5.658
  435WAT    EPW 2448   7.304   5.639   5.662
  436WAT      O 2449   7.696   6.306   5.754
  436WAT     H1 2450   7.743   6.253   5.805
  436WAT     H2 2451   7.749   6.373   5.740
  436WAT    EPW 2452   7.710   6.308   5.760
  437WAT      O 2453   7.680   6.138   5.525
  437WAT     H1 2454   7.685   6.179   5.601
  437WAT     H2 2455   7.755   6.093   5.521
  437WAT    EPW 2456   7.692   6.137   5.535
  438WAT      O 2457   7.370   5.180   5.517
  438WAT     H1 2458   7.329   5.234   5.463
  438WAT     H2 2459   7.444   5.161   5.476
  438WAT    EPW 2460   7.375   5.185   5.503
  439WAT      O 2461   7.708   5.072   5.644
  439WAT     H1 2462   7.708   5.151   5.681
  439WAT     H2 2463   7.672   5.086   5.566
  439WAT    EPW 2464   7.703   5.086   5.638
  440WAT      O 2465   6.962   5.605   5.916
  440WAT     H1 2466   6.954   5.692   5.925
  440WAT     H2 2467   6.894   5.574   5.961
  440WAT    EPW 2468   6.951   5.614   5.924
  441WAT      O 2469   6.955   6.545   5.719
  441WAT     H1 2470   6.889   6.590   5.682
  441WAT     H2 2471   7.002   6.519   5.650
  441WAT    EPW 2472   6.952   6.548   5.703
  442WAT      O 2473   7.533   6.341   5.404
  442WAT     H1 2474   7.479   6.348   5.472
  442WAT     H2 2475   7.585   6.274   5.426
  442WAT    EPW 2476   7.533   6.332   5.417
  443WAT      O 2477   7.226   5.118   5.948
  443WAT     H1 2478   7.185   5.048   5.916
  443WAT     H2 2479   7.289   5.084   5.997
  443WAT    EPW 2480   7.229   5.103   5.951
  444WAT      O 2481   7.542   5.322   6.844
  444WAT     H1 2482   7.561   5.284   6.768
  444WAT     H2 2483   7.575   5.402   6.837
  444WAT    EPW 2484   7.549   5.328   6.832
  445WAT      O 2485   7.115   6.488   5.490
  445WAT     H1 2486   7.155   6.411   5.504
  445WAT     H2 2487   7.176   6.536   5.451
  445WAT    EPW 2488   7.130   6.483   5.486
  446WAT      O 2489   7.138   5.208   6.772
  446WAT     H1 2490   7.061   5.177   6.746
  446WAT     H2 2491   7.195   5.172   6.716
  446WAT    EPW 2492   7.135   5.198   6.760
  447WAT      O 2493   7.204   6.314   5.846
  447WAT     H1 2494   7.259   6.315   5.777
  447WAT     H2 2495   7.240   6.255   5.899
  447WAT    EPW 2496   7.218   6.305   5.843
  448WAT      O 2497   7.492   6.610   5.777
  448WAT     H1 2498   7.569   6.632   5.743
  448WAT     H2 2499   7.437   6.668   5.742
  448WAT    EPW 2500   7.495   6.622   5.767
  449WAT      O 2501   7.735   5.015   6.714
  449WAT     H1 2502   7.755   4.956   6.653
  449WAT     H2 2503   7.691   5.076   6.671
  449WAT    EPW 2504   7.732   5.016   6.699
  450WAT      O 2505   7.338   6.706   6.323
  450WAT     H1 2506   7.364   6.692   6.405
  450WAT     H2 2507   7.274   6.648   6.311
  450WAT    EPW 2508   7.332   6.696   6.333
  451WAT      O 2509   6.867   5.339   6.509
  451WAT     H1 2510   6.860   5.413   6.554
  451WAT     H2 2511   6.929   5.356   6.450
  451WAT    EPW 2512   6.875   5.352   6.507
  452WAT      O 2513   7.825   6.423   5.015
  452WAT     H1 2514   7.825   6.484   5.077
  452WAT     H2 2515   7.869   6.357   5.051
  452WAT    EPW 2516   7.831   6.423   5.029
  453WAT      O 2517   6.985   5.250   5.434
  453WAT     H1 2518   6.965   5.167   5.416
  453WAT     H2 2519   6.939   5.267   5.506
  453WAT    EPW 2520   6.975   5.240   5.442
  454WAT      O 2521   7.117   6.555   6.222
  454WAT     H1 2522   7.063   6.486   6.219
  454WAT     H2 2523   7.155   6.555   6.144
  454WAT    EPW 2524   7.115   6.544   6.210
  455WAT      O 2525   7.853   5.487   5.124
  455WAT     H1 2526   7.810   5.416   5.151
  455WAT     H2 2527   7.801   5.519   5.061
  455WAT    EPW 2528   7.839   5.482   5.119
  456WAT      O 2529   7.714   5.335   5.751
  456WAT     H1 2530   7.764   5.386   5.701
  456WAT     H2 2531   7.745   5.349   5.831
  456WAT    EPW 2532   7.726   5.344   5.755
  457WAT      O 2533   7.297   6.379   6.519
  457WAT     H1 2534   7.367   6.420   6.488
  457WAT     H2 2535   7.275   6.425   6.590
  457WAT    EPW 2536   7.304   6.391   6.525
  458WAT      O 2537   7.329   4.923   5.620
  458WAT     H1 2538   7.340   5.006   5.596
  458WAT     H2 2539   7.325   4.880   5.544
  458WAT    EPW 2540   7.330   4.929   5.605
  459WAT      O 2541   7.562   6.024   5.945
  459WAT     H1 2542   7.572   6.009   6.030
  459WAT     H2 2543   7.524   5.951   5.916
  459WAT    EPW 2544   7.558   6.011   5.953
  460WAT      O 2545   7.601   6.027   6.217
  460WAT     H1 2546   7.562   6.104   6.231
  460WAT     H2 2547   7.573   5.977   6.283
  460WAT    EPW 2548   7.591   6.031   6.229
  461WAT      O 2549   6.861   6.348   6.806
  461WAT     H1 2550   6.918   6.395   6.852
  461WAT     H2 2551   6.870   6.268   6.840
  461WAT    EPW 2552   6.871   6.343   6.818
  462WAT      O 2553   7.245   5.297   5.741
  462WAT     H1 2554   7.276   5.249   5.675
  462WAT     H2 2555   7.242   5.240   5.807
  462WAT    EPW 2556   7.249   5.281   5.741
  463WAT      O 2557   7.335   6.073   5.663
  463WAT     H1 2558   7.384   6.024   5.610
  463WAT     H2 2559   7.270   6.019   5.686
  463WAT    EPW 2560   7.332   6.058   5.659
  464WAT      O 2561   7.121   6.743   5.805
  464WAT     H1 2562   7.061   6.688   5.775
  464WAT     H2 2563   7.177   6.750   5.739
  464WAT    EPW 2564   7.120   6.736   5.791
  465WAT      O 2565   7.143   5.456   6.071
  465WAT     H1 2566   7.222   5.486   6.051
  465WAT     H2 2567   7.090   5.502   6.019
  465WAT    EPW 2568   7.147   5.467   6.060
  466WAT      O 2569   7.481   5.944   5.462
  466WAT     H1 2570   7.538   6.010   5.471
  466WAT     H2 2571   7.531   5.876   5.441
  466WAT    EPW 2572   7.497   5.944   5.460
  467WAT      O 2573   6.955   6.179   5.854
  467WAT     H1 2574   6.899   6.242   5.877
  467WAT     H2 2575   7.030   6.222   5.843
  467WAT    EPW 2576   6.958   6.195   5.856
  468WAT      O 2577   7.664   5.572   6.835
  468WAT     H1 2578   7.599   5.621   6.866
  468WAT     H2 2579   7.676   5.604   6.754
  468WAT    EPW 2580   7.656   5.584   6.827
  469WAT      O 2581   7.020   5.863   5.428
  469WAT     H1 2582   6.998   5.779   5.424
  469WAT     H2 2583   7.093   5.867   5.380
  469WAT    EPW 2584   7.028   5.851   5.420
  470WAT      O 2585   6.918   6.343   5.344
  470WAT     H1 2586   6.979   6.394   5.381
  470WAT     H2 2587   6.914   6.274   5.397
  470WAT    EPW 2588   6.927   6.340   5.357
  471WAT      O 2589   7.318   6.136   6.026
  471WAT     H1 2590   7.352   6.182   6.092
  471WAT     H2 2591   7.387   6.102   5.986
  471WAT    EPW 2592   7.333   6.138   6.030
  472WAT      O 2593   6.927   6.163   5.121
  472WAT     H1 2594   7.004   6.123   5.117
  472WAT     H2 2595   6.938   6.223   5.183
  472WAT    EPW 2596   6.940   6.166   5.129
  473WAT      O 2597   6.976   5.908   5.897
  473WAT     H1 2598   7.026   5.891   5.828
  473WAT     H2 2599   6.966   5.995   5.894
  473WAT    EPW 2600   6.982   5.918   5.886
  474WAT      O 2601   7.672   5.286   5.211
  474WAT     H1 2602   7.638   5.278   5.131
  474WAT     H2 2603   7.631   5.355   5.244
  474WAT    EPW 2604   7.661   5.295   5.204
  475WAT      O 2605   7.413   6.373   5.656
  475WAT     H1 2606   7.435   6.449   5.693
  475WAT     H2 2607   7.468   6.315   5.693
  475WAT    EPW 2608   7.425   6.375   5.667
  476WAT      O 2609   7.254   5.675   6.702
  476WAT     H1 2610   7.210   5.612   6.742
  476WAT     H2 2611   7.261   5.645   6.620
  476WAT    EPW 2612   7.249   5.661   6.696
  477WAT      O 2613   7.275   5.589   5.215
  477WAT     H1 2614   7.254   5.530   5.275
  477WAT     H2 2615   7.231   5.564   5.144
  477WAT    EPW 2616   7.266   5.577   5.213
  478WAT      O 2617   7.426   5.794   5.879
  478WAT     H1 2618   7.389   5.764   5.806
  478WAT     H2 2619   7.422   5.726   5.934
  478WAT    EPW 2620   7.420   5.780   5.876
  479WAT      O 2621   7.319   5.744   6.236
  479WAT     H1 2622   7.345   5.694   6.170
  479WAT     H2 2623   7.264   5.801   6.199
  479WAT    EPW 2624   7.315   5.745   6.221
  480WAT      O 2625   7.675   6.558   6.197
  480WAT     H1 2626   7.654   6.510   6.127
  480WAT     H2 2627   7.673   6.640   6.166
  480WAT    EPW 2628   7.672   6.563   6.182
  481WAT      O 2629   7.132   5.913   6.771
  481WAT     H1 2630   7.117   5.955   6.696
  481WAT     H2 2631   7.177   5.842   6.746
  481WAT    EPW 2632   7.137   5.909   6.756
  482WAT      O 2633   7.731   6.398   6.626
  482WAT     H1 2634   7.767   6.414   6.704
  482WAT     H2 2635   7.681   6.328   6.641
  482WAT    EPW 2636   7.729   6.390   6.640
  483WAT      O 2637   7.810   5.393   6.011
  483WAT     H1 2638   7.831   5.477   6.024
  483WAT     H2 2639   7.881   5.350   6.037
  483WAT    EPW 2640   7.823   5.399   6.017
  484WAT      O 2641   7.619   6.600   5.395
  484WAT     H1 2642   7.605   6.514   5.401
  484WAT     H2 2643   7.686   6.605   5.339
  484WAT    EPW 2644   7.627   6.588   5.388
  485WAT      O 2645   7.424   4.987   5.173
  485WAT     H1 2646   7.472   5.016   5.239
  485WAT     H2 2647   7.379   5.058   5.148
  485WAT    EPW 2648   7.424   5.002   5.179
  486WAT      O 2649   7.831   6.620   5.214
  486WAT     H1 2650   7.912   6.644   5.236
  486WAT     H2 2651   7.797   6.692   5.179
  486WAT    EPW 2652   7.838   6.634   5.212
  487WAT      O 2653   7.262   5.870   5.292
  487WAT     H1 2654   7.274   5.785   5.277
  487WAT     H2 2655   7.329   5.892   5.342
  487WAT    EPW 2656   7.273   5.861   5.297
  488WAT      O 2657   6.902   4.982   5.382
  488WAT     H1 2658   6.899   4.930   5.312
  488WAT     H2 2659   6.873   4.932   5.447
  488WAT    EPW 2660   6.898   4.967   5.381
  489WAT      O 2661   7.909   5.653   5.338
  489WAT     H1 2662   7.996   5.662   5.339
  489WAT     H2 2663   7.895   5.600   5.270
  489WAT    EPW 2664   7.920   5.646   5.328
  490WAT      O 2665   7.302   5.225   5.101
  490WAT     H1 2666   7.240   5.225   5.039
  490WAT     H2 2667   7.369   5.265   5.062
  490WAT    EPW 2668   7.303   5.231   5.086
  491WAT      O 2669   7.821   6.122   5.912
  491WAT     H1 2670   7.745   6.079   5.919
  491WAT     H2 2671   7.850   6.125   5.994
  491WAT    EPW 2672   7.814   6.116   5.925
  492WAT      O 2673   7.425   6.638   4.984
  492WAT     H1 2674   7.445   6.566   5.029
  492WAT     H2 2675   7.416   6.699   5.046
  492WAT    EPW 2676   7.427   6.636   5.000
  493WAT      O 2677   7.150   5.930   6.114
  493WAT     H1 2678   7.200   5.998   6.091
  493WAT     H2 2679   7.099   5.918   6.044
  493WAT    EPW 2680   7.150   5.938   6.100
  494WAT      O 2681   7.463   5.457   5.781
  494WAT     H1 2682   7.536   5.413   5.764
  494WAT     H2 2683   7.400   5.398   5.768
  494WAT    EPW 2684   7.465   5.442   5.777
  495WAT      O 2685   6.960   5.591   5.427
  495WAT     H1 2686   6.990   5.551   5.499
  495WAT     H2 2687   6.966   5.529   5.365
  495WAT    EPW 2688   6.965   5.576   5.428
  496WAT      O 2689   7.440   5.723   5.021
  496WAT     H1 2690   7.392   5.685   5.083
  496WAT     H2 2691   7.389   5.718   4.950
  496WAT    EPW 2692   7.425   5.717   5.019
  497WAT      O 2693   7.085   6.037   6.530
  497WAT     H1 2694   7.049   5.988   6.468
  497WAT     H2 2695   7.058   6.117   6.512
  497WAT    EPW 2696   7.076   6.041   6.518
  498WAT      O 2697   7.540   5.511   5.293
  498WAT     H1 2698   7.576   5.587   5.314
  498WAT     H2 2699   7.458   5.533   5.272
  498WAT    EPW 2700   7.533   5.526   5.293
  499WAT      O 2701   6.930   5.235   5.925
  499WAT     H1 2702   6.915   5.250   5.840
  499WAT     H2 2703   7.017   5.233   5.930
  499WAT    EPW 2704   6.941   5.237   5.913
  500WAT      O 2705   7.478   6.280   6.210
  500WAT     H1 2706   7.488   6.336   6.276
  500WAT     H2 2707   7.504   6.326   6.140
  500WAT    EPW 2708   7.483   6.295   6.209
  501WAT      O 2709   7.354   6.103   6.513
  501WAT     H1 2710   7.273   6.071   6.520
  501WAT     H2 2711   7.342   6.189   6.507
  501WAT    EPW 2712   7.341   6.111   6.513
  502WAT      O 2713   7.865   6.109   6.193
  502WAT     H1 2714   7.881   6.143   6.272
  502WAT     H2 2715   7.785   6.074   6.202
  502WAT    EPW 2716   7.856   6.109   6.206
  503WAT      O 2717   7.527   5.454   6.450
  503WAT     H1 2718   7.543   5.378   6.490
  503WAT     H2 2719   7.551   5.440   6.368
  503WAT    EPW 2720   7.533   5.441   6.444
  504WAT      O 2721   7.723   6.672   5.644
  504WAT     H1 2722   7.728   6.759   5.643
  504WAT     H2 2723   7.695   6.652   5.564
  504WAT    EPW 2724   7.720   6.682   5.632
  505WAT      O 2725   7.655   5.030   6.372
  505WAT     H1 2726   7.678   5.019   6.289
  505WAT     H2 2727   7.682   4.957   6.411
  505WAT    EPW 2728   7.662   5.018   6.365
  506WAT      O 2729   7.561   6.420   5.980
  506WAT     H1 2730   7.522   6.484   5.935
  506WAT     H2 2731   7.603   6.375   5.918
  506WAT    EPW 2732   7.562   6.423   5.964
  507WAT      O 2733   7.608   5.920   5.125
  507WAT     H1 2734   7.559   5.863   5.081
  507WAT     H2 2735   7.579   5.998   5.097
  507WAT    EPW 2736   7.597   5.923   5.114
  508WAT      O 2737   7.404   5.557   6.031
  508WAT     H1 2738   7.421   5.524   5.952
  508WAT     H2 2739   7.457   5.512   6.084
  508WAT    EPW 2740   7.414   5.546   6.027
  509WAT      O 2741   7.793   6.666   6.544
  509WAT     H1 2742   7.878   6.664   6.523
  509WAT     H2 2743   7.776   6.583   6.567
  509WAT    EPW 2744   7.803   6.653   6.544
  510WAT      O 2745   7.678   4.974   6.096
  510WAT     H1 2746   7.593   4.966   6.078
  510WAT     H2 2747   7.714   4.987   6.017
  510WAT    EPW 2748   7.671   4.975   6.082
  511WAT      O 2749   7.846   6.184   6.471
  511WAT     H1 2750   7.794   6.128   6.511
  511WAT     H2 2751   7.834   6.259   6.513
  511WAT    EPW 2752   7.837   6.187   6.483
  512WAT      O 2753   6.885   5.114   6.673
  512WAT     H1 2754   6.885   5.183   6.620
  512WAT     H2 2755   6.800   5.094   6.680
  512WAT    EPW 2756   6.872   5.121   6.666
  513WAT      O 2757   7.378   6.793   6.060
  513WAT     H1 2758   7.364   6.779   6.145
  513WAT     H2 2759   7.352   6.718   6.022
  513WAT    EPW 2760   7.372   6.780   6.067
  514WAT      O 2761   7.229   5.345   5.345
  514WAT     H1 2762   7.242   5.305   5.268
  514WAT     H2 2763   7.149   5.318   5.369
  514WAT    EPW 2764   7.219   5.335   5.337
  515WAT      O 2765   7.028   6.714   6.607
  515WAT     H1 2766   6.970   6.650   6.596
  515WAT     H2 2767   6.981   6.780   6.639
  515WAT    EPW 2768   7.013   6.714   6.610
  516WAT      O 2769   7.273   5.565   6.444
  516WAT     H1 2770   7.282   5.625   6.382
  516WAT     H2 2771   7.351   5.527   6.449
  516WAT    EPW 2772   7.286   5.568   6.436
  517WAT      O 2773   7.077   5.405   6.331
  517WAT     H1 2774   7.097   5.411   6.246
  517WAT     H2 2775   7.140   5.451   6.370
  517WAT    EPW 2776   7.089   5.413   6.324
  518WAT      O 2777   7.324   5.093   6.598
  518WAT     H1 2778   7.350   5.010   6.593
  518WAT     H2 2779   7.281   5.106   6.523
  518WAT    EPW 2780   7.321   5.083   6.586
  519WAT      O 2781   6.966   5.899   6.322
  519WAT     H1 2782   7.020   5.917   6.255
  519WAT     H2 2783   6.949   5.814   6.313
  519WAT    EPW 2784   6.972   5.889   6.311
  520WAT      O 2785   7.128   5.498   4.992
  520WAT     H1 2786   7.058   5.493   5.044
  520WAT     H2 2787   7.130   5.420   4.952
  520WAT    EPW 2788   7.118   5.486   4.994
  521WAT      O 2789   7.452   6.403   5.141
  521WAT     H1 2790   7.494   6.389   5.216
  521WAT     H2 2791   7.369   6.387   5.160
  521WAT    EPW 2792   7.446   6.399   5.155
  522WAT      O 2793   7.492   5.873   6.420
  522WAT     H1 2794   7.445   5.939   6.453
  522WAT     H2 2795   7.436   5.834   6.365
  522WAT    EPW 2796   7.476   5.877   6.416
  523WAT      O 2797   7.203   6.311   5.208
  523WAT     H1 2798   7.202   6.291   5.293
  523WAT     H2 2799   7.205   6.234   5.168
  523WAT    EPW 2800   7.203   6.297   5.215
  524WAT      O 2801   7.476   6.149   5.024
  524WAT     H1 2802   7.395   6.121   5.039
  524WAT     H2 2803   7.476   6.229   5.059
  524WAT    EPW 2804   7.464   6.157   5.032
  525WAT      O 2805   7.440   5.175   6.251
  525WAT     H1 2806   7.358   5.163   6.278
  525WAT     H2 2807   7.485   5.112   6.291
  525WAT    EPW 2808   7.435   5.164   6.261
  526WAT      O 2809   7.640   5.677   6.574
  526WAT     H1 2810   7.608   5.608   6.532
  526WAT     H2 2811   7.602   5.745   6.534
  526WAT    EPW 2812   7.630   5.677   6.562
  527WAT      O 2813   7.707   4.969   5.082
  527WAT     H1 2814   7.731   4.977   4.998
  527WAT     H2 2815   7.620   4.974   5.078
  527WAT    EPW 2816   7.697   4.971   5.069
  528WAT      O 2817   7.447   6.680   6.593
  528WAT     H1 2818   7.465   6.666   6.678
  528WAT     H2 2819   7.499   6.624   6.552
  528WAT    EPW 2820   7.458   6.670   6.600
  529WAT      O 2821   7.188   5.151   6.366
  529WAT     H1 2822   7.132   5.089   6.340
  529WAT     H2 2823   7.144   5.225   6.351
  529WAT    EPW 2824   7.173   5.153   6.360
  530WAT      O 2825   7.206   6.534   6.736
  530WAT     H1 2826   7.274   6.573   6.773
  530WAT     H2 2827   7.163   6.599   6.697
  530WAT    EPW 2828   7.210   6.549   6.736
  531WAT      O 2829   7.071   5.508   5.673
  531WAT     H1 2830   7.029   5.532   5.745
  531WAT     H2 2831   7.109   5.433   5.694
  531WAT    EPW 2832   7.071   5.501   5.687
  532WAT      O 2833   7.037   6.300   6.450
  532WAT     H1 2834   6.986   6.360   6.485
  532WAT     H2 2835   7.118   6.332   6.462
  532WAT    EPW 2836   7.042   6.313   6.457
  533WAT      O 2837   7.336   6.638   5.377
  533WAT     H1 2838   7.330   6.697   5.313
  533WAT     H2 2839   7.421   6.621   5.381
  533WAT    EPW 2840   7.348   6.644   5.368
  534WAT      O 2841   7.653   5.760   5.347
  534WAT     H1 2842   7.651   5.811   5.276
  534WAT     H2 2843   7.737   5.734   5.351
  534WAT    EPW 2844   7.665   5.764   5.337
  535WAT      O 2845   7.574   5.204   6.576
  535WAT     H1 2846   7.605   5.163   6.505
  535WAT     H2 2847   7.492   5.173   6.583
  535WAT    EPW 2848   7.566   5.194   6.566
  536WAT      O 2849   7.237   6.559   5.974
  536WAT     H1 2850   7.229   6.482   5.935
  536WAT     H2 2851   7.195   6.614   5.920
  536WAT    EPW 2852   7.229   6.556   5.960
  537WAT      O 2853   7.017   6.787   6.339
  537WAT     H1 2854   7.026   6.764   6.422
  537WAT     H2 2855   7.045   6.717   6.294
  537WAT    EPW 2856   7.022   6.774   6.344
  538WAT      O 2857   6.951   6.124   3.612
  538WAT     H1 2858   6.906   6.123   3.687
  538WAT     H2 2859   6.953   6.040   3.588
  538WAT    EPW 2860   6.945   6.111   3.620
  539WAT      O 2861   6.929   5.458   3.269
  539WAT     H1 2862   6.863   5.504   3.234
  539WAT     H2 2863   6.901   5.376   3.265
  539WAT    EPW 2864   6.915   5.453   3.263
  540WAT      O 2865   7.205   6.057   3.189
  540WAT     H1 2866   7.181   6.010   3.120
  540WAT     H2 2867   7.222   5.997   3.250
  540WAT    EPW 2868   7.204   6.041   3.188
  541WAT      O 2869   7.206   6.222   3.570
  541WAT     H1 2870   7.259   6.185   3.628
  541WAT     H2 2871   7.128   6.187   3.588
  541WAT    EPW 2872   7.202   6.212   3.581
  542WAT      O 2873   7.595   5.070   3.482
  542WAT     H1 2874   7.634   5.128   3.430
  542WAT     H2 2875   7.639   4.996   3.468
  542WAT    EPW 2876   7.607   5.068   3.472
  543WAT      O 2877   7.040   6.489   3.154
  543WAT     H1 2878   7.094   6.504   3.087
  543WAT     H2 2879   7.085   6.435   3.206
  543WAT    EPW 2880   7.054   6.483   3.152
  544WAT      O 2881   6.924   6.334   4.285
  544WAT     H1 2882   6.957   6.308   4.361
  544WAT     H2 2883   6.855   6.282   4.274
  544WAT    EPW 2884   6.918   6.322   4.295
  545WAT      O 2885   7.565   6.194   4.762
  545WAT     H1 2886   7.547   6.173   4.844
  545WAT     H2 2887   7.498   6.162   4.716
  545WAT    EPW 2888   7.553   6.186   4.767
  546WAT      O 2889   7.146   5.874   3.777
  546WAT     H1 2890   7.103   5.874   3.701
  546WAT     H2 2891   7.200   5.806   3.771
  546WAT    EPW 2892   7.148   5.864   3.765
  547WAT      O 2893   7.574   5.389   4.292
  547WAT     H1 2894   7.643   5.364   4.244
  547WAT     H2 2895   7.537   5.314   4.315
  547WAT    EPW 2896   7.579   5.374   4.288
  548WAT      O 2897   7.551   6.419   4.488
  548WAT     H1 2898   7.587   6.476   4.433
  548WAT     H2 2899   7.618   6.365   4.507
  548WAT    EPW 2900   7.566   6.419   4.483
  549WAT      O 2901   7.306   5.649   3.762
  549WAT     H1 2902   7.369   5.591   3.780
  549WAT     H2 2903   7.233   5.600   3.761
  549WAT    EPW 2904   7.304   5.633   3.765
  550WAT      O 2905   7.703   6.314   3.838
  550WAT     H1 2906   7.750   6.263   3.890
  550WAT     H2 2907   7.757   6.381   3.821
  550WAT    EPW 2908   7.718   6.316   3.843
  551WAT      O 2909   7.680   6.141   3.611
  551WAT     H1 2910   7.688   6.183   3.688
  551WAT     H2 2911   7.755   6.099   3.603
  551WAT    EPW 2912   7.692   6.141   3.621
  552WAT      O 2913   7.364   5.178   3.615
  552WAT     H1 2914   7.326   5.234   3.560
  552WAT     H2 2915   7.441   5.161   3.577
  552WAT    EPW 2916   7.370   5.184   3.601
  553WAT      O 2917   7.696   5.061   3.752
  553WAT     H1 2918   7.700   5.140   3.788
  553WAT     H2 2919   7.664   5.076   3.672
  553WAT    EPW 2920   7.692   5.075   3.745
  554WAT      O 2921   6.960   5.602   4.016
  554WAT     H1 2922   6.950   5.689   4.024
  554WAT     H2 2923   6.894   5.570   4.063
  554WAT    EPW 2924   6.949   5.610   4.024
  555WAT      O 2925   6.975   6.548   3.811
  555WAT     H1 2926   6.908   6.590   3.775
  555WAT     H2 2927   7.022   6.520   3.743
  555WAT    EPW 2928   6.972   6.550   3.796
  556WAT      O 2929   7.529   6.345   3.498
  556WAT     H1 2930   7.477   6.354   3.568
  556WAT     H2 2931   7.580   6.277   3.519
  556WAT    EPW 2932   7.529   6.336   3.512
  557WAT      O 2933   7.175   5.114   4.037
  557WAT     H1 2934   7.154   5.038   4.000
  557WAT     H2 2935   7.229   5.091   4.102
  557WAT    EPW 2936   7.180   5.099   4.041
  558WAT      O 2937   7.531   5.320   4.968
  558WAT     H1 2938   7.528   5.287   4.887
  558WAT     H2 2939   7.567   5.399   4.956
  558WAT    EPW 2940   7.536   5.327   4.954
  559WAT      O 2941   7.122   6.486   3.577
  559WAT     H1 2942   7.164   6.410   3.591
  559WAT     H2 2943   7.182   6.536   3.539
  559WAT    EPW 2944   7.137   6.482   3.574
  560WAT      O 2945   7.120   5.236   4.889
  560WAT     H1 2946   7.038   5.210   4.874
  560WAT     H2 2947   7.164   5.202   4.822
  560WAT    EPW 2948   7.114   5.227   4.877
  561WAT      O 2949   7.207   6.312   3.938
  561WAT     H1 2950   7.263   6.321   3.871
  561WAT     H2 2951   7.241   6.247   3.985
  561WAT    EPW 2952   7.220   6.303   3.935
  562WAT      O 2953   7.503   6.624   3.875
  562WAT     H1 2954   7.579   6.638   3.833
  562WAT     H2 2955   7.448   6.678   3.835
  562WAT    EPW 2956   7.506   6.634   3.863
  563WAT      O 2957   7.782   4.968   4.814
  563WAT     H1 2958   7.829   4.910   4.770
  563WAT     H2 2959   7.726   4.999   4.754
  563WAT    EPW 2960   7.780   4.964   4.799
  564WAT      O 2961   7.312   6.687   4.496
  564WAT     H1 2962   7.369   6.648   4.550
  564WAT     H2 2963   7.257   6.623   4.474
  564WAT    EPW 2964   7.313   6.672   4.501
  565WAT      O 2965   6.866   5.344   4.615
  565WAT     H1 2966   6.858   5.419   4.658
  565WAT     H2 2967   6.928   5.360   4.556
  565WAT    EPW 2968   6.874   5.357   4.612
  566WAT      O 2969   7.850   6.436   3.068
  566WAT     H1 2970   7.836   6.491   3.134
  566WAT     H2 2971   7.908   6.379   3.100
  566WAT    EPW 2972   7.856   6.436   3.082
  567WAT      O 2973   6.987   5.247   3.539
  567WAT     H1 2974   6.968   5.163   3.525
  567WAT     H2 2975   6.939   5.268   3.608
  567WAT    EPW 2976   6.977   5.238   3.547
  568WAT      O 2977   7.103   6.555   4.330
  568WAT     H1 2978   7.042   6.493   4.323
  568WAT     H2 2979   7.146   6.550   4.254
  568WAT    EPW 2980   7.101   6.545   4.318
  569WAT      O 2981   7.855   5.480   3.225
  569WAT     H1 2982   7.813   5.410   3.255
  569WAT     H2 2983   7.802   5.511   3.163
  569WAT    EPW 2984   7.841   5.474   3.220
  570WAT      O 2985   7.707   5.316   3.870
  570WAT     H1 2986   7.772   5.368   3.844
  570WAT     H2 2987   7.727   5.298   3.953
  570WAT    EPW 2988   7.720   5.321   3.878
  571WAT      O 2989   7.295   6.390   4.601
  571WAT     H1 2990   7.375   6.412   4.576
  571WAT     H2 2991   7.284   6.433   4.676
  571WAT    EPW 2992   7.305   6.399   4.609
  572WAT      O 2993   7.321   4.920   3.708
  572WAT     H1 2994   7.330   5.003   3.683
  572WAT     H2 2995   7.317   4.876   3.633
  572WAT    EPW 2996   7.322   4.925   3.694
  573WAT      O 2997   7.576   6.013   4.029
  573WAT     H1 2998   7.584   6.000   4.115
  573WAT     H2 2999   7.536   5.941   4.001
  573WAT    EPW 3000   7.571   6.000   4.037
  574WAT      O 3001   7.603   6.017   4.303
  574WAT     H1 3002   7.559   6.092   4.307
  574WAT     H2 3003   7.574   5.972   4.372
  574WAT    EPW 3004   7.592   6.021   4.314
  575WAT      O 3005   6.856   6.355   4.912
  575WAT     H1 3006   6.915   6.402   4.955
  575WAT     H2 3007   6.863   6.276   4.949
  575WAT    EPW 3008   6.866   6.350   4.924
  576WAT      O 3009   7.246   5.296   3.841
  576WAT     H1 3010   7.276   5.248   3.776
  576WAT     H2 3011   7.227   5.238   3.903
  576WAT    EPW 3012   7.248   5.281   3.841
  577WAT      O 3013   7.343   6.073   3.761
  577WAT     H1 3014   7.393   6.024   3.708
  577WAT     H2 3015   7.278   6.020   3.784
  577WAT    EPW 3016   7.341   6.058   3.756
  578WAT      O 3017   7.142   6.739   3.910
  578WAT     H1 3018   7.081   6.685   3.878
  578WAT     H2 3019   7.197   6.750   3.843
  578WAT    EPW 3020   7.141   6.732   3.896
  579WAT      O 3021   7.149   5.478   4.186
  579WAT     H1 3022   7.229   5.503   4.160
  579WAT     H2 3023   7.097   5.514   4.126
  579WAT    EPW 3024   7.153   5.487   4.173
  580WAT      O 3025   7.482   5.945   3.555
  580WAT     H1 3026   7.539   6.010   3.561
  580WAT     H2 3027   7.532   5.876   3.535
  580WAT    EPW 3028   7.498   5.944   3.553
  581WAT      O 3029   6.957   6.177   3.915
  581WAT     H1 3030   6.903   6.239   3.944
  581WAT     H2 3031   7.035   6.218   3.914
  581WAT    EPW 3032   6.961   6.192   3.919
  582WAT      O 3033   7.654   5.569   4.936
  582WAT     H1 3034   7.594   5.621   4.973
  582WAT     H2 3035   7.663   5.602   4.856
  582WAT    EPW 3036   7.646   5.582   4.930
  583WAT      O 3037   7.020   5.863   3.531
  583WAT     H1 3038   7.000   5.779   3.527
  583WAT     H2 3039   7.092   5.870   3.482
  583WAT    EPW 3040   7.028   5.852   3.523
  584WAT      O 3041   6.919   6.337   3.442
  584WAT     H1 3042   6.979   6.391   3.474
  584WAT     H2 3043   6.917   6.271   3.499
  584WAT    EPW 3044   6.928   6.335   3.455
  585WAT      O 3045   7.316   6.115   4.099
  585WAT     H1 3046   7.354   6.163   4.161
  585WAT     H2 3047   7.382   6.079   4.056
  585WAT    EPW 3048   7.331   6.117   4.102
  586WAT      O 3049   6.925   6.159   3.217
  586WAT     H1 3050   7.002   6.119   3.213
  586WAT     H2 3051   6.936   6.218   3.281
  586WAT    EPW 3052   6.938   6.162   3.226
  587WAT      O 3053   6.973   5.909   3.987
  587WAT     H1 3054   7.027   5.888   3.922
  587WAT     H2 3055   6.963   5.995   3.978
  587WAT    EPW 3056   6.980   5.918   3.976
  588WAT      O 3057   7.670   5.280   3.312
  588WAT     H1 3058   7.640   5.270   3.231
  588WAT     H2 3059   7.629   5.351   3.341
  588WAT    EPW 3060   7.660   5.289   3.304
  589WAT      O 3061   7.419   6.383   3.756
  589WAT     H1 3062   7.441   6.459   3.792
  589WAT     H2 3063   7.476   6.327   3.790
  589WAT    EPW 3064   7.430   6.386   3.767
  590WAT      O 3065   7.245   5.685   4.821
  590WAT     H1 3066   7.200   5.624   4.864
  590WAT     H2 3067   7.250   5.654   4.740
  590WAT    EPW 3068   7.239   5.672   4.815
  591WAT      O 3069   7.274   5.591   3.311
  591WAT     H1 3070   7.253   5.533   3.372
  591WAT     H2 3071   7.233   5.563   3.240
  591WAT    EPW 3072   7.265   5.578   3.310
  592WAT      O 3073   7.419   5.793   3.979
  592WAT     H1 3074   7.385   5.757   3.908
  592WAT     H2 3075   7.423   5.728   4.036
  592WAT    EPW 3076   7.415   5.778   3.977
  593WAT      O 3077   7.313   5.748   4.342
  593WAT     H1 3078   7.345   5.697   4.279
  593WAT     H2 3079   7.257   5.801   4.300
  593WAT    EPW 3080   7.309   5.749   4.327
  594WAT      O 3081   7.672   6.564   4.290
  594WAT     H1 3082   7.659   6.514   4.219
  594WAT     H2 3083   7.661   6.645   4.260
  594WAT    EPW 3084   7.669   6.569   4.275
  595WAT      O 3085   7.117   5.923   4.875
  595WAT     H1 3086   7.105   5.965   4.800
  595WAT     H2 3087   7.163   5.852   4.852
  595WAT    EPW 3088   7.122   5.919   4.861
  596WAT      O 3089   7.708   6.437   4.766
  596WAT     H1 3090   7.744   6.437   4.846
  596WAT     H2 3091   7.657   6.367   4.766
  596WAT    EPW 3092   7.706   6.427   4.778
  597WAT      O 3093   7.760   5.242   4.134
  597WAT     H1 3094   7.840   5.227   4.165
  597WAT     H2 3095   7.720   5.165   4.143
  597WAT    EPW 3096   7.766   5.229   4.140
  598WAT      O 3097   7.620   6.600   3.476
  598WAT     H1 3098   7.604   6.515   3.486
  598WAT     H2 3099   7.684   6.602   3.416
  598WAT    EPW 3100   7.627   6.588   3.469
  599WAT      O 3101   7.420   4.980   3.280
  599WAT     H1 3102   7.467   5.009   3.348
  599WAT     H2 3103   7.377   5.051   3.253
  599WAT    EPW 3104   7.420   4.995   3.286
  600WAT      O 3105   7.825   6.613   3.285
  600WAT     H1 3106   7.905   6.635   3.314
  600WAT     H2 3107   7.793   6.689   3.255
  600WAT    EPW 3108   7.832   6.628   3.285
  601WAT      O 3109   7.259   5.871   3.390
  601WAT     H1 3110   7.271   5.786   3.376
  601WAT     H2 3111   7.327   5.894   3.439
  601WAT    EPW 3112   7.271   5.862   3.395
  602WAT      O 3113   6.901   4.980   3.499
  602WAT     H1 3114   6.899   4.925   3.431
  602WAT     H2 3115   6.865   4.933   3.563
  602WAT    EPW 3116   6.896   4.965   3.498
  603WAT      O 3117   7.911   5.655   3.432
  603WAT     H1 3118   7.997   5.653   3.444
  603WAT     H2 3119   7.898   5.600   3.366
  603WAT    EPW 3120   7.922   5.646   3.424
  604WAT      O 3121   7.305   5.219   3.198
  604WAT     H1 3122   7.244   5.217   3.136
  604WAT     H2 3123   7.374   5.256   3.159
  604WAT    EPW 3124   7.306   5.224   3.183
  605WAT      O 3125   7.824   6.140   4.009
  605WAT     H1 3126   7.753   6.089   4.012
  605WAT     H2 3127   7.846   6.150   4.092
  605WAT    EPW 3128   7.817   6.134   4.022
  606WAT      O 3129   7.426   6.635   3.073
  606WAT     H1 3130   7.447   6.563   3.118
  606WAT     H2 3131   7.421   6.697   3.134
  606WAT    EPW 3132   7.429   6.633   3.089
  607WAT      O 3133   7.142   5.926   4.208
  607WAT     H1 3134   7.197   5.988   4.180
  607WAT     H2 3135   7.090   5.913   4.140
  607WAT    EPW 3136   7.143   5.933   4.194
  608WAT      O 3137   7.464   5.456   3.891
  608WAT     H1 3138   7.538   5.411   3.877
  608WAT     H2 3139   7.401   5.397   3.877
  608WAT    EPW 3140   7.466   5.440   3.887
  609WAT      O 3141   6.969   5.588   3.524
  609WAT     H1 3142   6.995   5.550   3.598
  609WAT     H2 3143   6.976   5.525   3.464
  609WAT    EPW 3144   6.974   5.573   3.526
  610WAT      O 3145   7.443   5.722   3.118
  610WAT     H1 3146   7.394   5.686   3.181
  610WAT     H2 3147   7.394   5.714   3.046
  610WAT    EPW 3148   7.429   5.715   3.117
  611WAT      O 3149   7.079   6.045   4.631
  611WAT     H1 3150   7.044   5.996   4.568
  611WAT     H2 3151   7.052   6.126   4.611
  611WAT    EPW 3152   7.070   6.050   4.618
  612WAT      O 3153   7.540   5.512   3.379
  612WAT     H1 3154   7.578   5.587   3.404
  612WAT     H2 3155   7.458   5.534   3.363
  612WAT    EPW 3156   7.534   5.526   3.380
  613WAT      O 3157   6.917   5.245   4.025
  613WAT     H1 3158   6.900   5.251   3.940
  613WAT     H2 3159   6.997   5.211   4.027
  613WAT    EPW 3160   6.926   5.241   4.013
  614WAT      O 3161   7.473   6.263   4.273
  614WAT     H1 3162   7.484   6.313   4.343
  614WAT     H2 3163   7.504   6.312   4.207
  614WAT    EPW 3164   7.479   6.277   4.273
  615WAT      O 3165   7.347   6.113   4.603
  615WAT     H1 3166   7.267   6.081   4.615
  615WAT     H2 3167   7.333   6.199   4.592
  615WAT    EPW 3168   7.333   6.121   4.604
  616WAT      O 3169   7.849   6.144   4.293
  616WAT     H1 3170   7.846   6.190   4.367
  616WAT     H2 3171   7.780   6.091   4.298
  616WAT    EPW 3172   7.839   6.143   4.304
  617WAT      O 3173   7.508   5.461   4.556
  617WAT     H1 3174   7.510   5.386   4.600
  617WAT     H2 3175   7.540   5.440   4.478
  617WAT    EPW 3176   7.513   5.447   4.551
  618WAT      O 3177   7.727   6.668   3.725
  618WAT     H1 3178   7.731   6.755   3.727
  618WAT     H2 3179   7.698   6.651   3.645
  618WAT    EPW 3180   7.723   6.678   3.714
  619WAT      O 3181   7.614   5.000   4.586
  619WAT     H1 3182   7.682   4.955   4.557
  619WAT     H2 3183   7.561   4.939   4.620
  619WAT    EPW 3184   7.616   4.984   4.587
  620WAT      O 3185   7.572   6.422   4.066
  620WAT     H1 3186   7.535   6.490   4.026
  620WAT     H2 3187   7.616   6.382   4.002
  620WAT    EPW 3188   7.573   6.426   4.051
  621WAT      O 3189   7.612   5.919   3.220
  621WAT     H1 3190   7.563   5.862   3.177
  621WAT     H2 3191   7.581   5.997   3.193
  621WAT    EPW 3192   7.600   5.922   3.209
  622WAT      O 3193   7.415   5.560   4.141
  622WAT     H1 3194   7.431   5.526   4.062
  622WAT     H2 3195   7.465   5.513   4.195
  622WAT    EPW 3196   7.425   5.548   4.137
  623WAT      O 3197   7.839   6.670   4.663
  623WAT     H1 3198   7.916   6.646   4.631
  623WAT     H2 3199   7.804   6.595   4.691
  623WAT    EPW 3200   7.845   6.655   4.663
  624WAT      O 3201   7.633   4.990   4.141
  624WAT     H1 3202   7.549   4.994   4.167
  624WAT     H2 3203   7.628   4.959   4.060
  624WAT    EPW 3204   7.619   4.986   4.133
  625WAT      O 3205   7.766   6.250   4.553
  625WAT     H1 3206   7.723   6.191   4.602
  625WAT     H2 3207   7.795   6.308   4.611
  625WAT    EPW 3208   7.764   6.250   4.569
  626WAT      O 3209   6.882   5.119   4.779
  626WAT     H1 3210   6.881   5.188   4.725
  626WAT     H2 3211   6.797   5.101   4.790
  626WAT    EPW 3212   6.870   5.127   4.773
  627WAT      O 3213   7.335   6.779   4.224
  627WAT     H1 3214   7.331   6.758   4.309
  627WAT     H2 3215   7.316   6.704   4.184
  627WAT    EPW 3216   7.331   6.765   4.230
  628WAT      O 3217   7.227   5.345   3.440
  628WAT     H1 3218   7.240   5.303   3.365
  628WAT     H2 3219   7.149   5.316   3.466
  628WAT    EPW 3220   7.217   5.335   3.433
  629WAT      O 3221   7.033   6.723   4.704
  629WAT     H1 3222   6.975   6.658   4.693
  629WAT     H2 3223   6.985   6.788   4.736
  629WAT    EPW 3224   7.017   6.723   4.707
  630WAT      O 3225   7.260   5.581   4.560
  630WAT     H1 3226   7.268   5.639   4.496
  630WAT     H2 3227   7.338   5.541   4.562
  630WAT    EPW 3228   7.273   5.584   4.551
  631WAT      O 3229   7.077   5.413   4.438
  631WAT     H1 3230   7.098   5.427   4.354
  631WAT     H2 3231   7.136   5.460   4.482
  631WAT    EPW 3232   7.089   5.422   4.432
  632WAT      O 3233   7.248   5.099   4.684
  632WAT     H1 3234   7.212   5.020   4.691
  632WAT     H2 3235   7.234   5.121   4.601
  632WAT    EPW 3236   7.241   5.091   4.673
  633WAT      O 3237   6.962   5.905   4.422
  633WAT     H1 3238   7.015   5.920   4.354
  633WAT     H2 3239   6.945   5.820   4.416
  633WAT    EPW 3240   6.967   5.895   4.411
  634WAT      O 3241   7.134   5.490   3.087
  634WAT     H1 3242   7.065   5.485   3.140
  634WAT     H2 3243   7.136   5.412   3.048
  634WAT    EPW 3244   7.124   5.478   3.089
  635WAT      O 3245   7.452   6.401   3.231
  635WAT     H1 3246   7.492   6.388   3.308
  635WAT     H2 3247   7.368   6.385   3.249
  635WAT    EPW 3248   7.445   6.397   3.245
  636WAT      O 3249   7.488   5.883   4.517
  636WAT     H1 3250   7.442   5.950   4.547
  636WAT     H2 3251   7.431   5.841   4.465
  636WAT    EPW 3252   7.473   5.887   4.514
  637WAT      O 3253   7.202   6.310   3.300
  637WAT     H1 3254   7.207   6.290   3.385
  637WAT     H2 3255   7.202   6.232   3.260
  637WAT    EPW 3256   7.203   6.296   3.306
  638WAT      O 3257   7.473   6.144   3.120
  638WAT     H1 3258   7.392   6.117   3.136
  638WAT     H2 3259   7.474   6.225   3.153
  638WAT    EPW 3260   7.461   6.152   3.127
  639WAT      O 3261   7.475   5.154   4.386
  639WAT     H1 3262   7.389   5.144   4.393
  639WAT     H2 3263   7.507   5.094   4.441
  639WAT    EPW 3264   7.467   5.143   4.395
  640WAT      O 3265   7.624   5.683   4.680
  640WAT     H1 3266   7.592   5.615   4.636
  640WAT     H2 3267   7.591   5.752   4.637
  640WAT    EPW 3268   7.614   5.683   4.667
  641WAT      O 3269   7.701   4.963   3.197
  641WAT     H1 3270   7.719   4.985   3.114
  641WAT     H2 3271   7.614   4.965   3.200
  641WAT    EPW 3272   7.690   4.967   3.185
  642WAT      O 3273   7.499   6.630   4.708
  642WAT     H1 3274   7.487   6.646   4.793
  642WAT     H2 3275   7.558   6.566   4.706
  642WAT    EPW 3276   7.506   6.623   4.720
  643WAT      O 3277   7.196   5.158   4.422
  643WAT     H1 3278   7.134   5.098   4.406
  643WAT     H2 3279   7.152   5.234   4.418
  643WAT    EPW 3280   7.180   5.160   4.419
  644WAT      O 3281   7.210   6.541   4.831
  644WAT     H1 3282   7.275   6.581   4.872
  644WAT     H2 3283   7.165   6.606   4.794
  644WAT    EPW 3284   7.213   6.556   4.831
  645WAT      O 3285   7.069   5.504   3.774
  645WAT     H1 3286   7.027   5.527   3.847
  645WAT     H2 3287   7.108   5.430   3.795
  645WAT    EPW 3288   7.069   5.497   3.788
  646WAT      O 3289   7.031   6.307   4.541
  646WAT     H1 3290   6.981   6.366   4.580
  646WAT     H2 3291   7.112   6.340   4.548
  646WAT    EPW 3292   7.036   6.320   4.548
  647WAT      O 3293   7.338   6.643   3.468
  647WAT     H1 3294   7.331   6.701   3.403
  647WAT     H2 3295   7.423   6.624   3.469
  647WAT    EPW 3296   7.349   6.649   3.459
  648WAT      O 3297   7.654   5.759   3.441
  648WAT     H1 3298   7.653   5.810   3.371
  648WAT     H2 3299   7.737   5.734   3.447
  648WAT    EPW 3300   7.666   5.763   3.432
  649WAT      O 3301   7.498   5.224   4.708
  649WAT     H1 3302   7.548   5.166   4.667
  649WAT     H2 3303   7.418   5.188   4.705
  649WAT    EPW 3304   7.493   5.210   4.702
  650WAT      O 3305   7.237   6.549   4.087
  650WAT     H1 3306   7.231   6.472   4.045
  650WAT     H2 3307   7.206   6.606   4.028
  650WAT    EPW 3308   7.232   6.546   4.072
  651WAT      O 3309   7.025   6.802   4.434
  651WAT     H1 3310   7.035   6.780   4.518
  651WAT     H2 3311   7.048   6.729   4.391
  651WAT    EPW 3312   7.030   6.788   4.440
  652WAT      O 3313   6.942   6.111   1.699
  652WAT     H1 3314   6.875   6.106   1.754
  652WAT     H2 3315   6.953   6.028   1.672
  652WAT    EPW 3316   6.934   6.098   1.703
  653WAT      O 3317   6.927   5.446   1.352
  653WAT     H1 3318   6.862   5.496   1.322
  653WAT     H2 3319   6.898   5.365   1.339
  653WAT    EPW 3320   6.913   5.441   1.346
  654WAT      O 3321   7.213   6.060   1.309
  654WAT     H1 3322   7.189   6.015   1.238
  654WAT     H2 3323   7.231   5.999   1.368
  654WAT    EPW 3324   7.212   6.045   1.307
  655WAT      O 3325   7.199   6.222   1.682
  655WAT     H1 3326   7.253   6.184   1.739
  655WAT     H2 3327   7.123   6.183   1.697
  655WAT    EPW 3328   7.196   6.210   1.693
  656WAT      O 3329   7.617   5.069   1.594
  656WAT     H1 3330   7.659   5.124   1.541
  656WAT     H2 3331   7.662   4.994   1.587
  656WAT    EPW 3332   7.630   5.066   1.585
  657WAT      O 3333   7.054   6.497   1.269
  657WAT     H1 3334   7.109   6.511   1.203
  657WAT     H2 3335   7.099   6.443   1.322
  657WAT    EPW 3336   7.069   6.491   1.267
  658WAT      O 3337   6.944   6.339   2.390
  658WAT     H1 3338   6.971   6.314   2.469
  658WAT     H2 3339   6.872   6.290   2.377
  658WAT    EPW 3340   6.937   6.328   2.400
  659WAT      O 3341   7.577   6.165   2.859
  659WAT     H1 3342   7.553   6.151   2.942
  659WAT     H2 3343   7.508   6.136   2.813
  659WAT    EPW 3344   7.563   6.158   2.865
  660WAT      O 3345   7.143   5.870   1.873
  660WAT     H1 3346   7.100   5.867   1.797
  660WAT     H2 3347   7.199   5.804   1.868
  660WAT    EPW 3348   7.145   5.860   1.861
  661WAT      O 3349   7.594   5.409   2.392
  661WAT     H1 3350   7.665   5.393   2.344
  661WAT     H2 3351   7.560   5.329   2.405
  661WAT    EPW 3352   7.599   5.395   2.387
  662WAT      O 3353   7.539   6.472   2.624
  662WAT     H1 3354   7.584   6.508   2.558
  662WAT     H2 3355   7.602   6.437   2.675
  662WAT    EPW 3356   7.555   6.472   2.622
  663WAT      O 3357   7.312   5.651   1.864
  663WAT     H1 3358   7.375   5.594   1.884
  663WAT     H2 3359   7.240   5.601   1.858
  663WAT    EPW 3360   7.310   5.636   1.866
  664WAT      O 3361   7.697   6.300   1.954
  664WAT     H1 3362   7.742   6.245   2.004
  664WAT     H2 3363   7.752   6.366   1.939
  664WAT    EPW 3364   7.711   6.302   1.959
  665WAT      O 3365   7.684   6.134   1.721
  665WAT     H1 3366   7.689   6.173   1.798
  665WAT     H2 3367   7.762   6.096   1.712
  665WAT    EPW 3368   7.696   6.134   1.731
  666WAT      O 3369   7.381   5.177   1.721
  666WAT     H1 3370   7.342   5.233   1.666
  666WAT     H2 3371   7.459   5.165   1.684
  666WAT    EPW 3372   7.387   5.184   1.707
  667WAT      O 3373   7.706   5.058   1.869
  667WAT     H1 3374   7.706   5.137   1.905
  667WAT     H2 3375   7.678   5.072   1.787
  667WAT    EPW 3376   7.702   5.072   1.862
  668WAT      O 3377   6.972   5.611   2.105
  668WAT     H1 3378   6.967   5.698   2.112
  668WAT     H2 3379   6.901   5.583   2.147
  668WAT    EPW 3380   6.961   5.620   2.112
  669WAT      O 3381   6.966   6.557   1.924
  669WAT     H1 3382   6.904   6.603   1.884
  669WAT     H2 3383   7.016   6.528   1.858
  669WAT    EPW 3384   6.964   6.559   1.908
  670WAT      O 3385   7.541   6.343   1.607
  670WAT     H1 3386   7.488   6.351   1.676
  670WAT     H2 3387   7.591   6.275   1.626
  670WAT    EPW 3388   7.540   6.334   1.620
  671WAT      O 3389   7.165   5.120   2.140
  671WAT     H1 3390   7.155   5.045   2.096
  671WAT     H2 3391   7.212   5.097   2.209
  671WAT    EPW 3392   7.170   5.105   2.143
  672WAT      O 3393   7.537   5.308   3.061
  672WAT     H1 3394   7.549   5.272   2.983
  672WAT     H2 3395   7.570   5.388   3.053
  672WAT    EPW 3396   7.543   5.314   3.048
  673WAT      O 3397   7.127   6.490   1.698
  673WAT     H1 3398   7.167   6.414   1.712
  673WAT     H2 3399   7.188   6.539   1.660
  673WAT    EPW 3400   7.142   6.486   1.695
  674WAT      O 3401   7.125   5.227   2.983
  674WAT     H1 3402   7.045   5.198   2.966
  674WAT     H2 3403   7.174   5.192   2.919
  674WAT    EPW 3404   7.121   5.218   2.971
  675WAT      O 3405   7.210   6.311   2.043
  675WAT     H1 3406   7.267   6.313   1.976
  675WAT     H2 3407   7.244   6.253   2.098
  675WAT    EPW 3408   7.223   6.303   2.041
  676WAT      O 3409   7.500   6.610   1.976
  676WAT     H1 3410   7.577   6.633   1.942
  676WAT     H2 3411   7.445   6.671   1.945
  676WAT    EPW 3412   7.503   6.623   1.966
  677WAT      O 3413   7.742   5.016   2.930
  677WAT     H1 3414   7.771   4.960   2.870
  677WAT     H2 3415   7.689   5.068   2.885
  677WAT    EPW 3416   7.739   5.015   2.914
  678WAT      O 3417   7.341   6.711   2.519
  678WAT     H1 3418   7.364   6.698   2.602
  678WAT     H2 3419   7.276   6.654   2.507
  678WAT    EPW 3420   7.334   6.701   2.530
  679WAT      O 3421   6.842   5.327   2.688
  679WAT     H1 3422   6.834   5.395   2.743
  679WAT     H2 3423   6.910   5.348   2.638
  679WAT    EPW 3424   6.851   5.340   2.689
  680WAT      O 3425   7.880   6.455   1.190
  680WAT     H1 3426   7.862   6.506   1.259
  680WAT     H2 3427   7.945   6.405   1.218
  680WAT    EPW 3428   7.887   6.455   1.204
  681WAT      O 3429   6.997   5.247   1.631
  681WAT     H1 3430   6.975   5.164   1.612
  681WAT     H2 3431   6.947   5.266   1.699
  681WAT    EPW 3432   6.986   5.237   1.638
  682WAT      O 3433   7.124   6.556   2.419
  682WAT     H1 3434   7.066   6.491   2.414
  682WAT     H2 3435   7.165   6.553   2.342
  682WAT    EPW 3436   7.121   6.546   2.407
  683WAT      O 3437   7.868   5.482   1.337
  683WAT     H1 3438   7.826   5.409   1.363
  683WAT     H2 3439   7.816   5.514   1.275
  683WAT    EPW 3440   7.854   5.476   1.332
  684WAT      O 3441   7.712   5.325   1.965
  684WAT     H1 3442   7.769   5.374   1.920
  684WAT     H2 3443   7.743   5.328   2.047
  684WAT    EPW 3444   7.725   5.333   1.970
  685WAT      O 3445   7.288   6.379   2.720
  685WAT     H1 3446   7.358   6.420   2.687
  685WAT     H2 3447   7.268   6.426   2.791
  685WAT    EPW 3448   7.296   6.392   2.725
  686WAT      O 3449   7.349   4.914   1.801
  686WAT     H1 3450   7.357   4.998   1.777
  686WAT     H2 3451   7.340   4.872   1.725
  686WAT    EPW 3452   7.349   4.920   1.786
  687WAT      O 3453   7.560   6.019   2.147
  687WAT     H1 3454   7.570   6.005   2.232
  687WAT     H2 3455   7.519   5.947   2.120
  687WAT    EPW 3456   7.555   6.006   2.155
  688WAT      O 3457   7.597   6.025   2.420
  688WAT     H1 3458   7.559   6.103   2.434
  688WAT     H2 3459   7.570   5.977   2.487
  688WAT    EPW 3460   7.587   6.030   2.432
  689WAT      O 3461   6.846   6.350   3.011
  689WAT     H1 3462   6.905   6.399   3.052
  689WAT     H2 3463   6.854   6.271   3.047
  689WAT    EPW 3464   6.856   6.346   3.022
  690WAT      O 3465   7.250   5.296   1.942
  690WAT     H1 3466   7.283   5.245   1.879
  690WAT     H2 3467   7.228   5.239   2.005
  690WAT    EPW 3468   7.251   5.280   1.942
  691WAT      O 3469   7.340   6.068   1.865
  691WAT     H1 3470   7.392   6.020   1.813
  691WAT     H2 3471   7.275   6.014   1.885
  691WAT    EPW 3472   7.338   6.053   1.860
  692WAT      O 3473   7.137   6.746   2.023
  692WAT     H1 3474   7.073   6.696   1.992
  692WAT     H2 3475   7.190   6.757   1.955
  692WAT    EPW 3476   7.136   6.740   2.009
  693WAT      O 3477   7.145   5.480   2.285
  693WAT     H1 3478   7.228   5.501   2.264
  693WAT     H2 3479   7.098   5.519   2.223
  693WAT    EPW 3480   7.151   5.489   2.273
  694WAT      O 3481   7.487   5.937   1.667
  694WAT     H1 3482   7.546   6.001   1.672
  694WAT     H2 3483   7.536   5.866   1.648
  694WAT    EPW 3484   7.503   5.936   1.665
  695WAT      O 3485   6.958   6.184   2.053
  695WAT     H1 3486   6.903   6.248   2.075
  695WAT     H2 3487   7.034   6.225   2.041
  695WAT    EPW 3488   6.961   6.200   2.055
  696WAT      O 3489   7.654   5.559   3.038
  696WAT     H1 3490   7.596   5.612   3.077
  696WAT     H2 3491   7.663   5.593   2.958
  696WAT    EPW 3492   7.647   5.572   3.032
  697WAT      O 3493   7.021   5.851   1.625
  697WAT     H1 3494   7.001   5.767   1.618
  697WAT     H2 3495   7.096   5.859   1.580
  697WAT    EPW 3496   7.029   5.840   1.617
  698WAT      O 3497   6.929   6.345   1.554
  698WAT     H1 3498   6.989   6.395   1.592
  698WAT     H2 3499   6.925   6.275   1.607
  698WAT    EPW 3500   6.937   6.342   1.568
  699WAT      O 3501   7.319   6.137   2.228
  699WAT     H1 3502   7.355   6.184   2.293
  699WAT     H2 3503   7.388   6.101   2.189
  699WAT    EPW 3504   7.335   6.139   2.232
  700WAT      O 3505   6.934   6.158   1.336
  700WAT     H1 3506   7.012   6.120   1.332
  700WAT     H2 3507   6.944   6.220   1.398
  700WAT    EPW 3508   6.947   6.162   1.345
  701WAT      O 3509   6.986   5.913   2.094
  701WAT     H1 3510   7.036   5.895   2.024
  701WAT     H2 3511   6.977   6.000   2.091
  701WAT    EPW 3512   6.992   5.923   2.083
  702WAT      O 3513   7.690   5.272   1.414
  702WAT     H1 3514   7.666   5.261   1.331
  702WAT     H2 3515   7.644   5.341   1.440
  702WAT    EPW 3516   7.680   5.280   1.406
  703WAT      O 3517   7.422   6.372   1.859
  703WAT     H1 3518   7.441   6.450   1.894
  703WAT     H2 3519   7.481   6.318   1.895
  703WAT    EPW 3520   7.433   6.375   1.870
  704WAT      O 3521   7.250   5.678   2.917
  704WAT     H1 3522   7.207   5.616   2.961
  704WAT     H2 3523   7.256   5.645   2.836
  704WAT    EPW 3524   7.245   5.664   2.912
  705WAT      O 3525   7.282   5.587   1.414
  705WAT     H1 3526   7.261   5.529   1.475
  705WAT     H2 3527   7.242   5.558   1.343
  705WAT    EPW 3528   7.273   5.574   1.412
  706WAT      O 3529   7.410   5.795   2.091
  706WAT     H1 3530   7.381   5.761   2.016
  706WAT     H2 3531   7.417   5.726   2.143
  706WAT    EPW 3532   7.407   5.780   2.087
  707WAT      O 3533   7.315   5.742   2.447
  707WAT     H1 3534   7.347   5.693   2.383
  707WAT     H2 3535   7.264   5.799   2.405
  707WAT    EPW 3536   7.312   5.743   2.431
  708WAT      O 3537   7.684   6.555   2.405
  708WAT     H1 3538   7.663   6.508   2.334
  708WAT     H2 3539   7.692   6.636   2.375
  708WAT    EPW 3540   7.682   6.560   2.390
  709WAT      O 3541   7.117   5.912   2.973
  709WAT     H1 3542   7.106   5.955   2.898
  709WAT     H2 3543   7.167   5.843   2.950
  709WAT    EPW 3544   7.123   5.908   2.959
  710WAT      O 3545   7.723   6.395   2.827
  710WAT     H1 3546   7.763   6.409   2.903
  710WAT     H2 3547   7.673   6.325   2.843
  710WAT    EPW 3548   7.721   6.387   2.840
  711WAT      O 3549   7.812   5.323   2.228
  711WAT     H1 3550   7.892   5.352   2.246
  711WAT     H2 3551   7.816   5.238   2.248
  711WAT    EPW 3552   7.824   5.314   2.234
  712WAT      O 3553   7.626   6.602   1.593
  712WAT     H1 3554   7.612   6.517   1.600
  712WAT     H2 3555   7.692   6.607   1.535
  712WAT    EPW 3556   7.634   6.590   1.585
  713WAT      O 3557   7.453   4.980   1.386
  713WAT     H1 3558   7.499   5.006   1.455
  713WAT     H2 3559   7.411   5.052   1.360
  713WAT    EPW 3560   7.453   4.994   1.392
  714WAT      O 3561   7.838   6.625   1.410
  714WAT     H1 3562   7.915   6.650   1.443
  714WAT     H2 3563   7.805   6.698   1.377
  714WAT    EPW 3564   7.845   6.639   1.410
  715WAT      O 3565   7.267   5.865   1.499
  715WAT     H1 3566   7.281   5.781   1.480
  715WAT     H2 3567   7.335   5.886   1.549
  715WAT    EPW 3568   7.279   5.856   1.504
  716WAT      O 3569   6.908   4.983   1.575
  716WAT     H1 3570   6.907   4.929   1.507
  716WAT     H2 3571   6.873   4.935   1.640
  716WAT    EPW 3572   6.903   4.968   1.575
  717WAT      O 3573   7.911   5.645   1.556
  717WAT     H1 3574   7.997   5.657   1.562
  717WAT     H2 3575   7.902   5.593   1.487
  717WAT    EPW 3576   7.922   5.639   1.547
  718WAT      O 3577   7.341   5.219   1.306
  718WAT     H1 3578   7.281   5.213   1.243
  718WAT     H2 3579   7.408   5.258   1.266
  718WAT    EPW 3580   7.342   5.224   1.291
  719WAT      O 3581   7.819   6.115   2.112
  719WAT     H1 3582   7.744   6.072   2.119
  719WAT     H2 3583   7.848   6.121   2.194
  719WAT    EPW 3584   7.812   6.110   2.125
  720WAT      O 3585   7.444   6.640   1.185
  720WAT     H1 3586   7.463   6.567   1.230
  720WAT     H2 3587   7.434   6.701   1.246
  720WAT    EPW 3588   7.446   6.638   1.200
  721WAT      O 3589   7.154   5.931   2.317
  721WAT     H1 3590   7.205   5.998   2.296
  721WAT     H2 3591   7.106   5.917   2.245
  721WAT    EPW 3592   7.154   5.939   2.303
  722WAT      O 3593   7.466   5.456   1.993
  722WAT     H1 3594   7.540   5.412   1.979
  722WAT     H2 3595   7.404   5.397   1.979
  722WAT    EPW 3596   7.468   5.441   1.989
  723WAT      O 3597   6.972   5.575   1.613
  723WAT     H1 3598   7.001   5.539   1.687
  723WAT     H2 3599   6.978   5.510   1.555
  723WAT    EPW 3600   6.977   5.560   1.616
  724WAT      O 3601   7.455   5.720   1.228
  724WAT     H1 3602   7.408   5.682   1.290
  724WAT     H2 3603   7.404   5.715   1.157
  724WAT    EPW 3604   7.441   5.713   1.226
  725WAT      O 3605   7.077   6.036   2.730
  725WAT     H1 3606   7.044   5.989   2.665
  725WAT     H2 3607   7.050   6.117   2.712
  725WAT    EPW 3608   7.068   6.041   2.718
  726WAT      O 3609   7.547   5.497   1.475
  726WAT     H1 3610   7.582   5.572   1.504
  726WAT     H2 3611   7.464   5.518   1.460
  726WAT    EPW 3612   7.540   5.511   1.477
  727WAT      O 3613   6.902   5.234   2.113
  727WAT     H1 3614   6.891   5.245   2.027
  727WAT     H2 3615   6.985   5.206   2.119
  727WAT    EPW 3616   6.913   5.232   2.101
  728WAT      O 3617   7.479   6.282   2.410
  728WAT     H1 3618   7.487   6.337   2.477
  728WAT     H2 3619   7.508   6.328   2.342
  728WAT    EPW 3620   7.484   6.297   2.410
  729WAT      O 3621   7.346   6.103   2.710
  729WAT     H1 3622   7.265   6.072   2.718
  729WAT     H2 3623   7.334   6.190   2.705
  729WAT    EPW 3624   7.332   6.112   2.710
  730WAT      O 3625   7.859   6.110   2.393
  730WAT     H1 3626   7.876   6.144   2.472
  730WAT     H2 3627   7.781   6.074   2.402
  730WAT    EPW 3628   7.850   6.110   2.406
  731WAT      O 3629   7.511   5.445   2.661
  731WAT     H1 3630   7.524   5.368   2.699
  731WAT     H2 3631   7.545   5.435   2.581
  731WAT    EPW 3632   7.518   5.432   2.654
  732WAT      O 3633   7.729   6.677   1.842
  732WAT     H1 3634   7.729   6.764   1.841
  732WAT     H2 3635   7.701   6.656   1.762
  732WAT    EPW 3636   7.725   6.687   1.830
  733WAT      O 3637   7.611   4.979   2.634
  733WAT     H1 3638   7.688   4.938   2.633
  733WAT     H2 3639   7.559   4.926   2.679
  733WAT    EPW 3640   7.615   4.965   2.640
  734WAT      O 3641   7.571   6.422   2.183
  734WAT     H1 3642   7.532   6.485   2.138
  734WAT     H2 3643   7.611   6.374   2.121
  734WAT    EPW 3644   7.571   6.424   2.167
  735WAT      O 3645   7.620   5.915   1.339
  735WAT     H1 3646   7.572   5.859   1.292
  735WAT     H2 3647   7.589   5.993   1.316
  735WAT    EPW 3648   7.608   5.918   1.329
  736WAT      O 3649   7.414   5.557   2.244
  736WAT     H1 3650   7.430   5.523   2.165
  736WAT     H2 3651   7.471   5.516   2.296
  736WAT    EPW 3652   7.425   5.546   2.240
  737WAT      O 3653   7.790   6.660   2.739
  737WAT     H1 3654   7.868   6.649   2.703
  737WAT     H2 3655   7.769   6.580   2.767
  737WAT    EPW 3656   7.798   6.646   2.738
  738WAT      O 3657   7.594   4.954   2.222
  738WAT     H1 3658   7.516   4.972   2.255
  738WAT     H2 3659   7.576   4.919   2.144
  738WAT    EPW 3660   7.580   4.951   2.215
  739WAT      O 3661   7.840   6.184   2.670
  739WAT     H1 3662   7.789   6.126   2.711
  739WAT     H2 3663   7.825   6.258   2.713
  739WAT    EPW 3664   7.830   6.186   2.683
  740WAT      O 3665   6.881   5.116   2.875
  740WAT     H1 3666   6.877   5.185   2.822
  740WAT     H2 3667   6.798   5.094   2.886
  740WAT    EPW 3668   6.868   5.123   2.869
  741WAT      O 3669   7.417   6.772   2.257
  741WAT     H1 3670   7.394   6.764   2.341
  741WAT     H2 3671   7.385   6.700   2.220
  741WAT    EPW 3672   7.409   6.760   2.264
  742WAT      O 3673   7.243   5.341   1.544
  742WAT     H1 3674   7.261   5.300   1.469
  742WAT     H2 3675   7.164   5.311   1.565
  742WAT    EPW 3676   7.234   5.331   1.536
  743WAT      O 3677   7.023   6.712   2.802
  743WAT     H1 3678   6.963   6.650   2.793
  743WAT     H2 3679   6.978   6.780   2.832
  743WAT    EPW 3680   7.008   6.713   2.805
  744WAT      O 3681   7.261   5.566   2.658
  744WAT     H1 3682   7.273   5.626   2.596
  744WAT     H2 3683   7.338   5.525   2.661
  744WAT    EPW 3684   7.274   5.569   2.650
  745WAT      O 3685   7.067   5.412   2.535
  745WAT     H1 3686   7.091   5.426   2.453
  745WAT     H2 3687   7.127   5.456   2.581
  745WAT    EPW 3688   7.079   5.421   2.530
  746WAT      O 3689   7.276   5.101   2.786
  746WAT     H1 3690   7.260   5.015   2.781
  746WAT     H2 3691   7.258   5.130   2.705
  746WAT    EPW 3692   7.271   5.093   2.773
  747WAT      O 3693   6.962   5.902   2.516
  747WAT     H1 3694   7.019   5.918   2.452
  747WAT     H2 3695   6.944   5.817   2.507
  747WAT    EPW 3696   6.968   5.892   2.506
  748WAT      O 3697   7.148   5.478   1.190
  748WAT     H1 3698   7.074   5.471   1.236
  748WAT     H2 3699   7.156   5.400   1.153
  748WAT    EPW 3700   7.138   5.466   1.191
  749WAT      O 3701   7.461   6.407   1.344
  749WAT     H1 3702   7.501   6.393   1.420
  749WAT     H2 3703   7.377   6.391   1.363
  749WAT    EPW 3704   7.454   6.402   1.358
  750WAT      O 3705   7.488   5.873   2.625
  750WAT     H1 3706   7.441   5.940   2.657
  750WAT     H2 3707   7.432   5.833   2.571
  750WAT    EPW 3708   7.473   5.877   2.622
  751WAT      O 3709   7.211   6.315   1.415
  751WAT     H1 3710   7.212   6.295   1.500
  751WAT     H2 3711   7.211   6.237   1.376
  751WAT    EPW 3712   7.211   6.301   1.422
  752WAT      O 3713   7.482   6.144   1.247
  752WAT     H1 3714   7.400   6.117   1.260
  752WAT     H2 3715   7.481   6.227   1.277
  752WAT    EPW 3716   7.470   6.153   1.254
  753WAT      O 3717   7.487   5.171   2.470
  753WAT     H1 3718   7.400   5.160   2.478
  753WAT     H2 3719   7.520   5.099   2.504
  753WAT    EPW 3720   7.479   5.159   2.476
  754WAT      O 3721   7.624   5.671   2.782
  754WAT     H1 3722   7.591   5.602   2.739
  754WAT     H2 3723   7.590   5.739   2.740
  754WAT    EPW 3724   7.614   5.671   2.770
  755WAT      O 3725   7.726   4.968   1.279
  755WAT     H1 3726   7.733   4.988   1.195
  755WAT     H2 3727   7.641   4.973   1.295
  755WAT    EPW 3728   7.715   4.971   1.269
  756WAT      O 3729   7.443   6.684   2.790
  756WAT     H1 3730   7.459   6.669   2.875
  756WAT     H2 3731   7.493   6.625   2.749
  756WAT    EPW 3732   7.453   6.673   2.797
  757WAT      O 3733   7.208   5.170   2.528
  757WAT     H1 3734   7.150   5.106   2.517
  757WAT     H2 3735   7.160   5.242   2.524
  757WAT    EPW 3736   7.193   5.171   2.526
  758WAT      O 3737   7.200   6.538   2.935
  758WAT     H1 3738   7.268   6.579   2.972
  758WAT     H2 3739   7.158   6.602   2.894
  758WAT    EPW 3740   7.204   6.554   2.935
  759WAT      O 3741   7.077   5.503   1.865
  759WAT     H1 3742   7.037   5.530   1.937
  759WAT     H2 3743   7.117   5.429   1.889
  759WAT    EPW 3744   7.077   5.496   1.879
  760WAT      O 3745   7.029   6.300   2.650
  760WAT     H1 3746   6.977   6.360   2.685
  760WAT     H2 3747   7.109   6.332   2.662
  760WAT    EPW 3748   7.033   6.313   2.657
  761WAT      O 3749   7.344   6.646   1.584
  761WAT     H1 3750   7.336   6.702   1.518
  761WAT     H2 3751   7.429   6.628   1.586
  761WAT    EPW 3752   7.355   6.651   1.574
  762WAT      O 3753   7.652   5.744   1.554
  762WAT     H1 3754   7.654   5.798   1.486
  762WAT     H2 3755   7.736   5.720   1.563
  762WAT    EPW 3756   7.665   5.748   1.545
  763WAT      O 3757   7.539   5.193   2.798
  763WAT     H1 3758   7.571   5.145   2.732
  763WAT     H2 3759   7.456   5.167   2.804
  763WAT    EPW 3760   7.532   5.182   2.789
  764WAT      O 3761   7.254   6.551   2.177
  764WAT     H1 3762   7.241   6.476   2.135
  764WAT     H2 3763   7.212   6.610   2.127
  764WAT    EPW 3764   7.246   6.549   2.163
  765WAT      O 3765   7.017   6.786   2.535
  765WAT     H1 3766   7.025   6.760   2.617
  765WAT     H2 3767   7.046   6.718   2.489
  765WAT    EPW 3768   7.023   6.772   2.540
  766WAT      O 3769   6.998   6.339   0.511
  766WAT     H1 3770   7.015   6.328   0.596
  766WAT     H2 3771   6.943   6.274   0.492
  766WAT    EPW 3772   6.992   6.328   0.520
  767WAT      O 3773   7.596   6.177   0.994
  767WAT     H1 3774   7.569   6.160   1.075
  767WAT     H2 3775   7.530   6.151   0.943
  767WAT    EPW 3776   7.583   6.171   0.998
  768WAT      O 3777   7.541   5.462   0.479
  768WAT     H1 3778   7.624   5.455   0.453
  768WAT     H2 3779   7.513   5.379   0.479
  768WAT    EPW 3780   7.549   5.449   0.475
  769WAT      O 3781   7.570   6.470   0.732
  769WAT     H1 3782   7.610   6.508   0.664
  769WAT     H2 3783   7.636   6.442   0.782
  769WAT    EPW 3784   7.585   6.472   0.729
  770WAT      O 3785   6.944   5.659   0.307
  770WAT     H1 3786   6.903   5.736   0.317
  770WAT     H2 3787   6.885   5.601   0.334
  770WAT    EPW 3788   6.929   5.662   0.312
  771WAT      O 3789   7.199   5.076   0.361
  771WAT     H1 3790   7.242   5.151   0.350
  771WAT     H2 3791   7.261   5.015   0.354
  771WAT    EPW 3792   7.214   5.078   0.359
  772WAT      O 3793   7.567   5.310   1.157
  772WAT     H1 3794   7.579   5.282   1.075
  772WAT     H2 3795   7.596   5.392   1.155
  772WAT    EPW 3796   7.573   5.318   1.144
  773WAT      O 3797   7.166   5.212   1.090
  773WAT     H1 3798   7.090   5.176   1.070
  773WAT     H2 3799   7.221   5.181   1.030
  773WAT    EPW 3800   7.163   5.202   1.078
  774WAT      O 3801   7.739   5.022   1.007
  774WAT     H1 3802   7.757   4.968   0.941
  774WAT     H2 3803   7.700   5.090   0.968
  774WAT    EPW 3804   7.736   5.024   0.992
  775WAT      O 3805   7.372   6.705   0.616
  775WAT     H1 3806   7.385   6.689   0.701
  775WAT     H2 3807   7.311   6.647   0.594
  775WAT    EPW 3808   7.365   6.694   0.625
  776WAT      O 3809   6.901   5.341   0.846
  776WAT     H1 3810   6.885   5.417   0.885
  776WAT     H2 3811   6.959   5.361   0.784
  776WAT    EPW 3812   6.907   5.355   0.843
  777WAT      O 3813   7.181   6.548   0.477
  777WAT     H1 3814   7.127   6.481   0.491
  777WAT     H2 3815   7.215   6.531   0.399
  777WAT    EPW 3816   7.178   6.536   0.467
  778WAT      O 3817   7.315   6.392   0.832
  778WAT     H1 3818   7.388   6.430   0.801
  778WAT     H2 3819   7.297   6.438   0.904
  778WAT    EPW 3820   7.323   6.405   0.838
  779WAT      O 3821   7.451   5.947   0.299
  779WAT     H1 3822   7.507   5.960   0.365
  779WAT     H2 3823   7.435   5.862   0.303
  779WAT    EPW 3824   7.457   5.937   0.309
  780WAT      O 3825   7.624   6.012   0.507
  780WAT     H1 3826   7.598   6.094   0.523
  780WAT     H2 3827   7.605   5.970   0.582
  780WAT    EPW 3828   7.617   6.018   0.521
  781WAT      O 3829   6.865   6.350   1.132
  781WAT     H1 3830   6.922   6.400   1.175
  781WAT     H2 3831   6.874   6.272   1.171
  781WAT    EPW 3832   6.874   6.346   1.144
  782WAT      O 3833   7.161   5.512   0.400
  782WAT     H1 3834   7.233   5.555   0.376
  782WAT     H2 3835   7.097   5.559   0.364
  782WAT    EPW 3836   7.162   5.525   0.391
  783WAT      O 3837   7.673   5.567   1.146
  783WAT     H1 3838   7.611   5.616   1.183
  783WAT     H2 3839   7.683   5.603   1.067
  783WAT    EPW 3840   7.665   5.579   1.140
  784WAT      O 3841   7.302   6.180   0.360
  784WAT     H1 3842   7.352   6.207   0.426
  784WAT     H2 3843   7.346   6.113   0.326
  784WAT    EPW 3844   7.316   6.174   0.365
  785WAT      O 3845   7.256   5.682   1.034
  785WAT     H1 3846   7.215   5.616   1.073
  785WAT     H2 3847   7.261   5.657   0.951
  785WAT    EPW 3848   7.251   5.668   1.028
  786WAT      O 3849   7.312   5.788   0.570
  786WAT     H1 3850   7.340   5.746   0.499
  786WAT     H2 3851   7.255   5.846   0.539
  786WAT    EPW 3852   7.308   5.790   0.555
  787WAT      O 3853   7.691   6.562   0.501
  787WAT     H1 3854   7.671   6.519   0.428
  787WAT     H2 3855   7.701   6.644   0.473
  787WAT    EPW 3856   7.690   6.568   0.486
  788WAT      O 3857   7.125   5.916   1.094
  788WAT     H1 3858   7.120   5.961   1.019
  788WAT     H2 3859   7.173   5.846   1.072
  788WAT    EPW 3860   7.132   5.912   1.079
  789WAT      O 3861   7.739   6.411   0.958
  789WAT     H1 3862   7.781   6.424   1.033
  789WAT     H2 3863   7.688   6.343   0.975
  789WAT    EPW 3864   7.738   6.403   0.971
  790WAT      O 3865   7.806   5.473   0.390
  790WAT     H1 3866   7.830   5.548   0.352
  790WAT     H2 3867   7.881   5.432   0.406
  790WAT    EPW 3868   7.820   5.478   0.387
  791WAT      O 3869   7.634   6.052   0.106
  791WAT     H1 3870   7.566   6.019   0.150
  791WAT     H2 3871   7.703   6.027   0.154
  791WAT    EPW 3872   7.634   6.044   0.120
  792WAT      O 3873   7.131   5.968   0.445
  792WAT     H1 3874   7.171   6.043   0.427
  792WAT     H2 3875   7.092   5.947   0.369
  792WAT    EPW 3876   7.131   5.976   0.431
  793WAT      O 3877   7.112   6.045   0.852
  793WAT     H1 3878   7.074   5.992   0.794
  793WAT     H2 3879   7.080   6.124   0.832
  793WAT    EPW 3880   7.102   6.049   0.841
  794WAT      O 3881   7.514   6.268   0.528
  794WAT     H1 3882   7.526   6.323   0.595
  794WAT     H2 3883   7.543   6.313   0.459
  794WAT    EPW 3884   7.520   6.283   0.528
  795WAT      O 3885   7.378   6.118   0.830
  795WAT     H1 3886   7.299   6.084   0.840
  795WAT     H2 3887   7.363   6.204   0.822
  795WAT    EPW 3888   7.364   6.126   0.830
  796WAT      O 3889   7.817   5.972   0.309
  796WAT     H1 3890   7.891   6.011   0.334
  796WAT     H2 3891   7.764   5.981   0.378
  796WAT    EPW 3892   7.820   5.979   0.322
  797WAT      O 3893   7.518   5.476   0.757
  797WAT     H1 3894   7.542   5.399   0.790
  797WAT     H2 3895   7.534   5.468   0.672
  797WAT    EPW 3896   7.524   5.463   0.750
  798WAT      O 3897   7.659   5.063   0.657
  798WAT     H1 3898   7.678   5.044   0.574
  798WAT     H2 3899   7.676   4.988   0.700
  798WAT    EPW 3900   7.664   5.049   0.651
  799WAT      O 3901   7.579   6.401   0.292
  799WAT     H1 3902   7.499   6.420   0.263
  799WAT     H2 3903   7.614   6.353   0.228
  799WAT    EPW 3904   7.572   6.397   0.278
  800WAT      O 3905   7.402   5.654   0.335
  800WAT     H1 3906   7.410   5.631   0.251
  800WAT     H2 3907   7.452   5.596   0.377
  800WAT    EPW 3908   7.411   5.642   0.329
  801WAT      O 3909   7.813   6.665   0.859
  801WAT     H1 3910   7.893   6.651   0.829
  801WAT     H2 3911   7.790   6.588   0.893
  801WAT    EPW 3912   7.821   6.651   0.859
  802WAT      O 3913   7.670   4.970   0.394
  802WAT     H1 3914   7.588   4.954   0.372
  802WAT     H2 3915   7.706   4.998   0.320
  802WAT    EPW 3916   7.664   4.972   0.380
  803WAT      O 3917   7.870   6.179   0.851
  803WAT     H1 3918   7.807   6.129   0.885
  803WAT     H2 3919   7.850   6.259   0.879
  803WAT    EPW 3920   7.858   6.184   0.861
  804WAT      O 3921   6.915   5.107   0.995
  804WAT     H1 3922   6.912   5.180   0.948
  804WAT     H2 3923   6.839   5.068   0.977
  804WAT    EPW 3924   6.904   5.112   0.985
  805WAT      O 3925   7.422   6.781   0.352
  805WAT     H1 3926   7.406   6.755   0.434
  805WAT     H2 3927   7.404   6.710   0.304
  805WAT    EPW 3928   7.417   6.766   0.357
  806WAT      O 3929   7.056   6.712   0.899
  806WAT     H1 3930   6.993   6.652   0.900
  806WAT     H2 3931   7.017   6.784   0.931
  806WAT    EPW 3932   7.041   6.714   0.904
  807WAT      O 3933   7.269   5.594   0.770
  807WAT     H1 3934   7.276   5.658   0.712
  807WAT     H2 3935   7.348   5.557   0.769
  807WAT    EPW 3936   7.282   5.598   0.762
  808WAT      O 3937   7.097   5.416   0.650
  808WAT     H1 3938   7.116   5.433   0.566
  808WAT     H2 3939   7.154   5.465   0.694
  808WAT    EPW 3940   7.108   5.426   0.644
  809WAT      O 3941   7.340   5.103   0.902
  809WAT     H1 3942   7.368   5.021   0.899
  809WAT     H2 3943   7.297   5.114   0.827
  809WAT    EPW 3944   7.338   5.093   0.890
  810WAT      O 3945   6.984   5.884   0.666
  810WAT     H1 3946   7.021   5.910   0.592
  810WAT     H2 3947   6.963   5.801   0.651
  810WAT    EPW 3948   6.986   5.876   0.653
  811WAT      O 3949   7.516   5.890   0.734
  811WAT     H1 3950   7.479   5.961   0.768
  811WAT     H2 3951   7.451   5.855   0.686
  811WAT    EPW 3952   7.501   5.896   0.732
  812WAT      O 3953   7.446   5.205   0.526
  812WAT     H1 3954   7.370   5.186   0.563
  812WAT     H2 3955   7.502   5.151   0.566
  812WAT    EPW 3956   7.443   5.194   0.538
  813WAT      O 3957   7.646   5.685   0.891
  813WAT     H1 3958   7.610   5.619   0.845
  813WAT     H2 3959   7.616   5.756   0.851
  813WAT    EPW 3960   7.636   5.686   0.878
  814WAT      O 3961   7.459   6.681   0.899
  814WAT     H1 3962   7.475   6.668   0.984
  814WAT     H2 3963   7.518   6.629   0.859
  814WAT    EPW 3964   7.470   6.671   0.905
  815WAT      O 3965   7.210   5.157   0.666
  815WAT     H1 3966   7.160   5.097   0.626
  815WAT     H2 3967   7.164   5.231   0.657
  815WAT    EPW 3968   7.196   5.159   0.659
  816WAT      O 3969   7.219   6.541   1.051
  816WAT     H1 3970   7.287   6.582   1.088
  816WAT     H2 3971   7.180   6.604   1.006
  816WAT    EPW 3972   7.223   6.557   1.050
  817WAT      O 3973   7.055   6.309   0.777
  817WAT     H1 3974   7.001   6.367   0.814
  817WAT     H2 3975   7.134   6.342   0.792
  817WAT    EPW 3976   7.059   6.323   0.785
  818WAT      O 3977   7.585   5.224   0.874
  818WAT     H1 3978   7.615   5.187   0.800
  818WAT     H2 3979   7.505   5.190   0.882
  818WAT    EPW 3980   7.578   5.213   0.864
  819WAT      O 3981   7.304   6.441   0.233
  819WAT     H1 3982   7.287   6.359   0.258
  819WAT     H2 3983   7.277   6.444   0.150
  819WAT    EPW 3984   7.298   6.429   0.224
  820WAT      O 3985   7.030   6.761   0.622
  820WAT     H1 3986   7.054   6.734   0.701
  820WAT     H2 3987   7.069   6.705   0.567
  820WAT    EPW 3988   7.039   6.749   0.625
  821WAT      O 3989   6.941   4.266   7.386
  821WAT     H1 3990   6.862   4.263   7.424
  821WAT     H2 3991   6.948   4.189   7.347
  821WAT    EPW 3992   6.930   4.254   7.386
  822WAT      O 3993   6.921   3.616   7.034
  822WAT     H1 3994   6.855   3.663   7.002
  822WAT     H2 3995   6.892   3.534   7.029
  822WAT    EPW 3996   6.907   3.611   7.029
  823WAT      O 3997   7.220   4.219   6.982
  823WAT     H1 3998   7.196   4.174   6.911
  823WAT     H2 3999   7.237   4.157   7.041
  823WAT    EPW 4000   7.219   4.203   6.980
  824WAT      O 4001   7.201   4.373   7.389
  824WAT     H1 4002   7.252   4.335   7.449
  824WAT     H2 4003   7.124   4.334   7.400
  824WAT    EPW 4004   7.197   4.362   7.400
  825WAT      O 4005   7.583   3.236   7.266
  825WAT     H1 4006   7.621   3.288   7.207
  825WAT     H2 4007   7.633   3.164   7.264
  825WAT    EPW 4008   7.596   3.233   7.257
  826WAT      O 4009   7.052   4.639   6.957
  826WAT     H1 4010   7.105   4.651   6.889
  826WAT     H2 4011   7.098   4.587   7.010
  826WAT    EPW 4012   7.067   4.633   6.955
  827WAT      O 4013   7.145   3.993   7.510
  827WAT     H1 4014   7.095   4.007   7.440
  827WAT     H2 4015   7.197   3.928   7.485
  827WAT    EPW 4016   7.145   3.985   7.496
  828WAT      O 4017   7.307   3.786   7.414
  828WAT     H1 4018   7.362   3.775   7.481
  828WAT     H2 4019   7.240   3.735   7.433
  828WAT    EPW 4020   7.305   3.777   7.427
  829WAT      O 4021   7.675   4.386   7.655
  829WAT     H1 4022   7.656   4.329   7.719
  829WAT     H2 4023   7.742   4.431   7.687
  829WAT    EPW 4024   7.682   4.384   7.669
  830WAT      O 4025   7.673   4.329   7.378
  830WAT     H1 4026   7.676   4.339   7.465
  830WAT     H2 4027   7.753   4.300   7.359
  830WAT    EPW 4028   7.685   4.326   7.388
  831WAT      O 4029   7.367   3.348   7.410
  831WAT     H1 4030   7.326   3.397   7.351
  831WAT     H2 4031   7.438   3.319   7.368
  831WAT    EPW 4032   7.371   3.351   7.395
  832WAT      O 4033   7.733   3.342   7.482
  832WAT     H1 4034   7.721   3.428   7.491
  832WAT     H2 4035   7.683   3.320   7.414
  832WAT    EPW 4036   7.724   3.351   7.473
  833WAT      O 4037   6.959   3.752   7.730
  833WAT     H1 4038   6.962   3.839   7.741
  833WAT     H2 4039   6.967   3.720   7.810
  833WAT    EPW 4040   6.960   3.760   7.743
  834WAT      O 4041   6.958   4.713   7.604
  834WAT     H1 4042   6.895   4.763   7.571
  834WAT     H2 4043   7.003   4.687   7.534
  834WAT    EPW 4044   6.955   4.717   7.589
  835WAT      O 4045   7.552   4.579   7.318
  835WAT     H1 4046   7.512   4.577   7.395
  835WAT     H2 4047   7.599   4.505   7.317
  835WAT    EPW 4048   7.553   4.568   7.329
  836WAT      O 4049   7.107   4.636   7.379
  836WAT     H1 4050   7.151   4.563   7.400
  836WAT     H2 4051   7.169   4.688   7.347
  836WAT    EPW 4052   7.123   4.633   7.378
  837WAT      O 4053   7.278   4.409   7.737
  837WAT     H1 4054   7.324   4.464   7.687
  837WAT     H2 4055   7.308   4.330   7.713
  837WAT    EPW 4056   7.290   4.405   7.726
  838WAT      O 4057   7.517   4.801   7.653
  838WAT     H1 4058   7.593   4.839   7.633
  838WAT     H2 4059   7.457   4.856   7.623
  838WAT    EPW 4060   7.519   4.815   7.646
  839WAT      O 4061   7.868   4.589   6.859
  839WAT     H1 4062   7.861   4.647   6.924
  839WAT     H2 4063   7.934   4.538   6.884
  839WAT    EPW 4064   7.877   4.590   6.872
  840WAT      O 4065   6.994   3.406   7.307
  840WAT     H1 4066   6.976   3.322   7.295
  840WAT     H2 4067   6.950   3.426   7.380
  840WAT    EPW 4068   6.985   3.397   7.316
  841WAT      O 4069   7.829   3.660   7.058
  841WAT     H1 4070   7.785   3.585   7.072
  841WAT     H2 4071   7.794   3.691   6.985
  841WAT    EPW 4072   7.817   3.653   7.049
  842WAT      O 4073   7.678   3.621   7.471
  842WAT     H1 4074   7.623   3.623   7.403
  842WAT     H2 4075   7.747   3.666   7.442
  842WAT    EPW 4076   7.680   3.628   7.456
  843WAT      O 4077   7.305   3.096   7.522
  843WAT     H1 4078   7.314   3.179   7.495
  843WAT     H2 4079   7.305   3.051   7.447
  843WAT    EPW 4080   7.306   3.102   7.507
  844WAT      O 4081   7.297   3.501   7.634
  844WAT     H1 4082   7.328   3.449   7.571
  844WAT     H2 4083   7.234   3.453   7.671
  844WAT    EPW 4084   7.293   3.486   7.630
  845WAT      O 4085   7.338   4.174   7.581
  845WAT     H1 4086   7.391   4.159   7.514
  845WAT     H2 4087   7.269   4.122   7.566
  845WAT    EPW 4088   7.335   4.164   7.569
  846WAT      O 4089   7.161   4.835   7.749
  846WAT     H1 4090   7.093   4.802   7.705
  846WAT     H2 4091   7.211   4.871   7.687
  846WAT    EPW 4092   7.158   4.836   7.733
  847WAT      O 4093   7.479   4.122   7.351
  847WAT     H1 4094   7.535   4.188   7.345
  847WAT     H2 4095   7.527   4.052   7.333
  847WAT    EPW 4096   7.494   4.122   7.347
  848WAT      O 4097   7.021   4.303   7.789
  848WAT     H1 4098   6.975   4.375   7.806
  848WAT     H2 4099   7.101   4.334   7.773
  848WAT    EPW 4100   7.026   4.318   7.789
  849WAT      O 4101   7.006   4.021   7.273
  849WAT     H1 4102   6.987   3.935   7.269
  849WAT     H2 4103   7.083   4.026   7.233
  849WAT    EPW 4104   7.015   4.009   7.266
  850WAT      O 4105   6.924   4.489   7.226
  850WAT     H1 4106   6.981   4.542   7.265
  850WAT     H2 4107   6.920   4.421   7.280
  850WAT    EPW 4108   6.932   4.487   7.240
  851WAT      O 4109   6.936   4.312   7.003
  851WAT     H1 4110   7.015   4.274   7.000
  851WAT     H2 4111   6.945   4.372   7.066
  851WAT    EPW 4112   6.949   4.315   7.012
  852WAT      O 4113   6.979   4.035   7.730
  852WAT     H1 4114   7.032   4.022   7.661
  852WAT     H2 4115   6.999   4.115   7.756
  852WAT    EPW 4116   6.990   4.045   7.723
  853WAT      O 4117   7.643   3.456   7.105
  853WAT     H1 4118   7.614   3.454   7.023
  853WAT     H2 4119   7.594   3.517   7.143
  853WAT    EPW 4120   7.631   3.465   7.099
  854WAT      O 4121   7.458   4.547   7.576
  854WAT     H1 4122   7.474   4.626   7.609
  854WAT     H2 4123   7.524   4.498   7.607
  854WAT    EPW 4124   7.470   4.551   7.586
  855WAT      O 4125   7.255   3.757   7.077
  855WAT     H1 4126   7.253   3.693   7.137
  855WAT     H2 4127   7.212   3.723   7.009
  855WAT    EPW 4128   7.248   3.742   7.076
  856WAT      O 4129   7.482   3.996   7.759
  856WAT     H1 4130   7.433   4.044   7.704
  856WAT     H2 4131   7.479   3.916   7.724
  856WAT    EPW 4132   7.474   3.992   7.746
  857WAT      O 4133   7.701   4.820   7.290
  857WAT     H1 4134   7.661   4.744   7.305
  857WAT     H2 4135   7.758   4.801   7.227
  857WAT    EPW 4136   7.703   4.806   7.283
  858WAT      O 4137   7.413   3.129   7.074
  858WAT     H1 4138   7.462   3.160   7.139
  858WAT     H2 4139   7.372   3.200   7.044
  858WAT    EPW 4140   7.415   3.144   7.079
  859WAT      O 4141   7.864   4.779   7.066
  859WAT     H1 4142   7.944   4.814   7.070
  859WAT     H2 4143   7.815   4.842   7.033
  859WAT    EPW 4144   7.869   4.793   7.062
  860WAT      O 4145   7.265   4.030   7.177
  860WAT     H1 4146   7.275   3.945   7.161
  860WAT     H2 4147   7.330   4.049   7.232
  860WAT    EPW 4148   7.276   4.020   7.183
  861WAT      O 4149   6.914   3.137   7.266
  861WAT     H1 4150   6.913   3.084   7.196
  861WAT     H2 4151   6.880   3.087   7.329
  861WAT    EPW 4152   6.909   3.121   7.265
  862WAT      O 4153   7.865   3.772   7.307
  862WAT     H1 4154   7.948   3.798   7.313
  862WAT     H2 4155   7.861   3.734   7.229
  862WAT    EPW 4156   7.877   3.770   7.296
  863WAT      O 4157   7.315   3.374   6.984
  863WAT     H1 4158   7.251   3.369   6.925
  863WAT     H2 4159   7.379   3.413   6.942
  863WAT    EPW 4160   7.315   3.379   6.969
  864WAT      O 4161   7.627   4.213   7.868
  864WAT     H1 4162   7.587   4.138   7.846
  864WAT     H2 4163   7.628   4.211   7.955
  864WAT    EPW 4164   7.621   4.201   7.878
  865WAT      O 4165   7.426   4.781   6.868
  865WAT     H1 4166   7.450   4.711   6.913
  865WAT     H2 4167   7.413   4.842   6.929
  865WAT    EPW 4168   7.427   4.780   6.884
  866WAT      O 4169   7.469   3.733   7.632
  866WAT     H1 4170   7.543   3.700   7.598
  866WAT     H2 4171   7.423   3.662   7.653
  866WAT    EPW 4172   7.473   3.717   7.630
  867WAT      O 4173   6.965   3.745   7.281
  867WAT     H1 4174   6.998   3.700   7.348
  867WAT     H2 4175   6.969   3.689   7.214
  867WAT    EPW 4176   6.971   3.730   7.281
  868WAT      O 4177   7.442   3.874   6.907
  868WAT     H1 4178   7.391   3.836   6.967
  868WAT     H2 4179   7.395   3.868   6.833
  868WAT    EPW 4180   7.427   3.867   6.905
  869WAT      O 4181   7.514   3.659   7.252
  869WAT     H1 4182   7.545   3.740   7.241
  869WAT     H2 4183   7.434   3.672   7.285
  869WAT    EPW 4184   7.507   3.673   7.255
  870WAT      O 4185   7.061   3.362   7.693
  870WAT     H1 4186   6.987   3.381   7.651
  870WAT     H2 4187   7.054   3.277   7.711
  870WAT    EPW 4188   7.049   3.353   7.690
  871WAT      O 4189   7.750   4.914   7.554
  871WAT     H1 4190   7.755   5.001   7.546
  871WAT     H2 4191   7.749   4.886   7.472
  871WAT    EPW 4192   7.750   4.923   7.541
  872WAT      O 4193   7.612   4.064   7.021
  872WAT     H1 4194   7.561   4.010   6.976
  872WAT     H2 4195   7.587   4.143   6.996
  872WAT    EPW 4196   7.601   4.067   7.011
  873WAT      O 4197   7.238   3.509   7.221
  873WAT     H1 4198   7.254   3.466   7.147
  873WAT     H2 4199   7.158   3.481   7.244
  873WAT    EPW 4200   7.228   3.498   7.213
  874WAT      O 4201   7.128   3.635   6.854
  874WAT     H1 4202   7.056   3.631   6.903
  874WAT     H2 4203   7.134   3.556   6.819
  874WAT    EPW 4204   7.118   3.623   6.857
  875WAT      O 4205   7.463   4.562   7.045
  875WAT     H1 4206   7.505   4.568   7.122
  875WAT     H2 4207   7.382   4.539   7.067
  875WAT    EPW 4208   7.458   4.559   7.060
  876WAT      O 4209   7.218   4.462   7.114
  876WAT     H1 4210   7.214   4.438   7.198
  876WAT     H2 4211   7.217   4.386   7.071
  876WAT    EPW 4212   7.217   4.447   7.120
  877WAT      O 4213   7.490   4.303   6.928
  877WAT     H1 4214   7.407   4.278   6.939
  877WAT     H2 4215   7.492   4.383   6.963
  877WAT    EPW 4216   7.478   4.311   6.935
  878WAT      O 4217   7.693   3.131   6.981
  878WAT     H1 4218   7.709   3.147   6.896
  878WAT     H2 4219   7.606   3.125   6.984
  878WAT    EPW 4220   7.682   3.132   6.969
  879WAT      O 4221   7.090   3.645   7.510
  879WAT     H1 4222   7.045   3.678   7.577
  879WAT     H2 4223   7.143   3.587   7.548
  879WAT    EPW 4224   7.091   3.642   7.525
  880WAT      O 4225   7.326   4.790   7.285
  880WAT     H1 4226   7.334   4.842   7.216
  880WAT     H2 4227   7.398   4.739   7.280
  880WAT    EPW 4228   7.338   4.790   7.274
  881WAT      O 4229   7.629   3.912   7.252
  881WAT     H1 4230   7.637   3.956   7.177
  881WAT     H2 4231   7.710   3.884   7.268
  881WAT    EPW 4232   7.642   3.915   7.243
  882WAT      O 4233   7.186   4.615   7.928
  882WAT     H1 4234   7.223   4.554   7.878
  882WAT     H2 4235   7.193   4.687   7.880
  882WAT    EPW 4236   7.193   4.616   7.914
  883WAT      O 4237   6.931   4.266   5.489
  883WAT     H1 4238   6.865   4.260   5.546
  883WAT     H2 4239   6.945   4.184   5.465
  883WAT    EPW 4240   6.923   4.253   5.494
  884WAT      O 4241   6.920   3.601   5.157
  884WAT     H1 4242   6.855   3.652   5.127
  884WAT     H2 4243   6.889   3.520   5.145
  884WAT    EPW 4244   6.906   3.596   5.151
  885WAT      O 4245   7.207   4.214   5.094
  885WAT     H1 4246   7.184   4.167   5.024
  885WAT     H2 4247   7.226   4.155   5.154
  885WAT    EPW 4248   7.207   4.199   5.092
  886WAT      O 4249   7.188   4.376   5.471
  886WAT     H1 4250   7.242   4.339   5.529
  886WAT     H2 4251   7.112   4.337   5.487
  886WAT    EPW 4252   7.185   4.365   5.482
  887WAT      O 4253   7.606   3.223   5.385
  887WAT     H1 4254   7.645   3.279   5.332
  887WAT     H2 4255   7.649   3.149   5.372
  887WAT    EPW 4256   7.618   3.220   5.375
  888WAT      O 4257   7.044   4.653   5.056
  888WAT     H1 4258   7.098   4.665   4.989
  888WAT     H2 4259   7.088   4.598   5.108
  888WAT    EPW 4260   7.059   4.647   5.054
  889WAT      O 4261   6.946   4.480   6.189
  889WAT     H1 4262   6.972   4.457   6.269
  889WAT     H2 4263   6.878   4.428   6.174
  889WAT    EPW 4264   6.940   4.469   6.198
  890WAT      O 4265   7.581   4.324   6.663
  890WAT     H1 4266   7.560   4.310   6.746
  890WAT     H2 4267   7.513   4.293   6.619
  890WAT    EPW 4268   7.568   4.317   6.669
  891WAT      O 4269   7.140   4.031   5.675
  891WAT     H1 4270   7.097   4.028   5.599
  891WAT     H2 4271   7.196   3.964   5.670
  891WAT    EPW 4272   7.142   4.021   5.663
  892WAT      O 4273   7.572   3.555   6.180
  892WAT     H1 4274   7.642   3.534   6.132
  892WAT     H2 4275   7.531   3.479   6.190
  892WAT    EPW 4276   7.576   3.541   6.174
  893WAT      O 4277   7.541   4.623   6.419
  893WAT     H1 4278   7.585   4.662   6.355
  893WAT     H2 4279   7.603   4.590   6.470
  893WAT    EPW 4280   7.556   4.624   6.417
  894WAT      O 4281   7.306   3.810   5.661
  894WAT     H1 4282   7.369   3.752   5.678
  894WAT     H2 4283   7.234   3.762   5.658
  894WAT    EPW 4284   7.305   3.794   5.663
  895WAT      O 4285   7.698   4.473   5.746
  895WAT     H1 4286   7.749   4.422   5.796
  895WAT     H2 4287   7.747   4.544   5.733
  895WAT    EPW 4288   7.713   4.476   5.751
  896WAT      O 4289   7.678   4.308   5.515
  896WAT     H1 4290   7.684   4.349   5.592
  896WAT     H2 4291   7.756   4.269   5.507
  896WAT    EPW 4292   7.691   4.309   5.525
  897WAT      O 4293   7.377   3.331   5.521
  897WAT     H1 4294   7.338   3.387   5.466
  897WAT     H2 4295   7.452   3.312   5.481
  897WAT    EPW 4296   7.382   3.336   5.507
  898WAT      O 4297   7.713   3.223   5.653
  898WAT     H1 4298   7.711   3.303   5.688
  898WAT     H2 4299   7.679   3.235   5.574
  898WAT    EPW 4300   7.708   3.237   5.647
  899WAT      O 4301   6.961   3.761   5.912
  899WAT     H1 4302   6.955   3.847   5.921
  899WAT     H2 4303   6.894   3.730   5.958
  899WAT    EPW 4304   6.950   3.769   5.920
  900WAT      O 4305   6.959   4.709   5.720
  900WAT     H1 4306   6.895   4.755   5.684
  900WAT     H2 4307   7.006   4.681   5.652
  900WAT    EPW 4308   6.956   4.712   5.705
  901WAT      O 4309   7.538   4.524   5.407
  901WAT     H1 4310   7.482   4.527   5.474
  901WAT     H2 4311   7.587   4.454   5.425
  901WAT    EPW 4312   7.537   4.514   5.419
  902WAT      O 4313   7.235   3.273   5.951
  902WAT     H1 4314   7.191   3.205   5.919
  902WAT     H2 4315   7.298   3.236   5.999
  902WAT    EPW 4316   7.238   3.258   5.953
  903WAT      O 4317   7.541   3.479   6.844
  903WAT     H1 4318   7.560   3.440   6.768
  903WAT     H2 4319   7.575   3.558   6.835
  903WAT    EPW 4320   7.549   3.485   6.831
  904WAT      O 4321   7.116   4.644   5.489
  904WAT     H1 4322   7.156   4.568   5.503
  904WAT     H2 4323   7.177   4.693   5.451
  904WAT    EPW 4324   7.131   4.640   5.486
  905WAT      O 4325   7.136   3.364   6.770
  905WAT     H1 4326   7.059   3.333   6.745
  905WAT     H2 4327   7.193   3.328   6.714
  905WAT    EPW 4328   7.133   3.354   6.758
  906WAT      O 4329   7.201   4.464   5.847
  906WAT     H1 4330   7.252   4.468   5.776
  906WAT     H2 4331   7.239   4.405   5.897
  906WAT    EPW 4332   7.214   4.456   5.844
  907WAT      O 4333   7.495   4.757   5.777
  907WAT     H1 4334   7.573   4.771   5.741
  907WAT     H2 4335   7.444   4.818   5.741
  907WAT    EPW 4336   7.499   4.768   5.766
  908WAT      O 4337   7.735   3.167   6.711
  908WAT     H1 4338   7.756   3.109   6.649
  908WAT     H2 4339   7.691   3.228   6.669
  908WAT    EPW 4340   7.732   3.167   6.696
  909WAT      O 4341   7.331   4.863   6.325
  909WAT     H1 4342   7.355   4.848   6.407
  909WAT     H2 4343   7.265   4.807   6.312
  909WAT    EPW 4344   7.325   4.853   6.335
  910WAT      O 4345   6.865   3.495   6.509
  910WAT     H1 4346   6.858   3.570   6.553
  910WAT     H2 4347   6.927   3.511   6.450
  910WAT    EPW 4348   6.873   3.508   6.507
  911WAT      O 4349   7.853   4.577   4.990
  911WAT     H1 4350   7.852   4.636   5.055
  911WAT     H2 4351   7.902   4.513   5.022
  911WAT    EPW 4352   7.860   4.577   5.005
  912WAT      O 4353   6.999   3.404   5.439
  912WAT     H1 4354   6.977   3.321   5.420
  912WAT     H2 4355   6.950   3.422   5.509
  912WAT    EPW 4356   6.988   3.394   5.446
  913WAT      O 4357   7.114   4.709   6.222
  913WAT     H1 4358   7.060   4.640   6.218
  913WAT     H2 4359   7.156   4.705   6.146
  913WAT    EPW 4360   7.112   4.698   6.210
  914WAT      O 4361   7.857   3.642   5.124
  914WAT     H1 4362   7.816   3.571   5.153
  914WAT     H2 4363   7.804   3.672   5.062
  914WAT    EPW 4364   7.843   3.636   5.119
  915WAT      O 4365   7.713   3.487   5.755
  915WAT     H1 4366   7.764   3.538   5.705
  915WAT     H2 4367   7.743   3.502   5.835
  915WAT    EPW 4368   7.725   3.497   5.759
  916WAT      O 4369   7.291   4.531   6.516
  916WAT     H1 4370   7.361   4.573   6.484
  916WAT     H2 4371   7.270   4.578   6.587
  916WAT    EPW 4372   7.298   4.544   6.522
  917WAT      O 4373   7.333   3.073   5.621
  917WAT     H1 4374   7.344   3.156   5.597
  917WAT     H2 4375   7.326   3.030   5.546
  917WAT    EPW 4376   7.333   3.079   5.607
  918WAT      O 4377   7.566   4.178   5.943
  918WAT     H1 4378   7.578   4.163   6.028
  918WAT     H2 4379   7.529   4.105   5.914
  918WAT    EPW 4380   7.563   4.165   5.951
  919WAT      O 4381   7.604   4.181   6.216
  919WAT     H1 4382   7.564   4.257   6.229
  919WAT     H2 4383   7.575   4.131   6.282
  919WAT    EPW 4384   7.594   4.185   6.228
  920WAT      O 4385   6.853   4.510   6.807
  920WAT     H1 4386   6.912   4.556   6.852
  920WAT     H2 4387   6.862   4.429   6.837
  920WAT    EPW 4388   6.863   4.505   6.818
  921WAT      O 4389   7.243   3.449   5.740
  921WAT     H1 4390   7.275   3.401   5.675
  921WAT     H2 4391   7.242   3.394   5.808
  921WAT    EPW 4392   7.248   3.434   5.740
  922WAT      O 4393   7.335   4.231   5.659
  922WAT     H1 4394   7.386   4.184   5.606
  922WAT     H2 4395   7.271   4.176   5.681
  922WAT    EPW 4396   7.333   4.216   5.654
  923WAT      O 4397   7.138   4.892   5.817
  923WAT     H1 4398   7.072   4.843   5.786
  923WAT     H2 4399   7.191   4.901   5.748
  923WAT    EPW 4400   7.136   4.886   5.802
  924WAT      O 4401   7.139   3.609   6.068
  924WAT     H1 4402   7.219   3.637   6.048
  924WAT     H2 4403   7.087   3.657   6.017
  924WAT    EPW 4404   7.143   3.620   6.057
  925WAT      O 4405   7.485   4.106   5.459
  925WAT     H1 4406   7.542   4.171   5.466
  925WAT     H2 4407   7.535   4.037   5.439
  925WAT    EPW 4408   7.501   4.105   5.457
  926WAT      O 4409   6.951   4.335   5.853
  926WAT     H1 4410   6.895   4.398   5.875
  926WAT     H2 4411   7.027   4.377   5.844
  926WAT    EPW 4412   6.954   4.350   5.855
  927WAT      O 4413   7.664   3.729   6.833
  927WAT     H1 4414   7.598   3.777   6.865
  927WAT     H2 4415   7.676   3.760   6.753
  927WAT    EPW 4416   7.656   3.740   6.826
  928WAT      O 4417   7.022   4.009   5.424
  928WAT     H1 4418   7.001   3.925   5.418
  928WAT     H2 4419   7.095   4.016   5.378
  928WAT    EPW 4420   7.030   3.998   5.417
  929WAT      O 4421   6.918   4.501   5.343
  929WAT     H1 4422   6.978   4.550   5.382
  929WAT     H2 4423   6.913   4.430   5.394
  929WAT    EPW 4424   6.926   4.498   5.356
  930WAT      O 4425   7.321   4.288   6.024
  930WAT     H1 4426   7.355   4.335   6.089
  930WAT     H2 4427   7.391   4.253   5.985
  930WAT    EPW 4428   7.336   4.290   6.028
  931WAT      O 4429   6.928   4.324   5.115
  931WAT     H1 4430   7.003   4.281   5.113
  931WAT     H2 4431   6.939   4.383   5.179
  931WAT    EPW 4432   6.940   4.327   5.124
  932WAT      O 4433   6.978   4.063   5.894
  932WAT     H1 4434   7.028   4.047   5.824
  932WAT     H2 4435   6.966   4.150   5.891
  932WAT    EPW 4436   6.983   4.074   5.883
  933WAT      O 4437   7.681   3.434   5.214
  933WAT     H1 4438   7.655   3.422   5.132
  933WAT     H2 4439   7.637   3.504   5.240
  933WAT    EPW 4440   7.671   3.443   5.206
  934WAT      O 4441   7.403   4.528   5.652
  934WAT     H1 4442   7.431   4.598   5.695
  934WAT     H2 4443   7.451   4.463   5.685
  934WAT    EPW 4444   7.414   4.529   5.663
  935WAT      O 4445   7.253   3.831   6.701
  935WAT     H1 4446   7.208   3.768   6.742
  935WAT     H2 4447   7.260   3.801   6.619
  935WAT    EPW 4448   7.247   3.817   6.695
  936WAT      O 4449   7.277   3.745   5.212
  936WAT     H1 4450   7.257   3.688   5.274
  936WAT     H2 4451   7.232   3.716   5.142
  936WAT    EPW 4452   7.267   3.733   5.211
  937WAT      O 4453   7.429   3.948   5.879
  937WAT     H1 4454   7.392   3.919   5.806
  937WAT     H2 4455   7.424   3.880   5.934
  937WAT    EPW 4456   7.422   3.934   5.877
  938WAT      O 4457   7.318   3.898   6.235
  938WAT     H1 4458   7.343   3.846   6.169
  938WAT     H2 4459   7.263   3.954   6.197
  938WAT    EPW 4460   7.314   3.898   6.219
  939WAT      O 4461   7.689   4.717   6.205
  939WAT     H1 4462   7.669   4.667   6.136
  939WAT     H2 4463   7.691   4.798   6.171
  939WAT    EPW 4464   7.687   4.722   6.190
  940WAT      O 4465   7.130   4.068   6.771
  940WAT     H1 4466   7.114   4.110   6.696
  940WAT     H2 4467   7.174   3.997   6.746
  940WAT    EPW 4468   7.134   4.064   6.756
  941WAT      O 4469   7.725   4.555   6.625
  941WAT     H1 4470   7.771   4.568   6.699
  941WAT     H2 4471   7.676   4.485   6.644
  941WAT    EPW 4472   7.725   4.547   6.639
  942WAT      O 4473   7.808   3.544   6.016
  942WAT     H1 4474   7.832   3.627   6.028
  942WAT     H2 4475   7.878   3.499   6.042
  942WAT    EPW 4476   7.822   3.550   6.021
  943WAT      O 4477   7.652   4.772   5.382
  943WAT     H1 4478   7.626   4.689   5.390
  943WAT     H2 4479   7.718   4.767   5.325
  943WAT    EPW 4480   7.658   4.759   5.375
  944WAT      O 4481   7.429   3.131   5.186
  944WAT     H1 4482   7.476   3.158   5.254
  944WAT     H2 4483   7.389   3.204   5.159
  944WAT    EPW 4484   7.430   3.146   5.192
  945WAT      O 4485   7.857   4.771   5.193
  945WAT     H1 4486   7.939   4.801   5.204
  945WAT     H2 4487   7.816   4.836   5.153
  945WAT    EPW 4488   7.863   4.785   5.189
  946WAT      O 4489   7.264   4.026   5.291
  946WAT     H1 4490   7.278   3.941   5.275
  946WAT     H2 4491   7.332   4.048   5.341
  946WAT    EPW 4492   7.276   4.017   5.296
  947WAT      O 4493   6.910   3.139   5.384
  947WAT     H1 4494   6.908   3.084   5.317
  947WAT     H2 4495   6.876   3.092   5.450
  947WAT    EPW 4496   6.905   3.124   5.384
  948WAT      O 4497   7.907   3.811   5.337
  948WAT     H1 4498   7.994   3.818   5.342
  948WAT     H2 4499   7.895   3.757   5.269
  948WAT    EPW 4500   7.918   3.804   5.327
  949WAT      O 4501   7.332   3.378   5.108
  949WAT     H1 4502   7.271   3.375   5.046
  949WAT     H2 4503   7.400   3.414   5.068
  949WAT    EPW 4504   7.333   3.383   5.093
  950WAT      O 4505   7.820   4.292   5.911
  950WAT     H1 4506   7.746   4.246   5.916
  950WAT     H2 4507   7.849   4.294   5.993
  950WAT    EPW 4508   7.813   4.286   5.924
  951WAT      O 4509   7.425   4.783   4.977
  951WAT     H1 4510   7.446   4.712   5.024
  951WAT     H2 4511   7.420   4.846   5.037
  951WAT    EPW 4512   7.428   4.782   4.993
  952WAT      O 4513   7.150   4.084   6.112
  952WAT     H1 4514   7.201   4.151   6.089
  952WAT     H2 4515   7.099   4.072   6.042
  952WAT    EPW 4516   7.150   4.092   6.098
  953WAT      O 4517   7.462   3.610   5.780
  953WAT     H1 4518   7.535   3.565   5.765
  953WAT     H2 4519   7.399   3.551   5.766
  953WAT    EPW 4520   7.463   3.595   5.776
  954WAT      O 4521   6.968   3.733   5.415
  954WAT     H1 4522   6.995   3.698   5.490
  954WAT     H2 4523   6.971   3.667   5.358
  954WAT    EPW 4524   6.972   3.718   5.417
  955WAT      O 4525   7.440   3.872   5.011
  955WAT     H1 4526   7.392   3.835   5.074
  955WAT     H2 4527   7.390   3.863   4.940
  955WAT    EPW 4528   7.425   3.865   5.010
  956WAT      O 4529   7.082   4.191   6.530
  956WAT     H1 4530   7.047   4.142   6.467
  956WAT     H2 4531   7.054   4.271   6.512
  956WAT    EPW 4532   7.072   4.196   6.518
  957WAT      O 4533   7.545   3.665   5.272
  957WAT     H1 4534   7.579   3.741   5.299
  957WAT     H2 4535   7.461   3.684   5.258
  957WAT    EPW 4536   7.537   3.679   5.274
  958WAT      O 4537   6.929   3.390   5.924
  958WAT     H1 4538   6.914   3.404   5.839
  958WAT     H2 4539   7.016   3.398   5.930
  958WAT    EPW 4540   6.940   3.394   5.912
  959WAT      O 4541   7.480   4.433   6.207
  959WAT     H1 4542   7.487   4.488   6.274
  959WAT     H2 4543   7.509   4.480   6.139
  959WAT    EPW 4544   7.485   4.448   6.207
  960WAT      O 4545   7.351   4.256   6.513
  960WAT     H1 4546   7.270   4.224   6.520
  960WAT     H2 4547   7.339   4.342   6.506
  960WAT    EPW 4548   7.337   4.264   6.513
  961WAT      O 4549   7.865   4.272   6.191
  961WAT     H1 4550   7.880   4.306   6.271
  961WAT     H2 4551   7.787   4.233   6.200
  961WAT    EPW 4552   7.856   4.271   6.204
  962WAT      O 4553   7.526   3.608   6.451
  962WAT     H1 4554   7.541   3.532   6.491
  962WAT     H2 4555   7.548   3.593   6.368
  962WAT    EPW 4556   7.531   3.595   6.444
  963WAT      O 4557   7.736   4.793   5.650
  963WAT     H1 4558   7.742   4.879   5.660
  963WAT     H2 4559   7.717   4.784   5.565
  963WAT    EPW 4560   7.734   4.804   5.639
  964WAT      O 4561   7.654   3.186   6.372
  964WAT     H1 4562   7.678   3.175   6.289
  964WAT     H2 4563   7.681   3.112   6.411
  964WAT    EPW 4564   7.662   3.173   6.366
  965WAT      O 4565   7.574   4.578   5.986
  965WAT     H1 4566   7.531   4.639   5.942
  965WAT     H2 4567   7.614   4.532   5.923
  965WAT    EPW 4568   7.574   4.580   5.970
  966WAT      O 4569   7.606   4.069   5.118
  966WAT     H1 4570   7.558   4.013   5.074
  966WAT     H2 4571   7.577   4.147   5.092
  966WAT    EPW 4572   7.595   4.072   5.108
  967WAT      O 4573   7.401   3.710   6.030
  967WAT     H1 4574   7.418   3.677   5.951
  967WAT     H2 4575   7.454   3.665   6.083
  967WAT    EPW 4576   7.411   3.698   6.026
  968WAT      O 4577   7.778   4.814   6.513
  968WAT     H1 4578   7.837   4.793   6.454
  968WAT     H2 4579   7.763   4.739   6.556
  968WAT    EPW 4580   7.784   4.800   6.511
  969WAT      O 4581   7.681   3.127   6.097
  969WAT     H1 4582   7.596   3.118   6.079
  969WAT     H2 4583   7.716   3.140   6.018
  969WAT    EPW 4584   7.674   3.128   6.082
  970WAT      O 4585   7.843   4.345   6.468
  970WAT     H1 4586   7.793   4.286   6.508
  970WAT     H2 4587   7.826   4.419   6.513
  970WAT    EPW 4588   7.833   4.347   6.481
  971WAT      O 4589   6.881   3.269   6.674
  971WAT     H1 4590   6.882   3.339   6.620
  971WAT     H2 4591   6.796   3.250   6.680
  971WAT    EPW 4592   6.869   3.277   6.667
  972WAT      O 4593   7.410   4.921   6.065
  972WAT     H1 4594   7.386   4.912   6.148
  972WAT     H2 4595   7.377   4.850   6.027
  972WAT    EPW 4596   7.401   4.909   6.071
  973WAT      O 4597   7.242   3.501   5.347
  973WAT     H1 4598   7.258   3.460   5.272
  973WAT     H2 4599   7.163   3.472   5.370
  973WAT    EPW 4600   7.232   3.491   5.340
  974WAT      O 4601   7.025   4.872   6.602
  974WAT     H1 4602   6.965   4.809   6.593
  974WAT     H2 4603   6.978   4.940   6.630
  974WAT    EPW 4604   7.009   4.872   6.605
  975WAT      O 4605   7.271   3.719   6.444
  975WAT     H1 4606   7.281   3.779   6.381
  975WAT     H2 4607   7.349   3.681   6.448
  975WAT    EPW 4608   7.284   3.722   6.435
  976WAT      O 4609   7.075   3.559   6.329
  976WAT     H1 4610   7.095   3.565   6.245
  976WAT     H2 4611   7.139   3.604   6.368
  976WAT    EPW 4612   7.088   3.567   6.323
  977WAT      O 4613   7.323   3.247   6.598
  977WAT     H1 4614   7.349   3.164   6.592
  977WAT     H2 4615   7.280   3.259   6.523
  977WAT    EPW 4616   7.320   3.237   6.586
  978WAT      O 4617   6.966   4.054   6.320
  978WAT     H1 4618   7.019   4.071   6.253
  978WAT     H2 4619   6.949   3.969   6.312
  978WAT    EPW 4620   6.971   4.044   6.309
  979WAT      O 4621   7.137   3.640   4.991
  979WAT     H1 4622   7.064   3.632   5.038
  979WAT     H2 4623   7.147   3.561   4.954
  979WAT    EPW 4624   7.128   3.627   4.992
  980WAT      O 4625   7.452   4.555   5.141
  980WAT     H1 4626   7.492   4.546   5.218
  980WAT     H2 4627   7.369   4.539   5.159
  980WAT    EPW 4628   7.446   4.552   5.155
  981WAT      O 4629   7.491   4.028   6.417
  981WAT     H1 4630   7.444   4.093   6.451
  981WAT     H2 4631   7.435   3.988   6.363
  981WAT    EPW 4632   7.476   4.031   6.414
  982WAT      O 4633   7.200   4.468   5.204
  982WAT     H1 4634   7.198   4.447   5.289
  982WAT     H2 4635   7.202   4.390   5.164
  982WAT    EPW 4636   7.200   4.453   5.210
  983WAT      O 4637   7.475   4.301   5.024
  983WAT     H1 4638   7.394   4.273   5.039
  983WAT     H2 4639   7.476   4.381   5.060
  983WAT    EPW 4640   7.463   4.309   5.031
  984WAT      O 4641   7.438   3.328   6.251
  984WAT     H1 4642   7.355   3.316   6.278
  984WAT     H2 4643   7.482   3.265   6.292
  984WAT    EPW 4644   7.432   3.317   6.261
  985WAT      O 4645   7.639   3.832   6.572
  985WAT     H1 4646   7.607   3.763   6.530
  985WAT     H2 4647   7.601   3.900   6.532
  985WAT    EPW 4648   7.629   3.832   6.560
  986WAT      O 4649   7.701   3.119   5.092
  986WAT     H1 4650   7.711   3.135   5.006
  986WAT     H2 4651   7.614   3.121   5.103
  986WAT    EPW 4652   7.689   3.122   5.081
  987WAT      O 4653   7.445   4.836   6.587
  987WAT     H1 4654   7.460   4.820   6.672
  987WAT     H2 4655   7.496   4.778   6.546
  987WAT    EPW 4656   7.455   4.825   6.593
  988WAT      O 4657   7.185   3.305   6.366
  988WAT     H1 4658   7.129   3.242   6.342
  988WAT     H2 4659   7.141   3.379   6.350
  988WAT    EPW 4660   7.170   3.307   6.360
  989WAT      O 4661   7.201   4.690   6.730
  989WAT     H1 4662   7.269   4.729   6.766
  989WAT     H2 4663   7.157   4.755   6.692
  989WAT    EPW 4664   7.204   4.705   6.730
  990WAT      O 4665   7.072   3.663   5.669
  990WAT     H1 4666   7.029   3.687   5.741
  990WAT     H2 4667   7.109   3.587   5.690
  990WAT    EPW 4668   7.071   3.656   5.683
  991WAT      O 4669   7.031   4.454   6.450
  991WAT     H1 4670   6.980   4.516   6.484
  991WAT     H2 4671   7.112   4.485   6.462
  991WAT    EPW 4672   7.035   4.468   6.457
  992WAT      O 4673   7.341   4.795   5.374
  992WAT     H1 4674   7.334   4.851   5.308
  992WAT     H2 4675   7.425   4.772   5.374
  992WAT    EPW 4676   7.352   4.800   5.364
  993WAT      O 4677   7.650   3.914   5.344
  993WAT     H1 4678   7.648   3.963   5.272
  993WAT     H2 4679   7.733   3.890   5.349
  993WAT    EPW 4680   7.662   3.918   5.334
  994WAT      O 4681   7.573   3.359   6.576
  994WAT     H1 4682   7.604   3.318   6.506
  994WAT     H2 4683   7.491   3.328   6.584
  994WAT    EPW 4684   7.565   3.348   6.567
  995WAT      O 4685   7.248   4.703   5.981
  995WAT     H1 4686   7.235   4.626   5.941
  995WAT     H2 4687   7.209   4.760   5.928
  995WAT    EPW 4688   7.240   4.700   5.967
  996WAT      O 4689   7.006   4.941   6.333
  996WAT     H1 4690   7.017   4.917   6.416
  996WAT     H2 4691   7.034   4.872   6.288
  996WAT    EPW 4692   7.011   4.927   6.339
  997WAT      O 4693   6.909   4.270   3.599
  997WAT     H1 4694   6.839   4.264   3.652
  997WAT     H2 4695   6.924   4.188   3.575
  997WAT    EPW 4696   6.901   4.257   3.603
  998WAT      O 4697   6.917   3.621   3.246
  998WAT     H1 4698   6.855   3.675   3.217
  998WAT     H2 4699   6.884   3.542   3.234
  998WAT    EPW 4700   6.903   3.617   3.240
  999WAT      O 4701   7.204   4.217   3.199
  999WAT     H1 4702   7.181   4.174   3.127
  999WAT     H2 4703   7.220   4.154   3.257
  999WAT    EPW 4704   7.203   4.202   3.197
 1000WAT      O 4705   7.170   4.379   3.586
 1000WAT     H1 4706   7.224   4.339   3.642
 1000WAT     H2 4707   7.093   4.340   3.602
 1000WAT    EPW 4708   7.167   4.367   3.597
 1001WAT      O 4709   7.610   3.234   3.479
 1001WAT     H1 4710   7.645   3.296   3.428
 1001WAT     H2 4711   7.658   3.163   3.460
 1001WAT    EPW 4712   7.622   3.233   3.468
 1002WAT      O 4713   7.052   4.653   3.167
 1002WAT     H1 4714   7.104   4.662   3.098
 1002WAT     H2 4715   7.095   4.598   3.218
 1002WAT    EPW 4716   7.066   4.647   3.164
 1003WAT      O 4717   6.963   4.480   4.302
 1003WAT     H1 4718   6.992   4.462   4.382
 1003WAT     H2 4719   6.896   4.425   4.292
 1003WAT    EPW 4720   6.958   4.470   4.312
 1004WAT      O 4721   7.571   4.348   4.763
 1004WAT     H1 4722   7.551   4.328   4.845
 1004WAT     H2 4723   7.506   4.313   4.716
 1004WAT    EPW 4724   7.558   4.340   4.768
 1005WAT      O 4725   7.130   4.025   3.775
 1005WAT     H1 4726   7.087   4.025   3.699
 1005WAT     H2 4727   7.187   3.960   3.767
 1005WAT    EPW 4728   7.132   4.016   3.763
 1006WAT      O 4729   7.559   3.551   4.284
 1006WAT     H1 4730   7.630   3.527   4.239
 1006WAT     H2 4731   7.519   3.475   4.300
 1006WAT    EPW 4732   7.564   3.536   4.280
 1007WAT      O 4733   7.551   4.585   4.482
 1007WAT     H1 4734   7.582   4.647   4.429
 1007WAT     H2 4735   7.619   4.533   4.495
 1007WAT    EPW 4736   7.566   4.587   4.476
 1008WAT      O 4737   7.305   3.811   3.753
 1008WAT     H1 4738   7.367   3.753   3.772
 1008WAT     H2 4739   7.233   3.762   3.747
 1008WAT    EPW 4740   7.303   3.795   3.755
 1009WAT      O 4741   7.685   4.486   3.847
 1009WAT     H1 4742   7.737   4.434   3.893
 1009WAT     H2 4743   7.736   4.554   3.828
 1009WAT    EPW 4744   7.700   4.488   3.851
 1010WAT      O 4745   7.669   4.309   3.618
 1010WAT     H1 4746   7.675   4.349   3.696
 1010WAT     H2 4747   7.744   4.264   3.613
 1010WAT    EPW 4748   7.681   4.308   3.629
 1011WAT      O 4749   7.376   3.337   3.616
 1011WAT     H1 4750   7.336   3.392   3.561
 1011WAT     H2 4751   7.453   3.321   3.577
 1011WAT    EPW 4752   7.381   3.343   3.602
 1012WAT      O 4753   7.704   3.218   3.750
 1012WAT     H1 4754   7.702   3.297   3.789
 1012WAT     H2 4755   7.674   3.234   3.670
 1012WAT    EPW 4756   7.699   3.232   3.744
 1013WAT      O 4757   6.951   3.762   3.995
 1013WAT     H1 4758   6.943   3.849   4.003
 1013WAT     H2 4759   6.881   3.731   4.036
 1013WAT    EPW 4760   6.940   3.770   4.002
 1014WAT      O 4761   6.940   4.705   3.824
 1014WAT     H1 4762   6.875   4.753   3.791
 1014WAT     H2 4763   6.983   4.677   3.754
 1014WAT    EPW 4764   6.936   4.708   3.809
 1015WAT      O 4765   7.533   4.531   3.515
 1015WAT     H1 4766   7.482   4.536   3.585
 1015WAT     H2 4767   7.581   4.460   3.529
 1015WAT    EPW 4768   7.533   4.522   3.527
 1016WAT      O 4769   7.246   3.270   4.042
 1016WAT     H1 4770   7.188   3.211   4.016
 1016WAT     H2 4771   7.301   3.225   4.093
 1016WAT    EPW 4772   7.246   3.255   4.046
 1017WAT      O 4773   7.559   3.464   4.958
 1017WAT     H1 4774   7.572   3.431   4.879
 1017WAT     H2 4775   7.587   3.546   4.951
 1017WAT    EPW 4776   7.565   3.471   4.946
 1018WAT      O 4777   7.095   4.645   3.593
 1018WAT     H1 4778   7.135   4.569   3.608
 1018WAT     H2 4779   7.155   4.692   3.551
 1018WAT    EPW 4780   7.110   4.641   3.589
 1019WAT      O 4781   7.158   3.377   4.893
 1019WAT     H1 4782   7.079   3.343   4.876
 1019WAT     H2 4783   7.209   3.342   4.832
 1019WAT    EPW 4784   7.154   3.366   4.882
 1020WAT      O 4785   7.209   4.459   3.956
 1020WAT     H1 4786   7.260   4.463   3.885
 1020WAT     H2 4787   7.242   4.392   4.001
 1020WAT    EPW 4788   7.221   4.450   3.952
 1021WAT      O 4789   7.494   4.787   3.885
 1021WAT     H1 4790   7.570   4.788   3.842
 1021WAT     H2 4791   7.443   4.841   3.839
 1021WAT    EPW 4792   7.498   4.795   3.872
 1022WAT      O 4793   7.720   3.154   4.820
 1022WAT     H1 4794   7.751   3.102   4.758
 1022WAT     H2 4795   7.682   3.219   4.775
 1022WAT    EPW 4796   7.719   3.156   4.804
 1023WAT      O 4797   7.332   4.852   4.462
 1023WAT     H1 4798   7.370   4.816   4.532
 1023WAT     H2 4799   7.270   4.795   4.441
 1023WAT    EPW 4800   7.329   4.838   4.469
 1024WAT      O 4801   6.876   3.483   4.625
 1024WAT     H1 4802   6.869   3.560   4.665
 1024WAT     H2 4803   6.932   3.498   4.559
 1024WAT    EPW 4804   6.883   3.496   4.621
 1025WAT      O 4805   7.837   4.561   3.110
 1025WAT     H1 4806   7.846   4.625   3.169
 1025WAT     H2 4807   7.884   4.495   3.143
 1025WAT    EPW 4808   7.845   4.561   3.124
 1026WAT      O 4809   6.994   3.399   3.536
 1026WAT     H1 4810   6.964   3.318   3.523
 1026WAT     H2 4811   6.951   3.426   3.607
 1026WAT    EPW 4812   6.983   3.391   3.544
 1027WAT      O 4813   7.118   4.716   4.327
 1027WAT     H1 4814   7.066   4.646   4.325
 1027WAT     H2 4815   7.161   4.711   4.252
 1027WAT    EPW 4816   7.117   4.705   4.316
 1028WAT      O 4817   7.861   3.651   3.227
 1028WAT     H1 4818   7.820   3.580   3.256
 1028WAT     H2 4819   7.809   3.682   3.165
 1028WAT    EPW 4820   7.847   3.645   3.222
 1029WAT      O 4821   7.699   3.473   3.870
 1029WAT     H1 4822   7.762   3.527   3.844
 1029WAT     H2 4823   7.718   3.458   3.954
 1029WAT    EPW 4824   7.711   3.479   3.879
 1030WAT      O 4825   7.303   4.541   4.612
 1030WAT     H1 4826   7.379   4.571   4.581
 1030WAT     H2 4827   7.290   4.588   4.684
 1030WAT    EPW 4828   7.313   4.552   4.618
 1031WAT      O 4829   7.331   3.081   3.717
 1031WAT     H1 4830   7.343   3.164   3.694
 1031WAT     H2 4831   7.328   3.038   3.641
 1031WAT    EPW 4832   7.333   3.087   3.703
 1032WAT      O 4833   7.571   4.159   4.034
 1032WAT     H1 4834   7.584   4.147   4.120
 1032WAT     H2 4835   7.531   4.086   4.009
 1032WAT    EPW 4836   7.567   4.147   4.043
 1033WAT      O 4837   7.613   4.172   4.308
 1033WAT     H1 4838   7.566   4.246   4.311
 1033WAT     H2 4839   7.578   4.123   4.371
 1033WAT    EPW 4840   7.601   4.176   4.318
 1034WAT      O 4841   6.853   4.519   4.907
 1034WAT     H1 4842   6.910   4.565   4.953
 1034WAT     H2 4843   6.860   4.438   4.940
 1034WAT    EPW 4844   6.862   4.514   4.919
 1035WAT      O 4845   7.235   3.450   3.834
 1035WAT     H1 4846   7.270   3.404   3.769
 1035WAT     H2 4847   7.235   3.395   3.901
 1035WAT    EPW 4848   7.240   3.435   3.834
 1036WAT      O 4849   7.320   4.229   3.763
 1036WAT     H1 4850   7.373   4.184   3.711
 1036WAT     H2 4851   7.258   4.172   3.784
 1036WAT    EPW 4852   7.319   4.214   3.759
 1037WAT      O 4853   7.136   4.875   3.909
 1037WAT     H1 4854   7.068   4.828   3.881
 1037WAT     H2 4855   7.185   4.885   3.838
 1037WAT    EPW 4856   7.133   4.869   3.895
 1038WAT      O 4857   7.112   3.599   4.156
 1038WAT     H1 4858   7.196   3.621   4.145
 1038WAT     H2 4859   7.068   3.657   4.108
 1038WAT    EPW 4860   7.118   3.611   4.147
 1039WAT      O 4861   7.474   4.109   3.562
 1039WAT     H1 4862   7.530   4.175   3.569
 1039WAT     H2 4863   7.524   4.040   3.542
 1039WAT    EPW 4864   7.489   4.108   3.560
 1040WAT      O 4865   6.956   4.332   3.960
 1040WAT     H1 4866   6.901   4.395   3.983
 1040WAT     H2 4867   7.033   4.372   3.951
 1040WAT    EPW 4868   6.959   4.347   3.962
 1041WAT      O 4869   7.660   3.722   4.932
 1041WAT     H1 4870   7.598   3.770   4.969
 1041WAT     H2 4871   7.667   3.755   4.851
 1041WAT    EPW 4872   7.652   3.734   4.925
 1042WAT      O 4873   7.008   4.017   3.526
 1042WAT     H1 4874   6.984   3.934   3.517
 1042WAT     H2 4875   7.081   4.023   3.480
 1042WAT    EPW 4876   7.015   4.006   3.518
 1043WAT      O 4877   6.903   4.499   3.445
 1043WAT     H1 4878   6.961   4.550   3.486
 1043WAT     H2 4879   6.895   4.431   3.499
 1043WAT    EPW 4880   6.910   4.497   3.459
 1044WAT      O 4881   7.315   4.259   4.114
 1044WAT     H1 4882   7.354   4.309   4.174
 1044WAT     H2 4883   7.381   4.224   4.070
 1044WAT    EPW 4884   7.330   4.261   4.117
 1045WAT      O 4885   6.924   4.316   3.228
 1045WAT     H1 4886   7.002   4.278   3.226
 1045WAT     H2 4887   6.932   4.376   3.291
 1045WAT    EPW 4888   6.937   4.319   3.237
 1046WAT      O 4889   6.959   4.059   3.988
 1046WAT     H1 4890   7.012   4.042   3.920
 1046WAT     H2 4891   6.952   4.145   3.989
 1046WAT    EPW 4892   6.966   4.069   3.978
 1047WAT      O 4893   7.683   3.444   3.312
 1047WAT     H1 4894   7.658   3.433   3.229
 1047WAT     H2 4895   7.638   3.514   3.337
 1047WAT    EPW 4896   7.673   3.453   3.303
 1048WAT      O 4897   7.411   4.546   3.766
 1048WAT     H1 4898   7.423   4.624   3.804
 1048WAT     H2 4899   7.477   4.498   3.798
 1048WAT    EPW 4900   7.423   4.550   3.776
 1049WAT      O 4901   7.244   3.826   4.812
 1049WAT     H1 4902   7.202   3.764   4.857
 1049WAT     H2 4903   7.244   3.796   4.731
 1049WAT    EPW 4904   7.238   3.813   4.807
 1050WAT      O 4905   7.274   3.748   3.312
 1050WAT     H1 4906   7.254   3.688   3.372
 1050WAT     H2 4907   7.232   3.720   3.241
 1050WAT    EPW 4908   7.265   3.735   3.310
 1051WAT      O 4909   7.413   3.940   3.983
 1051WAT     H1 4910   7.380   3.911   3.908
 1051WAT     H2 4911   7.407   3.871   4.036
 1051WAT    EPW 4912   7.407   3.926   3.980
 1052WAT      O 4913   7.304   3.892   4.336
 1052WAT     H1 4914   7.328   3.838   4.272
 1052WAT     H2 4915   7.247   3.946   4.297
 1052WAT    EPW 4916   7.299   3.892   4.321
 1053WAT      O 4917   7.683   4.754   4.299
 1053WAT     H1 4918   7.666   4.699   4.233
 1053WAT     H2 4919   7.674   4.833   4.264
 1053WAT    EPW 4920   7.680   4.757   4.284
 1054WAT      O 4921   7.123   4.064   4.880
 1054WAT     H1 4922   7.111   4.108   4.805
 1054WAT     H2 4923   7.168   3.994   4.855
 1054WAT    EPW 4924   7.128   4.061   4.865
 1055WAT      O 4925   7.716   4.588   4.749
 1055WAT     H1 4926   7.760   4.591   4.824
 1055WAT     H2 4927   7.664   4.518   4.758
 1055WAT    EPW 4928   7.715   4.578   4.761
 1056WAT      O 4929   7.757   3.410   4.136
 1056WAT     H1 4930   7.838   3.402   4.166
 1056WAT     H2 4931   7.723   3.330   4.144
 1056WAT    EPW 4932   7.764   3.397   4.141
 1057WAT      O 4933   7.661   4.775   3.485
 1057WAT     H1 4934   7.628   4.694   3.491
 1057WAT     H2 4935   7.727   4.766   3.429
 1057WAT    EPW 4936   7.666   4.762   3.478
 1058WAT      O 4937   7.435   3.144   3.277
 1058WAT     H1 4938   7.481   3.171   3.346
 1058WAT     H2 4939   7.395   3.216   3.250
 1058WAT    EPW 4940   7.436   3.158   3.284
 1059WAT      O 4941   7.864   4.767   3.295
 1059WAT     H1 4942   7.945   4.799   3.304
 1059WAT     H2 4943   7.820   4.833   3.257
 1059WAT    EPW 4944   7.869   4.782   3.291
 1060WAT      O 4945   7.253   4.025   3.395
 1060WAT     H1 4946   7.267   3.941   3.379
 1060WAT     H2 4947   7.320   4.048   3.446
 1060WAT    EPW 4948   7.265   4.016   3.400
 1061WAT      O 4949   6.864   3.146   3.508
 1061WAT     H1 4950   6.870   3.090   3.441
 1061WAT     H2 4951   6.831   3.098   3.572
 1061WAT    EPW 4952   6.860   3.130   3.507
 1062WAT      O 4953   7.903   3.821   3.441
 1062WAT     H1 4954   7.988   3.817   3.460
 1062WAT     H2 4955   7.894   3.768   3.372
 1062WAT    EPW 4956   7.914   3.813   3.434
 1063WAT      O 4957   7.335   3.388   3.201
 1063WAT     H1 4958   7.275   3.384   3.137
 1063WAT     H2 4959   7.404   3.423   3.161
 1063WAT    EPW 4960   7.336   3.393   3.186
 1064WAT      O 4961   7.812   4.298   3.996
 1064WAT     H1 4962   7.743   4.245   4.002
 1064WAT     H2 4963   7.841   4.303   4.078
 1064WAT    EPW 4964   7.806   4.291   4.009
 1065WAT      O 4965   7.427   4.781   3.077
 1065WAT     H1 4966   7.447   4.710   3.124
 1065WAT     H2 4967   7.420   4.844   3.137
 1065WAT    EPW 4968   7.429   4.780   3.093
 1066WAT      O 4969   7.130   4.072   4.210
 1066WAT     H1 4970   7.186   4.134   4.184
 1066WAT     H2 4971   7.077   4.062   4.142
 1066WAT    EPW 4972   7.131   4.080   4.196
 1067WAT      O 4973   7.453   3.610   3.881
 1067WAT     H1 4974   7.527   3.564   3.871
 1067WAT     H2 4975   7.391   3.551   3.865
 1067WAT    EPW 4976   7.455   3.595   3.877
 1068WAT      O 4977   6.950   3.743   3.510
 1068WAT     H1 4978   6.983   3.704   3.580
 1068WAT     H2 4979   6.959   3.683   3.447
 1068WAT    EPW 4980   6.956   3.729   3.511
 1069WAT      O 4981   7.443   3.878   3.117
 1069WAT     H1 4982   7.395   3.841   3.180
 1069WAT     H2 4983   7.392   3.872   3.046
 1069WAT    EPW 4984   7.428   3.872   3.116
 1070WAT      O 4985   7.090   4.193   4.639
 1070WAT     H1 4986   7.054   4.142   4.577
 1070WAT     H2 4987   7.060   4.272   4.620
 1070WAT    EPW 4988   7.080   4.197   4.627
 1071WAT      O 4989   7.542   3.672   3.371
 1071WAT     H1 4990   7.576   3.747   3.400
 1071WAT     H2 4991   7.458   3.690   3.358
 1071WAT    EPW 4992   7.535   3.686   3.374
 1072WAT      O 4993   6.939   3.390   4.029
 1072WAT     H1 4994   6.926   3.423   3.949
 1072WAT     H2 4995   7.009   3.434   4.058
 1072WAT    EPW 4996   6.948   3.401   4.021
 1073WAT      O 4997   7.476   4.416   4.275
 1073WAT     H1 4998   7.481   4.467   4.346
 1073WAT     H2 4999   7.506   4.467   4.212
 1073WAT    EPW 5000   7.481   4.431   4.276
 1074WAT      O 5001   7.355   4.264   4.602
 1074WAT     H1 5002   7.276   4.231   4.617
 1074WAT     H2 5003   7.341   4.350   4.595
 1074WAT    EPW 5004   7.342   4.272   4.603
 1075WAT      O 5005   7.859   4.297   4.276
 1075WAT     H1 5006   7.857   4.349   4.346
 1075WAT     H2 5007   7.791   4.244   4.287
 1075WAT    EPW 5008   7.849   4.296   4.288
 1076WAT      O 5009   7.504   3.607   4.553
 1076WAT     H1 5010   7.526   3.533   4.594
 1076WAT     H2 5011   7.531   3.593   4.471
 1076WAT    EPW 5012   7.511   3.594   4.547
 1077WAT      O 5013   7.735   4.783   3.753
 1077WAT     H1 5014   7.746   4.868   3.765
 1077WAT     H2 5015   7.719   4.776   3.667
 1077WAT    EPW 5016   7.734   4.794   3.742
 1078WAT      O 5017   7.607   3.144   4.518
 1078WAT     H1 5018   7.677   3.092   4.518
 1078WAT     H2 5019   7.549   3.100   4.566
 1078WAT    EPW 5020   7.609   3.130   4.525
 1079WAT      O 5021   7.576   4.597   4.087
 1079WAT     H1 5022   7.525   4.657   4.048
 1079WAT     H2 5023   7.614   4.557   4.020
 1079WAT    EPW 5024   7.574   4.600   4.071
 1080WAT      O 5025   7.607   4.078   3.222
 1080WAT     H1 5026   7.559   4.019   3.178
 1080WAT     H2 5027   7.575   4.155   3.195
 1080WAT    EPW 5028   7.595   4.081   3.212
 1081WAT      O 5029   7.381   3.698   4.132
 1081WAT     H1 5030   7.401   3.668   4.053
 1081WAT     H2 5031   7.436   3.656   4.185
 1081WAT    EPW 5032   7.392   3.687   4.128
 1082WAT      O 5033   7.804   4.793   4.566
 1082WAT     H1 5034   7.795   4.766   4.484
 1082WAT     H2 5035   7.784   4.723   4.613
 1082WAT    EPW 5036   7.800   4.779   4.561
 1083WAT      O 5037   7.660   3.146   4.137
 1083WAT     H1 5038   7.575   3.136   4.150
 1083WAT     H2 5039   7.672   3.115   4.056
 1083WAT    EPW 5040   7.649   3.140   4.127
 1084WAT      O 5041   7.767   4.412   4.529
 1084WAT     H1 5042   7.731   4.341   4.564
 1084WAT     H2 5043   7.791   4.459   4.599
 1084WAT    EPW 5044   7.765   4.408   4.544
 1085WAT      O 5045   6.915   3.270   4.802
 1085WAT     H1 5046   6.905   3.338   4.749
 1085WAT     H2 5047   6.840   3.225   4.792
 1085WAT    EPW 5048   6.902   3.273   4.793
 1086WAT      O 5049   7.361   4.942   4.193
 1086WAT     H1 5050   7.356   4.926   4.279
 1086WAT     H2 5051   7.341   4.865   4.157
 1086WAT    EPW 5052   7.357   4.928   4.200
 1087WAT      O 5053   7.236   3.502   3.442
 1087WAT     H1 5054   7.254   3.462   3.366
 1087WAT     H2 5055   7.157   3.470   3.463
 1087WAT    EPW 5056   7.227   3.491   3.434
 1088WAT      O 5057   7.034   4.890   4.702
 1088WAT     H1 5058   6.978   4.824   4.691
 1088WAT     H2 5059   6.983   4.954   4.732
 1088WAT    EPW 5060   7.018   4.890   4.705
 1089WAT      O 5061   7.249   3.721   4.550
 1089WAT     H1 5062   7.259   3.781   4.488
 1089WAT     H2 5063   7.327   3.681   4.553
 1089WAT    EPW 5064   7.262   3.724   4.542
 1090WAT      O 5065   7.067   3.545   4.428
 1090WAT     H1 5066   7.075   3.561   4.343
 1090WAT     H2 5067   7.120   3.604   4.466
 1090WAT    EPW 5068   7.076   3.556   4.421
 1091WAT      O 5069   7.315   3.250   4.703
 1091WAT     H1 5070   7.331   3.165   4.701
 1091WAT     H2 5071   7.274   3.265   4.627
 1091WAT    EPW 5072   7.311   3.240   4.691
 1092WAT      O 5073   6.972   4.039   4.440
 1092WAT     H1 5074   7.016   4.058   4.367
 1092WAT     H2 5075   6.940   3.960   4.424
 1092WAT    EPW 5076   6.974   4.030   4.426
 1093WAT      O 5077   7.140   3.649   3.084
 1093WAT     H1 5078   7.065   3.642   3.129
 1093WAT     H2 5079   7.150   3.570   3.048
 1093WAT    EPW 5080   7.131   3.636   3.085
 1094WAT      O 5081   7.448   4.557   3.249
 1094WAT     H1 5082   7.491   4.545   3.324
 1094WAT     H2 5083   7.365   4.539   3.269
 1094WAT    EPW 5084   7.442   4.552   3.263
 1095WAT      O 5085   7.485   4.028   4.507
 1095WAT     H1 5086   7.440   4.096   4.540
 1095WAT     H2 5087   7.426   3.987   4.457
 1095WAT    EPW 5088   7.469   4.032   4.504
 1096WAT      O 5089   7.199   4.466   3.318
 1096WAT     H1 5090   7.192   4.444   3.403
 1096WAT     H2 5091   7.200   4.389   3.278
 1096WAT    EPW 5092   7.198   4.451   3.325
 1097WAT      O 5093   7.469   4.305   3.126
 1097WAT     H1 5094   7.389   4.276   3.143
 1097WAT     H2 5095   7.471   4.384   3.162
 1097WAT    EPW 5096   7.457   4.312   3.134
 1098WAT      O 5097   7.452   3.313   4.356
 1098WAT     H1 5098   7.369   3.301   4.381
 1098WAT     H2 5099   7.495   3.248   4.395
 1098WAT    EPW 5100   7.446   3.302   4.365
 1099WAT      O 5101   7.620   3.830   4.673
 1099WAT     H1 5102   7.586   3.761   4.632
 1099WAT     H2 5103   7.587   3.898   4.630
 1099WAT    EPW 5104   7.610   3.830   4.661
 1100WAT      O 5105   7.708   3.128   3.190
 1100WAT     H1 5106   7.724   3.145   3.106
 1100WAT     H2 5107   7.621   3.132   3.196
 1100WAT    EPW 5108   7.698   3.131   3.178
 1101WAT      O 5109   7.487   4.783   4.702
 1101WAT     H1 5110   7.479   4.789   4.789
 1101WAT     H2 5111   7.549   4.722   4.692
 1101WAT    EPW 5112   7.495   4.775   4.714
 1102WAT      O 5113   7.194   3.301   4.461
 1102WAT     H1 5114   7.136   3.240   4.440
 1102WAT     H2 5115   7.151   3.376   4.447
 1102WAT    EPW 5116   7.179   3.303   4.456
 1103WAT      O 5117   7.203   4.697   4.832
 1103WAT     H1 5118   7.270   4.734   4.873
 1103WAT     H2 5119   7.162   4.765   4.795
 1103WAT    EPW 5120   7.207   4.713   4.833
 1104WAT      O 5121   7.070   3.665   3.754
 1104WAT     H1 5122   7.025   3.690   3.825
 1104WAT     H2 5123   7.105   3.589   3.778
 1104WAT    EPW 5124   7.069   3.658   3.768
 1105WAT      O 5125   7.042   4.459   4.565
 1105WAT     H1 5126   6.991   4.522   4.596
 1105WAT     H2 5127   7.123   4.491   4.575
 1105WAT    EPW 5128   7.046   4.473   4.571
 1106WAT      O 5129   7.318   4.783   3.467
 1106WAT     H1 5130   7.324   4.843   3.404
 1106WAT     H2 5131   7.392   4.738   3.459
 1106WAT    EPW 5132   7.330   4.785   3.456
 1107WAT      O 5133   7.644   3.921   3.447
 1107WAT     H1 5134   7.644   3.971   3.376
 1107WAT     H2 5135   7.728   3.897   3.455
 1107WAT    EPW 5136   7.657   3.925   3.438
 1108WAT      O 5137   7.565   3.363   4.687
 1108WAT     H1 5138   7.594   3.317   4.618
 1108WAT     H2 5139   7.483   3.335   4.697
 1108WAT    EPW 5140   7.557   3.352   4.678
 1109WAT      O 5141   7.253   4.701   4.086
 1109WAT     H1 5142   7.242   4.621   4.053
 1109WAT     H2 5143   7.215   4.753   4.028
 1109WAT    EPW 5144   7.246   4.697   4.073
 1110WAT      O 5145   7.005   4.951   4.427
 1110WAT     H1 5146   7.017   4.932   4.511
 1110WAT     H2 5147   7.035   4.880   4.386
 1110WAT    EPW 5148   7.011   4.938   4.433
 1111WAT      O 5149   6.940   4.266   1.698
 1111WAT     H1 5150   6.871   4.263   1.751
 1111WAT     H2 5151   6.952   4.183   1.675
 1111WAT    EPW 5152   6.932   4.253   1.702
 1112WAT      O 5153   6.924   3.596   1.353
 1112WAT     H1 5154   6.860   3.648   1.324
 1112WAT     H2 5155   6.892   3.515   1.341
 1112WAT    EPW 5156   6.910   3.591   1.347
 1113WAT      O 5157   7.221   4.213   1.304
 1113WAT     H1 5158   7.195   4.165   1.235
 1113WAT     H2 5159   7.239   4.153   1.365
 1113WAT    EPW 5160   7.220   4.197   1.303
 1114WAT      O 5161   7.195   4.383   1.680
 1114WAT     H1 5162   7.250   4.347   1.737
 1114WAT     H2 5163   7.120   4.341   1.696
 1114WAT    EPW 5164   7.192   4.371   1.691
 1115WAT      O 5165   7.616   3.225   1.594
 1115WAT     H1 5166   7.657   3.279   1.540
 1115WAT     H2 5167   7.661   3.150   1.585
 1115WAT    EPW 5168   7.629   3.222   1.584
 1116WAT      O 5169   7.053   4.645   1.265
 1116WAT     H1 5170   7.107   4.660   1.198
 1116WAT     H2 5171   7.100   4.592   1.317
 1116WAT    EPW 5172   7.068   4.639   1.263
 1117WAT      O 5173   6.915   4.518   2.392
 1117WAT     H1 5174   6.947   4.485   2.466
 1117WAT     H2 5175   6.844   4.469   2.376
 1117WAT    EPW 5176   6.909   4.506   2.400
 1118WAT      O 5177   7.555   4.355   2.863
 1118WAT     H1 5178   7.537   4.332   2.945
 1118WAT     H2 5179   7.489   4.321   2.817
 1118WAT    EPW 5180   7.543   4.346   2.868
 1119WAT      O 5181   7.154   4.043   1.879
 1119WAT     H1 5182   7.110   4.038   1.805
 1119WAT     H2 5183   7.208   3.975   1.877
 1119WAT    EPW 5184   7.155   4.032   1.868
 1120WAT      O 5185   7.586   3.565   2.386
 1120WAT     H1 5186   7.655   3.543   2.338
 1120WAT     H2 5187   7.545   3.489   2.399
 1120WAT    EPW 5188   7.590   3.550   2.381
 1121WAT      O 5189   7.552   4.589   2.590
 1121WAT     H1 5190   7.585   4.645   2.533
 1121WAT     H2 5191   7.618   4.535   2.607
 1121WAT    EPW 5192   7.566   4.589   2.584
 1122WAT      O 5193   7.309   3.814   1.865
 1122WAT     H1 5194   7.371   3.755   1.882
 1122WAT     H2 5195   7.235   3.767   1.864
 1122WAT    EPW 5196   7.307   3.798   1.868
 1123WAT      O 5197   7.705   4.495   1.925
 1123WAT     H1 5198   7.756   4.447   1.977
 1123WAT     H2 5199   7.749   4.570   1.917
 1123WAT    EPW 5200   7.719   4.499   1.932
 1124WAT      O 5201   7.676   4.343   1.687
 1124WAT     H1 5202   7.687   4.378   1.766
 1124WAT     H2 5203   7.755   4.312   1.667
 1124WAT    EPW 5204   7.689   4.344   1.695
 1125WAT      O 5205   7.381   3.328   1.720
 1125WAT     H1 5206   7.344   3.385   1.665
 1125WAT     H2 5207   7.458   3.312   1.683
 1125WAT    EPW 5208   7.387   3.334   1.707
 1126WAT      O 5209   7.714   3.233   1.866
 1126WAT     H1 5210   7.714   3.315   1.897
 1126WAT     H2 5211   7.683   3.242   1.785
 1126WAT    EPW 5212   7.710   3.246   1.858
 1127WAT      O 5213   6.966   3.767   2.123
 1127WAT     H1 5214   6.959   3.853   2.127
 1127WAT     H2 5215   6.899   3.738   2.172
 1127WAT    EPW 5216   6.955   3.775   2.131
 1128WAT      O 5217   6.964   4.723   1.898
 1128WAT     H1 5218   6.897   4.768   1.866
 1128WAT     H2 5219   7.005   4.693   1.828
 1128WAT    EPW 5220   6.960   4.725   1.883
 1129WAT      O 5221   7.539   4.575   1.610
 1129WAT     H1 5222   7.491   4.576   1.682
 1129WAT     H2 5223   7.587   4.502   1.618
 1129WAT    EPW 5224   7.539   4.564   1.622
 1130WAT      O 5225   7.184   3.278   2.137
 1130WAT     H1 5226   7.160   3.205   2.096
 1130WAT     H2 5227   7.248   3.251   2.190
 1130WAT    EPW 5228   7.190   3.263   2.139
 1131WAT      O 5229   7.566   3.468   3.054
 1131WAT     H1 5230   7.583   3.434   2.975
 1131WAT     H2 5231   7.593   3.551   3.046
 1131WAT    EPW 5232   7.572   3.475   3.041
 1132WAT      O 5233   7.109   4.647   1.673
 1132WAT     H1 5234   7.153   4.574   1.694
 1132WAT     H2 5235   7.168   4.695   1.632
 1132WAT    EPW 5236   7.124   4.643   1.670
 1133WAT      O 5237   7.164   3.384   2.985
 1133WAT     H1 5238   7.086   3.350   2.967
 1133WAT     H2 5239   7.217   3.346   2.926
 1133WAT    EPW 5240   7.160   3.374   2.973
 1134WAT      O 5241   7.205   4.473   2.048
 1134WAT     H1 5242   7.255   4.482   1.977
 1134WAT     H2 5243   7.244   4.407   2.091
 1134WAT    EPW 5244   7.218   4.464   2.044
 1135WAT      O 5245   7.514   4.787   1.986
 1135WAT     H1 5246   7.592   4.787   1.947
 1135WAT     H2 5247   7.465   4.838   1.935
 1135WAT    EPW 5248   7.518   4.794   1.973
 1136WAT      O 5249   7.742   3.167   2.919
 1136WAT     H1 5250   7.760   3.108   2.858
 1136WAT     H2 5251   7.700   3.230   2.875
 1136WAT    EPW 5252   7.739   3.168   2.904
 1137WAT      O 5253   7.304   4.856   2.585
 1137WAT     H1 5254   7.354   4.817   2.645
 1137WAT     H2 5255   7.247   4.794   2.562
 1137WAT    EPW 5256   7.303   4.841   2.590
 1138WAT      O 5257   6.870   3.505   2.738
 1138WAT     H1 5258   6.865   3.584   2.776
 1138WAT     H2 5259   6.931   3.516   2.676
 1138WAT    EPW 5260   6.878   3.518   2.735
 1139WAT      O 5261   7.887   4.595   1.172
 1139WAT     H1 5262   7.887   4.650   1.239
 1139WAT     H2 5263   7.954   4.542   1.188
 1139WAT    EPW 5264   7.897   4.596   1.184
 1140WAT      O 5265   7.001   3.411   1.639
 1140WAT     H1 5266   6.980   3.329   1.617
 1140WAT     H2 5267   6.955   3.425   1.711
 1140WAT    EPW 5268   6.991   3.401   1.646
 1141WAT      O 5269   7.096   4.729   2.427
 1141WAT     H1 5270   7.036   4.666   2.422
 1141WAT     H2 5271   7.140   4.721   2.352
 1141WAT    EPW 5272   7.094   4.719   2.415
 1142WAT      O 5273   7.866   3.641   1.339
 1142WAT     H1 5274   7.824   3.568   1.364
 1142WAT     H2 5275   7.814   3.673   1.276
 1142WAT    EPW 5276   7.852   3.635   1.333
 1143WAT      O 5277   7.718   3.500   1.959
 1143WAT     H1 5278   7.769   3.550   1.909
 1143WAT     H2 5279   7.750   3.511   2.039
 1143WAT    EPW 5280   7.730   3.509   1.964
 1144WAT      O 5281   7.291   4.548   2.698
 1144WAT     H1 5282   7.370   4.574   2.674
 1144WAT     H2 5283   7.279   4.588   2.775
 1144WAT    EPW 5284   7.301   4.558   2.706
 1145WAT      O 5285   7.344   3.067   1.811
 1145WAT     H1 5286   7.353   3.150   1.787
 1145WAT     H2 5287   7.340   3.024   1.735
 1145WAT    EPW 5288   7.344   3.073   1.796
 1146WAT      O 5289   7.581   4.177   2.134
 1146WAT     H1 5290   7.590   4.163   2.219
 1146WAT     H2 5291   7.543   4.104   2.105
 1146WAT    EPW 5292   7.577   4.164   2.142
 1147WAT      O 5293   7.609   4.178   2.409
 1147WAT     H1 5294   7.563   4.252   2.414
 1147WAT     H2 5295   7.579   4.131   2.476
 1147WAT    EPW 5296   7.598   4.182   2.420
 1148WAT      O 5297   6.856   4.514   3.031
 1148WAT     H1 5298   6.915   4.562   3.074
 1148WAT     H2 5299   6.863   4.435   3.068
 1148WAT    EPW 5300   6.866   4.509   3.043
 1149WAT      O 5301   7.249   3.455   1.936
 1149WAT     H1 5302   7.281   3.404   1.873
 1149WAT     H2 5303   7.230   3.399   2.000
 1149WAT    EPW 5304   7.251   3.439   1.936
 1150WAT      O 5305   7.349   4.247   1.866
 1150WAT     H1 5306   7.401   4.201   1.814
 1150WAT     H2 5307   7.286   4.191   1.889
 1150WAT    EPW 5308   7.347   4.232   1.862
 1151WAT      O 5309   7.156   4.888   1.995
 1151WAT     H1 5310   7.090   4.842   1.962
 1151WAT     H2 5311   7.212   4.894   1.928
 1151WAT    EPW 5312   7.155   4.882   1.980
 1152WAT      O 5313   7.147   3.636   2.298
 1152WAT     H1 5314   7.228   3.657   2.271
 1152WAT     H2 5315   7.095   3.672   2.238
 1152WAT    EPW 5316   7.152   3.645   2.285
 1153WAT      O 5317   7.493   4.120   1.664
 1153WAT     H1 5318   7.549   4.187   1.658
 1153WAT     H2 5319   7.544   4.050   1.650
 1153WAT    EPW 5320   7.509   4.119   1.661
 1154WAT      O 5321   6.956   4.341   2.060
 1154WAT     H1 5322   6.899   4.406   2.075
 1154WAT     H2 5323   7.032   4.383   2.050
 1154WAT    EPW 5324   6.958   4.357   2.061
 1155WAT      O 5325   7.663   3.728   3.035
 1155WAT     H1 5326   7.600   3.776   3.073
 1155WAT     H2 5327   7.672   3.765   2.956
 1155WAT    EPW 5328   7.655   3.741   3.029
 1156WAT      O 5329   7.031   4.009   1.633
 1156WAT     H1 5330   7.011   3.924   1.626
 1156WAT     H2 5331   7.105   4.016   1.587
 1156WAT    EPW 5332   7.039   3.997   1.625
 1157WAT      O 5333   6.924   4.487   1.535
 1157WAT     H1 5334   6.983   4.540   1.571
 1157WAT     H2 5335   6.921   4.420   1.591
 1157WAT    EPW 5336   6.932   4.485   1.549
 1158WAT      O 5337   7.321   4.275   2.204
 1158WAT     H1 5338   7.357   4.322   2.268
 1158WAT     H2 5339   7.390   4.241   2.162
 1158WAT    EPW 5340   7.337   4.277   2.207
 1159WAT      O 5341   6.936   4.304   1.320
 1159WAT     H1 5342   7.015   4.265   1.319
 1159WAT     H2 5343   6.945   4.365   1.382
 1159WAT    EPW 5344   6.949   4.307   1.329
 1160WAT      O 5345   6.981   4.068   2.093
 1160WAT     H1 5346   7.034   4.053   2.025
 1160WAT     H2 5347   6.972   4.155   2.093
 1160WAT    EPW 5348   6.987   4.079   2.083
 1161WAT      O 5349   7.688   3.432   1.417
 1161WAT     H1 5350   7.663   3.421   1.334
 1161WAT     H2 5351   7.643   3.502   1.443
 1161WAT    EPW 5352   7.678   3.441   1.408
 1162WAT      O 5353   7.408   4.557   1.857
 1162WAT     H1 5354   7.438   4.625   1.903
 1162WAT     H2 5355   7.457   4.490   1.885
 1162WAT    EPW 5356   7.420   4.557   1.868
 1163WAT      O 5357   7.249   3.843   2.916
 1163WAT     H1 5358   7.207   3.780   2.960
 1163WAT     H2 5359   7.261   3.809   2.837
 1163WAT    EPW 5360   7.245   3.828   2.911
 1164WAT      O 5361   7.283   3.745   1.416
 1164WAT     H1 5362   7.262   3.687   1.478
 1164WAT     H2 5363   7.241   3.715   1.346
 1164WAT    EPW 5364   7.274   3.732   1.415
 1165WAT      O 5365   7.431   3.953   2.080
 1165WAT     H1 5366   7.395   3.918   2.009
 1165WAT     H2 5367   7.429   3.888   2.138
 1165WAT    EPW 5368   7.426   3.938   2.078
 1166WAT      O 5369   7.321   3.899   2.446
 1166WAT     H1 5370   7.349   3.848   2.382
 1166WAT     H2 5371   7.264   3.953   2.406
 1166WAT    EPW 5372   7.316   3.900   2.431
 1167WAT      O 5373   7.664   4.735   2.385
 1167WAT     H1 5374   7.655   4.679   2.319
 1167WAT     H2 5375   7.651   4.813   2.348
 1167WAT    EPW 5376   7.661   4.738   2.370
 1168WAT      O 5377   7.125   4.082   2.974
 1168WAT     H1 5378   7.109   4.124   2.898
 1168WAT     H2 5379   7.170   4.012   2.949
 1168WAT    EPW 5380   7.129   4.078   2.959
 1169WAT      O 5381   7.710   4.589   2.867
 1169WAT     H1 5382   7.750   4.585   2.944
 1169WAT     H2 5383   7.654   4.521   2.870
 1169WAT    EPW 5384   7.707   4.578   2.879
 1170WAT      O 5385   7.821   3.540   2.220
 1170WAT     H1 5386   7.856   3.618   2.235
 1170WAT     H2 5387   7.883   3.484   2.244
 1170WAT    EPW 5388   7.835   3.543   2.226
 1171WAT      O 5389   7.711   4.799   1.592
 1171WAT     H1 5390   7.661   4.728   1.589
 1171WAT     H2 5391   7.773   4.783   1.532
 1171WAT    EPW 5392   7.713   4.786   1.582
 1172WAT      O 5393   7.448   3.132   1.388
 1172WAT     H1 5394   7.495   3.158   1.457
 1172WAT     H2 5395   7.407   3.204   1.362
 1172WAT    EPW 5396   7.449   3.146   1.395
 1173WAT      O 5397   7.897   4.778   1.383
 1173WAT     H1 5398   7.978   4.810   1.389
 1173WAT     H2 5399   7.852   4.843   1.346
 1173WAT    EPW 5400   7.902   4.793   1.378
 1174WAT      O 5401   7.274   4.026   1.502
 1174WAT     H1 5402   7.289   3.941   1.485
 1174WAT     H2 5403   7.342   4.049   1.551
 1174WAT    EPW 5404   7.286   4.017   1.507
 1175WAT      O 5405   6.922   3.147   1.572
 1175WAT     H1 5406   6.919   3.094   1.503
 1175WAT     H2 5407   6.894   3.096   1.637
 1175WAT    EPW 5408   6.917   3.132   1.571
 1176WAT      O 5409   7.904   3.801   1.561
 1176WAT     H1 5410   7.990   3.814   1.566
 1176WAT     H2 5411   7.895   3.750   1.490
 1176WAT    EPW 5412   7.915   3.796   1.551
 1177WAT      O 5413   7.342   3.374   1.308
 1177WAT     H1 5414   7.281   3.368   1.246
 1177WAT     H2 5415   7.409   3.412   1.268
 1177WAT    EPW 5416   7.343   3.379   1.293
 1178WAT      O 5417   7.818   4.324   2.106
 1178WAT     H1 5418   7.749   4.270   2.109
 1178WAT     H2 5419   7.843   4.329   2.190
 1178WAT    EPW 5420   7.811   4.317   2.119
 1179WAT      O 5421   7.441   4.791   1.173
 1179WAT     H1 5422   7.461   4.718   1.216
 1179WAT     H2 5423   7.441   4.852   1.235
 1179WAT    EPW 5424   7.444   4.789   1.189
 1180WAT      O 5425   7.154   4.079   2.311
 1180WAT     H1 5426   7.208   4.142   2.283
 1180WAT     H2 5427   7.101   4.066   2.243
 1180WAT    EPW 5428   7.154   4.086   2.297
 1181WAT      O 5429   7.464   3.616   1.988
 1181WAT     H1 5430   7.539   3.574   1.972
 1181WAT     H2 5431   7.403   3.556   1.973
 1181WAT    EPW 5432   7.466   3.601   1.984
 1182WAT      O 5433   6.978   3.731   1.620
 1182WAT     H1 5434   7.002   3.700   1.698
 1182WAT     H2 5435   6.980   3.660   1.569
 1182WAT    EPW 5436   6.981   3.716   1.624
 1183WAT      O 5437   7.453   3.876   1.227
 1183WAT     H1 5438   7.406   3.837   1.290
 1183WAT     H2 5439   7.403   3.869   1.156
 1183WAT    EPW 5440   7.439   3.869   1.226
 1184WAT      O 5441   7.075   4.206   2.731
 1184WAT     H1 5442   7.040   4.158   2.666
 1184WAT     H2 5443   7.047   4.287   2.713
 1184WAT    EPW 5444   7.066   4.211   2.719
 1185WAT      O 5445   7.550   3.662   1.478
 1185WAT     H1 5446   7.582   3.737   1.509
 1185WAT     H2 5447   7.466   3.680   1.465
 1185WAT    EPW 5448   7.542   3.676   1.481
 1186WAT      O 5449   6.922   3.402   2.137
 1186WAT     H1 5450   6.905   3.408   2.052
 1186WAT     H2 5451   7.003   3.370   2.140
 1186WAT    EPW 5452   6.932   3.398   2.125
 1187WAT      O 5453   7.475   4.422   2.381
 1187WAT     H1 5454   7.485   4.475   2.449
 1187WAT     H2 5455   7.507   4.468   2.314
 1187WAT    EPW 5456   7.482   4.436   2.381
 1188WAT      O 5457   7.343   4.270   2.698
 1188WAT     H1 5458   7.263   4.239   2.712
 1188WAT     H2 5459   7.330   4.356   2.686
 1188WAT    EPW 5460   7.329   4.278   2.699
 1189WAT      O 5461   7.852   4.313   2.389
 1189WAT     H1 5462   7.848   4.359   2.462
 1189WAT     H2 5463   7.785   4.257   2.396
 1189WAT    EPW 5464   7.841   4.311   2.401
 1190WAT      O 5465   7.534   3.614   2.658
 1190WAT     H1 5466   7.553   3.538   2.697
 1190WAT     H2 5467   7.558   3.601   2.575
 1190WAT    EPW 5468   7.540   3.601   2.651
 1191WAT      O 5469   7.762   4.780   1.866
 1191WAT     H1 5470   7.771   4.865   1.886
 1191WAT     H2 5471   7.756   4.781   1.779
 1191WAT    EPW 5472   7.763   4.793   1.856
 1192WAT      O 5473   7.664   3.186   2.571
 1192WAT     H1 5474   7.680   3.173   2.486
 1192WAT     H2 5475   7.691   3.112   2.609
 1192WAT    EPW 5476   7.670   3.173   2.564
 1193WAT      O 5477   7.572   4.575   2.169
 1193WAT     H1 5478   7.535   4.644   2.130
 1193WAT     H2 5479   7.618   4.537   2.105
 1193WAT    EPW 5480   7.574   4.580   2.154
 1194WAT      O 5481   7.620   4.071   1.337
 1194WAT     H1 5482   7.572   4.014   1.291
 1194WAT     H2 5483   7.591   4.149   1.310
 1194WAT    EPW 5484   7.608   4.074   1.326
 1195WAT      O 5485   7.412   3.719   2.239
 1195WAT     H1 5486   7.425   3.684   2.160
 1195WAT     H2 5487   7.467   3.675   2.290
 1195WAT    EPW 5488   7.422   3.707   2.235
 1196WAT      O 5489   7.820   4.816   2.739
 1196WAT     H1 5490   7.892   4.788   2.697
 1196WAT     H2 5491   7.790   4.745   2.778
 1196WAT    EPW 5492   7.826   4.802   2.738
 1197WAT      O 5493   7.662   3.135   2.290
 1197WAT     H1 5494   7.576   3.135   2.275
 1197WAT     H2 5495   7.697   3.145   2.211
 1197WAT    EPW 5496   7.654   3.137   2.276
 1198WAT      O 5497   7.763   4.413   2.649
 1198WAT     H1 5498   7.722   4.346   2.688
 1198WAT     H2 5499   7.785   4.465   2.715
 1198WAT    EPW 5500   7.760   4.411   2.665
 1199WAT      O 5501   6.907   3.294   2.916
 1199WAT     H1 5502   6.894   3.362   2.863
 1199WAT     H2 5503   6.840   3.241   2.898
 1199WAT    EPW 5504   6.895   3.296   2.906
 1200WAT      O 5505   7.329   4.946   2.316
 1200WAT     H1 5506   7.327   4.928   2.401
 1200WAT     H2 5507   7.312   4.869   2.279
 1200WAT    EPW 5508   7.326   4.932   2.323
 1201WAT      O 5509   7.248   3.498   1.547
 1201WAT     H1 5510   7.264   3.457   1.472
 1201WAT     H2 5511   7.168   3.471   1.569
 1201WAT    EPW 5512   7.239   3.488   1.539
 1202WAT      O 5513   7.039   4.887   2.808
 1202WAT     H1 5514   6.984   4.820   2.802
 1202WAT     H2 5515   6.990   4.952   2.839
 1202WAT    EPW 5516   7.024   4.886   2.812
 1203WAT      O 5517   7.279   3.726   2.663
 1203WAT     H1 5518   7.287   3.784   2.598
 1203WAT     H2 5519   7.357   3.687   2.665
 1203WAT    EPW 5520   7.292   3.729   2.653
 1204WAT      O 5521   7.078   3.571   2.554
 1204WAT     H1 5522   7.097   3.580   2.469
 1204WAT     H2 5523   7.142   3.613   2.594
 1204WAT    EPW 5524   7.090   3.578   2.547
 1205WAT      O 5525   7.336   3.257   2.805
 1205WAT     H1 5526   7.359   3.173   2.799
 1205WAT     H2 5527   7.291   3.270   2.731
 1205WAT    EPW 5528   7.333   3.246   2.793
 1206WAT      O 5529   6.964   4.072   2.516
 1206WAT     H1 5530   7.021   4.081   2.451
 1206WAT     H2 5531   6.948   3.986   2.517
 1206WAT    EPW 5532   6.970   4.060   2.506
 1207WAT      O 5533   7.146   3.633   1.194
 1207WAT     H1 5534   7.073   3.624   1.240
 1207WAT     H2 5535   7.157   3.554   1.156
 1207WAT    EPW 5536   7.137   3.620   1.195
 1208WAT      O 5537   7.462   4.563   1.339
 1208WAT     H1 5538   7.503   4.560   1.415
 1208WAT     H2 5539   7.380   4.542   1.359
 1208WAT    EPW 5540   7.456   4.560   1.353
 1209WAT      O 5541   7.491   4.040   2.619
 1209WAT     H1 5542   7.443   4.107   2.649
 1209WAT     H2 5543   7.436   3.996   2.567
 1209WAT    EPW 5544   7.476   4.044   2.616
 1210WAT      O 5545   7.216   4.466   1.412
 1210WAT     H1 5546   7.211   4.445   1.496
 1210WAT     H2 5547   7.215   4.388   1.372
 1210WAT    EPW 5548   7.215   4.451   1.418
 1211WAT      O 5549   7.488   4.301   1.240
 1211WAT     H1 5550   7.406   4.273   1.253
 1211WAT     H2 5551   7.486   4.383   1.268
 1211WAT    EPW 5552   7.476   4.309   1.246
 1212WAT      O 5553   7.449   3.342   2.465
 1212WAT     H1 5554   7.367   3.330   2.491
 1212WAT     H2 5555   7.492   3.275   2.500
 1212WAT    EPW 5556   7.443   3.330   2.474
 1213WAT      O 5557   7.636   3.844   2.779
 1213WAT     H1 5558   7.607   3.774   2.736
 1213WAT     H2 5559   7.598   3.911   2.738
 1213WAT    EPW 5560   7.626   3.844   2.767
 1214WAT      O 5561   7.723   3.126   1.284
 1214WAT     H1 5562   7.732   3.145   1.199
 1214WAT     H2 5563   7.637   3.127   1.297
 1214WAT    EPW 5564   7.712   3.129   1.273
 1215WAT      O 5565   7.483   4.789   2.797
 1215WAT     H1 5566   7.483   4.794   2.884
 1215WAT     H2 5567   7.539   4.724   2.781
 1215WAT    EPW 5568   7.492   4.780   2.808
 1216WAT      O 5569   7.195   3.318   2.576
 1216WAT     H1 5570   7.138   3.255   2.554
 1216WAT     H2 5571   7.148   3.391   2.565
 1216WAT    EPW 5572   7.179   3.320   2.571
 1217WAT      O 5573   7.205   4.691   2.934
 1217WAT     H1 5574   7.275   4.727   2.973
 1217WAT     H2 5575   7.164   4.759   2.899
 1217WAT    EPW 5576   7.209   4.706   2.935
 1218WAT      O 5577   7.074   3.669   1.878
 1218WAT     H1 5578   7.032   3.689   1.952
 1218WAT     H2 5579   7.111   3.592   1.896
 1218WAT    EPW 5580   7.073   3.661   1.892
 1219WAT      O 5581   7.026   4.469   2.644
 1219WAT     H1 5582   6.979   4.526   2.689
 1219WAT     H2 5583   7.108   4.500   2.650
 1219WAT    EPW 5584   7.031   4.482   2.651
 1220WAT      O 5585   7.331   4.782   1.556
 1220WAT     H1 5586   7.352   4.842   1.496
 1220WAT     H2 5587   7.395   4.722   1.547
 1220WAT    EPW 5588   7.344   4.782   1.546
 1221WAT      O 5589   7.649   3.912   1.561
 1221WAT     H1 5590   7.651   3.961   1.489
 1221WAT     H2 5591   7.732   3.885   1.570
 1221WAT    EPW 5592   7.662   3.915   1.552
 1222WAT      O 5593   7.588   3.362   2.779
 1222WAT     H1 5594   7.618   3.321   2.708
 1222WAT     H2 5595   7.507   3.332   2.787
 1222WAT    EPW 5596   7.581   3.351   2.769
 1223WAT      O 5597   7.237   4.711   2.188
 1223WAT     H1 5598   7.232   4.632   2.153
 1223WAT     H2 5599   7.211   4.764   2.124
 1223WAT    EPW 5600   7.233   4.707   2.174
 1224WAT      O 5601   7.011   4.969   2.540
 1224WAT     H1 5602   7.025   4.944   2.622
 1224WAT     H2 5603   7.034   4.899   2.493
 1224WAT    EPW 5604   7.017   4.955   2.545
 1225WAT      O 5605   6.977   4.491   0.510
 1225WAT     H1 5606   6.994   4.476   0.594
 1225WAT     H2 5607   6.921   4.427   0.489
 1225WAT    EPW 5608   6.971   4.479   0.519
 1226WAT      O 5609   7.592   4.338   0.982
 1226WAT     H1 5610   7.568   4.318   1.064
 1226WAT     H2 5611   7.525   4.311   0.934
 1226WAT    EPW 5612   7.578   4.331   0.987
 1227WAT      O 5613   7.543   3.613   0.478
 1227WAT     H1 5614   7.626   3.608   0.452
 1227WAT     H2 5615   7.517   3.530   0.481
 1227WAT    EPW 5616   7.551   3.600   0.475
 1228WAT      O 5617   7.549   4.574   0.720
 1228WAT     H1 5618   7.578   4.635   0.665
 1228WAT     H2 5619   7.613   4.569   0.779
 1228WAT    EPW 5620   7.563   4.582   0.720
 1229WAT      O 5621   6.952   3.787   0.298
 1229WAT     H1 5622   6.928   3.869   0.314
 1229WAT     H2 5623   6.887   3.739   0.332
 1229WAT    EPW 5624   6.939   3.792   0.305
 1230WAT      O 5625   7.198   3.241   0.362
 1230WAT     H1 5626   7.237   3.317   0.345
 1230WAT     H2 5627   7.262   3.182   0.353
 1230WAT    EPW 5628   7.213   3.243   0.358
 1231WAT      O 5629   7.567   3.466   1.158
 1231WAT     H1 5630   7.579   3.436   1.077
 1231WAT     H2 5631   7.596   3.548   1.155
 1231WAT    EPW 5632   7.573   3.474   1.146
 1232WAT      O 5633   7.169   3.367   1.092
 1232WAT     H1 5634   7.093   3.330   1.074
 1232WAT     H2 5635   7.223   3.334   1.032
 1232WAT    EPW 5636   7.166   3.357   1.081
 1233WAT      O 5637   7.741   3.176   1.012
 1233WAT     H1 5638   7.760   3.121   0.947
 1233WAT     H2 5639   7.701   3.242   0.971
 1233WAT    EPW 5640   7.738   3.178   0.996
 1234WAT      O 5641   7.377   4.821   0.626
 1234WAT     H1 5642   7.385   4.823   0.713
 1234WAT     H2 5643   7.305   4.773   0.614
 1234WAT    EPW 5644   7.368   4.814   0.637
 1235WAT      O 5645   6.916   3.488   0.841
 1235WAT     H1 5646   6.898   3.565   0.877
 1235WAT     H2 5647   6.973   3.507   0.778
 1235WAT    EPW 5648   6.922   3.502   0.837
 1236WAT      O 5649   7.160   4.699   0.490
 1236WAT     H1 5650   7.105   4.632   0.500
 1236WAT     H2 5651   7.203   4.680   0.416
 1236WAT    EPW 5652   7.158   4.686   0.480
 1237WAT      O 5653   7.294   4.546   0.824
 1237WAT     H1 5654   7.372   4.572   0.794
 1237WAT     H2 5655   7.283   4.592   0.897
 1237WAT    EPW 5656   7.304   4.556   0.830
 1238WAT      O 5657   7.445   4.093   0.291
 1238WAT     H1 5658   7.502   4.101   0.358
 1238WAT     H2 5659   7.426   4.008   0.291
 1238WAT    EPW 5660   7.450   4.082   0.301
 1239WAT      O 5661   7.624   4.134   0.502
 1239WAT     H1 5662   7.598   4.217   0.514
 1239WAT     H2 5663   7.604   4.095   0.577
 1239WAT    EPW 5664   7.617   4.141   0.515
 1240WAT      O 5665   6.862   4.502   1.124
 1240WAT     H1 5666   6.920   4.551   1.168
 1240WAT     H2 5667   6.872   4.423   1.158
 1240WAT    EPW 5668   6.872   4.498   1.135
 1241WAT      O 5669   7.171   3.643   0.388
 1241WAT     H1 5670   7.240   3.691   0.368
 1241WAT     H2 5671   7.104   3.686   0.351
 1241WAT    EPW 5672   7.171   3.656   0.380
 1242WAT      O 5673   7.671   3.723   1.146
 1242WAT     H1 5674   7.609   3.772   1.183
 1242WAT     H2 5675   7.680   3.759   1.067
 1242WAT    EPW 5676   7.663   3.736   1.140
 1243WAT      O 5677   7.294   4.326   0.357
 1243WAT     H1 5678   7.349   4.344   0.423
 1243WAT     H2 5679   7.333   4.260   0.316
 1243WAT    EPW 5680   7.308   4.319   0.361
 1244WAT      O 5681   7.255   3.833   1.033
 1244WAT     H1 5682   7.214   3.767   1.073
 1244WAT     H2 5683   7.261   3.806   0.950
 1244WAT    EPW 5684   7.250   3.819   1.027
 1245WAT      O 5685   7.304   3.935   0.563
 1245WAT     H1 5686   7.334   3.895   0.492
 1245WAT     H2 5687   7.246   3.993   0.532
 1245WAT    EPW 5688   7.300   3.938   0.548
 1246WAT      O 5689   7.698   4.725   0.527
 1246WAT     H1 5690   7.688   4.665   0.465
 1246WAT     H2 5691   7.695   4.801   0.484
 1246WAT    EPW 5692   7.696   4.727   0.511
 1247WAT      O 5693   7.124   4.065   1.096
 1247WAT     H1 5694   7.116   4.111   1.022
 1247WAT     H2 5695   7.171   3.996   1.073
 1247WAT    EPW 5696   7.130   4.062   1.082
 1248WAT      O 5697   7.731   4.575   0.945
 1248WAT     H1 5698   7.780   4.588   1.016
 1248WAT     H2 5699   7.682   4.506   0.967
 1248WAT    EPW 5700   7.731   4.567   0.959
 1249WAT      O 5701   7.807   3.628   0.388
 1249WAT     H1 5702   7.830   3.702   0.348
 1249WAT     H2 5703   7.883   3.589   0.405
 1249WAT    EPW 5704   7.821   3.634   0.385
 1250WAT      O 5705   7.629   4.209   0.104
 1250WAT     H1 5706   7.561   4.173   0.145
 1250WAT     H2 5707   7.698   4.180   0.148
 1250WAT    EPW 5708   7.629   4.200   0.116
 1251WAT      O 5709   7.118   4.119   0.451
 1251WAT     H1 5710   7.158   4.192   0.426
 1251WAT     H2 5711   7.055   4.109   0.391
 1251WAT    EPW 5712   7.115   4.128   0.438
 1252WAT      O 5713   7.100   4.200   0.859
 1252WAT     H1 5714   7.062   4.146   0.802
 1252WAT     H2 5715   7.067   4.278   0.838
 1252WAT    EPW 5716   7.090   4.203   0.847
 1253WAT      O 5717   7.514   4.386   0.519
 1253WAT     H1 5718   7.522   4.435   0.591
 1253WAT     H2 5719   7.549   4.436   0.456
 1253WAT    EPW 5720   7.520   4.401   0.520
 1254WAT      O 5721   7.367   4.272   0.828
 1254WAT     H1 5722   7.288   4.237   0.841
 1254WAT     H2 5723   7.350   4.358   0.818
 1254WAT    EPW 5724   7.353   4.280   0.828
 1255WAT      O 5725   7.814   4.114   0.298
 1255WAT     H1 5726   7.889   4.149   0.327
 1255WAT     H2 5727   7.762   4.115   0.368
 1255WAT    EPW 5728   7.817   4.119   0.313
 1256WAT      O 5729   7.520   3.626   0.757
 1256WAT     H1 5730   7.543   3.549   0.790
 1256WAT     H2 5731   7.536   3.618   0.672
 1256WAT    EPW 5732   7.526   3.614   0.750
 1257WAT      O 5733   7.662   3.209   0.664
 1257WAT     H1 5734   7.680   3.189   0.581
 1257WAT     H2 5735   7.682   3.135   0.707
 1257WAT    EPW 5736   7.668   3.195   0.658
 1258WAT      O 5737   7.600   4.550   0.314
 1258WAT     H1 5738   7.520   4.573   0.286
 1258WAT     H2 5739   7.634   4.507   0.247
 1258WAT    EPW 5740   7.593   4.547   0.300
 1259WAT      O 5741   7.401   3.800   0.330
 1259WAT     H1 5742   7.411   3.776   0.247
 1259WAT     H2 5743   7.453   3.745   0.374
 1259WAT    EPW 5744   7.410   3.788   0.324
 1260WAT      O 5745   7.730   4.818   0.797
 1260WAT     H1 5746   7.743   4.786   0.717
 1260WAT     H2 5747   7.746   4.750   0.849
 1260WAT    EPW 5748   7.734   4.804   0.793
 1261WAT      O 5749   7.674   3.122   0.399
 1261WAT     H1 5750   7.591   3.108   0.377
 1261WAT     H2 5751   7.710   3.155   0.326
 1261WAT    EPW 5752   7.667   3.125   0.385
 1262WAT      O 5753   7.857   4.341   0.835
 1262WAT     H1 5754   7.792   4.296   0.872
 1262WAT     H2 5755   7.843   4.423   0.861
 1262WAT    EPW 5756   7.845   4.347   0.845
 1263WAT      O 5757   6.921   3.260   0.999
 1263WAT     H1 5758   6.922   3.331   0.948
 1263WAT     H2 5759   6.845   3.221   0.980
 1263WAT    EPW 5760   6.910   3.264   0.988
 1264WAT      O 5761   7.409   4.882   0.359
 1264WAT     H1 5762   7.400   4.864   0.444
 1264WAT     H2 5763   7.388   4.806   0.320
 1264WAT    EPW 5764   7.405   4.868   0.365
 1265WAT      O 5765   7.051   4.869   0.898
 1265WAT     H1 5766   6.987   4.810   0.896
 1265WAT     H2 5767   7.013   4.941   0.929
 1265WAT    EPW 5768   7.036   4.871   0.902
 1266WAT      O 5769   7.271   3.745   0.769
 1266WAT     H1 5770   7.278   3.808   0.709
 1266WAT     H2 5771   7.351   3.708   0.768
 1266WAT    EPW 5772   7.284   3.749   0.760
 1267WAT      O 5773   7.103   3.568   0.643
 1267WAT     H1 5774   7.124   3.581   0.560
 1267WAT     H2 5775   7.160   3.617   0.687
 1267WAT    EPW 5776   7.115   3.577   0.637
 1268WAT      O 5777   7.341   3.253   0.904
 1268WAT     H1 5778   7.369   3.170   0.899
 1268WAT     H2 5779   7.298   3.264   0.829
 1268WAT    EPW 5780   7.339   3.242   0.892
 1269WAT      O 5781   6.976   4.035   0.674
 1269WAT     H1 5782   7.018   4.061   0.602
 1269WAT     H2 5783   6.959   3.951   0.659
 1269WAT    EPW 5784   6.980   4.027   0.661
 1270WAT      O 5785   7.501   4.039   0.734
 1270WAT     H1 5786   7.467   4.113   0.766
 1270WAT     H2 5787   7.437   4.006   0.685
 1270WAT    EPW 5788   7.487   4.045   0.732
 1271WAT      O 5789   7.454   3.357   0.535
 1271WAT     H1 5790   7.375   3.336   0.567
 1271WAT     H2 5791   7.507   3.300   0.574
 1271WAT    EPW 5792   7.450   3.345   0.545
 1272WAT      O 5793   7.640   3.839   0.891
 1272WAT     H1 5794   7.608   3.772   0.845
 1272WAT     H2 5795   7.606   3.909   0.852
 1272WAT    EPW 5796   7.630   3.840   0.878
 1273WAT      O 5797   7.463   4.850   0.898
 1273WAT     H1 5798   7.468   4.831   0.983
 1273WAT     H2 5799   7.544   4.838   0.869
 1273WAT    EPW 5800   7.476   4.846   0.906
 1274WAT      O 5801   7.213   3.309   0.668
 1274WAT     H1 5802   7.164   3.250   0.627
 1274WAT     H2 5803   7.169   3.384   0.655
 1274WAT    EPW 5804   7.199   3.311   0.660
 1275WAT      O 5805   7.213   4.697   1.046
 1275WAT     H1 5806   7.281   4.737   1.083
 1275WAT     H2 5807   7.173   4.760   1.002
 1275WAT    EPW 5808   7.217   4.712   1.045
 1276WAT      O 5809   7.036   4.459   0.775
 1276WAT     H1 5810   6.984   4.519   0.810
 1276WAT     H2 5811   7.116   4.492   0.787
 1276WAT    EPW 5812   7.040   4.473   0.782
 1277WAT      O 5813   7.585   3.374   0.876
 1277WAT     H1 5814   7.616   3.336   0.804
 1277WAT     H2 5815   7.505   3.340   0.885
 1277WAT    EPW 5816   7.578   3.364   0.867
 1278WAT      O 5817   7.319   4.600   0.263
 1278WAT     H1 5818   7.301   4.517   0.285
 1278WAT     H2 5819   7.289   4.607   0.181
 1278WAT    EPW 5820   7.312   4.589   0.254
 1279WAT      O 5821   7.039   4.930   0.624
 1279WAT     H1 5822   7.056   4.901   0.704
 1279WAT     H2 5823   7.071   4.868   0.572
 1279WAT    EPW 5824   7.046   4.917   0.628
 1280WAT      O 5825   6.943   2.419   7.384
 1280WAT     H1 5826   6.865   2.416   7.422
 1280WAT     H2 5827   6.950   2.342   7.344
 1280WAT    EPW 5828   6.933   2.407   7.384
 1281WAT      O 5829   6.922   1.768   7.034
 1281WAT     H1 5830   6.855   1.815   7.003
 1281WAT     H2 5831   6.894   1.686   7.028
 1281WAT    EPW 5832   6.908   1.763   7.029
 1282WAT      O 5833   7.222   2.370   6.983
 1282WAT     H1 5834   7.198   2.325   6.912
 1282WAT     H2 5835   7.239   2.308   7.042
 1282WAT    EPW 5836   7.221   2.355   6.981
 1283WAT      O 5837   7.202   2.530   7.389
 1283WAT     H1 5838   7.253   2.495   7.452
 1283WAT     H2 5839   7.126   2.490   7.400
 1283WAT    EPW 5840   7.198   2.519   7.400
 1284WAT      O 5841   7.619   1.406   7.181
 1284WAT     H1 5842   7.619   1.488   7.150
 1284WAT     H2 5843   7.655   1.360   7.117
 1284WAT    EPW 5844   7.624   1.411   7.167
 1285WAT      O 5845   7.053   2.790   6.956
 1285WAT     H1 5846   7.106   2.803   6.888
 1285WAT     H2 5847   7.100   2.739   7.009
 1285WAT    EPW 5848   7.068   2.785   6.954
 1286WAT      O 5849   7.139   2.155   7.516
 1286WAT     H1 5850   7.091   2.166   7.443
 1286WAT     H2 5851   7.192   2.089   7.495
 1286WAT    EPW 5852   7.139   2.147   7.502
 1287WAT      O 5853   7.306   1.949   7.434
 1287WAT     H1 5854   7.359   1.933   7.501
 1287WAT     H2 5855   7.238   1.895   7.449
 1287WAT    EPW 5856   7.304   1.938   7.446
 1288WAT      O 5857   7.677   2.542   7.655
 1288WAT     H1 5858   7.659   2.485   7.718
 1288WAT     H2 5859   7.745   2.587   7.687
 1288WAT    EPW 5860   7.685   2.541   7.669
 1289WAT      O 5861   7.672   2.487   7.378
 1289WAT     H1 5862   7.676   2.497   7.465
 1289WAT     H2 5863   7.749   2.453   7.358
 1289WAT    EPW 5864   7.684   2.483   7.388
 1290WAT      O 5865   7.382   1.502   7.430
 1290WAT     H1 5866   7.358   1.546   7.358
 1290WAT     H2 5867   7.468   1.496   7.423
 1290WAT    EPW 5868   7.391   1.508   7.418
 1291WAT      O 5869   7.663   1.469   7.448
 1291WAT     H1 5870   7.684   1.554   7.455
 1291WAT     H2 5871   7.668   1.455   7.362
 1291WAT    EPW 5872   7.667   1.480   7.436
 1292WAT      O 5873   6.961   1.911   7.732
 1292WAT     H1 5874   6.962   1.997   7.745
 1292WAT     H2 5875   6.958   1.878   7.812
 1292WAT    EPW 5876   6.961   1.919   7.746
 1293WAT      O 5877   6.955   2.872   7.597
 1293WAT     H1 5878   6.891   2.920   7.563
 1293WAT     H2 5879   7.001   2.845   7.528
 1293WAT    EPW 5880   6.952   2.875   7.582
 1294WAT      O 5881   7.551   2.736   7.316
 1294WAT     H1 5882   7.512   2.734   7.394
 1294WAT     H2 5883   7.599   2.663   7.315
 1294WAT    EPW 5884   7.553   2.725   7.327
 1295WAT      O 5885   7.107   2.792   7.376
 1295WAT     H1 5886   7.150   2.719   7.397
 1295WAT     H2 5887   7.169   2.844   7.343
 1295WAT    EPW 5888   7.122   2.789   7.374
 1296WAT      O 5889   7.277   2.567   7.732
 1296WAT     H1 5890   7.326   2.620   7.683
 1296WAT     H2 5891   7.307   2.487   7.713
 1296WAT    EPW 5892   7.289   2.563   7.722
 1297WAT      O 5893   7.512   2.957   7.653
 1297WAT     H1 5894   7.588   2.996   7.633
 1297WAT     H2 5895   7.452   3.013   7.621
 1297WAT    EPW 5896   7.514   2.971   7.645
 1298WAT      O 5897   7.866   2.742   6.859
 1298WAT     H1 5898   7.859   2.800   6.924
 1298WAT     H2 5899   7.932   2.691   6.885
 1298WAT    EPW 5900   7.875   2.743   6.872
 1299WAT      O 5901   7.003   1.557   7.309
 1299WAT     H1 5902   6.983   1.473   7.295
 1299WAT     H2 5903   6.958   1.578   7.380
 1299WAT    EPW 5904   6.993   1.548   7.317
 1300WAT      O 5905   7.830   1.835   7.052
 1300WAT     H1 5906   7.773   1.770   7.065
 1300WAT     H2 5907   7.804   1.870   6.976
 1300WAT    EPW 5908   7.818   1.831   7.043
 1301WAT      O 5909   7.679   1.755   7.460
 1301WAT     H1 5910   7.620   1.776   7.400
 1301WAT     H2 5911   7.750   1.800   7.435
 1301WAT    EPW 5912   7.681   1.765   7.447
 1302WAT      O 5913   7.303   1.253   7.528
 1302WAT     H1 5914   7.321   1.335   7.507
 1302WAT     H2 5915   7.304   1.211   7.452
 1302WAT    EPW 5916   7.306   1.259   7.514
 1303WAT      O 5917   7.293   1.655   7.640
 1303WAT     H1 5918   7.324   1.604   7.577
 1303WAT     H2 5919   7.230   1.606   7.676
 1303WAT    EPW 5920   7.288   1.640   7.636
 1304WAT      O 5921   7.340   2.326   7.589
 1304WAT     H1 5922   7.391   2.312   7.519
 1304WAT     H2 5923   7.270   2.278   7.573
 1304WAT    EPW 5924   7.337   2.317   7.576
 1305WAT      O 5925   7.147   3.011   7.741
 1305WAT     H1 5926   7.083   2.972   7.697
 1305WAT     H2 5927   7.201   3.039   7.679
 1305WAT    EPW 5928   7.146   3.009   7.726
 1306WAT      O 5929   7.476   2.282   7.353
 1306WAT     H1 5930   7.528   2.352   7.348
 1306WAT     H2 5931   7.530   2.215   7.339
 1306WAT    EPW 5932   7.492   2.282   7.350
 1307WAT      O 5933   7.020   2.462   7.791
 1307WAT     H1 5934   6.973   2.534   7.806
 1307WAT     H2 5935   7.100   2.493   7.774
 1307WAT    EPW 5936   7.025   2.477   7.791
 1308WAT      O 5937   7.007   2.172   7.273
 1308WAT     H1 5938   6.988   2.087   7.270
 1308WAT     H2 5939   7.085   2.177   7.234
 1308WAT    EPW 5940   7.016   2.160   7.267
 1309WAT      O 5941   6.924   2.642   7.224
 1309WAT     H1 5942   6.982   2.696   7.262
 1309WAT     H2 5943   6.921   2.574   7.279
 1309WAT    EPW 5944   6.932   2.640   7.238
 1310WAT      O 5945   6.938   2.463   7.003
 1310WAT     H1 5946   7.017   2.425   7.000
 1310WAT     H2 5947   6.946   2.523   7.066
 1310WAT    EPW 5948   6.951   2.466   7.012
 1311WAT      O 5949   6.974   2.194   7.735
 1311WAT     H1 5950   7.025   2.183   7.665
 1311WAT     H2 5951   6.993   2.275   7.762
 1311WAT    EPW 5952   6.984   2.204   7.728
 1312WAT      O 5953   7.617   1.662   7.092
 1312WAT     H1 5954   7.584   1.665   7.012
 1312WAT     H2 5955   7.568   1.719   7.137
 1312WAT    EPW 5956   7.605   1.671   7.087
 1313WAT      O 5957   7.460   2.702   7.575
 1313WAT     H1 5958   7.475   2.782   7.608
 1313WAT     H2 5959   7.526   2.655   7.607
 1313WAT    EPW 5960   7.472   2.707   7.585
 1314WAT      O 5961   7.261   1.904   7.078
 1314WAT     H1 5962   7.265   1.838   7.135
 1314WAT     H2 5963   7.215   1.871   7.012
 1314WAT    EPW 5964   7.255   1.889   7.076
 1315WAT      O 5965   7.488   2.147   7.763
 1315WAT     H1 5966   7.437   2.193   7.709
 1315WAT     H2 5967   7.485   2.066   7.729
 1315WAT    EPW 5968   7.480   2.142   7.750
 1316WAT      O 5969   7.701   2.977   7.288
 1316WAT     H1 5970   7.660   2.901   7.303
 1316WAT     H2 5971   7.758   2.958   7.225
 1316WAT    EPW 5972   7.703   2.963   7.281
 1317WAT      O 5973   7.380   1.302   7.079
 1317WAT     H1 5974   7.451   1.331   7.121
 1317WAT     H2 5975   7.346   1.374   7.045
 1317WAT    EPW 5976   7.386   1.317   7.080
 1318WAT      O 5977   7.863   2.934   7.064
 1318WAT     H1 5978   7.943   2.969   7.068
 1318WAT     H2 5979   7.814   2.998   7.031
 1318WAT    EPW 5980   7.868   2.949   7.060
 1319WAT      O 5981   7.266   2.179   7.177
 1319WAT     H1 5982   7.278   2.094   7.161
 1319WAT     H2 5983   7.331   2.199   7.232
 1319WAT    EPW 5984   7.278   2.170   7.183
 1320WAT      O 5985   6.910   1.289   7.263
 1320WAT     H1 5986   6.908   1.236   7.194
 1320WAT     H2 5987   6.873   1.243   7.326
 1320WAT    EPW 5988   6.904   1.275   7.262
 1321WAT      O 5989   7.871   1.917   7.311
 1321WAT     H1 5990   7.955   1.941   7.320
 1321WAT     H2 5991   7.867   1.889   7.229
 1321WAT    EPW 5992   7.883   1.917   7.300
 1322WAT      O 5993   7.307   1.545   6.970
 1322WAT     H1 5994   7.243   1.538   6.912
 1322WAT     H2 5995   7.370   1.586   6.926
 1322WAT    EPW 5996   7.307   1.550   6.955
 1323WAT      O 5997   7.631   2.368   7.868
 1323WAT     H1 5998   7.592   2.293   7.848
 1323WAT     H2 5999   7.630   2.369   7.955
 1323WAT    EPW 6000   7.625   2.357   7.878
 1324WAT      O 6001   7.427   2.935   6.867
 1324WAT     H1 6002   7.450   2.864   6.912
 1324WAT     H2 6003   7.415   2.996   6.929
 1324WAT    EPW 6004   7.428   2.933   6.883
 1325WAT      O 6005   7.477   1.876   7.638
 1325WAT     H1 6006   7.549   1.840   7.604
 1325WAT     H2 6007   7.428   1.807   7.660
 1325WAT    EPW 6008   7.480   1.861   7.636
 1326WAT      O 6009   6.965   1.897   7.282
 1326WAT     H1 6010   6.998   1.853   7.349
 1326WAT     H2 6011   6.971   1.841   7.215
 1326WAT    EPW 6012   6.971   1.882   7.282
 1327WAT      O 6013   7.442   2.028   6.906
 1327WAT     H1 6014   7.393   1.988   6.965
 1327WAT     H2 6015   7.395   2.023   6.833
 1327WAT    EPW 6016   7.428   2.022   6.904
 1328WAT      O 6017   7.506   1.849   7.267
 1328WAT     H1 6018   7.547   1.926   7.261
 1328WAT     H2 6019   7.431   1.868   7.308
 1328WAT    EPW 6020   7.501   1.863   7.272
 1329WAT      O 6021   7.061   1.508   7.696
 1329WAT     H1 6022   6.987   1.525   7.653
 1329WAT     H2 6023   7.056   1.423   7.712
 1329WAT    EPW 6024   7.050   1.498   7.692
 1330WAT      O 6025   7.745   3.069   7.554
 1330WAT     H1 6026   7.751   3.156   7.546
 1330WAT     H2 6027   7.745   3.042   7.471
 1330WAT    EPW 6028   7.746   3.078   7.540
 1331WAT      O 6029   7.614   2.215   7.026
 1331WAT     H1 6030   7.561   2.162   6.982
 1331WAT     H2 6031   7.590   2.295   7.000
 1331WAT    EPW 6032   7.602   2.219   7.015
 1332WAT      O 6033   7.253   1.654   7.224
 1332WAT     H1 6034   7.262   1.616   7.146
 1332WAT     H2 6035   7.174   1.628   7.250
 1332WAT    EPW 6036   7.242   1.645   7.216
 1333WAT      O 6037   7.125   1.795   6.852
 1333WAT     H1 6038   7.054   1.789   6.903
 1333WAT     H2 6039   7.128   1.716   6.813
 1333WAT    EPW 6040   7.115   1.782   6.854
 1334WAT      O 6041   7.465   2.715   7.043
 1334WAT     H1 6042   7.506   2.722   7.120
 1334WAT     H2 6043   7.384   2.692   7.066
 1334WAT    EPW 6044   7.459   2.712   7.058
 1335WAT      O 6045   7.219   2.615   7.113
 1335WAT     H1 6046   7.216   2.592   7.197
 1335WAT     H2 6047   7.218   2.538   7.071
 1335WAT    EPW 6048   7.219   2.600   7.120
 1336WAT      O 6049   7.493   2.454   6.930
 1336WAT     H1 6050   7.410   2.429   6.940
 1336WAT     H2 6051   7.494   2.535   6.963
 1336WAT    EPW 6052   7.481   2.462   6.936
 1337WAT      O 6053   7.687   1.248   6.962
 1337WAT     H1 6054   7.718   1.283   6.888
 1337WAT     H2 6055   7.615   1.206   6.937
 1337WAT    EPW 6056   7.681   1.247   6.948
 1338WAT      O 6057   7.088   1.799   7.512
 1338WAT     H1 6058   7.044   1.833   7.580
 1338WAT     H2 6059   7.140   1.740   7.549
 1338WAT    EPW 6060   7.089   1.795   7.528
 1339WAT      O 6061   7.326   2.945   7.281
 1339WAT     H1 6062   7.334   2.998   7.212
 1339WAT     H2 6063   7.397   2.895   7.277
 1339WAT    EPW 6064   7.338   2.945   7.271
 1340WAT      O 6065   7.648   2.084   7.267
 1340WAT     H1 6066   7.654   2.122   7.189
 1340WAT     H2 6067   7.727   2.048   7.279
 1340WAT    EPW 6068   7.661   2.084   7.257
 1341WAT      O 6069   7.180   2.783   7.916
 1341WAT     H1 6070   7.219   2.723   7.866
 1341WAT     H2 6071   7.186   2.856   7.870
 1341WAT    EPW 6072   7.187   2.785   7.902
 1342WAT      O 6073   6.933   2.419   5.502
 1342WAT     H1 6074   6.864   2.413   5.557
 1342WAT     H2 6075   6.945   2.337   5.476
 1342WAT    EPW 6076   6.924   2.406   5.507
 1343WAT      O 6077   6.929   1.768   5.164
 1343WAT     H1 6078   6.865   1.817   5.132
 1343WAT     H2 6079   6.898   1.686   5.158
 1343WAT    EPW 6080   6.915   1.763   5.158
 1344WAT      O 6081   7.207   2.364   5.091
 1344WAT     H1 6082   7.183   2.319   5.020
 1344WAT     H2 6083   7.224   2.303   5.150
 1344WAT    EPW 6084   7.206   2.349   5.089
 1345WAT      O 6085   7.190   2.525   5.477
 1345WAT     H1 6086   7.245   2.490   5.535
 1345WAT     H2 6087   7.114   2.488   5.495
 1345WAT    EPW 6088   7.187   2.515   5.488
 1346WAT      O 6089   7.625   1.411   5.350
 1346WAT     H1 6090   7.642   1.485   5.307
 1346WAT     H2 6091   7.675   1.352   5.309
 1346WAT    EPW 6092   7.635   1.413   5.338
 1347WAT      O 6093   7.052   2.796   5.060
 1347WAT     H1 6094   7.105   2.807   4.992
 1347WAT     H2 6095   7.096   2.742   5.112
 1347WAT    EPW 6096   7.066   2.789   5.058
 1348WAT      O 6097   6.947   2.633   6.190
 1348WAT     H1 6098   6.972   2.610   6.270
 1348WAT     H2 6099   6.878   2.582   6.175
 1348WAT    EPW 6100   6.941   2.622   6.199
 1349WAT      O 6101   7.580   2.475   6.663
 1349WAT     H1 6102   7.560   2.461   6.746
 1349WAT     H2 6103   7.511   2.444   6.619
 1349WAT    EPW 6104   7.567   2.468   6.669
 1350WAT      O 6105   7.144   2.187   5.678
 1350WAT     H1 6106   7.100   2.185   5.602
 1350WAT     H2 6107   7.200   2.121   5.671
 1350WAT    EPW 6108   7.146   2.177   5.666
 1351WAT      O 6109   7.573   1.712   6.176
 1351WAT     H1 6110   7.642   1.692   6.125
 1351WAT     H2 6111   7.535   1.635   6.190
 1351WAT    EPW 6112   7.578   1.697   6.170
 1352WAT      O 6113   7.539   2.776   6.418
 1352WAT     H1 6114   7.585   2.816   6.355
 1352WAT     H2 6115   7.601   2.743   6.470
 1352WAT    EPW 6116   7.555   2.777   6.416
 1353WAT      O 6117   7.313   1.968   5.658
 1353WAT     H1 6118   7.376   1.909   5.672
 1353WAT     H2 6119   7.240   1.920   5.655
 1353WAT    EPW 6120   7.311   1.952   5.660
 1354WAT      O 6121   7.702   2.627   5.746
 1354WAT     H1 6122   7.752   2.576   5.795
 1354WAT     H2 6123   7.750   2.699   5.735
 1354WAT    EPW 6124   7.716   2.630   5.752
 1355WAT      O 6125   7.672   2.472   5.510
 1355WAT     H1 6126   7.680   2.511   5.588
 1355WAT     H2 6127   7.747   2.428   5.502
 1355WAT    EPW 6128   7.684   2.471   5.520
 1356WAT      O 6129   7.389   1.496   5.513
 1356WAT     H1 6130   7.344   1.547   5.458
 1356WAT     H2 6131   7.466   1.485   5.475
 1356WAT    EPW 6132   7.393   1.502   5.499
 1357WAT      O 6133   7.723   1.378   5.615
 1357WAT     H1 6134   7.717   1.454   5.658
 1357WAT     H2 6135   7.696   1.398   5.534
 1357WAT    EPW 6136   7.718   1.393   5.610
 1358WAT      O 6137   6.959   1.923   5.909
 1358WAT     H1 6138   6.954   2.010   5.915
 1358WAT     H2 6139   6.890   1.895   5.955
 1358WAT    EPW 6140   6.948   1.932   5.917
 1359WAT      O 6141   6.957   2.868   5.725
 1359WAT     H1 6142   6.893   2.915   5.688
 1359WAT     H2 6143   7.002   2.837   5.657
 1359WAT    EPW 6144   6.954   2.871   5.709
 1360WAT      O 6145   7.536   2.697   5.410
 1360WAT     H1 6146   7.483   2.695   5.479
 1360WAT     H2 6147   7.587   2.627   5.422
 1360WAT    EPW 6148   7.536   2.686   5.422
 1361WAT      O 6149   7.276   1.445   5.953
 1361WAT     H1 6150   7.218   1.384   5.928
 1361WAT     H2 6151   7.335   1.400   5.999
 1361WAT    EPW 6152   7.276   1.429   5.956
 1362WAT      O 6153   7.527   1.664   6.829
 1362WAT     H1 6154   7.550   1.616   6.759
 1362WAT     H2 6155   7.568   1.740   6.816
 1362WAT    EPW 6156   7.537   1.668   6.816
 1363WAT      O 6157   7.109   2.792   5.496
 1363WAT     H1 6158   7.153   2.718   5.510
 1363WAT     H2 6159   7.168   2.843   5.456
 1363WAT    EPW 6160   7.124   2.789   5.492
 1364WAT      O 6161   7.129   1.526   6.758
 1364WAT     H1 6162   7.052   1.492   6.733
 1364WAT     H2 6163   7.187   1.487   6.706
 1364WAT    EPW 6164   7.126   1.515   6.747
 1365WAT      O 6165   7.199   2.620   5.848
 1365WAT     H1 6166   7.250   2.625   5.778
 1365WAT     H2 6167   7.238   2.559   5.898
 1365WAT    EPW 6168   7.212   2.612   5.845
 1366WAT      O 6169   7.499   2.907   5.778
 1366WAT     H1 6170   7.577   2.922   5.743
 1366WAT     H2 6171   7.448   2.968   5.742
 1366WAT    EPW 6172   7.503   2.918   5.768
 1367WAT      O 6173   7.757   1.335   6.713
 1367WAT     H1 6174   7.771   1.276   6.651
 1367WAT     H2 6175   7.706   1.394   6.675
 1367WAT    EPW 6176   7.751   1.335   6.698
 1368WAT      O 6177   7.331   3.018   6.325
 1368WAT     H1 6178   7.355   3.002   6.408
 1368WAT     H2 6179   7.265   2.962   6.313
 1368WAT    EPW 6180   7.325   3.007   6.336
 1369WAT      O 6181   6.862   1.649   6.502
 1369WAT     H1 6182   6.858   1.723   6.547
 1369WAT     H2 6183   6.924   1.665   6.443
 1369WAT    EPW 6184   6.871   1.663   6.500
 1370WAT      O 6185   7.855   2.724   4.963
 1370WAT     H1 6186   7.851   2.783   5.027
 1370WAT     H2 6187   7.908   2.663   4.995
 1370WAT    EPW 6188   7.862   2.724   4.977
 1371WAT      O 6189   6.996   1.557   5.435
 1371WAT     H1 6190   6.972   1.475   5.416
 1371WAT     H2 6191   6.950   1.576   5.506
 1371WAT    EPW 6192   6.985   1.547   5.443
 1372WAT      O 6193   7.114   2.862   6.224
 1372WAT     H1 6194   7.060   2.794   6.220
 1372WAT     H2 6195   7.156   2.860   6.148
 1372WAT    EPW 6196   7.112   2.852   6.212
 1373WAT      O 6197   7.860   1.821   5.106
 1373WAT     H1 6198   7.817   1.750   5.134
 1373WAT     H2 6199   7.809   1.852   5.043
 1373WAT    EPW 6200   7.846   1.815   5.101
 1374WAT      O 6201   7.715   1.635   5.740
 1374WAT     H1 6202   7.767   1.687   5.693
 1374WAT     H2 6203   7.743   1.648   5.822
 1374WAT    EPW 6204   7.727   1.645   5.745
 1375WAT      O 6205   7.291   2.685   6.517
 1375WAT     H1 6206   7.360   2.726   6.483
 1375WAT     H2 6207   7.270   2.733   6.586
 1375WAT    EPW 6208   7.298   2.698   6.522
 1376WAT      O 6209   7.347   1.244   5.628
 1376WAT     H1 6210   7.361   1.326   5.600
 1376WAT     H2 6211   7.343   1.198   5.554
 1376WAT    EPW 6212   7.349   1.249   5.613
 1377WAT      O 6213   7.568   2.329   5.944
 1377WAT     H1 6214   7.579   2.316   6.029
 1377WAT     H2 6215   7.532   2.255   5.916
 1377WAT    EPW 6216   7.565   2.316   5.952
 1378WAT      O 6217   7.606   2.335   6.216
 1378WAT     H1 6218   7.566   2.412   6.228
 1378WAT     H2 6219   7.574   2.285   6.280
 1378WAT    EPW 6220   7.596   2.339   6.227
 1379WAT      O 6221   6.854   2.661   6.807
 1379WAT     H1 6222   6.913   2.707   6.853
 1379WAT     H2 6223   6.863   2.580   6.838
 1379WAT    EPW 6224   6.864   2.656   6.819
 1380WAT      O 6225   7.247   1.609   5.734
 1380WAT     H1 6226   7.279   1.561   5.669
 1380WAT     H2 6227   7.252   1.556   5.803
 1380WAT    EPW 6228   7.252   1.594   5.735
 1381WAT      O 6229   7.341   2.386   5.666
 1381WAT     H1 6230   7.389   2.339   5.611
 1381WAT     H2 6231   7.276   2.332   5.688
 1381WAT    EPW 6232   7.339   2.372   5.661
 1382WAT      O 6233   7.140   3.049   5.819
 1382WAT     H1 6234   7.073   3.001   5.789
 1382WAT     H2 6235   7.193   3.056   5.750
 1382WAT    EPW 6236   7.138   3.043   5.805
 1383WAT      O 6237   7.126   1.750   6.050
 1383WAT     H1 6238   7.209   1.772   6.036
 1383WAT     H2 6239   7.081   1.812   6.009
 1383WAT    EPW 6240   7.132   1.762   6.042
 1384WAT      O 6241   7.480   2.267   5.456
 1384WAT     H1 6242   7.534   2.335   5.460
 1384WAT     H2 6243   7.533   2.200   5.437
 1384WAT    EPW 6244   7.496   2.267   5.454
 1385WAT      O 6245   6.948   2.491   5.854
 1385WAT     H1 6246   6.892   2.553   5.877
 1385WAT     H2 6247   7.024   2.533   5.846
 1385WAT    EPW 6248   6.951   2.506   5.856
 1386WAT      O 6249   7.671   1.902   6.820
 1386WAT     H1 6250   7.606   1.948   6.854
 1386WAT     H2 6251   7.679   1.932   6.739
 1386WAT    EPW 6252   7.663   1.913   6.813
 1387WAT      O 6253   7.021   2.165   5.430
 1387WAT     H1 6254   6.997   2.082   5.424
 1387WAT     H2 6255   7.093   2.170   5.380
 1387WAT    EPW 6256   7.028   2.154   5.421
 1388WAT      O 6257   6.923   2.644   5.345
 1388WAT     H1 6258   6.980   2.697   5.385
 1388WAT     H2 6259   6.916   2.576   5.399
 1388WAT    EPW 6260   6.930   2.642   5.359
 1389WAT      O 6261   7.322   2.442   6.022
 1389WAT     H1 6262   7.357   2.488   6.087
 1389WAT     H2 6263   7.392   2.407   5.983
 1389WAT    EPW 6264   7.338   2.443   6.025
 1390WAT      O 6265   6.928   2.465   5.122
 1390WAT     H1 6266   7.006   2.426   5.118
 1390WAT     H2 6267   6.939   2.525   5.185
 1390WAT    EPW 6268   6.941   2.468   5.131
 1391WAT      O 6269   6.975   2.220   5.892
 1391WAT     H1 6270   7.027   2.205   5.824
 1391WAT     H2 6271   6.963   2.306   5.890
 1391WAT    EPW 6272   6.981   2.230   5.882
 1392WAT      O 6273   7.676   1.626   5.191
 1392WAT     H1 6274   7.638   1.618   5.112
 1392WAT     H2 6275   7.633   1.694   5.226
 1392WAT    EPW 6276   7.664   1.635   5.184
 1393WAT      O 6277   7.400   2.681   5.653
 1393WAT     H1 6278   7.432   2.748   5.698
 1393WAT     H2 6279   7.443   2.612   5.685
 1393WAT    EPW 6280   7.411   2.681   5.664
 1394WAT      O 6281   7.255   1.985   6.697
 1394WAT     H1 6282   7.210   1.924   6.740
 1394WAT     H2 6283   7.260   1.954   6.616
 1394WAT    EPW 6284   7.249   1.971   6.692
 1395WAT      O 6285   7.273   1.893   5.204
 1395WAT     H1 6286   7.255   1.833   5.264
 1395WAT     H2 6287   7.230   1.866   5.133
 1395WAT    EPW 6288   7.264   1.880   5.202
 1396WAT      O 6289   7.432   2.097   5.883
 1396WAT     H1 6290   7.396   2.070   5.808
 1396WAT     H2 6291   7.424   2.028   5.935
 1396WAT    EPW 6292   7.426   2.083   5.879
 1397WAT      O 6293   7.313   2.048   6.229
 1397WAT     H1 6294   7.336   1.996   6.163
 1397WAT     H2 6295   7.259   2.106   6.191
 1397WAT    EPW 6296   7.308   2.049   6.213
 1398WAT      O 6297   7.696   2.872   6.209
 1398WAT     H1 6298   7.676   2.820   6.142
 1398WAT     H2 6299   7.695   2.952   6.174
 1398WAT    EPW 6300   7.693   2.876   6.194
 1399WAT      O 6301   7.132   2.220   6.772
 1399WAT     H1 6302   7.114   2.263   6.698
 1399WAT     H2 6303   7.176   2.150   6.745
 1399WAT    EPW 6304   7.136   2.216   6.757
 1400WAT      O 6305   7.724   2.707   6.625
 1400WAT     H1 6306   7.769   2.721   6.699
 1400WAT     H2 6307   7.675   2.637   6.643
 1400WAT    EPW 6308   7.723   2.699   6.639
 1401WAT      O 6309   7.804   1.700   6.003
 1401WAT     H1 6310   7.823   1.785   6.012
 1401WAT     H2 6311   7.876   1.660   6.032
 1401WAT    EPW 6312   7.817   1.707   6.009
 1402WAT      O 6313   7.679   2.934   5.383
 1402WAT     H1 6314   7.639   2.857   5.391
 1402WAT     H2 6315   7.739   2.920   5.321
 1402WAT    EPW 6316   7.682   2.921   5.375
 1403WAT      O 6317   7.424   1.296   5.187
 1403WAT     H1 6318   7.475   1.333   5.248
 1403WAT     H2 6319   7.380   1.364   5.153
 1403WAT    EPW 6320   7.425   1.311   5.191
 1404WAT      O 6321   7.860   2.912   5.172
 1404WAT     H1 6322   7.941   2.943   5.181
 1404WAT     H2 6323   7.815   2.980   5.140
 1404WAT    EPW 6324   7.865   2.927   5.168
 1405WAT      O 6325   7.260   2.176   5.289
 1405WAT     H1 6326   7.274   2.091   5.274
 1405WAT     H2 6327   7.328   2.199   5.339
 1405WAT    EPW 6328   7.272   2.166   5.294
 1406WAT      O 6329   6.906   1.292   5.374
 1406WAT     H1 6330   6.900   1.242   5.302
 1406WAT     H2 6331   6.874   1.240   5.437
 1406WAT    EPW 6332   6.900   1.277   5.373
 1407WAT      O 6333   7.910   1.975   5.330
 1407WAT     H1 6334   7.996   1.978   5.339
 1407WAT     H2 6335   7.898   1.927   5.258
 1407WAT    EPW 6336   7.921   1.968   5.320
 1408WAT      O 6337   7.314   1.530   5.090
 1408WAT     H1 6338   7.251   1.524   5.030
 1408WAT     H2 6339   7.379   1.571   5.047
 1408WAT    EPW 6340   7.315   1.535   5.075
 1409WAT      O 6341   7.822   2.445   5.911
 1409WAT     H1 6342   7.748   2.398   5.916
 1409WAT     H2 6343   7.851   2.446   5.994
 1409WAT    EPW 6344   7.815   2.438   5.924
 1410WAT      O 6345   7.428   2.937   4.971
 1410WAT     H1 6346   7.450   2.865   5.016
 1410WAT     H2 6347   7.421   2.998   5.032
 1410WAT    EPW 6348   7.430   2.935   4.987
 1411WAT      O 6349   7.149   2.240   6.110
 1411WAT     H1 6350   7.200   2.306   6.087
 1411WAT     H2 6351   7.096   2.230   6.041
 1411WAT    EPW 6352   7.149   2.248   6.096
 1412WAT      O 6353   7.468   1.765   5.774
 1412WAT     H1 6354   7.540   1.720   5.757
 1412WAT     H2 6355   7.404   1.708   5.759
 1412WAT    EPW 6356   7.469   1.750   5.770
 1413WAT      O 6357   6.958   1.894   5.421
 1413WAT     H1 6358   6.991   1.856   5.493
 1413WAT     H2 6359   6.968   1.833   5.360
 1413WAT    EPW 6360   6.964   1.879   5.423
 1414WAT      O 6361   7.432   2.028   5.005
 1414WAT     H1 6362   7.386   1.988   5.068
 1414WAT     H2 6363   7.381   2.020   4.935
 1414WAT    EPW 6364   7.418   2.021   5.004
 1415WAT      O 6365   7.079   2.346   6.534
 1415WAT     H1 6366   7.045   2.298   6.469
 1415WAT     H2 6367   7.052   2.426   6.516
 1415WAT    EPW 6368   7.070   2.351   6.521
 1416WAT      O 6369   7.537   1.835   5.296
 1416WAT     H1 6370   7.573   1.912   5.317
 1416WAT     H2 6371   7.456   1.855   5.271
 1416WAT    EPW 6372   7.531   1.849   5.296
 1417WAT      O 6373   6.949   1.542   5.921
 1417WAT     H1 6374   6.931   1.567   5.840
 1417WAT     H2 6375   7.018   1.591   5.943
 1417WAT    EPW 6376   6.957   1.553   5.912
 1418WAT      O 6377   7.480   2.586   6.206
 1418WAT     H1 6378   7.486   2.641   6.274
 1418WAT     H2 6379   7.511   2.633   6.139
 1418WAT    EPW 6380   7.486   2.601   6.206
 1419WAT      O 6381   7.349   2.409   6.513
 1419WAT     H1 6382   7.268   2.378   6.522
 1419WAT     H2 6383   7.337   2.495   6.506
 1419WAT    EPW 6384   7.335   2.417   6.514
 1420WAT      O 6385   7.867   2.425   6.192
 1420WAT     H1 6386   7.882   2.459   6.271
 1420WAT     H2 6387   7.790   2.387   6.200
 1420WAT    EPW 6388   7.858   2.424   6.205
 1421WAT      O 6389   7.524   1.763   6.448
 1421WAT     H1 6390   7.540   1.687   6.488
 1421WAT     H2 6391   7.548   1.748   6.365
 1421WAT    EPW 6392   7.530   1.750   6.442
 1422WAT      O 6393   7.743   2.944   5.656
 1422WAT     H1 6394   7.748   3.030   5.669
 1422WAT     H2 6395   7.731   2.937   5.570
 1422WAT    EPW 6396   7.742   2.955   5.645
 1423WAT      O 6397   7.661   1.341   6.384
 1423WAT     H1 6398   7.689   1.332   6.302
 1423WAT     H2 6399   7.685   1.267   6.422
 1423WAT    EPW 6400   7.668   1.329   6.377
 1424WAT      O 6401   7.581   2.731   5.988
 1424WAT     H1 6402   7.537   2.793   5.944
 1424WAT     H2 6403   7.619   2.684   5.926
 1424WAT    EPW 6404   7.580   2.734   5.973
 1425WAT      O 6405   7.600   2.223   5.115
 1425WAT     H1 6406   7.549   2.167   5.071
 1425WAT     H2 6407   7.573   2.301   5.087
 1425WAT    EPW 6408   7.588   2.226   5.104
 1426WAT      O 6409   7.392   1.854   6.025
 1426WAT     H1 6410   7.413   1.824   5.946
 1426WAT     H2 6411   7.447   1.812   6.078
 1426WAT    EPW 6412   7.403   1.844   6.021
 1427WAT      O 6413   7.775   2.965   6.507
 1427WAT     H1 6414   7.821   2.938   6.438
 1427WAT     H2 6415   7.764   2.892   6.554
 1427WAT    EPW 6416   7.780   2.950   6.504
 1428WAT      O 6417   7.704   1.284   6.111
 1428WAT     H1 6418   7.619   1.277   6.090
 1428WAT     H2 6419   7.744   1.292   6.034
 1428WAT    EPW 6420   7.697   1.284   6.096
 1429WAT      O 6421   7.844   2.499   6.469
 1429WAT     H1 6422   7.794   2.438   6.508
 1429WAT     H2 6423   7.827   2.572   6.514
 1429WAT    EPW 6424   7.834   2.501   6.481
 1430WAT      O 6425   6.877   1.424   6.664
 1430WAT     H1 6426   6.876   1.495   6.613
 1430WAT     H2 6427   6.792   1.403   6.671
 1430WAT    EPW 6428   6.864   1.432   6.658
 1431WAT      O 6429   7.414   3.072   6.066
 1431WAT     H1 6430   7.388   3.064   6.149
 1431WAT     H2 6431   7.379   3.002   6.028
 1431WAT    EPW 6432   7.405   3.060   6.073
 1432WAT      O 6433   7.238   1.648   5.336
 1432WAT     H1 6434   7.250   1.608   5.260
 1432WAT     H2 6435   7.159   1.621   5.362
 1432WAT    EPW 6436   7.228   1.638   5.329
 1433WAT      O 6437   7.022   3.027   6.606
 1433WAT     H1 6438   6.963   2.963   6.596
 1433WAT     H2 6439   6.975   3.095   6.633
 1433WAT    EPW 6440   7.007   3.027   6.608
 1434WAT      O 6441   7.268   1.871   6.439
 1434WAT     H1 6442   7.279   1.932   6.377
 1434WAT     H2 6443   7.347   1.833   6.445
 1434WAT    EPW 6444   7.281   1.874   6.431
 1435WAT      O 6445   7.072   1.714   6.320
 1435WAT     H1 6446   7.091   1.718   6.234
 1435WAT     H2 6447   7.137   1.759   6.357
 1435WAT    EPW 6448   7.085   1.721   6.312
 1436WAT      O 6449   7.323   1.402   6.599
 1436WAT     H1 6450   7.351   1.320   6.593
 1436WAT     H2 6451   7.283   1.416   6.523
 1436WAT    EPW 6452   7.321   1.392   6.587
 1437WAT      O 6453   6.967   2.210   6.321
 1437WAT     H1 6454   7.019   2.228   6.254
 1437WAT     H2 6455   6.949   2.125   6.312
 1437WAT    EPW 6456   6.972   2.200   6.310
 1438WAT      O 6457   7.133   1.791   4.979
 1438WAT     H1 6458   7.063   1.786   5.030
 1438WAT     H2 6459   7.135   1.712   4.940
 1438WAT    EPW 6460   7.123   1.779   4.981
 1439WAT      O 6461   7.455   2.710   5.140
 1439WAT     H1 6462   7.497   2.702   5.216
 1439WAT     H2 6463   7.372   2.690   5.160
 1439WAT    EPW 6464   7.449   2.706   5.154
 1440WAT      O 6465   7.484   2.182   6.410
 1440WAT     H1 6466   7.437   2.247   6.445
 1440WAT     H2 6467   7.428   2.143   6.356
 1440WAT    EPW 6468   7.469   2.186   6.407
 1441WAT      O 6469   7.208   2.614   5.209
 1441WAT     H1 6470   7.203   2.593   5.294
 1441WAT     H2 6471   7.207   2.536   5.169
 1441WAT    EPW 6472   7.207   2.599   5.216
 1442WAT      O 6473   7.472   2.455   5.018
 1442WAT     H1 6474   7.391   2.428   5.034
 1442WAT     H2 6475   7.474   2.535   5.053
 1442WAT    EPW 6476   7.460   2.463   5.025
 1443WAT      O 6477   7.447   1.486   6.262
 1443WAT     H1 6478   7.363   1.473   6.284
 1443WAT     H2 6479   7.489   1.421   6.301
 1443WAT    EPW 6480   7.441   1.475   6.271
 1444WAT      O 6481   7.640   1.992   6.558
 1444WAT     H1 6482   7.607   1.921   6.520
 1444WAT     H2 6483   7.598   2.058   6.519
 1444WAT    EPW 6484   7.629   1.991   6.547
 1445WAT      O 6485   7.700   1.260   5.109
 1445WAT     H1 6486   7.721   1.284   5.028
 1445WAT     H2 6487   7.612   1.259   5.107
 1445WAT    EPW 6488   7.690   1.264   5.097
 1446WAT      O 6489   7.446   2.990   6.587
 1446WAT     H1 6490   7.460   2.975   6.672
 1446WAT     H2 6491   7.497   2.933   6.546
 1446WAT    EPW 6492   7.456   2.980   6.593
 1447WAT      O 6493   7.189   1.464   6.366
 1447WAT     H1 6494   7.136   1.400   6.340
 1447WAT     H2 6495   7.144   1.537   6.348
 1447WAT    EPW 6496   7.175   1.465   6.359
 1448WAT      O 6497   7.201   2.844   6.729
 1448WAT     H1 6498   7.269   2.884   6.766
 1448WAT     H2 6499   7.157   2.910   6.692
 1448WAT    EPW 6500   7.204   2.860   6.729
 1449WAT      O 6501   7.077   1.824   5.668
 1449WAT     H1 6502   7.033   1.848   5.739
 1449WAT     H2 6503   7.112   1.748   5.689
 1449WAT    EPW 6504   7.076   1.816   5.681
 1450WAT      O 6505   7.030   2.608   6.452
 1450WAT     H1 6506   6.979   2.670   6.486
 1450WAT     H2 6507   7.111   2.640   6.463
 1450WAT    EPW 6508   7.034   2.622   6.459
 1451WAT      O 6509   7.326   2.938   5.376
 1451WAT     H1 6510   7.333   2.997   5.312
 1451WAT     H2 6511   7.397   2.888   5.365
 1451WAT    EPW 6512   7.338   2.939   5.365
 1452WAT      O 6513   7.654   2.082   5.346
 1452WAT     H1 6514   7.649   2.127   5.272
 1452WAT     H2 6515   7.737   2.055   5.348
 1452WAT    EPW 6516   7.666   2.084   5.335
 1453WAT      O 6517   7.574   1.516   6.582
 1453WAT     H1 6518   7.606   1.475   6.513
 1453WAT     H2 6519   7.493   1.484   6.589
 1453WAT    EPW 6520   7.566   1.505   6.573
 1454WAT      O 6521   7.247   2.857   5.983
 1454WAT     H1 6522   7.233   2.781   5.943
 1454WAT     H2 6523   7.208   2.915   5.930
 1454WAT    EPW 6524   7.239   2.855   5.969
 1455WAT      O 6525   7.004   3.094   6.336
 1455WAT     H1 6526   7.015   3.070   6.419
 1455WAT     H2 6527   7.032   3.024   6.291
 1455WAT    EPW 6528   7.009   3.080   6.342
 1456WAT      O 6529   6.954   2.428   3.612
 1456WAT     H1 6530   6.905   2.427   3.684
 1456WAT     H2 6531   6.955   2.344   3.587
 1456WAT    EPW 6532   6.947   2.415   3.619
 1457WAT      O 6533   6.920   1.767   3.258
 1457WAT     H1 6534   6.856   1.816   3.226
 1457WAT     H2 6535   6.891   1.686   3.250
 1457WAT    EPW 6536   6.907   1.762   3.252
 1458WAT      O 6537   7.205   2.363   3.187
 1458WAT     H1 6538   7.181   2.314   3.119
 1458WAT     H2 6539   7.222   2.304   3.249
 1458WAT    EPW 6540   7.204   2.347   3.186
 1459WAT      O 6541   7.207   2.533   3.569
 1459WAT     H1 6542   7.261   2.498   3.628
 1459WAT     H2 6543   7.130   2.495   3.587
 1459WAT    EPW 6544   7.203   2.522   3.580
 1460WAT      O 6545   7.626   1.410   3.453
 1460WAT     H1 6546   7.643   1.483   3.409
 1460WAT     H2 6547   7.677   1.350   3.413
 1460WAT    EPW 6548   7.636   1.412   3.440
 1461WAT      O 6549   7.039   2.804   3.164
 1461WAT     H1 6550   7.092   2.820   3.096
 1461WAT     H2 6551   7.084   2.748   3.213
 1461WAT    EPW 6552   7.054   2.798   3.161
 1462WAT      O 6553   6.923   2.643   4.277
 1462WAT     H1 6554   6.953   2.618   4.355
 1462WAT     H2 6555   6.853   2.592   4.265
 1462WAT    EPW 6556   6.917   2.632   4.287
 1463WAT      O 6557   7.565   2.485   4.754
 1463WAT     H1 6558   7.542   2.470   4.837
 1463WAT     H2 6559   7.499   2.452   4.708
 1463WAT    EPW 6560   7.552   2.478   4.759
 1464WAT      O 6561   7.149   2.182   3.776
 1464WAT     H1 6562   7.103   2.180   3.701
 1464WAT     H2 6563   7.204   2.116   3.768
 1464WAT    EPW 6564   7.150   2.172   3.764
 1465WAT      O 6565   7.568   1.708   4.281
 1465WAT     H1 6566   7.637   1.688   4.231
 1465WAT     H2 6567   7.530   1.631   4.296
 1465WAT    EPW 6568   7.573   1.694   4.276
 1466WAT      O 6569   7.541   2.783   4.518
 1466WAT     H1 6570   7.579   2.829   4.454
 1466WAT     H2 6571   7.609   2.751   4.563
 1466WAT    EPW 6572   7.557   2.785   4.515
 1467WAT      O 6573   7.314   1.962   3.757
 1467WAT     H1 6574   7.376   1.903   3.773
 1467WAT     H2 6575   7.241   1.915   3.754
 1467WAT    EPW 6576   7.312   1.946   3.759
 1468WAT      O 6577   7.692   2.628   3.844
 1468WAT     H1 6578   7.741   2.575   3.893
 1468WAT     H2 6579   7.743   2.696   3.829
 1468WAT    EPW 6580   7.706   2.630   3.849
 1469WAT      O 6581   7.674   2.464   3.609
 1469WAT     H1 6582   7.680   2.501   3.687
 1469WAT     H2 6583   7.749   2.421   3.600
 1469WAT    EPW 6584   7.686   2.463   3.619
 1470WAT      O 6585   7.389   1.497   3.613
 1470WAT     H1 6586   7.345   1.548   3.558
 1470WAT     H2 6587   7.466   1.486   3.574
 1470WAT    EPW 6588   7.394   1.503   3.599
 1471WAT      O 6589   7.724   1.377   3.717
 1471WAT     H1 6590   7.718   1.452   3.761
 1471WAT     H2 6591   7.696   1.398   3.637
 1471WAT    EPW 6592   7.719   1.391   3.712
 1472WAT      O 6593   6.955   1.919   4.010
 1472WAT     H1 6594   6.951   2.006   4.016
 1472WAT     H2 6595   6.886   1.893   4.056
 1472WAT    EPW 6596   6.944   1.928   4.017
 1473WAT      O 6597   6.966   2.863   3.798
 1473WAT     H1 6598   6.894   2.901   3.765
 1473WAT     H2 6599   7.010   2.839   3.726
 1473WAT    EPW 6600   6.962   2.865   3.782
 1474WAT      O 6601   7.534   2.680   3.502
 1474WAT     H1 6602   7.480   2.684   3.571
 1474WAT     H2 6603   7.583   2.609   3.519
 1474WAT    EPW 6604   7.533   2.670   3.515
 1475WAT      O 6605   7.273   1.446   4.053
 1475WAT     H1 6606   7.216   1.385   4.028
 1475WAT     H2 6607   7.333   1.401   4.099
 1475WAT    EPW 6608   7.274   1.430   4.056
 1476WAT      O 6609   7.538   1.636   4.946
 1476WAT     H1 6610   7.555   1.596   4.871
 1476WAT     H2 6611   7.569   1.717   4.934
 1476WAT    EPW 6612   7.545   1.642   4.933
 1477WAT      O 6613   7.121   2.797   3.571
 1477WAT     H1 6614   7.163   2.722   3.589
 1477WAT     H2 6615   7.182   2.847   3.535
 1477WAT    EPW 6616   7.136   2.793   3.568
 1478WAT      O 6617   7.131   1.523   4.880
 1478WAT     H1 6618   7.052   1.495   4.855
 1478WAT     H2 6619   7.184   1.487   4.822
 1478WAT    EPW 6620   7.127   1.514   4.868
 1479WAT      O 6621   7.206   2.613   3.941
 1479WAT     H1 6622   7.262   2.617   3.874
 1479WAT     H2 6623   7.243   2.556   3.995
 1479WAT    EPW 6624   7.220   2.605   3.939
 1480WAT      O 6625   7.498   2.925   3.881
 1480WAT     H1 6626   7.574   2.932   3.839
 1480WAT     H2 6627   7.447   2.985   3.842
 1480WAT    EPW 6628   7.502   2.935   3.869
 1481WAT      O 6629   7.730   1.318   4.839
 1481WAT     H1 6630   7.750   1.260   4.777
 1481WAT     H2 6631   7.685   1.379   4.796
 1481WAT    EPW 6632   7.726   1.319   4.823
 1482WAT      O 6633   7.311   2.999   4.430
 1482WAT     H1 6634   7.321   2.983   4.515
 1482WAT     H2 6635   7.242   2.951   4.408
 1482WAT    EPW 6636   7.302   2.989   4.440
 1483WAT      O 6637   6.857   1.654   4.610
 1483WAT     H1 6638   6.851   1.729   4.654
 1483WAT     H2 6639   6.918   1.671   4.550
 1483WAT    EPW 6640   6.865   1.668   4.608
 1484WAT      O 6641   7.864   2.738   3.060
 1484WAT     H1 6642   7.855   2.792   3.127
 1484WAT     H2 6643   7.922   2.680   3.087
 1484WAT    EPW 6644   7.871   2.737   3.074
 1485WAT      O 6645   6.996   1.555   3.538
 1485WAT     H1 6646   6.974   1.473   3.520
 1485WAT     H2 6647   6.947   1.574   3.608
 1485WAT    EPW 6648   6.985   1.546   3.546
 1486WAT      O 6649   7.090   2.871   4.311
 1486WAT     H1 6650   7.034   2.804   4.306
 1486WAT     H2 6651   7.134   2.865   4.236
 1486WAT    EPW 6652   7.088   2.860   4.299
 1487WAT      O 6653   7.863   1.818   3.209
 1487WAT     H1 6654   7.820   1.748   3.238
 1487WAT     H2 6655   7.811   1.850   3.147
 1487WAT    EPW 6656   7.849   1.812   3.204
 1488WAT      O 6657   7.715   1.632   3.846
 1488WAT     H1 6658   7.767   1.685   3.800
 1488WAT     H2 6659   7.742   1.644   3.928
 1488WAT    EPW 6660   7.727   1.642   3.851
 1489WAT      O 6661   7.286   2.688   4.602
 1489WAT     H1 6662   7.359   2.726   4.574
 1489WAT     H2 6663   7.269   2.728   4.678
 1489WAT    EPW 6664   7.294   2.700   4.609
 1490WAT      O 6665   7.347   1.245   3.727
 1490WAT     H1 6666   7.361   1.326   3.699
 1490WAT     H2 6667   7.343   1.199   3.653
 1490WAT    EPW 6668   7.348   1.250   3.712
 1491WAT      O 6669   7.565   2.322   4.044
 1491WAT     H1 6670   7.578   2.309   4.129
 1491WAT     H2 6671   7.527   2.248   4.017
 1491WAT    EPW 6672   7.562   2.309   4.052
 1492WAT      O 6673   7.608   2.333   4.316
 1492WAT     H1 6674   7.570   2.411   4.327
 1492WAT     H2 6675   7.574   2.284   4.379
 1492WAT    EPW 6676   7.597   2.337   4.327
 1493WAT      O 6677   6.862   2.657   4.914
 1493WAT     H1 6678   6.918   2.705   4.959
 1493WAT     H2 6679   6.868   2.578   4.952
 1493WAT    EPW 6680   6.871   2.652   4.926
 1494WAT      O 6681   7.244   1.608   3.833
 1494WAT     H1 6682   7.277   1.559   3.768
 1494WAT     H2 6683   7.249   1.556   3.902
 1494WAT    EPW 6684   7.250   1.593   3.833
 1495WAT      O 6685   7.343   2.384   3.762
 1495WAT     H1 6686   7.392   2.336   3.707
 1495WAT     H2 6687   7.277   2.330   3.782
 1495WAT    EPW 6688   7.340   2.369   3.757
 1496WAT      O 6689   7.134   3.047   3.910
 1496WAT     H1 6690   7.073   2.997   3.873
 1496WAT     H2 6691   7.191   3.060   3.845
 1496WAT    EPW 6692   7.134   3.042   3.895
 1497WAT      O 6693   7.119   1.746   4.153
 1497WAT     H1 6694   7.203   1.767   4.138
 1497WAT     H2 6695   7.075   1.808   4.110
 1497WAT    EPW 6696   7.125   1.758   4.145
 1498WAT      O 6697   7.480   2.263   3.551
 1498WAT     H1 6698   7.534   2.330   3.556
 1498WAT     H2 6699   7.532   2.195   3.533
 1498WAT    EPW 6700   7.496   2.263   3.549
 1499WAT      O 6701   6.957   2.482   3.916
 1499WAT     H1 6702   6.902   2.545   3.942
 1499WAT     H2 6703   7.035   2.522   3.916
 1499WAT    EPW 6704   6.961   2.497   3.920
 1500WAT      O 6705   7.655   1.888   4.920
 1500WAT     H1 6706   7.592   1.937   4.956
 1500WAT     H2 6707   7.663   1.920   4.839
 1500WAT    EPW 6708   7.647   1.900   4.913
 1501WAT      O 6709   7.018   2.166   3.532
 1501WAT     H1 6710   6.994   2.083   3.525
 1501WAT     H2 6711   7.088   2.172   3.482
 1501WAT    EPW 6712   7.025   2.155   3.524
 1502WAT      O 6713   6.923   2.639   3.440
 1502WAT     H1 6714   6.984   2.693   3.471
 1502WAT     H2 6715   6.922   2.574   3.498
 1502WAT    EPW 6716   6.932   2.637   3.453
 1503WAT      O 6717   7.325   2.442   4.125
 1503WAT     H1 6718   7.361   2.489   4.189
 1503WAT     H2 6719   7.393   2.405   4.085
 1503WAT    EPW 6720   7.340   2.443   4.129
 1504WAT      O 6721   6.923   2.465   3.213
 1504WAT     H1 6722   7.000   2.424   3.208
 1504WAT     H2 6723   6.935   2.522   3.279
 1504WAT    EPW 6724   6.936   2.468   3.222
 1505WAT      O 6725   6.979   2.217   3.988
 1505WAT     H1 6726   7.032   2.197   3.922
 1505WAT     H2 6727   6.966   2.303   3.979
 1505WAT    EPW 6728   6.985   2.226   3.977
 1506WAT      O 6729   7.677   1.625   3.294
 1506WAT     H1 6730   7.640   1.616   3.215
 1506WAT     H2 6731   7.633   1.692   3.329
 1506WAT    EPW 6732   7.665   1.634   3.287
 1507WAT      O 6733   7.415   2.691   3.758
 1507WAT     H1 6734   7.431   2.767   3.797
 1507WAT     H2 6735   7.476   2.638   3.790
 1507WAT    EPW 6736   7.426   2.694   3.768
 1508WAT      O 6737   7.240   1.981   4.804
 1508WAT     H1 6738   7.198   1.919   4.848
 1508WAT     H2 6739   7.246   1.948   4.723
 1508WAT    EPW 6740   7.235   1.967   4.798
 1509WAT      O 6741   7.272   1.896   3.306
 1509WAT     H1 6742   7.253   1.836   3.367
 1509WAT     H2 6743   7.229   1.867   3.236
 1509WAT    EPW 6744   7.263   1.883   3.305
 1510WAT      O 6745   7.426   2.091   3.986
 1510WAT     H1 6746   7.393   2.064   3.910
 1510WAT     H2 6747   7.419   2.021   4.038
 1510WAT    EPW 6748   7.420   2.077   3.982
 1511WAT      O 6749   7.307   2.043   4.330
 1511WAT     H1 6750   7.330   1.990   4.265
 1511WAT     H2 6751   7.255   2.102   4.292
 1511WAT    EPW 6752   7.303   2.044   4.315
 1512WAT      O 6753   7.673   2.905   4.302
 1512WAT     H1 6754   7.656   2.852   4.235
 1512WAT     H2 6755   7.673   2.984   4.267
 1512WAT    EPW 6756   7.670   2.909   4.287
 1513WAT      O 6757   7.123   2.222   4.870
 1513WAT     H1 6758   7.107   2.267   4.797
 1513WAT     H2 6759   7.166   2.152   4.843
 1513WAT    EPW 6760   7.127   2.219   4.855
 1514WAT      O 6761   7.729   2.703   4.718
 1514WAT     H1 6762   7.770   2.713   4.795
 1514WAT     H2 6763   7.674   2.637   4.734
 1514WAT    EPW 6764   7.727   2.695   4.732
 1515WAT      O 6765   7.800   1.694   4.110
 1515WAT     H1 6766   7.822   1.778   4.120
 1515WAT     H2 6767   7.870   1.652   4.142
 1515WAT    EPW 6768   7.814   1.700   4.116
 1516WAT      O 6769   7.659   2.921   3.476
 1516WAT     H1 6770   7.630   2.840   3.484
 1516WAT     H2 6771   7.723   2.915   3.416
 1516WAT    EPW 6772   7.664   2.908   3.468
 1517WAT      O 6773   7.427   1.295   3.288
 1517WAT     H1 6774   7.478   1.331   3.349
 1517WAT     H2 6775   7.383   1.363   3.255
 1517WAT    EPW 6776   7.428   1.310   3.292
 1518WAT      O 6777   7.856   2.916   3.277
 1518WAT     H1 6778   7.938   2.944   3.290
 1518WAT     H2 6779   7.816   2.985   3.242
 1518WAT    EPW 6780   7.862   2.930   3.274
 1519WAT      O 6781   7.256   2.178   3.389
 1519WAT     H1 6782   7.269   2.093   3.374
 1519WAT     H2 6783   7.324   2.201   3.438
 1519WAT    EPW 6784   7.268   2.169   3.394
 1520WAT      O 6785   6.907   1.290   3.477
 1520WAT     H1 6786   6.901   1.238   3.406
 1520WAT     H2 6787   6.872   1.241   3.540
 1520WAT    EPW 6788   6.901   1.275   3.476
 1521WAT      O 6789   7.913   1.974   3.432
 1521WAT     H1 6790   8.000   1.978   3.440
 1521WAT     H2 6791   7.902   1.925   3.360
 1521WAT    EPW 6792   7.924   1.967   3.422
 1522WAT      O 6793   7.317   1.530   3.194
 1522WAT     H1 6794   7.253   1.523   3.135
 1522WAT     H2 6795   7.381   1.570   3.152
 1522WAT    EPW 6796   7.317   1.535   3.179
 1523WAT      O 6797   7.814   2.443   4.004
 1523WAT     H1 6798   7.742   2.395   4.011
 1523WAT     H2 6799   7.846   2.444   4.085
 1523WAT    EPW 6800   7.808   2.436   4.017
 1524WAT      O 6801   7.432   2.943   3.071
 1524WAT     H1 6802   7.452   2.871   3.116
 1524WAT     H2 6803   7.428   3.005   3.133
 1524WAT    EPW 6804   7.434   2.942   3.087
 1525WAT      O 6805   7.149   2.239   4.210
 1525WAT     H1 6806   7.202   2.305   4.188
 1525WAT     H2 6807   7.099   2.229   4.139
 1525WAT    EPW 6808   7.149   2.247   4.196
 1526WAT      O 6809   7.467   1.760   3.878
 1526WAT     H1 6810   7.539   1.715   3.861
 1526WAT     H2 6811   7.403   1.703   3.861
 1526WAT    EPW 6812   7.468   1.745   3.873
 1527WAT      O 6813   6.958   1.893   3.518
 1527WAT     H1 6814   6.990   1.856   3.590
 1527WAT     H2 6815   6.966   1.831   3.457
 1527WAT    EPW 6816   6.964   1.878   3.520
 1528WAT      O 6817   7.435   2.028   3.110
 1528WAT     H1 6818   7.389   1.989   3.173
 1528WAT     H2 6819   7.385   2.018   3.039
 1528WAT    EPW 6820   7.421   2.021   3.109
 1529WAT      O 6821   7.072   2.353   4.632
 1529WAT     H1 6822   7.039   2.304   4.568
 1529WAT     H2 6823   7.045   2.433   4.613
 1529WAT    EPW 6824   7.063   2.358   4.620
 1530WAT      O 6825   7.537   1.833   3.396
 1530WAT     H1 6826   7.573   1.910   3.417
 1530WAT     H2 6827   7.455   1.855   3.373
 1530WAT    EPW 6828   7.530   1.848   3.396
 1531WAT      O 6829   6.943   1.539   4.022
 1531WAT     H1 6830   6.925   1.564   3.940
 1531WAT     H2 6831   7.011   1.588   4.044
 1531WAT    EPW 6832   6.950   1.550   4.013
 1532WAT      O 6833   7.490   2.589   4.304
 1532WAT     H1 6834   7.496   2.644   4.372
 1532WAT     H2 6835   7.518   2.637   4.237
 1532WAT    EPW 6836   7.495   2.605   4.304
 1533WAT      O 6837   7.341   2.411   4.598
 1533WAT     H1 6838   7.260   2.382   4.612
 1533WAT     H2 6839   7.330   2.497   4.588
 1533WAT    EPW 6840   7.328   2.419   4.598
 1534WAT      O 6841   7.869   2.421   4.282
 1534WAT     H1 6842   7.885   2.457   4.360
 1534WAT     H2 6843   7.792   2.383   4.293
 1534WAT    EPW 6844   7.860   2.421   4.295
 1535WAT      O 6845   7.516   1.757   4.553
 1535WAT     H1 6846   7.533   1.682   4.594
 1535WAT     H2 6847   7.540   1.741   4.471
 1535WAT    EPW 6848   7.522   1.744   4.547
 1536WAT      O 6849   7.736   2.940   3.745
 1536WAT     H1 6850   7.744   3.026   3.756
 1536WAT     H2 6851   7.720   2.932   3.660
 1536WAT    EPW 6852   7.735   2.952   3.734
 1537WAT      O 6853   7.658   1.337   4.491
 1537WAT     H1 6854   7.686   1.328   4.409
 1537WAT     H2 6855   7.683   1.263   4.529
 1537WAT    EPW 6856   7.666   1.324   4.484
 1538WAT      O 6857   7.579   2.744   4.087
 1538WAT     H1 6858   7.534   2.805   4.042
 1538WAT     H2 6859   7.617   2.697   4.025
 1538WAT    EPW 6860   7.578   2.746   4.071
 1539WAT      O 6861   7.605   2.223   3.215
 1539WAT     H1 6862   7.554   2.167   3.172
 1539WAT     H2 6863   7.576   2.301   3.189
 1539WAT    EPW 6864   7.593   2.226   3.205
 1540WAT      O 6865   7.387   1.848   4.128
 1540WAT     H1 6866   7.409   1.818   4.049
 1540WAT     H2 6867   7.442   1.807   4.182
 1540WAT    EPW 6868   7.398   1.838   4.124
 1541WAT      O 6869   7.805   2.964   4.621
 1541WAT     H1 6870   7.874   2.947   4.570
 1541WAT     H2 6871   7.786   2.886   4.656
 1541WAT    EPW 6872   7.812   2.950   4.619
 1542WAT      O 6873   7.702   1.285   4.216
 1542WAT     H1 6874   7.618   1.279   4.194
 1542WAT     H2 6875   7.743   1.292   4.139
 1542WAT    EPW 6876   7.696   1.286   4.201
 1543WAT      O 6877   7.848   2.498   4.558
 1543WAT     H1 6878   7.801   2.434   4.594
 1543WAT     H2 6879   7.828   2.568   4.607
 1543WAT    EPW 6880   7.838   2.499   4.571
 1544WAT      O 6881   6.877   1.431   4.776
 1544WAT     H1 6882   6.875   1.501   4.725
 1544WAT     H2 6883   6.793   1.410   4.784
 1544WAT    EPW 6884   6.864   1.438   4.770
 1545WAT      O 6885   7.398   3.065   4.173
 1545WAT     H1 6886   7.378   3.055   4.257
 1545WAT     H2 6887   7.362   2.995   4.135
 1545WAT    EPW 6888   7.390   3.053   4.180
 1546WAT      O 6889   7.237   1.650   3.439
 1546WAT     H1 6890   7.249   1.610   3.362
 1546WAT     H2 6891   7.159   1.622   3.464
 1546WAT    EPW 6892   7.227   1.640   3.431
 1547WAT      O 6893   7.041   3.023   4.706
 1547WAT     H1 6894   6.976   2.965   4.700
 1547WAT     H2 6895   7.003   3.093   4.741
 1547WAT    EPW 6896   7.026   3.025   4.710
 1548WAT      O 6897   7.261   1.870   4.545
 1548WAT     H1 6898   7.273   1.930   4.483
 1548WAT     H2 6899   7.339   1.830   4.550
 1548WAT    EPW 6900   7.275   1.873   4.536
 1549WAT      O 6901   7.063   1.719   4.423
 1549WAT     H1 6902   7.081   1.721   4.338
 1549WAT     H2 6903   7.129   1.762   4.460
 1549WAT    EPW 6904   7.075   1.726   4.416
 1550WAT      O 6905   7.314   1.406   4.703
 1550WAT     H1 6906   7.339   1.322   4.697
 1550WAT     H2 6907   7.272   1.420   4.628
 1550WAT    EPW 6908   7.311   1.395   4.691
 1551WAT      O 6909   6.963   2.216   4.418
 1551WAT     H1 6910   7.018   2.230   4.351
 1551WAT     H2 6911   6.945   2.131   4.412
 1551WAT    EPW 6912   6.968   2.205   4.407
 1552WAT      O 6913   7.133   1.787   3.083
 1552WAT     H1 6914   7.061   1.784   3.132
 1552WAT     H2 6915   7.135   1.708   3.046
 1552WAT    EPW 6916   7.122   1.775   3.085
 1553WAT      O 6917   7.453   2.711   3.233
 1553WAT     H1 6918   7.492   2.702   3.311
 1553WAT     H2 6919   7.369   2.693   3.249
 1553WAT    EPW 6920   7.446   2.707   3.247
 1554WAT      O 6921   7.479   2.180   4.507
 1554WAT     H1 6922   7.432   2.247   4.539
 1554WAT     H2 6923   7.424   2.140   4.453
 1554WAT    EPW 6924   7.464   2.184   4.504
 1555WAT      O 6925   7.204   2.616   3.298
 1555WAT     H1 6926   7.208   2.595   3.383
 1555WAT     H2 6927   7.202   2.539   3.258
 1555WAT    EPW 6928   7.204   2.602   3.304
 1556WAT      O 6929   7.475   2.454   3.119
 1556WAT     H1 6930   7.393   2.427   3.132
 1556WAT     H2 6931   7.475   2.534   3.152
 1556WAT    EPW 6932   7.463   2.462   3.126
 1557WAT      O 6933   7.442   1.484   4.370
 1557WAT     H1 6934   7.358   1.473   4.390
 1557WAT     H2 6935   7.482   1.417   4.408
 1557WAT    EPW 6936   7.435   1.473   4.378
 1558WAT      O 6937   7.629   1.988   4.661
 1558WAT     H1 6938   7.596   1.917   4.622
 1558WAT     H2 6939   7.589   2.054   4.620
 1558WAT    EPW 6940   7.618   1.987   4.649
 1559WAT      O 6941   7.702   1.261   3.208
 1559WAT     H1 6942   7.724   1.283   3.127
 1559WAT     H2 6943   7.615   1.261   3.207
 1559WAT    EPW 6944   7.692   1.264   3.196
 1560WAT      O 6945   7.445   2.988   4.688
 1560WAT     H1 6946   7.463   2.977   4.773
 1560WAT     H2 6947   7.483   2.919   4.650
 1560WAT    EPW 6948   7.454   2.976   4.695
 1561WAT      O 6949   7.181   1.469   4.469
 1561WAT     H1 6950   7.129   1.405   4.441
 1561WAT     H2 6951   7.136   1.541   4.451
 1561WAT    EPW 6952   7.167   1.470   4.462
 1562WAT      O 6953   7.207   2.835   4.832
 1562WAT     H1 6954   7.274   2.875   4.870
 1562WAT     H2 6955   7.163   2.900   4.795
 1562WAT    EPW 6956   7.210   2.850   4.832
 1563WAT      O 6957   7.074   1.823   3.766
 1563WAT     H1 6958   7.029   1.845   3.838
 1563WAT     H2 6959   7.109   1.746   3.788
 1563WAT    EPW 6960   7.073   1.815   3.780
 1564WAT      O 6961   7.022   2.613   4.537
 1564WAT     H1 6962   6.973   2.673   4.577
 1564WAT     H2 6963   7.103   2.644   4.546
 1564WAT    EPW 6964   7.027   2.627   4.544
 1565WAT      O 6965   7.345   2.951   3.471
 1565WAT     H1 6966   7.343   3.008   3.406
 1565WAT     H2 6967   7.428   2.923   3.471
 1565WAT    EPW 6968   7.357   2.955   3.462
 1566WAT      O 6969   7.657   2.079   3.445
 1566WAT     H1 6970   7.653   2.125   3.371
 1566WAT     H2 6971   7.740   2.053   3.448
 1566WAT    EPW 6972   7.669   2.082   3.435
 1567WAT      O 6973   7.568   1.509   4.690
 1567WAT     H1 6974   7.602   1.467   4.622
 1567WAT     H2 6975   7.486   1.480   4.694
 1567WAT    EPW 6976   7.561   1.499   4.681
 1568WAT      O 6977   7.236   2.855   4.076
 1568WAT     H1 6978   7.227   2.779   4.035
 1568WAT     H2 6979   7.201   2.912   4.021
 1568WAT    EPW 6980   7.229   2.852   4.062
 1569WAT      O 6981   7.000   3.101   4.441
 1569WAT     H1 6982   7.016   3.073   4.522
 1569WAT     H2 6983   7.020   3.033   4.390
 1569WAT    EPW 6984   7.005   3.087   4.445
 1570WAT      O 6985   6.950   2.414   1.691
 1570WAT     H1 6986   6.878   2.410   1.741
 1570WAT     H2 6987   6.961   2.332   1.665
 1570WAT    EPW 6988   6.941   2.402   1.695
 1571WAT      O 6989   6.932   1.752   1.354
 1571WAT     H1 6990   6.867   1.801   1.324
 1571WAT     H2 6991   6.903   1.670   1.344
 1571WAT    EPW 6992   6.918   1.747   1.348
 1572WAT      O 6993   7.225   2.370   1.301
 1572WAT     H1 6994   7.199   2.324   1.231
 1572WAT     H2 6995   7.242   2.309   1.361
 1572WAT    EPW 6996   7.224   2.354   1.299
 1573WAT      O 6997   7.206   2.526   1.676
 1573WAT     H1 6998   7.260   2.492   1.736
 1573WAT     H2 6999   7.130   2.486   1.691
 1573WAT    EPW 7000   7.203   2.515   1.687
 1574WAT      O 7001   7.632   1.405   1.561
 1574WAT     H1 7002   7.652   1.476   1.515
 1574WAT     H2 7003   7.686   1.344   1.530
 1574WAT    EPW 7004   7.643   1.407   1.550
 1575WAT      O 7005   7.064   2.805   1.269
 1575WAT     H1 7006   7.117   2.817   1.201
 1575WAT     H2 7007   7.110   2.751   1.321
 1575WAT    EPW 7008   7.079   2.799   1.267
 1576WAT      O 7009   6.993   2.642   2.401
 1576WAT     H1 7010   7.021   2.620   2.481
 1576WAT     H2 7011   6.916   2.601   2.395
 1576WAT    EPW 7012   6.986   2.632   2.412
 1577WAT      O 7013   7.588   2.473   2.860
 1577WAT     H1 7014   7.562   2.462   2.943
 1577WAT     H2 7015   7.521   2.443   2.813
 1577WAT    EPW 7016   7.574   2.467   2.866
 1578WAT      O 7017   7.158   2.189   1.868
 1578WAT     H1 7018   7.112   2.183   1.794
 1578WAT     H2 7019   7.214   2.122   1.862
 1578WAT    EPW 7020   7.160   2.178   1.856
 1579WAT      O 7021   7.573   1.708   2.384
 1579WAT     H1 7022   7.642   1.688   2.335
 1579WAT     H2 7023   7.534   1.631   2.397
 1579WAT    EPW 7024   7.577   1.693   2.379
 1580WAT      O 7025   7.542   2.784   2.620
 1580WAT     H1 7026   7.584   2.823   2.555
 1580WAT     H2 7027   7.606   2.750   2.669
 1580WAT    EPW 7028   7.557   2.785   2.618
 1581WAT      O 7029   7.323   1.967   1.854
 1581WAT     H1 7030   7.386   1.908   1.871
 1581WAT     H2 7031   7.250   1.919   1.853
 1581WAT    EPW 7032   7.322   1.951   1.856
 1582WAT      O 7033   7.706   2.624   1.944
 1582WAT     H1 7034   7.751   2.569   1.994
 1582WAT     H2 7035   7.757   2.694   1.938
 1582WAT    EPW 7036   7.720   2.626   1.951
 1583WAT      O 7037   7.681   2.484   1.697
 1583WAT     H1 7038   7.689   2.516   1.778
 1583WAT     H2 7039   7.758   2.445   1.682
 1583WAT    EPW 7040   7.694   2.483   1.707
 1584WAT      O 7041   7.397   1.496   1.720
 1584WAT     H1 7042   7.353   1.548   1.665
 1584WAT     H2 7043   7.473   1.483   1.679
 1584WAT    EPW 7044   7.402   1.502   1.706
 1585WAT      O 7045   7.727   1.380   1.829
 1585WAT     H1 7046   7.722   1.456   1.872
 1585WAT     H2 7047   7.699   1.400   1.748
 1585WAT    EPW 7048   7.722   1.394   1.823
 1586WAT      O 7049   6.972   1.926   2.107
 1586WAT     H1 7050   6.970   2.013   2.113
 1586WAT     H2 7051   6.902   1.901   2.153
 1586WAT    EPW 7052   6.961   1.936   2.115
 1587WAT      O 7053   6.966   2.853   1.921
 1587WAT     H1 7054   6.905   2.902   1.882
 1587WAT     H2 7055   7.013   2.822   1.855
 1587WAT    EPW 7056   6.964   2.855   1.906
 1588WAT      O 7057   7.552   2.719   1.611
 1588WAT     H1 7058   7.501   2.716   1.682
 1588WAT     H2 7059   7.601   2.647   1.619
 1588WAT    EPW 7060   7.552   2.708   1.623
 1589WAT      O 7061   7.278   1.442   2.158
 1589WAT     H1 7062   7.224   1.380   2.130
 1589WAT     H2 7063   7.335   1.398   2.208
 1589WAT    EPW 7064   7.279   1.427   2.162
 1590WAT      O 7065   7.540   1.635   3.049
 1590WAT     H1 7066   7.558   1.595   2.974
 1590WAT     H2 7067   7.571   1.715   3.038
 1590WAT    EPW 7068   7.547   1.641   3.036
 1591WAT      O 7069   7.123   2.791   1.695
 1591WAT     H1 7070   7.167   2.717   1.709
 1591WAT     H2 7071   7.181   2.842   1.653
 1591WAT    EPW 7072   7.138   2.788   1.691
 1592WAT      O 7073   7.133   1.519   2.985
 1592WAT     H1 7074   7.055   1.488   2.962
 1592WAT     H2 7075   7.187   1.482   2.927
 1592WAT    EPW 7076   7.129   1.509   2.973
 1593WAT      O 7077   7.215   2.625   2.050
 1593WAT     H1 7078   7.267   2.627   1.980
 1593WAT     H2 7079   7.252   2.565   2.102
 1593WAT    EPW 7080   7.228   2.617   2.048
 1594WAT      O 7081   7.510   2.916   1.980
 1594WAT     H1 7082   7.590   2.931   1.947
 1594WAT     H2 7083   7.460   2.974   1.939
 1594WAT    EPW 7084   7.515   2.926   1.969
 1595WAT      O 7085   7.734   1.315   2.937
 1595WAT     H1 7086   7.755   1.259   2.874
 1595WAT     H2 7087   7.690   1.378   2.896
 1595WAT    EPW 7088   7.731   1.316   2.922
 1596WAT      O 7089   7.344   3.037   2.525
 1596WAT     H1 7090   7.369   3.020   2.607
 1596WAT     H2 7091   7.279   2.982   2.511
 1596WAT    EPW 7092   7.338   3.027   2.535
 1597WAT      O 7093   6.867   1.647   2.720
 1597WAT     H1 7094   6.852   1.725   2.755
 1597WAT     H2 7095   6.927   1.663   2.658
 1597WAT    EPW 7096   6.873   1.661   2.716
 1598WAT      O 7097   7.889   2.749   1.178
 1598WAT     H1 7098   7.888   2.806   1.244
 1598WAT     H2 7099   7.954   2.695   1.198
 1598WAT    EPW 7100   7.898   2.749   1.191
 1599WAT      O 7101   7.000   1.565   1.635
 1599WAT     H1 7102   6.977   1.483   1.617
 1599WAT     H2 7103   6.951   1.585   1.704
 1599WAT    EPW 7104   6.989   1.556   1.643
 1600WAT      O 7105   7.129   2.885   2.421
 1600WAT     H1 7106   7.082   2.812   2.424
 1600WAT     H2 7107   7.169   2.882   2.344
 1600WAT    EPW 7108   7.128   2.874   2.410
 1601WAT      O 7109   7.877   1.814   1.325
 1601WAT     H1 7110   7.834   1.743   1.350
 1601WAT     H2 7111   7.827   1.848   1.262
 1601WAT    EPW 7112   7.863   1.809   1.320
 1602WAT      O 7113   7.722   1.637   1.953
 1602WAT     H1 7114   7.775   1.688   1.907
 1602WAT     H2 7115   7.749   1.648   2.036
 1602WAT    EPW 7116   7.734   1.646   1.959
 1603WAT      O 7117   7.304   2.686   2.739
 1603WAT     H1 7118   7.369   2.731   2.702
 1603WAT     H2 7119   7.282   2.736   2.807
 1603WAT    EPW 7120   7.310   2.700   2.744
 1604WAT      O 7121   7.349   1.244   1.828
 1604WAT     H1 7122   7.365   1.325   1.801
 1604WAT     H2 7123   7.345   1.198   1.754
 1604WAT    EPW 7124   7.351   1.249   1.813
 1605WAT      O 7125   7.568   2.323   2.147
 1605WAT     H1 7126   7.579   2.311   2.232
 1605WAT     H2 7127   7.528   2.250   2.120
 1605WAT    EPW 7128   7.563   2.311   2.155
 1606WAT      O 7129   7.605   2.334   2.419
 1606WAT     H1 7130   7.566   2.411   2.433
 1606WAT     H2 7131   7.575   2.284   2.483
 1606WAT    EPW 7132   7.595   2.338   2.430
 1607WAT      O 7133   6.849   2.665   3.014
 1607WAT     H1 7134   6.905   2.714   3.059
 1607WAT     H2 7135   6.858   2.586   3.049
 1607WAT    EPW 7136   6.858   2.661   3.026
 1608WAT      O 7137   7.255   1.608   1.940
 1608WAT     H1 7138   7.288   1.559   1.876
 1608WAT     H2 7139   7.259   1.556   2.010
 1608WAT    EPW 7140   7.260   1.593   1.941
 1609WAT      O 7141   7.353   2.391   1.869
 1609WAT     H1 7142   7.404   2.345   1.816
 1609WAT     H2 7143   7.288   2.336   1.889
 1609WAT    EPW 7144   7.351   2.376   1.864
 1610WAT      O 7145   7.142   3.046   1.998
 1610WAT     H1 7146   7.079   2.991   1.970
 1610WAT     H2 7147   7.197   3.049   1.931
 1610WAT    EPW 7148   7.141   3.038   1.984
 1611WAT      O 7149   7.129   1.752   2.259
 1611WAT     H1 7150   7.213   1.773   2.244
 1611WAT     H2 7151   7.085   1.813   2.215
 1611WAT    EPW 7152   7.135   1.764   2.250
 1612WAT      O 7153   7.493   2.270   1.662
 1612WAT     H1 7154   7.547   2.338   1.658
 1612WAT     H2 7155   7.545   2.202   1.649
 1612WAT    EPW 7156   7.508   2.270   1.659
 1613WAT      O 7157   6.968   2.491   2.056
 1613WAT     H1 7158   6.913   2.553   2.084
 1613WAT     H2 7159   7.044   2.534   2.047
 1613WAT    EPW 7160   6.971   2.507   2.059
 1614WAT      O 7161   7.657   1.886   3.025
 1614WAT     H1 7162   7.594   1.935   3.060
 1614WAT     H2 7163   7.666   1.918   2.944
 1614WAT    EPW 7164   7.649   1.898   3.018
 1615WAT      O 7165   7.030   2.157   1.622
 1615WAT     H1 7166   7.011   2.072   1.617
 1615WAT     H2 7167   7.104   2.165   1.577
 1615WAT    EPW 7168   7.038   2.146   1.615
 1616WAT      O 7169   6.938   2.645   1.543
 1616WAT     H1 7170   6.995   2.697   1.584
 1616WAT     H2 7171   6.932   2.575   1.596
 1616WAT    EPW 7172   6.946   2.642   1.557
 1617WAT      O 7173   7.327   2.443   2.226
 1617WAT     H1 7174   7.361   2.489   2.292
 1617WAT     H2 7175   7.396   2.407   2.188
 1617WAT    EPW 7176   7.342   2.445   2.230
 1618WAT      O 7177   6.945   2.461   1.325
 1618WAT     H1 7178   7.024   2.424   1.322
 1618WAT     H2 7179   6.953   2.521   1.388
 1618WAT    EPW 7180   6.958   2.465   1.334
 1619WAT      O 7181   6.996   2.220   2.087
 1619WAT     H1 7182   7.048   2.205   2.019
 1619WAT     H2 7183   6.986   2.307   2.087
 1619WAT    EPW 7184   7.002   2.231   2.077
 1620WAT      O 7185   7.690   1.617   1.399
 1620WAT     H1 7186   7.657   1.610   1.319
 1620WAT     H2 7187   7.647   1.685   1.433
 1620WAT    EPW 7188   7.679   1.626   1.392
 1621WAT      O 7189   7.416   2.690   1.852
 1621WAT     H1 7190   7.444   2.759   1.898
 1621WAT     H2 7191   7.463   2.624   1.883
 1621WAT    EPW 7192   7.427   2.690   1.863
 1622WAT      O 7193   7.245   1.974   2.910
 1622WAT     H1 7194   7.203   1.911   2.953
 1622WAT     H2 7195   7.250   1.943   2.828
 1622WAT    EPW 7196   7.239   1.960   2.904
 1623WAT      O 7197   7.286   1.898   1.416
 1623WAT     H1 7198   7.265   1.839   1.477
 1623WAT     H2 7199   7.245   1.870   1.345
 1623WAT    EPW 7200   7.277   1.885   1.415
 1624WAT      O 7201   7.423   2.097   2.087
 1624WAT     H1 7202   7.393   2.066   2.010
 1624WAT     H2 7203   7.418   2.027   2.140
 1624WAT    EPW 7204   7.418   2.082   2.083
 1625WAT      O 7205   7.315   2.043   2.437
 1625WAT     H1 7206   7.339   1.992   2.372
 1625WAT     H2 7207   7.262   2.102   2.400
 1625WAT    EPW 7208   7.311   2.044   2.422
 1626WAT      O 7209   7.681   2.879   2.401
 1626WAT     H1 7210   7.664   2.826   2.333
 1626WAT     H2 7211   7.678   2.959   2.366
 1626WAT    EPW 7212   7.678   2.883   2.386
 1627WAT      O 7213   7.115   2.208   2.978
 1627WAT     H1 7214   7.105   2.253   2.904
 1627WAT     H2 7215   7.161   2.138   2.954
 1627WAT    EPW 7216   7.120   2.204   2.964
 1628WAT      O 7217   7.727   2.708   2.822
 1628WAT     H1 7218   7.771   2.721   2.896
 1628WAT     H2 7219   7.678   2.638   2.839
 1628WAT    EPW 7220   7.726   2.699   2.836
 1629WAT      O 7221   7.807   1.693   2.218
 1629WAT     H1 7222   7.832   1.776   2.230
 1629WAT     H2 7223   7.875   1.648   2.249
 1629WAT    EPW 7224   7.821   1.699   2.225
 1630WAT      O 7225   7.709   2.953   1.592
 1630WAT     H1 7226   7.664   2.879   1.593
 1630WAT     H2 7227   7.771   2.939   1.532
 1630WAT    EPW 7228   7.711   2.940   1.583
 1631WAT      O 7229   7.439   1.294   1.388
 1631WAT     H1 7230   7.489   1.326   1.452
 1631WAT     H2 7231   7.397   1.365   1.358
 1631WAT    EPW 7232   7.440   1.309   1.393
 1632WAT      O 7233   7.895   2.937   1.384
 1632WAT     H1 7234   7.976   2.970   1.390
 1632WAT     H2 7235   7.849   3.002   1.348
 1632WAT    EPW 7236   7.900   2.951   1.380
 1633WAT      O 7237   7.275   2.179   1.496
 1633WAT     H1 7238   7.290   2.094   1.481
 1633WAT     H2 7239   7.342   2.202   1.547
 1633WAT    EPW 7240   7.287   2.170   1.502
 1634WAT      O 7241   6.916   1.299   1.576
 1634WAT     H1 7242   6.913   1.250   1.504
 1634WAT     H2 7243   6.885   1.247   1.639
 1634WAT    EPW 7244   6.911   1.284   1.575
 1635WAT      O 7245   7.918   1.963   1.554
 1635WAT     H1 7246   8.005   1.970   1.564
 1635WAT     H2 7247   7.909   1.917   1.481
 1635WAT    EPW 7248   7.930   1.958   1.545
 1636WAT      O 7249   7.338   1.536   1.303
 1636WAT     H1 7250   7.276   1.529   1.241
 1636WAT     H2 7251   7.404   1.576   1.261
 1636WAT    EPW 7252   7.339   1.541   1.287
 1637WAT      O 7253   7.819   2.440   2.112
 1637WAT     H1 7254   7.746   2.393   2.117
 1637WAT     H2 7255   7.849   2.442   2.194
 1637WAT    EPW 7256   7.813   2.433   2.125
 1638WAT      O 7257   7.446   2.944   1.174
 1638WAT     H1 7258   7.468   2.872   1.217
 1638WAT     H2 7259   7.442   3.005   1.237
 1638WAT    EPW 7260   7.449   2.943   1.190
 1639WAT      O 7261   7.157   2.238   2.315
 1639WAT     H1 7262   7.208   2.306   2.294
 1639WAT     H2 7263   7.108   2.226   2.244
 1639WAT    EPW 7264   7.157   2.246   2.302
 1640WAT      O 7265   7.474   1.766   1.980
 1640WAT     H1 7266   7.547   1.721   1.965
 1640WAT     H2 7267   7.411   1.708   1.965
 1640WAT    EPW 7268   7.475   1.751   1.976
 1641WAT      O 7269   6.980   1.881   1.616
 1641WAT     H1 7270   7.009   1.849   1.691
 1641WAT     H2 7271   6.985   1.814   1.561
 1641WAT    EPW 7272   6.985   1.867   1.619
 1642WAT      O 7273   7.455   2.032   1.227
 1642WAT     H1 7274   7.410   1.992   1.289
 1642WAT     H2 7275   7.404   2.027   1.157
 1642WAT    EPW 7276   7.441   2.026   1.226
 1643WAT      O 7277   7.090   2.340   2.740
 1643WAT     H1 7278   7.054   2.294   2.675
 1643WAT     H2 7279   7.063   2.422   2.724
 1643WAT    EPW 7280   7.081   2.346   2.728
 1644WAT      O 7281   7.551   1.829   1.498
 1644WAT     H1 7282   7.585   1.904   1.525
 1644WAT     H2 7283   7.468   1.849   1.480
 1644WAT    EPW 7284   7.544   1.843   1.500
 1645WAT      O 7285   6.922   1.565   2.120
 1645WAT     H1 7286   6.911   1.582   2.035
 1645WAT     H2 7287   7.000   1.598   2.138
 1645WAT    EPW 7288   6.932   1.572   2.110
 1646WAT      O 7289   7.484   2.589   2.410
 1646WAT     H1 7290   7.489   2.645   2.477
 1646WAT     H2 7291   7.513   2.635   2.342
 1646WAT    EPW 7292   7.489   2.604   2.410
 1647WAT      O 7293   7.356   2.409   2.712
 1647WAT     H1 7294   7.276   2.378   2.723
 1647WAT     H2 7295   7.345   2.496   2.713
 1647WAT    EPW 7296   7.343   2.418   2.714
 1648WAT      O 7297   7.866   2.423   2.392
 1648WAT     H1 7298   7.882   2.456   2.471
 1648WAT     H2 7299   7.788   2.385   2.401
 1648WAT    EPW 7300   7.857   2.422   2.405
 1649WAT      O 7301   7.520   1.756   2.656
 1649WAT     H1 7302   7.538   1.681   2.697
 1649WAT     H2 7303   7.545   1.740   2.574
 1649WAT    EPW 7304   7.527   1.742   2.650
 1650WAT      O 7305   7.758   2.956   1.867
 1650WAT     H1 7306   7.760   3.042   1.881
 1650WAT     H2 7307   7.753   2.949   1.780
 1650WAT    EPW 7308   7.758   2.968   1.856
 1651WAT      O 7309   7.659   1.339   2.590
 1651WAT     H1 7310   7.687   1.330   2.508
 1651WAT     H2 7311   7.684   1.265   2.629
 1651WAT    EPW 7312   7.667   1.327   2.584
 1652WAT      O 7313   7.577   2.729   2.185
 1652WAT     H1 7314   7.538   2.792   2.139
 1652WAT     H2 7315   7.618   2.682   2.123
 1652WAT    EPW 7316   7.578   2.732   2.169
 1653WAT      O 7317   7.624   2.226   1.337
 1653WAT     H1 7318   7.574   2.170   1.293
 1653WAT     H2 7319   7.596   2.304   1.311
 1653WAT    EPW 7320   7.612   2.229   1.327
 1654WAT      O 7321   7.396   1.853   2.231
 1654WAT     H1 7322   7.418   1.824   2.152
 1654WAT     H2 7323   7.449   1.811   2.285
 1654WAT    EPW 7324   7.407   1.843   2.228
 1655WAT      O 7325   7.784   2.970   2.718
 1655WAT     H1 7326   7.853   2.954   2.667
 1655WAT     H2 7327   7.768   2.893   2.756
 1655WAT    EPW 7328   7.792   2.956   2.716
 1656WAT      O 7329   7.700   1.285   2.316
 1656WAT     H1 7330   7.615   1.276   2.296
 1656WAT     H2 7331   7.738   1.291   2.238
 1656WAT    EPW 7332   7.693   1.284   2.301
 1657WAT      O 7333   7.848   2.497   2.669
 1657WAT     H1 7334   7.798   2.438   2.710
 1657WAT     H2 7335   7.831   2.571   2.712
 1657WAT    EPW 7336   7.838   2.499   2.682
 1658WAT      O 7337   6.872   1.425   2.893
 1658WAT     H1 7338   6.871   1.496   2.842
 1658WAT     H2 7339   6.788   1.400   2.894
 1658WAT    EPW 7340   6.859   1.432   2.886
 1659WAT      O 7341   7.389   3.107   2.259
 1659WAT     H1 7342   7.374   3.097   2.344
 1659WAT     H2 7343   7.364   3.030   2.225
 1659WAT    EPW 7344   7.383   3.094   2.267
 1660WAT      O 7345   7.248   1.652   1.546
 1660WAT     H1 7346   7.263   1.613   1.469
 1660WAT     H2 7347   7.168   1.624   1.568
 1660WAT    EPW 7348   7.238   1.642   1.538
 1661WAT      O 7349   7.027   3.022   2.807
 1661WAT     H1 7350   6.968   2.958   2.795
 1661WAT     H2 7351   6.980   3.086   2.845
 1661WAT    EPW 7352   7.011   3.022   2.811
 1662WAT      O 7353   7.266   1.868   2.649
 1662WAT     H1 7354   7.277   1.929   2.588
 1662WAT     H2 7355   7.344   1.829   2.654
 1662WAT    EPW 7356   7.279   1.871   2.641
 1663WAT      O 7357   7.072   1.712   2.527
 1663WAT     H1 7358   7.091   1.716   2.442
 1663WAT     H2 7359   7.137   1.758   2.565
 1663WAT    EPW 7360   7.084   1.719   2.520
 1664WAT      O 7361   7.319   1.403   2.811
 1664WAT     H1 7362   7.345   1.320   2.804
 1664WAT     H2 7363   7.278   1.418   2.735
 1664WAT    EPW 7364   7.317   1.393   2.798
 1665WAT      O 7365   6.974   2.211   2.526
 1665WAT     H1 7366   7.026   2.228   2.458
 1665WAT     H2 7367   6.954   2.127   2.516
 1665WAT    EPW 7368   6.978   2.201   2.514
 1666WAT      O 7369   7.150   1.792   1.191
 1666WAT     H1 7370   7.077   1.783   1.239
 1666WAT     H2 7371   7.158   1.714   1.152
 1666WAT    EPW 7372   7.140   1.779   1.192
 1667WAT      O 7373   7.471   2.718   1.342
 1667WAT     H1 7374   7.513   2.713   1.418
 1667WAT     H2 7375   7.389   2.697   1.362
 1667WAT    EPW 7376   7.465   2.714   1.356
 1668WAT      O 7377   7.488   2.178   2.615
 1668WAT     H1 7378   7.442   2.244   2.649
 1668WAT     H2 7379   7.432   2.138   2.562
 1668WAT    EPW 7380   7.473   2.182   2.612
 1669WAT      O 7381   7.225   2.622   1.412
 1669WAT     H1 7382   7.220   2.599   1.497
 1669WAT     H2 7383   7.223   2.545   1.371
 1669WAT    EPW 7384   7.224   2.607   1.419
 1670WAT      O 7385   7.494   2.456   1.241
 1670WAT     H1 7386   7.412   2.429   1.253
 1670WAT     H2 7387   7.493   2.539   1.271
 1670WAT    EPW 7388   7.482   2.464   1.247
 1671WAT      O 7389   7.444   1.481   2.465
 1671WAT     H1 7390   7.362   1.470   2.490
 1671WAT     H2 7391   7.488   1.418   2.507
 1671WAT    EPW 7392   7.439   1.470   2.475
 1672WAT      O 7393   7.637   1.984   2.765
 1672WAT     H1 7394   7.603   1.914   2.726
 1672WAT     H2 7395   7.597   2.051   2.725
 1672WAT    EPW 7396   7.626   1.984   2.753
 1673WAT      O 7397   7.711   1.270   1.297
 1673WAT     H1 7398   7.730   1.292   1.215
 1673WAT     H2 7399   7.624   1.273   1.300
 1673WAT    EPW 7400   7.701   1.273   1.285
 1674WAT      O 7401   7.448   2.996   2.790
 1674WAT     H1 7402   7.462   2.980   2.875
 1674WAT     H2 7403   7.498   2.937   2.749
 1674WAT    EPW 7404   7.458   2.985   2.796
 1675WAT      O 7405   7.189   1.466   2.576
 1675WAT     H1 7406   7.134   1.403   2.553
 1675WAT     H2 7407   7.146   1.540   2.558
 1675WAT    EPW 7408   7.175   1.468   2.570
 1676WAT      O 7409   7.202   2.850   2.944
 1676WAT     H1 7410   7.270   2.891   2.979
 1676WAT     H2 7411   7.159   2.912   2.901
 1676WAT    EPW 7412   7.205   2.865   2.943
 1677WAT      O 7413   7.088   1.823   1.869
 1677WAT     H1 7414   7.044   1.848   1.940
 1677WAT     H2 7415   7.123   1.747   1.892
 1677WAT    EPW 7416   7.087   1.815   1.883
 1678WAT      O 7417   7.050   2.605   2.667
 1678WAT     H1 7418   6.994   2.665   2.696
 1678WAT     H2 7419   7.128   2.639   2.687
 1678WAT    EPW 7420   7.053   2.619   2.675
 1679WAT      O 7421   7.338   2.932   1.566
 1679WAT     H1 7422   7.352   2.991   1.504
 1679WAT     H2 7423   7.403   2.874   1.555
 1679WAT    EPW 7424   7.350   2.932   1.556
 1680WAT      O 7425   7.664   2.074   1.565
 1680WAT     H1 7426   7.664   2.122   1.491
 1680WAT     H2 7427   7.747   2.046   1.570
 1680WAT    EPW 7428   7.676   2.077   1.555
 1681WAT      O 7429   7.572   1.509   2.793
 1681WAT     H1 7430   7.605   1.467   2.724
 1681WAT     H2 7431   7.491   1.478   2.798
 1681WAT    EPW 7432   7.565   1.498   2.784
 1682WAT      O 7433   7.253   2.871   2.176
 1682WAT     H1 7434   7.244   2.791   2.141
 1682WAT     H2 7435   7.214   2.923   2.118
 1682WAT    EPW 7436   7.246   2.867   2.162
 1683WAT      O 7437   7.014   3.108   2.544
 1683WAT     H1 7438   7.022   3.079   2.626
 1683WAT     H2 7439   7.042   3.042   2.495
 1683WAT    EPW 7440   7.019   3.094   2.549
 1684WAT      O 7441   6.976   2.648   0.507
 1684WAT     H1 7442   6.997   2.634   0.590
 1684WAT     H2 7443   6.919   2.585   0.489
 1684WAT    EPW 7444   6.971   2.637   0.517
 1685WAT      O 7445   7.599   2.491   0.984
 1685WAT     H1 7446   7.575   2.473   1.066
 1685WAT     H2 7447   7.532   2.464   0.936
 1685WAT    EPW 7448   7.586   2.485   0.989
 1686WAT      O 7449   7.548   1.768   0.477
 1686WAT     H1 7450   7.631   1.761   0.453
 1686WAT     H2 7451   7.520   1.685   0.480
 1686WAT    EPW 7452   7.556   1.755   0.474
 1687WAT      O 7453   7.560   2.748   0.723
 1687WAT     H1 7454   7.599   2.800   0.664
 1687WAT     H2 7455   7.622   2.736   0.783
 1687WAT    EPW 7456   7.575   2.754   0.723
 1688WAT      O 7457   6.946   1.986   0.314
 1688WAT     H1 7458   6.900   2.060   0.318
 1688WAT     H2 7459   6.888   1.924   0.338
 1688WAT    EPW 7460   6.930   1.988   0.318
 1689WAT      O 7461   7.212   1.376   0.359
 1689WAT     H1 7462   7.245   1.456   0.349
 1689WAT     H2 7463   7.283   1.324   0.359
 1689WAT    EPW 7464   7.227   1.380   0.358
 1690WAT      O 7465   7.559   1.639   1.151
 1690WAT     H1 7466   7.574   1.605   1.072
 1690WAT     H2 7467   7.591   1.720   1.145
 1690WAT    EPW 7468   7.566   1.646   1.139
 1691WAT      O 7469   7.163   1.528   1.089
 1691WAT     H1 7470   7.087   1.490   1.070
 1691WAT     H2 7471   7.218   1.495   1.029
 1691WAT    EPW 7472   7.160   1.517   1.077
 1692WAT      O 7473   7.740   1.330   1.025
 1692WAT     H1 7474   7.757   1.275   0.959
 1692WAT     H2 7475   7.703   1.398   0.986
 1692WAT    EPW 7476   7.737   1.332   1.010
 1693WAT      O 7477   7.368   2.993   0.625
 1693WAT     H1 7478   7.381   2.986   0.711
 1693WAT     H2 7479   7.299   2.942   0.611
 1693WAT    EPW 7480   7.360   2.985   0.636
 1694WAT      O 7481   6.903   1.651   0.845
 1694WAT     H1 7482   6.887   1.726   0.886
 1694WAT     H2 7483   6.961   1.672   0.784
 1694WAT    EPW 7484   6.909   1.665   0.842
 1695WAT      O 7485   7.160   2.857   0.491
 1695WAT     H1 7486   7.103   2.792   0.498
 1695WAT     H2 7487   7.203   2.839   0.417
 1695WAT    EPW 7488   7.158   2.845   0.481
 1696WAT      O 7489   7.306   2.699   0.824
 1696WAT     H1 7490   7.381   2.732   0.795
 1696WAT     H2 7491   7.291   2.745   0.897
 1696WAT    EPW 7492   7.314   2.711   0.831
 1697WAT      O 7493   7.453   2.255   0.295
 1697WAT     H1 7494   7.510   2.265   0.361
 1697WAT     H2 7495   7.435   2.170   0.296
 1697WAT    EPW 7496   7.459   2.244   0.305
 1698WAT      O 7497   7.630   2.305   0.505
 1698WAT     H1 7498   7.603   2.387   0.519
 1698WAT     H2 7499   7.610   2.264   0.579
 1698WAT    EPW 7500   7.623   2.311   0.518
 1699WAT      O 7501   6.872   2.661   1.132
 1699WAT     H1 7502   6.930   2.710   1.175
 1699WAT     H2 7503   6.882   2.582   1.167
 1699WAT    EPW 7504   6.882   2.657   1.144
 1700WAT      O 7505   7.159   1.827   0.399
 1700WAT     H1 7506   7.233   1.866   0.375
 1700WAT     H2 7507   7.097   1.878   0.367
 1700WAT    EPW 7508   7.161   1.840   0.391
 1701WAT      O 7509   7.676   1.890   1.138
 1701WAT     H1 7510   7.614   1.939   1.175
 1701WAT     H2 7511   7.684   1.924   1.059
 1701WAT    EPW 7512   7.668   1.902   1.132
 1702WAT      O 7513   7.304   2.489   0.361
 1702WAT     H1 7514   7.356   2.508   0.429
 1702WAT     H2 7515   7.345   2.423   0.322
 1702WAT    EPW 7516   7.318   2.482   0.365
 1703WAT      O 7517   7.258   1.992   1.032
 1703WAT     H1 7518   7.217   1.927   1.072
 1703WAT     H2 7519   7.264   1.965   0.949
 1703WAT    EPW 7520   7.253   1.979   1.026
 1704WAT      O 7521   7.314   2.093   0.568
 1704WAT     H1 7522   7.343   2.051   0.497
 1704WAT     H2 7523   7.257   2.151   0.536
 1704WAT    EPW 7524   7.310   2.095   0.553
 1705WAT      O 7525   7.712   2.875   0.522
 1705WAT     H1 7526   7.701   2.817   0.458
 1705WAT     H2 7527   7.705   2.952   0.482
 1705WAT    EPW 7528   7.709   2.877   0.507
 1706WAT      O 7529   7.127   2.225   1.091
 1706WAT     H1 7530   7.120   2.270   1.016
 1706WAT     H2 7531   7.174   2.155   1.069
 1706WAT    EPW 7532   7.133   2.222   1.077
 1707WAT      O 7533   7.737   2.728   0.949
 1707WAT     H1 7534   7.785   2.741   1.021
 1707WAT     H2 7535   7.688   2.659   0.968
 1707WAT    EPW 7536   7.737   2.720   0.963
 1708WAT      O 7537   7.815   1.767   0.393
 1708WAT     H1 7538   7.844   1.836   0.348
 1708WAT     H2 7539   7.887   1.725   0.415
 1708WAT    EPW 7540   7.830   1.771   0.390
 1709WAT      O 7541   7.631   2.377   0.104
 1709WAT     H1 7542   7.565   2.337   0.146
 1709WAT     H2 7543   7.702   2.351   0.148
 1709WAT    EPW 7544   7.632   2.367   0.117
 1710WAT      O 7545   7.135   2.272   0.440
 1710WAT     H1 7546   7.173   2.349   0.423
 1710WAT     H2 7547   7.098   2.251   0.364
 1710WAT    EPW 7548   7.135   2.281   0.427
 1711WAT      O 7549   7.108   2.353   0.849
 1711WAT     H1 7550   7.072   2.300   0.790
 1711WAT     H2 7551   7.076   2.431   0.829
 1711WAT    EPW 7552   7.098   2.357   0.837
 1712WAT      O 7553   7.518   2.556   0.527
 1712WAT     H1 7554   7.526   2.608   0.597
 1712WAT     H2 7555   7.552   2.604   0.462
 1712WAT    EPW 7556   7.524   2.571   0.528
 1713WAT      O 7557   7.375   2.427   0.829
 1713WAT     H1 7558   7.296   2.392   0.839
 1713WAT     H2 7559   7.359   2.512   0.820
 1713WAT    EPW 7560   7.361   2.434   0.829
 1714WAT      O 7561   7.819   2.292   0.299
 1714WAT     H1 7562   7.896   2.320   0.329
 1714WAT     H2 7563   7.768   2.291   0.370
 1714WAT    EPW 7564   7.823   2.296   0.314
 1715WAT      O 7565   7.523   1.783   0.757
 1715WAT     H1 7566   7.547   1.706   0.791
 1715WAT     H2 7567   7.539   1.773   0.672
 1715WAT    EPW 7568   7.529   1.770   0.749
 1716WAT      O 7569   7.664   1.371   0.669
 1716WAT     H1 7570   7.692   1.355   0.588
 1716WAT     H2 7571   7.676   1.295   0.710
 1716WAT    EPW 7572   7.670   1.357   0.663
 1717WAT      O 7573   7.603   2.703   0.309
 1717WAT     H1 7574   7.525   2.729   0.282
 1717WAT     H2 7575   7.632   2.653   0.244
 1717WAT    EPW 7576   7.596   2.699   0.296
 1718WAT      O 7577   7.406   1.958   0.333
 1718WAT     H1 7578   7.414   1.934   0.250
 1718WAT     H2 7579   7.456   1.901   0.376
 1718WAT    EPW 7580   7.414   1.946   0.327
 1719WAT      O 7581   7.752   2.972   0.803
 1719WAT     H1 7582   7.779   2.942   0.726
 1719WAT     H2 7583   7.764   2.905   0.857
 1719WAT    EPW 7584   7.758   2.958   0.800
 1720WAT      O 7585   7.699   1.284   0.407
 1720WAT     H1 7586   7.616   1.269   0.383
 1720WAT     H2 7587   7.738   1.307   0.332
 1720WAT    EPW 7588   7.692   1.285   0.392
 1721WAT      O 7589   7.870   2.497   0.842
 1721WAT     H1 7590   7.805   2.449   0.876
 1721WAT     H2 7591   7.852   2.578   0.869
 1721WAT    EPW 7592   7.858   2.502   0.851
 1722WAT      O 7593   6.916   1.417   0.995
 1722WAT     H1 7594   6.913   1.491   0.949
 1722WAT     H2 7595   6.840   1.379   0.978
 1722WAT    EPW 7596   6.905   1.422   0.985
 1723WAT      O 7597   7.410   3.045   0.358
 1723WAT     H1 7598   7.397   3.031   0.443
 1723WAT     H2 7599   7.388   2.969   0.321
 1723WAT    EPW 7600   7.405   3.032   0.365
 1724WAT      O 7601   7.059   3.023   0.896
 1724WAT     H1 7602   6.996   2.963   0.896
 1724WAT     H2 7603   7.020   3.093   0.930
 1724WAT    EPW 7604   7.044   3.024   0.901
 1725WAT      O 7605   7.274   1.901   0.770
 1725WAT     H1 7606   7.280   1.964   0.710
 1725WAT     H2 7607   7.353   1.863   0.769
 1725WAT    EPW 7608   7.287   1.905   0.761
 1726WAT      O 7609   7.099   1.726   0.649
 1726WAT     H1 7610   7.118   1.744   0.566
 1726WAT     H2 7611   7.156   1.775   0.693
 1726WAT    EPW 7612   7.110   1.736   0.643
 1727WAT      O 7613   7.341   1.418   0.905
 1727WAT     H1 7614   7.366   1.334   0.905
 1727WAT     H2 7615   7.299   1.427   0.829
 1727WAT    EPW 7616   7.338   1.407   0.894
 1728WAT      O 7617   6.983   2.193   0.661
 1728WAT     H1 7618   7.021   2.217   0.586
 1728WAT     H2 7619   6.962   2.110   0.648
 1728WAT    EPW 7620   6.986   2.185   0.648
 1729WAT      O 7621   7.513   2.198   0.733
 1729WAT     H1 7622   7.477   2.270   0.767
 1729WAT     H2 7623   7.449   2.163   0.685
 1729WAT    EPW 7624   7.498   2.203   0.731
 1730WAT      O 7625   7.456   1.513   0.532
 1730WAT     H1 7626   7.378   1.494   0.568
 1730WAT     H2 7627   7.510   1.458   0.573
 1730WAT    EPW 7628   7.452   1.502   0.544
 1731WAT      O 7629   7.652   1.996   0.881
 1731WAT     H1 7630   7.616   1.929   0.838
 1731WAT     H2 7631   7.617   2.066   0.843
 1731WAT    EPW 7632   7.642   1.997   0.869
 1732WAT      O 7633   7.467   2.999   0.896
 1732WAT     H1 7634   7.474   2.983   0.982
 1732WAT     H2 7635   7.544   2.975   0.864
 1732WAT    EPW 7636   7.479   2.993   0.904
 1733WAT      O 7637   7.215   1.469   0.666
 1733WAT     H1 7638   7.163   1.408   0.632
 1733WAT     H2 7639   7.169   1.543   0.657
 1733WAT    EPW 7640   7.201   1.471   0.659
 1734WAT      O 7641   7.220   2.849   1.045
 1734WAT     H1 7642   7.288   2.889   1.081
 1734WAT     H2 7643   7.180   2.912   1.001
 1734WAT    EPW 7644   7.224   2.864   1.044
 1735WAT      O 7645   7.047   2.615   0.770
 1735WAT     H1 7646   6.995   2.673   0.808
 1735WAT     H2 7647   7.127   2.648   0.782
 1735WAT    EPW 7648   7.051   2.629   0.777
 1736WAT      O 7649   7.589   1.533   0.883
 1736WAT     H1 7650   7.621   1.495   0.811
 1736WAT     H2 7651   7.508   1.500   0.889
 1736WAT    EPW 7652   7.581   1.522   0.873
 1737WAT      O 7653   7.322   2.761   0.265
 1737WAT     H1 7654   7.305   2.679   0.288
 1737WAT     H2 7655   7.290   2.768   0.184
 1737WAT    EPW 7656   7.315   2.750   0.256
 1738WAT      O 7657   7.035   3.088   0.623
 1738WAT     H1 7658   7.055   3.058   0.702
 1738WAT     H2 7659   7.065   3.026   0.569
 1738WAT    EPW 7660   7.042   3.074   0.627
 1739WAT      O 7661   7.005   0.588   7.429
 1739WAT     H1 7662   6.994   0.607   7.513
 1739WAT     H2 7663   6.965   0.511   7.419
 1739WAT    EPW 7664   6.998   0.579   7.440
 1740WAT      O 7665   7.201   0.530   7.010
 1740WAT     H1 7666   7.170   0.481   6.944
 1740WAT     H2 7667   7.205   0.474   7.076
 1740WAT    EPW 7668   7.197   0.514   7.010
 1741WAT      O 7669   7.249   0.722   7.384
 1741WAT     H1 7670   7.297   0.729   7.457
 1741WAT     H2 7671   7.185   0.667   7.407
 1741WAT    EPW 7672   7.247   0.715   7.398
 1742WAT      O 7673   7.043   0.946   6.951
 1742WAT     H1 7674   7.097   0.966   6.886
 1742WAT     H2 7675   7.092   0.898   7.005
 1742WAT    EPW 7676   7.058   0.941   6.949
 1743WAT      O 7677   7.111   0.260   7.575
 1743WAT     H1 7678   7.066   0.260   7.500
 1743WAT     H2 7679   7.147   0.181   7.578
 1743WAT    EPW 7680   7.110   0.249   7.564
 1744WAT      O 7681   7.701   0.718   7.670
 1744WAT     H1 7682   7.698   0.680   7.749
 1744WAT     H2 7683   7.757   0.784   7.682
 1744WAT    EPW 7684   7.709   0.722   7.684
 1745WAT      O 7685   7.760   0.652   7.398
 1745WAT     H1 7686   7.752   0.652   7.484
 1745WAT     H2 7687   7.745   0.568   7.376
 1745WAT    EPW 7688   7.757   0.639   7.407
 1746WAT      O 7689   6.952   1.042   7.590
 1746WAT     H1 7690   6.886   1.086   7.554
 1746WAT     H2 7691   7.000   1.018   7.522
 1746WAT    EPW 7692   6.949   1.045   7.575
 1747WAT      O 7693   7.554   0.799   7.296
 1747WAT     H1 7694   7.512   0.804   7.373
 1747WAT     H2 7695   7.627   0.754   7.315
 1747WAT    EPW 7696   7.559   0.793   7.310
 1748WAT      O 7697   7.114   0.964   7.374
 1748WAT     H1 7698   7.162   0.892   7.390
 1748WAT     H2 7699   7.172   1.019   7.340
 1748WAT    EPW 7700   7.130   0.962   7.371
 1749WAT      O 7701   7.278   0.720   7.748
 1749WAT     H1 7702   7.338   0.761   7.701
 1749WAT     H2 7703   7.291   0.636   7.728
 1749WAT    EPW 7704   7.289   0.713   7.738
 1750WAT      O 7705   7.492   1.074   7.628
 1750WAT     H1 7706   7.568   1.111   7.607
 1750WAT     H2 7707   7.433   1.135   7.610
 1750WAT    EPW 7708   7.495   1.088   7.623
 1751WAT      O 7709   7.872   0.884   6.873
 1751WAT     H1 7710   7.852   0.932   6.943
 1751WAT     H2 7711   7.942   0.839   6.897
 1751WAT    EPW 7712   7.879   0.885   6.887
 1752WAT      O 7713   7.292   0.475   7.608
 1752WAT     H1 7714   7.337   0.467   7.535
 1752WAT     H2 7715   7.236   0.408   7.606
 1752WAT    EPW 7716   7.290   0.464   7.597
 1753WAT      O 7717   7.136   1.183   7.742
 1753WAT     H1 7718   7.073   1.143   7.697
 1753WAT     H2 7719   7.193   1.208   7.681
 1753WAT    EPW 7720   7.135   1.181   7.726
 1754WAT      O 7721   7.408   0.468   7.352
 1754WAT     H1 7722   7.406   0.553   7.332
 1754WAT     H2 7723   7.492   0.446   7.341
 1754WAT    EPW 7724   7.420   0.478   7.347
 1755WAT      O 7725   7.011   0.657   7.698
 1755WAT     H1 7726   6.965   0.722   7.734
 1755WAT     H2 7727   7.094   0.678   7.715
 1755WAT    EPW 7728   7.016   0.670   7.706
 1756WAT      O 7729   6.969   0.273   7.328
 1756WAT     H1 7730   6.961   0.188   7.310
 1756WAT     H2 7731   7.040   0.297   7.283
 1756WAT    EPW 7732   6.978   0.264   7.319
 1757WAT      O 7733   6.925   0.794   7.254
 1757WAT     H1 7734   6.981   0.854   7.282
 1757WAT     H2 7735   6.931   0.731   7.314
 1757WAT    EPW 7736   6.934   0.794   7.267
 1758WAT      O 7737   6.930   0.642   7.016
 1758WAT     H1 7738   7.008   0.603   7.016
 1758WAT     H2 7739   6.933   0.694   7.086
 1758WAT    EPW 7740   6.942   0.644   7.026
 1759WAT      O 7741   6.938   0.394   7.754
 1759WAT     H1 7742   6.991   0.343   7.707
 1759WAT     H2 7743   6.973   0.473   7.745
 1759WAT    EPW 7744   6.951   0.398   7.746
 1760WAT      O 7745   7.462   0.811   7.561
 1760WAT     H1 7746   7.469   0.896   7.582
 1760WAT     H2 7747   7.533   0.776   7.596
 1760WAT    EPW 7748   7.473   0.819   7.570
 1761WAT      O 7749   7.229   8.047   7.590
 1761WAT     H1 7750   7.250   8.025   7.672
 1761WAT     H2 7751   7.248   7.976   7.544
 1761WAT    EPW 7752   7.235   8.033   7.596
 1762WAT      O 7753   7.619   1.066   7.280
 1762WAT     H1 7754   7.607   0.981   7.295
 1762WAT     H2 7755   7.685   1.067   7.223
 1762WAT    EPW 7756   7.627   1.053   7.274
 1763WAT      O 7757   7.829   1.055   7.093
 1763WAT     H1 7758   7.905   1.086   7.122
 1763WAT     H2 7759   7.795   1.121   7.047
 1763WAT    EPW 7760   7.835   1.069   7.090
 1764WAT      O 7761   7.214   0.333   7.204
 1764WAT     H1 7762   7.255   0.267   7.163
 1764WAT     H2 7763   7.276   0.365   7.257
 1764WAT    EPW 7764   7.229   0.328   7.206
 1765WAT      O 7765   7.806   0.161   7.344
 1765WAT     H1 7766   7.891   0.145   7.334
 1765WAT     H2 7767   7.769   0.083   7.334
 1765WAT    EPW 7768   7.813   0.147   7.341
 1766WAT      O 7769   7.714   0.609   7.929
 1766WAT     H1 7770   7.752   0.531   7.940
 1766WAT     H2 7771   7.700   0.637   8.010
 1766WAT    EPW 7772   7.718   0.601   7.942
 1767WAT      O 7773   7.446   1.116   6.883
 1767WAT     H1 7774   7.457   1.041   6.926
 1767WAT     H2 7775   7.414   1.170   6.943
 1767WAT    EPW 7776   7.443   1.113   6.898
 1768WAT      O 7777   7.264   0.133   6.870
 1768WAT     H1 7778   7.232   0.052   6.879
 1768WAT     H2 7779   7.346   0.120   6.845
 1768WAT    EPW 7780   7.271   0.119   6.868
 1769WAT      O 7781   7.713   1.195   7.514
 1769WAT     H1 7782   7.702   1.281   7.504
 1769WAT     H2 7783   7.689   1.163   7.437
 1769WAT    EPW 7784   7.708   1.203   7.501
 1770WAT      O 7785   7.654   0.426   7.028
 1770WAT     H1 7786   7.704   0.409   6.958
 1770WAT     H2 7787   7.597   0.485   6.999
 1770WAT    EPW 7788   7.653   0.432   7.014
 1771WAT      O 7789   7.467   0.875   7.031
 1771WAT     H1 7790   7.511   0.862   7.105
 1771WAT     H2 7791   7.384   0.861   7.054
 1771WAT    EPW 7792   7.461   0.871   7.046
 1772WAT      O 7793   7.219   0.789   7.108
 1772WAT     H1 7794   7.226   0.776   7.193
 1772WAT     H2 7795   7.209   0.709   7.075
 1772WAT    EPW 7796   7.218   0.775   7.115
 1773WAT      O 7797   7.471   0.612   6.930
 1773WAT     H1 7798   7.390   0.587   6.947
 1773WAT     H2 7799   7.474   0.695   6.960
 1773WAT    EPW 7800   7.460   0.621   6.937
 1774WAT      O 7801   7.336   1.119   7.286
 1774WAT     H1 7802   7.329   1.177   7.221
 1774WAT     H2 7803   7.421   1.101   7.288
 1774WAT    EPW 7804   7.347   1.125   7.277
 1775WAT      O 7805   7.673   0.404   7.304
 1775WAT     H1 7806   7.674   0.407   7.217
 1775WAT     H2 7807   7.714   0.328   7.322
 1775WAT    EPW 7808   7.680   0.393   7.294
 1776WAT      O 7809   7.161   0.945   7.911
 1776WAT     H1 7810   7.207   0.886   7.866
 1776WAT     H2 7811   7.171   1.019   7.865
 1776WAT    EPW 7812   7.169   0.947   7.897
 1777WAT      O 7813   6.925   0.669   5.550
 1777WAT     H1 7814   6.936   0.691   5.634
 1777WAT     H2 7815   6.843   0.638   5.548
 1777WAT    EPW 7816   6.915   0.667   5.562
 1778WAT      O 7817   7.182   0.535   5.106
 1778WAT     H1 7818   7.149   0.484   5.043
 1778WAT     H2 7819   7.191   0.480   5.173
 1778WAT    EPW 7820   7.178   0.519   5.107
 1779WAT      O 7821   7.189   0.711   5.474
 1779WAT     H1 7822   7.236   0.667   5.532
 1779WAT     H2 7823   7.107   0.684   5.489
 1779WAT    EPW 7824   7.184   0.701   5.485
 1780WAT      O 7825   7.025   0.957   5.051
 1780WAT     H1 7826   7.079   0.974   4.984
 1780WAT     H2 7827   7.074   0.907   5.104
 1780WAT    EPW 7828   7.040   0.952   5.049
 1781WAT      O 7829   6.994   0.779   6.187
 1781WAT     H1 7830   7.008   0.764   6.272
 1781WAT     H2 7831   6.926   0.729   6.168
 1781WAT    EPW 7832   6.986   0.770   6.197
 1782WAT      O 7833   7.582   0.627   6.672
 1782WAT     H1 7834   7.555   0.619   6.755
 1782WAT     H2 7835   7.510   0.611   6.625
 1782WAT    EPW 7836   7.567   0.623   6.677
 1783WAT      O 7837   7.105   0.360   5.686
 1783WAT     H1 7838   7.070   0.320   5.617
 1783WAT     H2 7839   7.155   0.298   5.722
 1783WAT    EPW 7840   7.107   0.345   5.681
 1784WAT      O 7841   7.543   0.926   6.422
 1784WAT     H1 7842   7.589   0.966   6.359
 1784WAT     H2 7843   7.604   0.891   6.473
 1784WAT    EPW 7844   7.559   0.927   6.420
 1785WAT      O 7845   7.710   0.759   5.769
 1785WAT     H1 7846   7.740   0.692   5.816
 1785WAT     H2 7847   7.780   0.809   5.757
 1785WAT    EPW 7848   7.725   0.756   5.774
 1786WAT      O 7849   7.748   0.659   5.495
 1786WAT     H1 7850   7.744   0.659   5.582
 1786WAT     H2 7851   7.749   0.574   5.474
 1786WAT    EPW 7852   7.747   0.647   5.504
 1787WAT      O 7853   6.964   1.056   5.730
 1787WAT     H1 7854   6.896   1.092   5.688
 1787WAT     H2 7855   7.013   1.025   5.665
 1787WAT    EPW 7856   6.961   1.057   5.714
 1788WAT      O 7857   7.519   0.758   5.390
 1788WAT     H1 7858   7.480   0.779   5.465
 1788WAT     H2 7859   7.595   0.724   5.415
 1788WAT    EPW 7860   7.525   0.756   5.404
 1789WAT      O 7861   7.126   0.980   5.507
 1789WAT     H1 7862   7.158   0.899   5.512
 1789WAT     H2 7863   7.190   1.024   5.466
 1789WAT    EPW 7864   7.141   0.975   5.501
 1790WAT      O 7865   7.246   0.802   5.830
 1790WAT     H1 7866   7.305   0.797   5.765
 1790WAT     H2 7867   7.268   0.736   5.883
 1790WAT    EPW 7868   7.258   0.792   5.828
 1791WAT      O 7869   7.512   1.077   5.784
 1791WAT     H1 7870   7.589   1.089   5.745
 1791WAT     H2 7871   7.461   1.139   5.749
 1791WAT    EPW 7872   7.516   1.088   5.773
 1792WAT      O 7873   7.346   1.181   6.330
 1792WAT     H1 7874   7.371   1.162   6.411
 1792WAT     H2 7875   7.281   1.125   6.315
 1792WAT    EPW 7876   7.340   1.170   6.340
 1793WAT      O 7877   7.868   0.877   4.966
 1793WAT     H1 7878   7.846   0.921   5.038
 1793WAT     H2 7879   7.941   0.836   4.989
 1793WAT    EPW 7880   7.876   0.878   4.980
 1794WAT      O 7881   7.134   1.024   6.222
 1794WAT     H1 7882   7.094   0.946   6.223
 1794WAT     H2 7883   7.176   1.025   6.146
 1794WAT    EPW 7884   7.135   1.013   6.211
 1795WAT      O 7885   7.286   0.867   6.523
 1795WAT     H1 7886   7.359   0.901   6.490
 1795WAT     H2 7887   7.270   0.917   6.593
 1795WAT    EPW 7888   7.294   0.880   6.529
 1796WAT      O 7889   7.521   0.429   5.928
 1796WAT     H1 7890   7.526   0.419   6.015
 1796WAT     H2 7891   7.461   0.370   5.904
 1796WAT    EPW 7892   7.513   0.418   5.938
 1797WAT      O 7893   7.544   0.462   6.201
 1797WAT     H1 7894   7.527   0.547   6.209
 1797WAT     H2 7895   7.486   0.424   6.254
 1797WAT    EPW 7896   7.533   0.469   6.210
 1798WAT      O 7897   6.845   0.843   6.769
 1798WAT     H1 7898   6.901   0.850   6.836
 1798WAT     H2 7899   6.849   0.758   6.749
 1798WAT    EPW 7900   6.854   0.832   6.776
 1799WAT      O 7901   7.316   0.543   5.650
 1799WAT     H1 7902   7.360   0.505   5.585
 1799WAT     H2 7903   7.250   0.488   5.666
 1799WAT    EPW 7904   7.313   0.529   5.643
 1800WAT      O 7905   7.155   1.228   5.826
 1800WAT     H1 7906   7.085   1.187   5.794
 1800WAT     H2 7907   7.208   1.234   5.757
 1800WAT    EPW 7908   7.152   1.223   5.811
 1801WAT      O 7909   7.431   0.479   5.401
 1801WAT     H1 7910   7.443   0.563   5.383
 1801WAT     H2 7911   7.512   0.446   5.404
 1801WAT    EPW 7912   7.445   0.486   5.399
 1802WAT      O 7913   6.979   0.735   5.812
 1802WAT     H1 7914   6.935   0.796   5.857
 1802WAT     H2 7915   7.062   0.762   5.816
 1802WAT    EPW 7916   6.985   0.748   5.819
 1803WAT      O 7917   6.988   0.255   5.444
 1803WAT     H1 7918   6.991   0.169   5.432
 1803WAT     H2 7919   7.051   0.285   5.392
 1803WAT    EPW 7920   6.998   0.247   5.435
 1804WAT      O 7921   6.923   0.856   5.352
 1804WAT     H1 7922   6.983   0.911   5.385
 1804WAT     H2 7923   6.914   0.797   5.415
 1804WAT    EPW 7924   6.930   0.856   5.367
 1805WAT      O 7925   7.317   0.606   6.008
 1805WAT     H1 7926   7.357   0.648   6.074
 1805WAT     H2 7927   7.382   0.562   5.970
 1805WAT    EPW 7928   7.333   0.605   6.012
 1806WAT      O 7929   6.915   0.658   5.137
 1806WAT     H1 7930   6.993   0.619   5.132
 1806WAT     H2 7931   6.928   0.722   5.195
 1806WAT    EPW 7932   6.929   0.662   5.145
 1807WAT      O 7933   6.944   0.474   5.883
 1807WAT     H1 7934   6.984   0.435   5.816
 1807WAT     H2 7935   6.959   0.559   5.869
 1807WAT    EPW 7936   6.952   0.481   5.871
 1808WAT      O 7937   7.462   0.839   5.650
 1808WAT     H1 7938   7.468   0.919   5.685
 1808WAT     H2 7939   7.529   0.796   5.686
 1808WAT    EPW 7940   7.473   0.844   5.661
 1809WAT      O 7941   7.290   0.257   5.891
 1809WAT     H1 7942   7.240   0.298   5.950
 1809WAT     H2 7943   7.297   0.176   5.922
 1809WAT    EPW 7944   7.284   0.251   5.904
 1810WAT      O 7945   7.704   1.026   6.218
 1810WAT     H1 7946   7.683   0.977   6.149
 1810WAT     H2 7947   7.708   1.107   6.186
 1810WAT    EPW 7948   7.702   1.031   6.203
 1811WAT      O 7949   7.097   0.352   6.830
 1811WAT     H1 7950   7.106   0.380   6.748
 1811WAT     H2 7951   7.147   0.281   6.833
 1811WAT    EPW 7952   7.105   0.345   6.819
 1812WAT      O 7953   7.725   0.863   6.639
 1812WAT     H1 7954   7.773   0.873   6.711
 1812WAT     H2 7955   7.676   0.793   6.656
 1812WAT    EPW 7956   7.725   0.854   6.652
 1813WAT      O 7957   7.624   1.019   5.395
 1813WAT     H1 7958   7.603   0.935   5.402
 1813WAT     H2 7959   7.686   1.019   5.333
 1813WAT    EPW 7960   7.630   1.007   5.387
 1814WAT      O 7961   7.821   1.032   5.197
 1814WAT     H1 7962   7.900   1.056   5.226
 1814WAT     H2 7963   7.789   1.105   5.162
 1814WAT    EPW 7964   7.828   1.046   5.196
 1815WAT      O 7965   7.217   0.331   5.291
 1815WAT     H1 7966   7.249   0.271   5.235
 1815WAT     H2 7967   7.288   0.364   5.328
 1815WAT    EPW 7968   7.232   0.327   5.288
 1816WAT      O 7969   7.781   0.145   5.464
 1816WAT     H1 7970   7.804   0.122   5.545
 1816WAT     H2 7971   7.761   0.069   5.426
 1816WAT    EPW 7972   7.782   0.131   5.470
 1817WAT      O 7973   7.782   0.543   5.918
 1817WAT     H1 7974   7.708   0.497   5.915
 1817WAT     H2 7975   7.805   0.541   6.002
 1817WAT    EPW 7976   7.774   0.536   5.930
 1818WAT      O 7977   7.422   1.101   4.975
 1818WAT     H1 7978   7.443   1.028   5.017
 1818WAT     H2 7979   7.413   1.160   5.040
 1818WAT    EPW 7980   7.423   1.099   4.991
 1819WAT      O 7981   7.134   0.406   6.070
 1819WAT     H1 7982   7.187   0.475   6.062
 1819WAT     H2 7983   7.066   0.426   6.019
 1819WAT    EPW 7984   7.132   0.419   6.061
 1820WAT      O 7985   7.268   0.139   5.027
 1820WAT     H1 7986   7.237   0.058   5.022
 1820WAT     H2 7987   7.349   0.132   4.995
 1820WAT    EPW 7988   7.275   0.126   5.022
 1821WAT      O 7989   7.099   0.481   6.586
 1821WAT     H1 7990   7.081   0.447   6.508
 1821WAT     H2 7991   7.035   0.538   6.600
 1821WAT    EPW 7992   7.087   0.485   6.577
 1822WAT      O 7993   7.481   0.737   6.197
 1822WAT     H1 7994   7.486   0.786   6.269
 1822WAT     H2 7995   7.516   0.788   6.135
 1822WAT    EPW 7996   7.487   0.752   6.198
 1823WAT      O 7997   7.343   0.597   6.537
 1823WAT     H1 7998   7.267   0.564   6.565
 1823WAT     H2 7999   7.326   0.682   6.526
 1823WAT    EPW 8000   7.329   0.604   6.540
 1824WAT      O 8001   7.814   0.529   6.199
 1824WAT     H1 8002   7.828   0.567   6.276
 1824WAT     H2 8003   7.735   0.493   6.207
 1824WAT    EPW 8004   7.805   0.530   6.211
 1825WAT      O 8005   7.742   1.101   5.639
 1825WAT     H1 8006   7.747   1.188   5.634
 1825WAT     H2 8007   7.712   1.077   5.561
 1825WAT    EPW 8008   7.738   1.110   5.627
 1826WAT      O 8009   7.592   0.895   5.992
 1826WAT     H1 8010   7.551   0.957   5.946
 1826WAT     H2 8011   7.631   0.846   5.930
 1826WAT    EPW 8012   7.592   0.897   5.976
 1827WAT      O 8013   7.660   0.425   5.119
 1827WAT     H1 8014   7.708   0.417   5.047
 1827WAT     H2 8015   7.596   0.480   5.095
 1827WAT    EPW 8016   7.658   0.432   5.104
 1828WAT      O 8017   7.775   1.119   6.519
 1828WAT     H1 8018   7.821   1.092   6.450
 1828WAT     H2 8019   7.765   1.046   6.566
 1828WAT    EPW 8020   7.781   1.104   6.516
 1829WAT      O 8021   7.796   0.636   6.466
 1829WAT     H1 8022   7.738   0.599   6.519
 1829WAT     H2 8023   7.814   0.712   6.506
 1829WAT    EPW 8024   7.791   0.642   6.479
 1830WAT      O 8025   7.437   1.236   6.072
 1830WAT     H1 8026   7.408   1.228   6.154
 1830WAT     H2 8027   7.400   1.168   6.031
 1830WAT    EPW 8028   7.427   1.225   6.078
 1831WAT      O 8029   7.026   1.189   6.601
 1831WAT     H1 8030   6.968   1.125   6.584
 1831WAT     H2 8031   6.976   1.255   6.627
 1831WAT    EPW 8032   7.010   1.189   6.602
 1832WAT      O 8033   7.058   0.357   6.331
 1832WAT     H1 8034   7.075   0.378   6.248
 1832WAT     H2 8035   7.033   0.274   6.326
 1832WAT    EPW 8036   7.057   0.348   6.318
 1833WAT      O 8037   7.453   0.864   5.130
 1833WAT     H1 8038   7.495   0.844   5.203
 1833WAT     H2 8039   7.369   0.855   5.151
 1833WAT    EPW 8040   7.447   0.860   5.144
 1834WAT      O 8041   7.344   0.374   6.367
 1834WAT     H1 8042   7.349   0.443   6.421
 1834WAT     H2 8043   7.258   0.364   6.356
 1834WAT    EPW 8044   7.332   0.383   6.373
 1835WAT      O 8045   7.199   0.793   5.203
 1835WAT     H1 8046   7.198   0.777   5.289
 1835WAT     H2 8047   7.194   0.714   5.167
 1835WAT    EPW 8048   7.198   0.779   5.210
 1836WAT      O 8049   7.460   0.602   5.030
 1836WAT     H1 8050   7.378   0.577   5.044
 1836WAT     H2 8051   7.461   0.685   5.057
 1836WAT    EPW 8052   7.448   0.610   5.036
 1837WAT      O 8053   7.456   1.148   6.594
 1837WAT     H1 8054   7.471   1.137   6.679
 1837WAT     H2 8055   7.510   1.091   6.556
 1837WAT    EPW 8056   7.467   1.138   6.601
 1838WAT      O 8057   7.208   1.024   6.742
 1838WAT     H1 8058   7.274   1.068   6.777
 1838WAT     H2 8059   7.160   1.086   6.703
 1838WAT    EPW 8060   7.210   1.040   6.742
 1839WAT      O 8061   7.034   0.768   6.457
 1839WAT     H1 8062   6.979   0.830   6.481
 1839WAT     H2 8063   7.113   0.801   6.476
 1839WAT    EPW 8064   7.038   0.782   6.463
 1840WAT      O 8065   7.354   1.105   5.388
 1840WAT     H1 8066   7.353   1.161   5.321
 1840WAT     H2 8067   7.436   1.076   5.389
 1840WAT    EPW 8068   7.366   1.109   5.378
 1841WAT      O 8069   7.697   0.402   5.394
 1841WAT     H1 8070   7.699   0.403   5.307
 1841WAT     H2 8071   7.726   0.322   5.414
 1841WAT    EPW 8072   7.702   0.391   5.384
 1842WAT      O 8073   7.264   1.032   5.982
 1842WAT     H1 8074   7.264   0.960   5.933
 1842WAT     H2 8075   7.226   1.092   5.931
 1842WAT    EPW 8076   7.258   1.030   5.967
 1843WAT      O 8077   7.013   1.251   6.330
 1843WAT     H1 8078   7.022   1.229   6.414
 1843WAT     H2 8079   7.044   1.182   6.287
 1843WAT    EPW 8080   7.019   1.238   6.336
 1844WAT      O 8081   6.925   0.663   3.651
 1844WAT     H1 8082   6.935   0.688   3.734
 1844WAT     H2 8083   6.843   0.634   3.648
 1844WAT    EPW 8084   6.914   0.662   3.663
 1845WAT      O 8085   7.188   0.533   3.213
 1845WAT     H1 8086   7.155   0.482   3.149
 1845WAT     H2 8087   7.196   0.478   3.280
 1845WAT    EPW 8088   7.184   0.517   3.213
 1846WAT      O 8089   7.190   0.711   3.579
 1846WAT     H1 8090   7.238   0.667   3.637
 1846WAT     H2 8091   7.108   0.682   3.594
 1846WAT    EPW 8092   7.185   0.700   3.590
 1847WAT      O 8093   7.028   0.947   3.153
 1847WAT     H1 8094   7.081   0.967   3.087
 1847WAT     H2 8095   7.079   0.901   3.207
 1847WAT    EPW 8096   7.044   0.943   3.152
 1848WAT      O 8097   6.993   0.780   4.270
 1848WAT     H1 8098   7.005   0.770   4.355
 1848WAT     H2 8099   6.924   0.729   4.252
 1848WAT    EPW 8100   6.984   0.771   4.280
 1849WAT      O 8101   7.577   0.620   4.774
 1849WAT     H1 8102   7.548   0.612   4.855
 1849WAT     H2 8103   7.505   0.607   4.725
 1849WAT    EPW 8104   7.562   0.617   4.779
 1850WAT      O 8105   7.105   0.361   3.789
 1850WAT     H1 8106   7.069   0.320   3.722
 1850WAT     H2 8107   7.154   0.299   3.827
 1850WAT    EPW 8108   7.107   0.346   3.785
 1851WAT      O 8109   7.538   0.931   4.525
 1851WAT     H1 8110   7.585   0.969   4.461
 1851WAT     H2 8111   7.598   0.895   4.576
 1851WAT    EPW 8112   7.554   0.932   4.523
 1852WAT      O 8113   7.707   0.760   3.872
 1852WAT     H1 8114   7.738   0.692   3.918
 1852WAT     H2 8115   7.777   0.810   3.859
 1852WAT    EPW 8116   7.722   0.757   3.877
 1853WAT      O 8117   7.749   0.656   3.598
 1853WAT     H1 8118   7.744   0.655   3.685
 1853WAT     H2 8119   7.750   0.572   3.576
 1853WAT    EPW 8120   7.748   0.644   3.608
 1854WAT      O 8121   6.961   1.059   3.829
 1854WAT     H1 8122   6.893   1.094   3.788
 1854WAT     H2 8123   7.011   1.028   3.764
 1854WAT    EPW 8124   6.958   1.060   3.813
 1855WAT      O 8125   7.521   0.758   3.494
 1855WAT     H1 8126   7.482   0.780   3.569
 1855WAT     H2 8127   7.597   0.724   3.519
 1855WAT    EPW 8128   7.526   0.756   3.508
 1856WAT      O 8129   7.127   0.980   3.609
 1856WAT     H1 8130   7.159   0.900   3.616
 1856WAT     H2 8131   7.190   1.024   3.568
 1856WAT    EPW 8132   7.141   0.975   3.604
 1857WAT      O 8133   7.243   0.804   3.932
 1857WAT     H1 8134   7.302   0.799   3.867
 1857WAT     H2 8135   7.264   0.739   3.985
 1857WAT    EPW 8136   7.255   0.794   3.930
 1858WAT      O 8137   7.511   1.079   3.883
 1858WAT     H1 8138   7.589   1.090   3.845
 1858WAT     H2 8139   7.461   1.140   3.848
 1858WAT    EPW 8140   7.515   1.089   3.873
 1859WAT      O 8141   7.341   1.188   4.429
 1859WAT     H1 8142   7.366   1.168   4.511
 1859WAT     H2 8143   7.277   1.132   4.413
 1859WAT    EPW 8144   7.335   1.177   4.439
 1860WAT      O 8145   7.872   0.879   3.068
 1860WAT     H1 8146   7.849   0.922   3.140
 1860WAT     H2 8147   7.946   0.840   3.090
 1860WAT    EPW 8148   7.879   0.880   3.082
 1861WAT      O 8149   7.132   1.029   4.322
 1861WAT     H1 8150   7.093   0.951   4.322
 1861WAT     H2 8151   7.175   1.029   4.245
 1861WAT    EPW 8152   7.133   1.017   4.310
 1862WAT      O 8153   7.280   0.867   4.624
 1862WAT     H1 8154   7.353   0.904   4.593
 1862WAT     H2 8155   7.260   0.917   4.693
 1862WAT    EPW 8156   7.288   0.880   4.630
 1863WAT      O 8157   7.520   0.429   4.030
 1863WAT     H1 8158   7.525   0.421   4.117
 1863WAT     H2 8159   7.459   0.371   4.007
 1863WAT    EPW 8160   7.511   0.419   4.039
 1864WAT      O 8161   7.544   0.465   4.302
 1864WAT     H1 8162   7.526   0.551   4.311
 1864WAT     H2 8163   7.485   0.427   4.354
 1864WAT    EPW 8164   7.532   0.472   4.311
 1865WAT      O 8165   6.837   0.849   4.867
 1865WAT     H1 8166   6.892   0.861   4.933
 1865WAT     H2 8167   6.849   0.765   4.845
 1865WAT    EPW 8168   6.847   0.838   4.873
 1866WAT      O 8169   7.318   0.543   3.755
 1866WAT     H1 8170   7.361   0.505   3.690
 1866WAT     H2 8171   7.251   0.488   3.770
 1866WAT    EPW 8172   7.314   0.529   3.747
 1867WAT      O 8173   7.154   1.229   3.925
 1867WAT     H1 8174   7.083   1.189   3.894
 1867WAT     H2 8175   7.207   1.235   3.856
 1867WAT    EPW 8176   7.151   1.224   3.910
 1868WAT      O 8177   7.432   0.479   3.505
 1868WAT     H1 8178   7.445   0.563   3.487
 1868WAT     H2 8179   7.513   0.446   3.506
 1868WAT    EPW 8180   7.446   0.486   3.503
 1869WAT      O 8181   6.975   0.738   3.910
 1869WAT     H1 8182   6.930   0.798   3.954
 1869WAT     H2 8183   7.058   0.765   3.916
 1869WAT    EPW 8184   6.981   0.751   3.917
 1870WAT      O 8185   6.986   0.253   3.549
 1870WAT     H1 8186   6.990   0.167   3.536
 1870WAT     H2 8187   7.050   0.284   3.498
 1870WAT    EPW 8188   6.996   0.245   3.540
 1871WAT      O 8189   6.924   0.854   3.457
 1871WAT     H1 8190   6.983   0.910   3.490
 1871WAT     H2 8191   6.916   0.794   3.520
 1871WAT    EPW 8192   6.932   0.854   3.471
 1872WAT      O 8193   7.316   0.607   4.109
 1872WAT     H1 8194   7.355   0.649   4.174
 1872WAT     H2 8195   7.381   0.564   4.070
 1872WAT    EPW 8196   7.331   0.607   4.113
 1873WAT      O 8197   6.921   0.651   3.250
 1873WAT     H1 8198   7.001   0.617   3.244
 1873WAT     H2 8199   6.931   0.719   3.304
 1873WAT    EPW 8200   6.934   0.656   3.257
 1874WAT      O 8201   6.942   0.477   3.984
 1874WAT     H1 8202   6.982   0.438   3.917
 1874WAT     H2 8203   6.956   0.562   3.970
 1874WAT    EPW 8204   6.950   0.484   3.972
 1875WAT      O 8205   7.460   0.840   3.753
 1875WAT     H1 8206   7.466   0.920   3.787
 1875WAT     H2 8207   7.526   0.797   3.789
 1875WAT    EPW 8208   7.471   0.845   3.763
 1876WAT      O 8209   7.288   0.259   3.996
 1876WAT     H1 8210   7.238   0.300   4.054
 1876WAT     H2 8211   7.294   0.178   4.028
 1876WAT    EPW 8212   7.281   0.253   4.009
 1877WAT      O 8213   7.697   1.025   4.318
 1877WAT     H1 8214   7.676   0.979   4.248
 1877WAT     H2 8215   7.704   1.107   4.288
 1877WAT    EPW 8216   7.695   1.031   4.304
 1878WAT      O 8217   7.086   0.336   4.941
 1878WAT     H1 8218   7.103   0.358   4.859
 1878WAT     H2 8219   7.141   0.269   4.956
 1878WAT    EPW 8220   7.097   0.329   4.931
 1879WAT      O 8221   7.719   0.855   4.735
 1879WAT     H1 8222   7.768   0.865   4.806
 1879WAT     H2 8223   7.670   0.786   4.753
 1879WAT    EPW 8224   7.719   0.847   4.748
 1880WAT      O 8225   7.624   1.019   3.496
 1880WAT     H1 8226   7.604   0.935   3.504
 1880WAT     H2 8227   7.686   1.019   3.434
 1880WAT    EPW 8228   7.631   1.007   3.488
 1881WAT      O 8229   7.822   1.032   3.299
 1881WAT     H1 8230   7.900   1.056   3.329
 1881WAT     H2 8231   7.790   1.105   3.263
 1881WAT    EPW 8232   7.829   1.046   3.298
 1882WAT      O 8233   7.217   0.330   3.399
 1882WAT     H1 8234   7.249   0.269   3.346
 1882WAT     H2 8235   7.288   0.363   3.437
 1882WAT    EPW 8236   7.232   0.326   3.397
 1883WAT      O 8237   7.781   0.145   3.569
 1883WAT     H1 8238   7.806   0.126   3.650
 1883WAT     H2 8239   7.756   0.067   3.536
 1883WAT    EPW 8240   7.781   0.130   3.576
 1884WAT      O 8241   7.781   0.542   4.016
 1884WAT     H1 8242   7.707   0.496   4.014
 1884WAT     H2 8243   7.805   0.540   4.100
 1884WAT    EPW 8244   7.774   0.535   4.028
 1885WAT      O 8245   7.423   1.099   3.078
 1885WAT     H1 8246   7.445   1.026   3.120
 1885WAT     H2 8247   7.415   1.158   3.142
 1885WAT    EPW 8248   7.425   1.097   3.094
 1886WAT      O 8249   7.131   0.410   4.172
 1886WAT     H1 8250   7.184   0.478   4.163
 1886WAT     H2 8251   7.063   0.430   4.121
 1886WAT    EPW 8252   7.129   0.423   4.163
 1887WAT      O 8253   7.264   0.132   3.129
 1887WAT     H1 8254   7.234   0.050   3.122
 1887WAT     H2 8255   7.346   0.126   3.098
 1887WAT    EPW 8256   7.272   0.119   3.123
 1888WAT      O 8257   7.104   0.467   4.697
 1888WAT     H1 8258   7.084   0.436   4.618
 1888WAT     H2 8259   7.037   0.518   4.717
 1888WAT    EPW 8260   7.091   0.470   4.688
 1889WAT      O 8261   7.478   0.740   4.298
 1889WAT     H1 8262   7.481   0.789   4.370
 1889WAT     H2 8263   7.512   0.791   4.236
 1889WAT    EPW 8264   7.483   0.755   4.300
 1890WAT      O 8265   7.338   0.597   4.638
 1890WAT     H1 8266   7.265   0.561   4.669
 1890WAT     H2 8267   7.318   0.681   4.628
 1890WAT    EPW 8268   7.324   0.604   4.641
 1891WAT      O 8269   7.814   0.529   4.297
 1891WAT     H1 8270   7.829   0.566   4.375
 1891WAT     H2 8271   7.735   0.495   4.305
 1891WAT    EPW 8272   7.805   0.529   4.310
 1892WAT      O 8273   7.743   1.099   3.740
 1892WAT     H1 8274   7.748   1.186   3.735
 1892WAT     H2 8275   7.712   1.076   3.662
 1892WAT    EPW 8276   7.739   1.109   3.728
 1893WAT      O 8277   7.588   0.897   4.092
 1893WAT     H1 8278   7.547   0.958   4.045
 1893WAT     H2 8279   7.627   0.848   4.031
 1893WAT    EPW 8280   7.588   0.898   4.076
 1894WAT      O 8281   7.662   0.421   3.219
 1894WAT     H1 8282   7.709   0.411   3.146
 1894WAT     H2 8283   7.599   0.477   3.195
 1894WAT    EPW 8284   7.659   0.428   3.205
 1895WAT      O 8285   7.773   1.119   4.635
 1895WAT     H1 8286   7.835   1.100   4.576
 1895WAT     H2 8287   7.757   1.042   4.673
 1895WAT    EPW 8288   7.780   1.105   4.632
 1896WAT      O 8289   7.797   0.630   4.566
 1896WAT     H1 8290   7.739   0.589   4.617
 1896WAT     H2 8291   7.807   0.708   4.605
 1896WAT    EPW 8292   7.790   0.635   4.580
 1897WAT      O 8293   7.436   1.240   4.172
 1897WAT     H1 8294   7.406   1.233   4.254
 1897WAT     H2 8295   7.399   1.172   4.132
 1897WAT    EPW 8296   7.426   1.229   4.178
 1898WAT      O 8297   7.020   1.198   4.698
 1898WAT     H1 8298   6.960   1.136   4.683
 1898WAT     H2 8299   6.973   1.266   4.726
 1898WAT    EPW 8300   7.004   1.199   4.700
 1899WAT      O 8301   7.055   0.361   4.434
 1899WAT     H1 8302   7.072   0.383   4.351
 1899WAT     H2 8303   7.026   0.279   4.428
 1899WAT    EPW 8304   7.053   0.352   4.421
 1900WAT      O 8305   7.456   0.862   3.232
 1900WAT     H1 8306   7.499   0.842   3.306
 1900WAT     H2 8307   7.372   0.853   3.254
 1900WAT    EPW 8308   7.450   0.858   3.246
 1901WAT      O 8309   7.342   0.377   4.466
 1901WAT     H1 8310   7.346   0.445   4.520
 1901WAT     H2 8311   7.256   0.365   4.454
 1901WAT    EPW 8312   7.330   0.385   4.472
 1902WAT      O 8313   7.204   0.791   3.309
 1902WAT     H1 8314   7.201   0.776   3.394
 1902WAT     H2 8315   7.201   0.711   3.273
 1902WAT    EPW 8316   7.203   0.777   3.316
 1903WAT      O 8317   7.463   0.601   3.132
 1903WAT     H1 8318   7.382   0.575   3.147
 1903WAT     H2 8319   7.465   0.683   3.159
 1903WAT    EPW 8320   7.452   0.609   3.138
 1904WAT      O 8321   7.444   1.150   4.694
 1904WAT     H1 8322   7.456   1.136   4.779
 1904WAT     H2 8323   7.498   1.092   4.656
 1904WAT    EPW 8324   7.454   1.139   4.701
 1905WAT      O 8325   7.189   1.022   4.838
 1905WAT     H1 8326   7.257   1.061   4.876
 1905WAT     H2 8327   7.147   1.087   4.799
 1905WAT    EPW 8328   7.193   1.037   4.838
 1906WAT      O 8329   7.028   0.788   4.538
 1906WAT     H1 8330   6.974   0.849   4.568
 1906WAT     H2 8331   7.107   0.815   4.565
 1906WAT    EPW 8332   7.032   0.801   4.547
 1907WAT      O 8333   7.354   1.104   3.488
 1907WAT     H1 8334   7.353   1.161   3.421
 1907WAT     H2 8335   7.436   1.075   3.489
 1907WAT    EPW 8336   7.366   1.108   3.478
 1908WAT      O 8337   7.698   0.401   3.494
 1908WAT     H1 8338   7.699   0.401   3.407
 1908WAT     H2 8339   7.726   0.321   3.515
 1908WAT    EPW 8340   7.702   0.389   3.484
 1909WAT      O 8341   7.264   1.035   4.082
 1909WAT     H1 8342   7.262   0.962   4.035
 1909WAT     H2 8343   7.225   1.094   4.031
 1909WAT    EPW 8344   7.258   1.033   4.068
 1910WAT      O 8345   7.007   1.256   4.427
 1910WAT     H1 8346   7.016   1.235   4.511
 1910WAT     H2 8347   7.039   1.186   4.385
 1910WAT    EPW 8348   7.013   1.242   4.433
 1911WAT      O 8349   6.929   0.662   1.753
 1911WAT     H1 8350   6.938   0.687   1.836
 1911WAT     H2 8351   6.847   0.631   1.750
 1911WAT    EPW 8352   6.918   0.661   1.765
 1912WAT      O 8353   7.174   0.539   1.312
 1912WAT     H1 8354   7.144   0.492   1.245
 1912WAT     H2 8355   7.182   0.481   1.376
 1912WAT    EPW 8356   7.170   0.524   1.311
 1913WAT      O 8357   7.195   0.710   1.687
 1913WAT     H1 8358   7.243   0.665   1.744
 1913WAT     H2 8359   7.114   0.681   1.701
 1913WAT    EPW 8360   7.190   0.699   1.698
 1914WAT      O 8361   7.064   0.985   1.282
 1914WAT     H1 8362   7.101   0.979   1.203
 1914WAT     H2 8363   7.107   0.925   1.330
 1914WAT    EPW 8364   7.076   0.975   1.277
 1915WAT      O 8365   6.984   0.779   2.361
 1915WAT     H1 8366   7.002   0.769   2.446
 1915WAT     H2 8367   6.917   0.726   2.348
 1915WAT    EPW 8368   6.977   0.770   2.372
 1916WAT      O 8369   7.579   0.622   2.875
 1916WAT     H1 8370   7.551   0.612   2.957
 1916WAT     H2 8371   7.507   0.609   2.827
 1916WAT    EPW 8372   7.564   0.619   2.880
 1917WAT      O 8373   7.110   0.360   1.892
 1917WAT     H1 8374   7.076   0.318   1.824
 1917WAT     H2 8375   7.159   0.299   1.931
 1917WAT    EPW 8376   7.112   0.344   1.888
 1918WAT      O 8377   7.539   0.928   2.626
 1918WAT     H1 8378   7.586   0.968   2.564
 1918WAT     H2 8379   7.599   0.893   2.678
 1918WAT    EPW 8380   7.555   0.929   2.625
 1919WAT      O 8381   7.705   0.762   1.980
 1919WAT     H1 8382   7.737   0.693   2.023
 1919WAT     H2 8383   7.776   0.810   1.962
 1919WAT    EPW 8384   7.720   0.759   1.984
 1920WAT      O 8385   7.752   0.648   1.704
 1920WAT     H1 8386   7.747   0.641   1.791
 1920WAT     H2 8387   7.750   0.565   1.677
 1920WAT    EPW 8388   7.751   0.635   1.713
 1921WAT      O 8389   6.969   1.055   1.931
 1921WAT     H1 8390   6.902   1.092   1.889
 1921WAT     H2 8391   7.019   1.024   1.867
 1921WAT    EPW 8392   6.966   1.055   1.916
 1922WAT      O 8393   7.528   0.761   1.601
 1922WAT     H1 8394   7.488   0.782   1.676
 1922WAT     H2 8395   7.602   0.723   1.628
 1922WAT    EPW 8396   7.533   0.758   1.616
 1923WAT      O 8397   7.132   0.979   1.710
 1923WAT     H1 8398   7.165   0.899   1.719
 1923WAT     H2 8399   7.195   1.022   1.668
 1923WAT    EPW 8400   7.146   0.974   1.705
 1924WAT      O 8401   7.241   0.805   2.035
 1924WAT     H1 8402   7.301   0.802   1.972
 1924WAT     H2 8403   7.264   0.740   2.088
 1924WAT    EPW 8404   7.253   0.795   2.033
 1925WAT      O 8405   7.509   1.079   1.991
 1925WAT     H1 8406   7.587   1.090   1.954
 1925WAT     H2 8407   7.459   1.140   1.954
 1925WAT    EPW 8408   7.513   1.089   1.980
 1926WAT      O 8409   7.335   1.181   2.535
 1926WAT     H1 8410   7.357   1.161   2.617
 1926WAT     H2 8411   7.266   1.130   2.519
 1926WAT    EPW 8412   7.328   1.171   2.545
 1927WAT      O 8413   7.875   0.896   1.179
 1927WAT     H1 8414   7.856   0.939   1.252
 1927WAT     H2 8415   7.945   0.849   1.201
 1927WAT    EPW 8416   7.883   0.895   1.193
 1928WAT      O 8417   7.115   1.039   2.426
 1928WAT     H1 8418   7.076   0.961   2.430
 1928WAT     H2 8419   7.157   1.037   2.350
 1928WAT    EPW 8420   7.115   1.027   2.416
 1929WAT      O 8421   7.280   0.867   2.723
 1929WAT     H1 8422   7.354   0.903   2.694
 1929WAT     H2 8423   7.260   0.916   2.793
 1929WAT    EPW 8424   7.288   0.880   2.729
 1930WAT      O 8425   7.522   0.430   2.131
 1930WAT     H1 8426   7.527   0.421   2.217
 1930WAT     H2 8427   7.462   0.372   2.107
 1930WAT    EPW 8428   7.514   0.420   2.140
 1931WAT      O 8429   7.546   0.465   2.403
 1931WAT     H1 8430   7.528   0.549   2.413
 1931WAT     H2 8431   7.489   0.426   2.456
 1931WAT    EPW 8432   7.535   0.471   2.413
 1932WAT      O 8433   6.841   0.841   2.970
 1932WAT     H1 8434   6.897   0.854   3.035
 1932WAT     H2 8435   6.856   0.758   2.947
 1932WAT    EPW 8436   6.851   0.831   2.976
 1933WAT      O 8437   7.325   0.537   1.855
 1933WAT     H1 8438   7.365   0.500   1.787
 1933WAT     H2 8439   7.258   0.483   1.871
 1933WAT    EPW 8440   7.321   0.523   1.847
 1934WAT      O 8441   7.154   1.233   2.025
 1934WAT     H1 8442   7.085   1.189   1.994
 1934WAT     H2 8443   7.208   1.237   1.956
 1934WAT    EPW 8444   7.152   1.227   2.010
 1935WAT      O 8445   7.430   0.478   1.599
 1935WAT     H1 8446   7.443   0.563   1.584
 1935WAT     H2 8447   7.510   0.445   1.600
 1935WAT    EPW 8448   7.444   0.486   1.597
 1936WAT      O 8449   6.974   0.736   2.013
 1936WAT     H1 8450   6.927   0.797   2.054
 1936WAT     H2 8451   7.056   0.765   2.020
 1936WAT    EPW 8452   6.979   0.749   2.020
 1937WAT      O 8453   6.997   0.247   1.651
 1937WAT     H1 8454   7.002   0.161   1.640
 1937WAT     H2 8455   7.058   0.279   1.597
 1937WAT    EPW 8456   7.006   0.239   1.641
 1938WAT      O 8457   6.930   0.852   1.558
 1938WAT     H1 8458   6.991   0.906   1.589
 1938WAT     H2 8459   6.921   0.792   1.621
 1938WAT    EPW 8460   6.938   0.851   1.572
 1939WAT      O 8461   7.319   0.609   2.211
 1939WAT     H1 8462   7.359   0.650   2.276
 1939WAT     H2 8463   7.384   0.566   2.172
 1939WAT    EPW 8464   7.335   0.608   2.215
 1940WAT      O 8465   6.918   0.676   1.332
 1940WAT     H1 8466   6.993   0.631   1.330
 1940WAT     H2 8467   6.929   0.733   1.397
 1940WAT    EPW 8468   6.931   0.678   1.341
 1941WAT      O 8469   6.947   0.475   2.088
 1941WAT     H1 8470   6.988   0.437   2.021
 1941WAT     H2 8471   6.960   0.560   2.074
 1941WAT    EPW 8472   6.955   0.482   2.076
 1942WAT      O 8473   7.459   0.840   1.859
 1942WAT     H1 8474   7.466   0.921   1.893
 1942WAT     H2 8475   7.525   0.797   1.896
 1942WAT    EPW 8476   7.470   0.846   1.870
 1943WAT      O 8477   7.291   0.258   2.098
 1943WAT     H1 8478   7.243   0.300   2.157
 1943WAT     H2 8479   7.302   0.179   2.133
 1943WAT    EPW 8480   7.286   0.253   2.112
 1944WAT      O 8481   7.705   1.029   2.426
 1944WAT     H1 8482   7.683   0.979   2.358
 1944WAT     H2 8483   7.707   1.109   2.393
 1944WAT    EPW 8484   7.702   1.033   2.411
 1945WAT      O 8485   7.088   0.336   3.048
 1945WAT     H1 8486   7.106   0.357   2.965
 1945WAT     H2 8487   7.139   0.267   3.063
 1945WAT    EPW 8488   7.098   0.329   3.038
 1946WAT      O 8489   7.722   0.856   2.837
 1946WAT     H1 8490   7.771   0.866   2.908
 1946WAT     H2 8491   7.673   0.787   2.856
 1946WAT    EPW 8492   7.722   0.848   2.850
 1947WAT      O 8493   7.630   1.024   1.602
 1947WAT     H1 8494   7.611   0.939   1.609
 1947WAT     H2 8495   7.693   1.026   1.542
 1947WAT    EPW 8496   7.636   1.011   1.594
 1948WAT      O 8497   7.830   1.050   1.409
 1948WAT     H1 8498   7.909   1.075   1.435
 1948WAT     H2 8499   7.798   1.120   1.368
 1948WAT    EPW 8500   7.837   1.064   1.407
 1949WAT      O 8501   7.214   0.329   1.486
 1949WAT     H1 8502   7.243   0.272   1.426
 1949WAT     H2 8503   7.287   0.360   1.522
 1949WAT    EPW 8504   7.229   0.325   1.483
 1950WAT      O 8505   7.786   0.148   1.672
 1950WAT     H1 8506   7.814   0.134   1.754
 1950WAT     H2 8507   7.766   0.068   1.644
 1950WAT    EPW 8508   7.787   0.134   1.680
 1951WAT      O 8509   7.784   0.538   2.111
 1951WAT     H1 8510   7.709   0.494   2.110
 1951WAT     H2 8511   7.807   0.538   2.195
 1951WAT    EPW 8512   7.777   0.531   2.123
 1952WAT      O 8513   7.432   1.094   1.183
 1952WAT     H1 8514   7.455   1.021   1.226
 1952WAT     H2 8515   7.424   1.153   1.247
 1952WAT    EPW 8516   7.434   1.092   1.199
 1953WAT      O 8517   7.137   0.410   2.276
 1953WAT     H1 8518   7.190   0.478   2.267
 1953WAT     H2 8519   7.069   0.429   2.225
 1953WAT    EPW 8520   7.135   0.423   2.267
 1954WAT      O 8521   7.262   0.157   1.235
 1954WAT     H1 8522   7.231   0.075   1.232
 1954WAT     H2 8523   7.345   0.148   1.210
 1954WAT    EPW 8524   7.270   0.143   1.231
 1955WAT      O 8525   7.111   0.461   2.801
 1955WAT     H1 8526   7.092   0.430   2.722
 1955WAT     H2 8527   7.043   0.512   2.820
 1955WAT    EPW 8528   7.098   0.464   2.792
 1956WAT      O 8529   7.480   0.739   2.402
 1956WAT     H1 8530   7.483   0.787   2.475
 1956WAT     H2 8531   7.514   0.791   2.341
 1956WAT    EPW 8532   7.485   0.754   2.404
 1957WAT      O 8533   7.341   0.598   2.739
 1957WAT     H1 8534   7.269   0.561   2.771
 1957WAT     H2 8535   7.319   0.681   2.729
 1957WAT    EPW 8536   7.327   0.605   2.742
 1958WAT      O 8537   7.815   0.535   2.392
 1958WAT     H1 8538   7.830   0.573   2.469
 1958WAT     H2 8539   7.737   0.498   2.402
 1958WAT    EPW 8540   7.806   0.535   2.405
 1959WAT      O 8541   7.742   1.102   1.850
 1959WAT     H1 8542   7.748   1.189   1.846
 1959WAT     H2 8543   7.712   1.079   1.771
 1959WAT    EPW 8544   7.738   1.111   1.838
 1960WAT      O 8545   7.591   0.899   2.200
 1960WAT     H1 8546   7.549   0.961   2.155
 1960WAT     H2 8547   7.630   0.851   2.139
 1960WAT    EPW 8548   7.590   0.901   2.185
 1961WAT      O 8549   7.657   0.420   1.314
 1961WAT     H1 8550   7.708   0.423   1.244
 1961WAT     H2 8551   7.591   0.474   1.293
 1961WAT    EPW 8552   7.655   0.428   1.301
 1962WAT      O 8553   7.772   1.116   2.726
 1962WAT     H1 8554   7.816   1.090   2.656
 1962WAT     H2 8555   7.760   1.042   2.771
 1962WAT    EPW 8556   7.776   1.101   2.723
 1963WAT      O 8557   7.796   0.636   2.662
 1963WAT     H1 8558   7.740   0.592   2.712
 1963WAT     H2 8559   7.807   0.711   2.704
 1963WAT    EPW 8560   7.789   0.641   2.675
 1964WAT      O 8561   7.434   1.230   2.280
 1964WAT     H1 8562   7.404   1.224   2.362
 1964WAT     H2 8563   7.394   1.165   2.239
 1964WAT    EPW 8564   7.423   1.220   2.286
 1965WAT      O 8565   7.015   1.194   2.811
 1965WAT     H1 8566   6.957   1.132   2.792
 1965WAT     H2 8567   6.966   1.260   2.841
 1965WAT    EPW 8568   7.000   1.195   2.812
 1966WAT      O 8569   7.062   0.361   2.537
 1966WAT     H1 8570   7.079   0.383   2.455
 1966WAT     H2 8571   7.032   0.279   2.531
 1966WAT    EPW 8572   7.060   0.352   2.524
 1967WAT      O 8573   7.465   0.859   1.339
 1967WAT     H1 8574   7.508   0.839   1.412
 1967WAT     H2 8575   7.381   0.852   1.363
 1967WAT    EPW 8576   7.459   0.855   1.354
 1968WAT      O 8577   7.348   0.375   2.571
 1968WAT     H1 8578   7.352   0.444   2.624
 1968WAT     H2 8579   7.263   0.363   2.559
 1968WAT    EPW 8580   7.336   0.383   2.577
 1969WAT      O 8581   7.213   0.791   1.419
 1969WAT     H1 8582   7.210   0.772   1.504
 1969WAT     H2 8583   7.199   0.713   1.381
 1969WAT    EPW 8584   7.210   0.776   1.426
 1970WAT      O 8585   7.453   0.599   1.239
 1970WAT     H1 8586   7.369   0.577   1.254
 1970WAT     H2 8587   7.458   0.681   1.269
 1970WAT    EPW 8588   7.441   0.608   1.246
 1971WAT      O 8589   7.445   1.147   2.797
 1971WAT     H1 8590   7.457   1.132   2.882
 1971WAT     H2 8591   7.501   1.093   2.759
 1971WAT    EPW 8592   7.455   1.137   2.804
 1972WAT      O 8593   7.190   1.017   2.942
 1972WAT     H1 8594   7.258   1.057   2.980
 1972WAT     H2 8595   7.146   1.083   2.904
 1972WAT    EPW 8596   7.194   1.033   2.942
 1973WAT      O 8597   7.032   0.790   2.628
 1973WAT     H1 8598   6.976   0.847   2.663
 1973WAT     H2 8599   7.110   0.816   2.657
 1973WAT    EPW 8600   7.035   0.802   2.637
 1974WAT      O 8601   7.358   1.105   1.589
 1974WAT     H1 8602   7.357   1.159   1.521
 1974WAT     H2 8603   7.441   1.077   1.591
 1974WAT    EPW 8604   7.370   1.108   1.579
 1975WAT      O 8605   7.695   0.399   1.590
 1975WAT     H1 8606   7.696   0.398   1.502
 1975WAT     H2 8607   7.725   0.320   1.612
 1975WAT    EPW 8608   7.700   0.387   1.580
 1976WAT      O 8609   7.252   1.036   2.188
 1976WAT     H1 8610   7.252   0.963   2.140
 1976WAT     H2 8611   7.217   1.095   2.134
 1976WAT    EPW 8612   7.247   1.034   2.173
 1977WAT      O 8613   7.000   1.267   2.544
 1977WAT     H1 8614   7.008   1.241   2.626
 1977WAT     H2 8615   7.026   1.198   2.498
 1977WAT    EPW 8616   7.005   1.253   2.549
 1978WAT      O 8617   6.988   0.813   0.520
 1978WAT     H1 8618   6.998   0.791   0.603
 1978WAT     H2 8619   6.934   0.752   0.488
 1978WAT    EPW 8620   6.981   0.801   0.528
 1979WAT      O 8621   7.576   0.635   0.990
 1979WAT     H1 8622   7.539   0.622   1.068
 1979WAT     H2 8623   7.512   0.614   0.934
 1979WAT    EPW 8624   7.561   0.630   0.993
 1980WAT      O 8625   7.544   0.883   0.726
 1980WAT     H1 8626   7.570   0.949   0.675
 1980WAT     H2 8627   7.606   0.880   0.788
 1980WAT    EPW 8628   7.557   0.892   0.728
 1981WAT      O 8629   7.388   1.132   0.634
 1981WAT     H1 8630   7.389   1.136   0.721
 1981WAT     H2 8631   7.313   1.091   0.616
 1981WAT    EPW 8632   7.377   1.127   0.644
 1982WAT      O 8633   7.166   1.027   0.492
 1982WAT     H1 8634   7.120   0.954   0.503
 1982WAT     H2 8635   7.207   1.014   0.416
 1982WAT    EPW 8636   7.166   1.014   0.482
 1983WAT      O 8637   7.284   0.857   0.816
 1983WAT     H1 8638   7.363   0.882   0.790
 1983WAT     H2 8639   7.272   0.901   0.890
 1983WAT    EPW 8640   7.294   0.867   0.823
 1984WAT      O 8641   7.446   0.499   0.217
 1984WAT     H1 8642   7.478   0.465   0.291
 1984WAT     H2 8643   7.410   0.430   0.177
 1984WAT    EPW 8644   7.445   0.484   0.222
 1985WAT      O 8645   7.560   0.438   0.463
 1985WAT     H1 8646   7.552   0.521   0.489
 1985WAT     H2 8647   7.507   0.395   0.516
 1985WAT    EPW 8648   7.551   0.444   0.475
 1986WAT      O 8649   6.844   0.805   1.092
 1986WAT     H1 8650   6.876   0.776   1.167
 1986WAT     H2 8651   6.826   0.732   1.047
 1986WAT    EPW 8652   6.846   0.790   1.096
 1987WAT      O 8653   7.297   0.698   0.344
 1987WAT     H1 8654   7.350   0.699   0.413
 1987WAT     H2 8655   7.334   0.639   0.291
 1987WAT    EPW 8656   7.311   0.689   0.346
 1988WAT      O 8657   7.709   1.039   0.542
 1988WAT     H1 8658   7.698   0.979   0.479
 1988WAT     H2 8659   7.713   1.114   0.498
 1988WAT    EPW 8660   7.708   1.041   0.526
 1989WAT      O 8661   7.085   0.358   1.127
 1989WAT     H1 8662   7.101   0.384   1.045
 1989WAT     H2 8663   7.140   0.291   1.138
 1989WAT    EPW 8664   7.095   0.352   1.117
 1990WAT      O 8665   7.719   0.874   0.953
 1990WAT     H1 8666   7.769   0.886   1.024
 1990WAT     H2 8667   7.669   0.806   0.974
 1990WAT    EPW 8668   7.719   0.866   0.966
 1991WAT      O 8669   7.668   0.658   0.150
 1991WAT     H1 8670   7.594   0.612   0.158
 1991WAT     H2 8671   7.724   0.615   0.201
 1991WAT    EPW 8672   7.665   0.645   0.159
 1992WAT      O 8673   7.089   0.522   0.406
 1992WAT     H1 8674   7.149   0.583   0.390
 1992WAT     H2 8675   7.013   0.561   0.386
 1992WAT    EPW 8676   7.086   0.536   0.401
 1993WAT      O 8677   7.104   0.487   0.878
 1993WAT     H1 8678   7.089   0.444   0.804
 1993WAT     H2 8679   7.060   0.562   0.868
 1993WAT    EPW 8680   7.096   0.492   0.866
 1994WAT      O 8681   7.515   0.704   0.517
 1994WAT     H1 8682   7.522   0.748   0.592
 1994WAT     H2 8683   7.555   0.756   0.459
 1994WAT    EPW 8684   7.522   0.719   0.519
 1995WAT      O 8685   7.356   0.587   0.826
 1995WAT     H1 8686   7.281   0.553   0.855
 1995WAT     H2 8687   7.337   0.671   0.814
 1995WAT    EPW 8688   7.342   0.595   0.829
 1996WAT      O 8689   7.805   0.508   0.342
 1996WAT     H1 8690   7.866   0.519   0.403
 1996WAT     H2 8691   7.739   0.470   0.384
 1996WAT    EPW 8692   7.805   0.504   0.357
 1997WAT      O 8693   7.612   0.875   0.323
 1997WAT     H1 8694   7.541   0.910   0.288
 1997WAT     H2 8695   7.640   0.819   0.262
 1997WAT    EPW 8696   7.606   0.872   0.309
 1998WAT      O 8697   7.726   1.124   0.813
 1998WAT     H1 8698   7.741   1.094   0.733
 1998WAT     H2 8699   7.740   1.054   0.864
 1998WAT    EPW 8700   7.730   1.109   0.809
 1999WAT      O 8701   7.840   0.620   0.871
 1999WAT     H1 8702   7.763   0.595   0.903
 1999WAT     H2 8703   7.839   0.706   0.880
 1999WAT    EPW 8704   7.829   0.629   0.877
 2000WAT      O 8705   7.436   1.202   0.371
 2000WAT     H1 8706   7.424   1.183   0.455
 2000WAT     H2 8707   7.409   1.130   0.329
 2000WAT    EPW 8708   7.430   1.189   0.377
 2001WAT      O 8709   7.056   1.183   0.898
 2001WAT     H1 8710   6.993   1.123   0.893
 2001WAT     H2 8711   7.016   1.253   0.932
 2001WAT    EPW 8712   7.041   1.185   0.902
 2002WAT      O 8713   7.067   0.363   0.627
 2002WAT     H1 8714   7.076   0.413   0.556
 2002WAT     H2 8715   7.045   0.285   0.595
 2002WAT    EPW 8716   7.065   0.359   0.612
 2003WAT      O 8717   7.359   0.371   0.645
 2003WAT     H1 8718   7.368   0.439   0.699
 2003WAT     H2 8719   7.273   0.361   0.638
 2003WAT    EPW 8720   7.348   0.379   0.652
 2004WAT      O 8721   7.459   1.164   0.910
 2004WAT     H1 8722   7.460   1.141   0.994
 2004WAT     H2 8723   7.541   1.150   0.884
 2004WAT    EPW 8724   7.471   1.158   0.918
 2005WAT      O 8725   7.209   0.999   1.043
 2005WAT     H1 8726   7.275   1.037   1.086
 2005WAT     H2 8727   7.170   1.065   1.003
 2005WAT    EPW 8728   7.213   1.014   1.044
 2006WAT      O 8729   7.029   0.753   0.785
 2006WAT     H1 8730   6.976   0.814   0.817
 2006WAT     H2 8731   7.108   0.788   0.793
 2006WAT    EPW 8732   7.033   0.767   0.791
 2007WAT      O 8733   7.333   0.959   0.258
 2007WAT     H1 8734   7.315   0.876   0.279
 2007WAT     H2 8735   7.301   0.967   0.178
 2007WAT    EPW 8736   7.325   0.948   0.250
 2008WAT      O 8737   7.042   1.249   0.627
 2008WAT     H1 8738   7.057   1.220   0.708
 2008WAT     H2 8739   7.077   1.187   0.576
 2008WAT    EPW 8740   7.049   1.235   0.632
 2009WAT      O 8741   6.147   6.865   7.420
 2009WAT     H1 8742   6.151   6.909   7.345
 2009WAT     H2 8743   6.229   6.842   7.435
 2009WAT    EPW 8744   6.159   6.868   7.411
 2010WAT      O 8745   5.060   7.326   7.026
 2010WAT     H1 8746   4.989   7.370   7.000
 2010WAT     H2 8747   5.031   7.243   7.033
 2010WAT    EPW 8748   5.045   7.320   7.023
 2011WAT      O 8749   5.355   7.906   6.859
 2011WAT     H1 8750   5.312   7.859   6.799
 2011WAT     H2 8751   5.371   7.849   6.922
 2011WAT    EPW 8752   5.351   7.891   6.859
 2012WAT      O 8753   6.368   7.665   7.486
 2012WAT     H1 8754   6.358   7.653   7.401
 2012WAT     H2 8755   6.300   7.623   7.522
 2012WAT    EPW 8756   6.357   7.657   7.479
 2013WAT      O 8757   5.785   6.978   7.298
 2013WAT     H1 8758   5.775   7.043   7.241
 2013WAT     H2 8759   5.862   6.944   7.277
 2013WAT    EPW 8760   5.795   6.982   7.287
 2014WAT      O 8761   5.437   7.757   7.427
 2014WAT     H1 8762   5.368   7.759   7.373
 2014WAT     H2 8763   5.473   7.680   7.412
 2014WAT    EPW 8764   5.432   7.746   7.417
 2015WAT      O 8765   5.521   7.497   7.384
 2015WAT     H1 8766   5.573   7.459   7.443
 2015WAT     H2 8767   5.442   7.465   7.402
 2015WAT    EPW 8768   5.517   7.486   7.395
 2016WAT      O 8769   5.515   7.028   7.406
 2016WAT     H1 8770   5.475   7.076   7.346
 2016WAT     H2 8771   5.596   7.018   7.374
 2016WAT    EPW 8772   5.521   7.034   7.393
 2017WAT      O 8773   5.818   6.914   7.569
 2017WAT     H1 8774   5.820   6.994   7.605
 2017WAT     H2 8775   5.800   6.930   7.485
 2017WAT    EPW 8776   5.816   6.928   7.562
 2018WAT      O 8777   6.258   7.154   6.822
 2018WAT     H1 8778   6.211   7.217   6.860
 2018WAT     H2 8779   6.274   7.098   6.888
 2018WAT    EPW 8780   6.254   7.155   6.838
 2019WAT      O 8781   5.147   7.518   7.686
 2019WAT     H1 8782   5.075   7.563   7.671
 2019WAT     H2 8783   5.118   7.439   7.708
 2019WAT    EPW 8784   5.132   7.513   7.687
 2020WAT      O 8785   6.769   7.173   7.492
 2020WAT     H1 8786   6.708   7.232   7.513
 2020WAT     H2 8787   6.724   7.099   7.486
 2020WAT    EPW 8788   6.753   7.171   7.494
 2021WAT      O 8789   5.970   7.350   7.419
 2021WAT     H1 8790   6.003   7.306   7.351
 2021WAT     H2 8791   6.038   7.393   7.451
 2021WAT    EPW 8792   5.985   7.350   7.414
 2022WAT      O 8793   6.079   7.330   6.954
 2022WAT     H1 8794   6.092   7.408   6.991
 2022WAT     H2 8795   6.001   7.339   6.916
 2022WAT    EPW 8796   6.069   7.343   6.954
 2023WAT      O 8797   6.301   6.977   7.033
 2023WAT     H1 8798   6.354   6.907   7.036
 2023WAT     H2 8799   6.327   7.025   7.101
 2023WAT    EPW 8800   6.313   6.974   7.043
 2024WAT      O 8801   5.101   7.108   7.305
 2024WAT     H1 8802   5.082   7.023   7.302
 2024WAT     H2 8803   5.042   7.141   7.360
 2024WAT    EPW 8804   5.090   7.100   7.313
 2025WAT      O 8805   6.077   7.216   7.207
 2025WAT     H1 8806   6.051   7.135   7.192
 2025WAT     H2 8807   6.073   7.254   7.128
 2025WAT    EPW 8808   6.072   7.210   7.193
 2026WAT      O 8809   6.054   6.945   7.155
 2026WAT     H1 8810   5.994   6.928   7.094
 2026WAT     H2 8811   6.129   6.946   7.111
 2026WAT    EPW 8812   6.056   6.943   7.140
 2027WAT      O 8813   5.871   7.192   7.621
 2027WAT     H1 8814   5.903   7.237   7.554
 2027WAT     H2 8815   5.896   7.239   7.691
 2027WAT    EPW 8816   5.879   7.206   7.622
 2028WAT      O 8817   5.420   6.783   7.509
 2028WAT     H1 8818   5.449   6.861   7.483
 2028WAT     H2 8819   5.387   6.748   7.436
 2028WAT    EPW 8820   5.419   6.789   7.494
 2029WAT      O 8821   6.400   6.776   7.487
 2029WAT     H1 8822   6.401   6.765   7.574
 2029WAT     H2 8823   6.437   6.703   7.457
 2029WAT    EPW 8824   6.405   6.764   7.495
 2030WAT      O 8825   5.424   7.200   7.608
 2030WAT     H1 8826   5.454   7.141   7.551
 2030WAT     H2 8827   5.368   7.154   7.657
 2030WAT    EPW 8828   5.420   7.184   7.607
 2031WAT      O 8829   6.436   7.659   6.965
 2031WAT     H1 8830   6.421   7.742   6.943
 2031WAT     H2 8831   6.413   7.654   7.048
 2031WAT    EPW 8832   6.430   7.670   6.974
 2032WAT      O 8833   6.782   7.027   6.947
 2032WAT     H1 8834   6.825   6.998   6.877
 2032WAT     H2 8835   6.754   7.106   6.922
 2032WAT    EPW 8836   6.784   7.034   6.933
 2033WAT      O 8837   5.231   7.734   7.242
 2033WAT     H1 8838   5.191   7.657   7.246
 2033WAT     H2 8839   5.286   7.725   7.175
 2033WAT    EPW 8840   5.233   7.721   7.233
 2034WAT      O 8841   6.667   6.926   7.178
 2034WAT     H1 8842   6.742   6.890   7.206
 2034WAT     H2 8843   6.691   6.967   7.105
 2034WAT    EPW 8844   6.682   6.926   7.171
 2035WAT      O 8845   6.281   7.279   7.688
 2035WAT     H1 8846   6.300   7.260   7.771
 2035WAT     H2 8847   6.239   7.207   7.660
 2035WAT    EPW 8848   6.278   7.265   7.696
 2036WAT      O 8849   5.754   7.166   7.105
 2036WAT     H1 8850   5.744   7.148   7.021
 2036WAT     H2 8851   5.741   7.253   7.110
 2036WAT    EPW 8852   5.751   7.176   7.094
 2037WAT      O 8853   5.411   7.416   7.077
 2037WAT     H1 8854   5.394   7.357   7.139
 2037WAT     H2 8855   5.372   7.382   7.006
 2037WAT    EPW 8856   5.403   7.402   7.076
 2038WAT      O 8857   5.315   7.796   7.672
 2038WAT     H1 8858   5.359   7.786   7.598
 2038WAT     H2 8859   5.282   7.717   7.688
 2038WAT    EPW 8860   5.317   7.783   7.664
 2039WAT      O 8861   6.335   7.128   7.259
 2039WAT     H1 8862   6.390   7.194   7.270
 2039WAT     H2 8863   6.257   7.167   7.253
 2039WAT    EPW 8864   6.331   7.143   7.259
 2040WAT      O 8865   6.100   7.566   7.104
 2040WAT     H1 8866   6.096   7.629   7.044
 2040WAT     H2 8867   6.041   7.589   7.163
 2040WAT    EPW 8868   6.091   7.578   7.104
 2041WAT      O 8869   5.588   6.849   7.050
 2041WAT     H1 8870   5.591   6.837   7.137
 2041WAT     H2 8871   5.537   6.918   7.041
 2041WAT    EPW 8872   5.581   6.857   7.062
 2042WAT      O 8873   5.441   7.693   7.056
 2042WAT     H1 8874   5.427   7.608   7.067
 2042WAT     H2 8875   5.510   7.709   7.107
 2042WAT    EPW 8876   5.449   7.683   7.065
 2043WAT      O 8877   5.022   6.833   7.288
 2043WAT     H1 8878   5.030   6.776   7.222
 2043WAT     H2 8879   4.993   6.783   7.354
 2043WAT    EPW 8880   5.019   6.817   7.288
 2044WAT      O 8881   5.913   7.607   7.318
 2044WAT     H1 8882   5.919   7.644   7.396
 2044WAT     H2 8883   5.910   7.521   7.335
 2044WAT    EPW 8884   5.914   7.599   7.332
 2045WAT      O 8885   5.440   7.073   6.985
 2045WAT     H1 8886   5.380   7.064   6.923
 2045WAT     H2 8887   5.509   7.106   6.943
 2045WAT    EPW 8888   5.442   7.076   6.970
 2046WAT      O 8889   5.870   7.572   7.629
 2046WAT     H1 8890   5.804   7.517   7.612
 2046WAT     H2 8891   5.832   7.638   7.670
 2046WAT    EPW 8892   5.855   7.573   7.632
 2047WAT      O 8893   5.655   7.371   7.600
 2047WAT     H1 8894   5.711   7.304   7.595
 2047WAT     H2 8895   5.579   7.333   7.620
 2047WAT    EPW 8896   5.652   7.355   7.602
 2048WAT      O 8897   5.115   7.476   7.259
 2048WAT     H1 8898   5.163   7.439   7.322
 2048WAT     H2 8899   5.118   7.418   7.194
 2048WAT    EPW 8900   5.122   7.462   7.259
 2049WAT      O 8901   5.606   7.655   6.830
 2049WAT     H1 8902   5.556   7.669   6.900
 2049WAT     H2 8903   5.555   7.608   6.777
 2049WAT    EPW 8904   5.591   7.650   6.832
 2050WAT      O 8905   6.808   7.667   7.608
 2050WAT     H1 8906   6.867   7.732   7.615
 2050WAT     H2 8907   6.764   7.688   7.535
 2050WAT    EPW 8908   6.810   7.680   7.598
 2051WAT      O 8909   5.687   7.438   7.081
 2051WAT     H1 8910   5.698   7.519   7.110
 2051WAT     H2 8911   5.600   7.426   7.085
 2051WAT    EPW 8912   5.676   7.448   7.086
 2052WAT      O 8913   5.055   7.251   7.716
 2052WAT     H1 8914   5.010   7.225   7.646
 2052WAT     H2 8915   5.012   7.215   7.783
 2052WAT    EPW 8916   5.042   7.242   7.715
 2053WAT      O 8917   6.539   7.327   7.574
 2053WAT     H1 8918   6.462   7.299   7.605
 2053WAT     H2 8919   6.550   7.404   7.614
 2053WAT    EPW 8920   6.529   7.334   7.585
 2054WAT      O 8921   6.683   7.540   6.948
 2054WAT     H1 8922   6.737   7.589   6.901
 2054WAT     H2 8923   6.608   7.585   6.946
 2054WAT    EPW 8924   6.680   7.554   6.941
 2055WAT      O 8925   5.821   7.815   6.910
 2055WAT     H1 8926   5.763   7.762   6.871
 2055WAT     H2 8927   5.789   7.895   6.896
 2055WAT    EPW 8928   5.808   7.819   6.902
 2056WAT      O 8929   6.478   7.362   7.306
 2056WAT     H1 8930   6.494   7.354   7.391
 2056WAT     H2 8931   6.551   7.399   7.275
 2056WAT    EPW 8932   6.491   7.366   7.314
 2057WAT      O 8933   6.619   6.944   7.451
 2057WAT     H1 8934   6.542   6.907   7.468
 2057WAT     H2 8935   6.619   6.952   7.364
 2057WAT    EPW 8936   6.608   6.939   7.440
 2058WAT      O 8937   6.637   7.729   7.402
 2058WAT     H1 8938   6.648   7.671   7.338
 2058WAT     H2 8939   6.553   7.721   7.422
 2058WAT    EPW 8940   6.626   7.719   7.395
 2059WAT      O 8941   5.363   7.181   7.230
 2059WAT     H1 8942   5.376   7.142   7.153
 2059WAT     H2 8943   5.281   7.161   7.250
 2059WAT    EPW 8944   5.353   7.172   7.222
 2060WAT      O 8945   6.688   7.520   7.224
 2060WAT     H1 8946   6.690   7.529   7.137
 2060WAT     H2 8947   6.772   7.508   7.245
 2060WAT    EPW 8948   6.701   7.519   7.214
 2061WAT      O 8949   5.272   7.336   6.847
 2061WAT     H1 8950   5.199   7.339   6.896
 2061WAT     H2 8951   5.273   7.255   6.816
 2061WAT    EPW 8952   5.261   7.325   6.850
 2062WAT      O 8953   6.125   7.063   7.616
 2062WAT     H1 8954   6.040   7.079   7.615
 2062WAT     H2 8955   6.134   6.997   7.559
 2062WAT    EPW 8956   6.114   7.056   7.607
 2063WAT      O 8957   6.552   7.576   7.690
 2063WAT     H1 8958   6.631   7.611   7.677
 2063WAT     H2 8959   6.501   7.618   7.633
 2063WAT    EPW 8960   6.556   7.587   7.679
 2064WAT      O 8961   5.855   6.875   6.980
 2064WAT     H1 8962   5.861   6.880   6.893
 2064WAT     H2 8963   5.770   6.882   6.995
 2064WAT    EPW 8964   5.844   6.877   6.970
 2065WAT      O 8965   6.152   7.501   7.569
 2065WAT     H1 8966   6.189   7.438   7.617
 2065WAT     H2 8967   6.081   7.523   7.614
 2065WAT    EPW 8968   6.147   7.495   7.582
 2066WAT      O 8969   5.276   7.397   7.472
 2066WAT     H1 8970   5.239   7.440   7.538
 2066WAT     H2 8971   5.311   7.327   7.510
 2066WAT    EPW 8972   5.276   7.393   7.487
 2067WAT      O 8973   6.349   7.595   7.221
 2067WAT     H1 8974   6.381   7.517   7.241
 2067WAT     H2 8975   6.269   7.578   7.191
 2067WAT    EPW 8976   6.342   7.581   7.220
 2068WAT      O 8977   5.712   7.707   7.148
 2068WAT     H1 8978   5.759   7.746   7.087
 2068WAT     H2 8979   5.770   7.689   7.211
 2068WAT    EPW 8980   5.727   7.710   7.149
 2069WAT      O 8981   6.139   6.864   5.546
 2069WAT     H1 8982   6.143   6.906   5.469
 2069WAT     H2 8983   6.221   6.842   5.562
 2069WAT    EPW 8984   6.151   6.867   5.537
 2070WAT      O 8985   6.098   7.472   6.006
 2070WAT     H1 8986   6.055   7.542   6.037
 2070WAT     H2 8987   6.157   7.456   6.068
 2070WAT    EPW 8988   6.100   7.480   6.020
 2071WAT      O 8989   5.054   7.321   5.173
 2071WAT     H1 8990   4.989   7.366   5.136
 2071WAT     H2 8991   5.016   7.246   5.197
 2071WAT    EPW 8992   5.039   7.317   5.171
 2072WAT      O 8993   5.356   7.901   4.969
 2072WAT     H1 8994   5.313   7.854   4.909
 2072WAT     H2 8995   5.365   7.846   5.036
 2072WAT    EPW 8996   5.351   7.886   4.970
 2073WAT      O 8997   6.354   7.655   5.691
 2073WAT     H1 8998   6.349   7.653   5.604
 2073WAT     H2 8999   6.298   7.593   5.717
 2073WAT    EPW 9000   6.345   7.646   5.682
 2074WAT      O 9001   5.795   6.965   5.422
 2074WAT     H1 9002   5.790   7.035   5.370
 2074WAT     H2 9003   5.872   6.930   5.401
 2074WAT    EPW 9004   5.806   6.970   5.411
 2075WAT      O 9005   5.325   7.782   5.636
 2075WAT     H1 9006   5.290   7.778   5.556
 2075WAT     H2 9007   5.363   7.703   5.645
 2075WAT    EPW 9008   5.325   7.770   5.625
 2076WAT      O 9009   5.706   7.300   6.200
 2076WAT     H1 9010   5.772   7.296   6.143
 2076WAT     H2 9011   5.668   7.222   6.193
 2076WAT    EPW 9012   5.710   7.288   6.190
 2077WAT      O 9013   5.407   7.521   5.715
 2077WAT     H1 9014   5.477   7.470   5.721
 2077WAT     H2 9015   5.343   7.466   5.691
 2077WAT    EPW 9016   5.408   7.506   5.712
 2078WAT      O 9017   6.076   7.538   6.697
 2078WAT     H1 9018   5.996   7.536   6.664
 2078WAT     H2 9019   6.074   7.606   6.751
 2078WAT    EPW 9020   6.064   7.548   6.700
 2079WAT      O 9021   5.521   7.006   5.509
 2079WAT     H1 9022   5.484   7.061   5.453
 2079WAT     H2 9023   5.603   6.997   5.480
 2079WAT    EPW 9024   5.528   7.013   5.497
 2080WAT      O 9025   6.489   6.764   6.476
 2080WAT     H1 9026   6.462   6.831   6.427
 2080WAT     H2 9027   6.417   6.740   6.519
 2080WAT    EPW 9028   6.474   6.770   6.475
 2081WAT      O 9029   5.820   6.942   5.698
 2081WAT     H1 9030   5.829   7.026   5.719
 2081WAT     H2 9031   5.803   6.944   5.612
 2081WAT    EPW 9032   5.819   6.955   5.688
 2082WAT      O 9033   6.255   7.158   4.939
 2082WAT     H1 9034   6.214   7.224   4.977
 2082WAT     H2 9035   6.272   7.103   5.005
 2082WAT    EPW 9036   6.252   7.160   4.954
 2083WAT      O 9037   5.070   7.384   5.903
 2083WAT     H1 9038   5.032   7.463   5.909
 2083WAT     H2 9039   5.022   7.335   5.956
 2083WAT    EPW 9040   5.058   7.389   5.912
 2084WAT      O 9041   5.344   6.959   5.929
 2084WAT     H1 9042   5.330   6.880   5.896
 2084WAT     H2 9043   5.404   6.944   5.991
 2084WAT    EPW 9044   5.351   6.945   5.934
 2085WAT      O 9045   5.669   7.139   6.830
 2085WAT     H1 9046   5.680   7.100   6.753
 2085WAT     H2 9047   5.714   7.213   6.822
 2085WAT    EPW 9048   5.677   7.144   6.818
 2086WAT      O 9049   6.821   7.123   5.656
 2086WAT     H1 9050   6.769   7.193   5.656
 2086WAT     H2 9051   6.765   7.056   5.649
 2086WAT    EPW 9052   6.805   7.123   5.655
 2087WAT      O 9053   5.269   7.067   6.767
 2087WAT     H1 9054   5.190   7.035   6.752
 2087WAT     H2 9055   5.318   7.031   6.704
 2087WAT    EPW 9056   5.265   7.057   6.755
 2088WAT      O 9057   5.880   6.883   6.708
 2088WAT     H1 9058   5.902   6.807   6.669
 2088WAT     H2 9059   5.816   6.914   6.658
 2088WAT    EPW 9060   5.874   6.876   6.695
 2089WAT      O 9061   5.988   7.401   5.565
 2089WAT     H1 9062   6.019   7.356   5.497
 2089WAT     H2 9063   6.059   7.415   5.614
 2089WAT    EPW 9064   6.003   7.397   5.562
 2090WAT      O 9065   6.097   7.346   5.075
 2090WAT     H1 9066   6.112   7.425   5.109
 2090WAT     H2 9067   6.019   7.354   5.037
 2090WAT    EPW 9068   6.087   7.359   5.075
 2091WAT      O 9069   6.727   7.057   6.079
 2091WAT     H1 9070   6.796   7.062   6.026
 2091WAT     H2 9071   6.748   6.992   6.134
 2091WAT    EPW 9072   6.740   7.048   6.079
 2092WAT      O 9073   5.005   7.188   6.526
 2092WAT     H1 9074   4.989   7.266   6.563
 2092WAT     H2 9075   5.068   7.206   6.468
 2092WAT    EPW 9076   5.012   7.202   6.522
 2093WAT      O 9077   6.299   6.992   5.157
 2093WAT     H1 9078   6.351   6.923   5.167
 2093WAT     H2 9079   6.317   7.042   5.226
 2093WAT    EPW 9080   6.310   6.989   5.168
 2094WAT      O 9081   5.131   7.077   5.421
 2094WAT     H1 9082   5.103   6.996   5.404
 2094WAT     H2 9083   5.091   7.096   5.497
 2094WAT    EPW 9084   5.121   7.067   5.430
 2095WAT      O 9085   6.060   7.256   5.337
 2095WAT     H1 9086   5.989   7.208   5.323
 2095WAT     H2 9087   6.079   7.289   5.259
 2095WAT    EPW 9088   6.052   7.254   5.323
 2096WAT      O 9089   6.056   6.934   5.281
 2096WAT     H1 9090   5.996   6.930   5.218
 2096WAT     H2 9091   6.130   6.952   5.238
 2096WAT    EPW 9092   6.058   6.936   5.266
 2097WAT      O 9093   5.868   7.216   5.737
 2097WAT     H1 9094   5.898   7.280   5.687
 2097WAT     H2 9095   5.880   7.246   5.818
 2097WAT    EPW 9096   5.874   7.230   5.742
 2098WAT      O 9097   5.438   6.751   5.577
 2098WAT     H1 9098   5.460   6.832   5.556
 2098WAT     H2 9099   5.418   6.714   5.500
 2098WAT    EPW 9100   5.438   6.757   5.563
 2099WAT      O 9101   5.559   7.814   6.069
 2099WAT     H1 9102   5.571   7.743   6.119
 2099WAT     H2 9103   5.508   7.785   6.004
 2099WAT    EPW 9104   5.553   7.799   6.066
 2100WAT      O 9105   6.211   7.164   6.326
 2100WAT     H1 9106   6.199   7.203   6.403
 2100WAT     H2 9107   6.148   7.105   6.323
 2100WAT    EPW 9108   6.200   7.161   6.337
 2101WAT      O 9109   6.392   6.770   5.626
 2101WAT     H1 9110   6.385   6.758   5.712
 2101WAT     H2 9111   6.427   6.696   5.597
 2101WAT    EPW 9112   6.396   6.758   5.634
 2102WAT      O 9113   6.610   7.195   6.436
 2102WAT     H1 9114   6.695   7.185   6.454
 2102WAT     H2 9115   6.572   7.193   6.514
 2102WAT    EPW 9116   6.617   7.193   6.450
 2103WAT      O 9117   5.401   7.141   5.725
 2103WAT     H1 9118   5.436   7.092   5.663
 2103WAT     H2 9119   5.386   7.085   5.790
 2103WAT    EPW 9120   5.404   7.126   5.726
 2104WAT      O 9121   5.274   7.351   6.096
 2104WAT     H1 9122   5.352   7.369   6.061
 2104WAT     H2 9123   5.219   7.363   6.029
 2104WAT    EPW 9124   5.277   7.355   6.081
 2105WAT      O 9125   6.471   7.674   5.067
 2105WAT     H1 9126   6.447   7.746   5.025
 2105WAT     H2 9127   6.485   7.703   5.149
 2105WAT    EPW 9128   6.470   7.689   5.073
 2106WAT      O 9129   6.788   7.077   5.114
 2106WAT     H1 9130   6.833   7.018   5.068
 2106WAT     H2 9131   6.756   7.131   5.053
 2106WAT    EPW 9132   6.790   7.076   5.098
 2107WAT      O 9133   5.820   7.369   6.847
 2107WAT     H1 9134   5.776   7.408   6.911
 2107WAT     H2 9135   5.811   7.424   6.780
 2107WAT    EPW 9136   5.812   7.383   6.847
 2108WAT      O 9137   6.909   7.467   6.338
 2108WAT     H1 9138   6.972   7.406   6.344
 2108WAT     H2 9139   6.859   7.437   6.273
 2108WAT    EPW 9140   6.911   7.454   6.329
 2109WAT      O 9141   5.230   7.725   5.379
 2109WAT     H1 9142   5.195   7.645   5.385
 2109WAT     H2 9143   5.289   7.717   5.315
 2109WAT    EPW 9144   5.234   7.712   5.370
 2110WAT      O 9145   6.662   6.938   5.325
 2110WAT     H1 9146   6.737   6.899   5.345
 2110WAT     H2 9147   6.685   6.997   5.264
 2110WAT    EPW 9148   6.677   6.941   5.319
 2111WAT      O 9149   6.364   7.208   5.759
 2111WAT     H1 9150   6.394   7.169   5.831
 2111WAT     H2 9151   6.296   7.158   5.736
 2111WAT    EPW 9152   6.358   7.195   5.766
 2112WAT      O 9153   5.800   7.171   5.243
 2112WAT     H1 9154   5.791   7.138   5.163
 2112WAT     H2 9155   5.765   7.251   5.237
 2112WAT    EPW 9156   5.793   7.178   5.230
 2113WAT      O 9157   5.400   7.524   6.686
 2113WAT     H1 9158   5.360   7.466   6.737
 2113WAT     H2 9159   5.414   7.480   6.612
 2113WAT    EPW 9160   5.396   7.509   6.683
 2114WAT      O 9161   5.411   7.412   5.196
 2114WAT     H1 9162   5.397   7.351   5.256
 2114WAT     H2 9163   5.369   7.382   5.125
 2114WAT    EPW 9164   5.403   7.399   5.194
 2115WAT      O 9165   5.342   7.717   5.909
 2115WAT     H1 9166   5.326   7.766   5.839
 2115WAT     H2 9167   5.364   7.640   5.875
 2115WAT    EPW 9168   5.343   7.713   5.894
 2116WAT      O 9169   5.486   7.592   6.254
 2116WAT     H1 9170   5.498   7.542   6.183
 2116WAT     H2 9171   5.414   7.637   6.235
 2116WAT    EPW 9172   5.477   7.591   6.241
 2117WAT      O 9173   6.510   7.367   6.043
 2117WAT     H1 9174   6.443   7.395   6.091
 2117WAT     H2 9175   6.512   7.422   5.975
 2117WAT    EPW 9176   6.501   7.379   6.040
 2118WAT      O 9177   6.048   6.941   6.388
 2118WAT     H1 9178   6.066   6.859   6.367
 2118WAT     H2 9179   6.079   6.949   6.469
 2118WAT    EPW 9180   6.055   6.930   6.397
 2119WAT      O 9181   6.314   7.145   5.383
 2119WAT     H1 9182   6.370   7.211   5.393
 2119WAT     H2 9183   6.236   7.183   5.380
 2119WAT    EPW 9184   6.311   7.160   5.384
 2120WAT      O 9185   5.229   7.740   6.663
 2120WAT     H1 9186   5.202   7.739   6.580
 2120WAT     H2 9187   5.281   7.671   6.669
 2120WAT    EPW 9188   5.233   7.730   6.652
 2121WAT      O 9189   5.899   7.284   6.002
 2121WAT     H1 9190   5.965   7.340   6.009
 2121WAT     H2 9191   5.932   7.210   6.034
 2121WAT    EPW 9192   5.913   7.281   6.008
 2122WAT      O 9193   6.129   7.582   5.220
 2122WAT     H1 9194   6.126   7.643   5.158
 2122WAT     H2 9195   6.065   7.605   5.275
 2122WAT    EPW 9196   6.119   7.594   5.219
 2123WAT      O 9197   5.586   6.831   5.136
 2123WAT     H1 9198   5.575   6.800   5.217
 2123WAT     H2 9199   5.532   6.899   5.132
 2123WAT    EPW 9200   5.577   6.836   5.147
 2124WAT      O 9201   6.734   7.804   6.416
 2124WAT     H1 9202   6.709   7.771   6.339
 2124WAT     H2 9203   6.820   7.790   6.416
 2124WAT    EPW 9204   6.743   7.797   6.405
 2125WAT      O 9205   6.611   6.899   6.684
 2125WAT     H1 9206   6.573   6.855   6.619
 2125WAT     H2 9207   6.615   6.841   6.749
 2125WAT    EPW 9208   6.606   6.884   6.684
 2126WAT      O 9209   5.439   7.690   5.180
 2126WAT     H1 9210   5.425   7.604   5.188
 2126WAT     H2 9211   5.513   7.703   5.225
 2126WAT    EPW 9212   5.448   7.679   5.188
 2127WAT      O 9213   6.157   7.758   6.306
 2127WAT     H1 9214   6.181   7.831   6.348
 2127WAT     H2 9215   6.198   7.694   6.351
 2127WAT    EPW 9216   6.167   7.759   6.319
 2128WAT      O 9217   5.022   6.816   5.383
 2128WAT     H1 9218   5.013   6.771   5.308
 2128WAT     H2 9219   5.056   6.756   5.437
 2128WAT    EPW 9220   5.026   6.800   5.380
 2129WAT      O 9221   5.941   7.640   5.425
 2129WAT     H1 9222   5.964   7.699   5.485
 2129WAT     H2 9223   5.945   7.565   5.469
 2129WAT    EPW 9224   5.945   7.638   5.441
 2130WAT      O 9225   5.440   7.061   5.095
 2130WAT     H1 9226   5.378   7.057   5.033
 2130WAT     H2 9227   5.508   7.097   5.054
 2130WAT    EPW 9228   5.441   7.066   5.080
 2131WAT      O 9229   5.817   7.835   5.946
 2131WAT     H1 9230   5.738   7.838   5.984
 2131WAT     H2 9231   5.864   7.788   6.002
 2131WAT    EPW 9232   5.812   7.829   5.960
 2132WAT      O 9233   5.292   7.780   6.179
 2132WAT     H1 9234   5.360   7.834   6.173
 2132WAT     H2 9235   5.281   7.753   6.097
 2132WAT    EPW 9236   5.301   7.784   6.166
 2133WAT      O 9237   5.600   7.327   5.778
 2133WAT     H1 9238   5.678   7.292   5.758
 2133WAT     H2 9239   5.544   7.262   5.763
 2133WAT    EPW 9240   5.604   7.312   5.772
 2134WAT      O 9241   5.114   7.466   5.413
 2134WAT     H1 9242   5.141   7.421   5.483
 2134WAT     H2 9243   5.117   7.407   5.349
 2134WAT    EPW 9244   5.119   7.450   5.414
 2135WAT      O 9245   6.649   7.675   6.178
 2135WAT     H1 9246   6.632   7.602   6.222
 2135WAT     H2 9247   6.569   7.703   6.154
 2135WAT    EPW 9248   6.634   7.669   6.181
 2136WAT      O 9249   5.597   7.647   4.947
 2136WAT     H1 9250   5.546   7.666   5.015
 2136WAT     H2 9251   5.546   7.597   4.897
 2136WAT    EPW 9252   5.582   7.642   4.950
 2137WAT      O 9253   6.797   7.631   5.944
 2137WAT     H1 9254   6.760   7.641   6.022
 2137WAT     H2 9255   6.843   7.704   5.933
 2137WAT    EPW 9256   6.798   7.643   5.954
 2138WAT      O 9257   5.688   7.423   5.197
 2138WAT     H1 9258   5.700   7.506   5.223
 2138WAT     H2 9259   5.601   7.416   5.194
 2138WAT    EPW 9260   5.677   7.434   5.200
 2139WAT      O 9261   6.510   7.162   6.696
 2139WAT     H1 9262   6.434   7.163   6.739
 2139WAT     H2 9263   6.534   7.078   6.700
 2139WAT    EPW 9264   6.503   7.150   6.703
 2140WAT      O 9265   5.072   7.049   5.926
 2140WAT     H1 9266   5.057   7.064   5.841
 2140WAT     H2 9267   5.157   7.028   5.928
 2140WAT    EPW 9268   5.083   7.048   5.914
 2141WAT      O 9269   6.343   7.475   6.779
 2141WAT     H1 9270   6.364   7.527   6.846
 2141WAT     H2 9271   6.261   7.496   6.762
 2141WAT    EPW 9272   6.334   7.486   6.787
 2142WAT      O 9273   6.529   7.554   6.594
 2142WAT     H1 9274   6.548   7.636   6.619
 2142WAT     H2 9275   6.477   7.525   6.658
 2142WAT    EPW 9276   6.524   7.562   6.607
 2143WAT      O 9277   6.606   7.306   5.663
 2143WAT     H1 9278   6.536   7.261   5.690
 2143WAT     H2 9279   6.603   7.379   5.711
 2143WAT    EPW 9280   6.595   7.310   5.674
 2144WAT      O 9281   6.838   7.671   6.759
 2144WAT     H1 9282   6.836   7.601   6.707
 2144WAT     H2 9283   6.917   7.704   6.747
 2144WAT    EPW 9284   6.849   7.665   6.750
 2145WAT      O 9285   6.440   6.999   6.330
 2145WAT     H1 9286   6.500   7.060   6.350
 2145WAT     H2 9287   6.366   7.046   6.323
 2145WAT    EPW 9288   6.438   7.015   6.332
 2146WAT      O 9289   5.953   7.673   6.139
 2146WAT     H1 9290   6.018   7.710   6.185
 2146WAT     H2 9291   5.900   7.640   6.200
 2146WAT    EPW 9292   5.955   7.674   6.155
 2147WAT      O 9293   5.693   7.279   6.477
 2147WAT     H1 9294   5.692   7.194   6.496
 2147WAT     H2 9295   5.711   7.281   6.392
 2147WAT    EPW 9296   5.696   7.267   6.467
 2148WAT      O 9297   6.503   6.802   6.139
 2148WAT     H1 9298   6.481   6.874   6.182
 2148WAT     H2 9299   6.587   6.791   6.159
 2148WAT    EPW 9300   6.512   6.811   6.148
 2149WAT      O 9301   5.775   6.892   6.322
 2149WAT     H1 9302   5.857   6.920   6.324
 2149WAT     H2 9303   5.780   6.815   6.282
 2149WAT    EPW 9304   5.788   6.885   6.316
 2150WAT      O 9305   6.707   7.520   5.053
 2150WAT     H1 9306   6.759   7.570   5.003
 2150WAT     H2 9307   6.631   7.563   5.052
 2150WAT    EPW 9308   6.704   7.534   5.045
 2151WAT      O 9309   5.823   7.799   5.018
 2151WAT     H1 9310   5.764   7.747   4.980
 2151WAT     H2 9311   5.791   7.879   5.004
 2151WAT    EPW 9312   5.810   7.803   5.010
 2152WAT      O 9313   5.535   7.431   6.031
 2152WAT     H1 9314   5.558   7.409   5.950
 2152WAT     H2 9315   5.591   7.386   6.081
 2152WAT    EPW 9316   5.547   7.421   6.026
 2153WAT      O 9317   6.194   7.317   6.564
 2153WAT     H1 9318   6.137   7.368   6.606
 2153WAT     H2 9319   6.248   7.290   6.627
 2153WAT    EPW 9320   6.194   7.320   6.579
 2154WAT      O 9321   6.283   7.404   6.197
 2154WAT     H1 9322   6.297   7.453   6.268
 2154WAT     H2 9323   6.262   7.326   6.230
 2154WAT    EPW 9324   6.282   7.400   6.213
 2155WAT      O 9325   6.490   7.367   5.420
 2155WAT     H1 9326   6.524   7.345   5.497
 2155WAT     H2 9327   6.554   7.411   5.381
 2155WAT    EPW 9328   6.505   7.370   5.425
 2156WAT      O 9329   5.782   6.873   5.970
 2156WAT     H1 9330   5.698   6.857   5.991
 2156WAT     H2 9331   5.780   6.882   5.883
 2156WAT    EPW 9332   5.769   6.872   5.960
 2157WAT      O 9333   6.620   6.934   5.601
 2157WAT     H1 9334   6.541   6.899   5.617
 2157WAT     H2 9335   6.618   6.952   5.516
 2157WAT    EPW 9336   6.608   6.932   5.591
 2158WAT      O 9337   6.526   7.759   5.324
 2158WAT     H1 9338   6.592   7.706   5.341
 2158WAT     H2 9339   6.458   7.720   5.362
 2158WAT    EPW 9340   6.525   7.745   5.332
 2159WAT      O 9341   5.018   6.962   6.686
 2159WAT     H1 9342   5.015   7.033   6.635
 2159WAT     H2 9343   4.934   6.939   6.693
 2159WAT    EPW 9344   5.005   6.969   6.680
 2160WAT      O 9345   5.378   7.173   5.340
 2160WAT     H1 9346   5.390   7.134   5.263
 2160WAT     H2 9347   5.299   7.147   5.365
 2160WAT    EPW 9348   5.368   7.164   5.332
 2161WAT      O 9349   6.796   7.454   6.591
 2161WAT     H1 9350   6.710   7.472   6.591
 2161WAT     H2 9351   6.820   7.467   6.508
 2161WAT    EPW 9352   6.787   7.458   6.579
 2162WAT      O 9353   6.292   7.551   6.437
 2162WAT     H1 9354   6.254   7.485   6.480
 2162WAT     H2 9355   6.366   7.564   6.481
 2162WAT    EPW 9356   6.297   7.543   6.450
 2163WAT      O 9357   6.093   7.744   6.888
 2163WAT     H1 9358   6.147   7.810   6.874
 2163WAT     H2 9359   6.014   7.782   6.890
 2163WAT    EPW 9360   6.089   7.759   6.886
 2164WAT      O 9361   5.439   7.390   6.447
 2164WAT     H1 9362   5.455   7.450   6.386
 2164WAT     H2 9363   5.517   7.352   6.459
 2164WAT    EPW 9364   5.453   7.393   6.439
 2165WAT      O 9365   5.223   7.250   6.344
 2165WAT     H1 9366   5.236   7.270   6.260
 2165WAT     H2 9367   5.290   7.288   6.385
 2165WAT    EPW 9368   5.235   7.258   6.337
 2166WAT      O 9369   6.695   7.535   5.332
 2166WAT     H1 9370   6.712   7.534   5.246
 2166WAT     H2 9371   6.774   7.522   5.368
 2166WAT    EPW 9372   6.709   7.533   5.324
 2167WAT      O 9373   5.407   6.925   6.572
 2167WAT     H1 9374   5.363   6.850   6.582
 2167WAT     H2 9375   5.387   6.949   6.491
 2167WAT    EPW 9376   5.398   6.917   6.562
 2168WAT      O 9377   6.583   7.461   6.338
 2168WAT     H1 9378   6.592   7.375   6.348
 2168WAT     H2 9379   6.564   7.489   6.419
 2168WAT    EPW 9380   6.582   7.453   6.352
 2169WAT      O 9381   5.131   7.711   6.397
 2169WAT     H1 9382   5.176   7.743   6.330
 2169WAT     H2 9383   5.104   7.633   6.369
 2169WAT    EPW 9384   5.133   7.704   6.383
 2170WAT      O 9385   5.255   7.326   4.980
 2170WAT     H1 9386   5.187   7.325   5.035
 2170WAT     H2 9387   5.253   7.246   4.944
 2170WAT    EPW 9388   5.245   7.314   4.983
 2171WAT      O 9389   6.138   6.968   6.651
 2171WAT     H1 9390   6.170   7.032   6.701
 2171WAT     H2 9391   6.058   6.955   6.683
 2171WAT    EPW 9392   6.131   6.975   6.663
 2172WAT      O 9393   6.123   7.068   5.734
 2172WAT     H1 9394   6.046   7.109   5.729
 2172WAT     H2 9395   6.117   7.005   5.674
 2172WAT    EPW 9396   6.110   7.065   5.725
 2173WAT      O 9397   6.455   7.101   5.999
 2173WAT     H1 9398   6.533   7.064   6.014
 2173WAT     H2 9399   6.468   7.184   6.023
 2173WAT    EPW 9400   6.469   7.108   6.005
 2174WAT      O 9401   5.634   7.675   6.484
 2174WAT     H1 9402   5.575   7.715   6.534
 2174WAT     H2 9403   5.590   7.656   6.411
 2174WAT    EPW 9404   5.619   7.678   6.481
 2175WAT      O 9405   6.562   7.528   5.823
 2175WAT     H1 9406   6.631   7.577   5.844
 2175WAT     H2 9407   6.509   7.584   5.782
 2175WAT    EPW 9408   6.564   7.544   5.820
 2176WAT      O 9409   5.582   7.059   6.202
 2176WAT     H1 9410   5.505   7.031   6.233
 2176WAT     H2 9411   5.638   6.998   6.229
 2176WAT    EPW 9412   5.579   7.046   6.211
 2177WAT      O 9413   6.756   6.847   6.267
 2177WAT     H1 9414   6.718   6.845   6.346
 2177WAT     H2 9415   6.838   6.825   6.284
 2177WAT    EPW 9416   6.762   6.844   6.281
 2178WAT      O 9417   5.972   7.037   6.092
 2178WAT     H1 9418   5.912   6.984   6.056
 2178WAT     H2 9419   6.048   7.004   6.066
 2178WAT    EPW 9420   5.974   7.025   6.083
 2179WAT      O 9421   5.816   7.499   6.600
 2179WAT     H1 9422   5.786   7.428   6.560
 2179WAT     H2 9423   5.765   7.563   6.569
 2179WAT    EPW 9424   5.804   7.498   6.590
 2180WAT      O 9425   5.853   6.895   5.098
 2180WAT     H1 9426   5.863   6.895   5.012
 2180WAT     H2 9427   5.767   6.887   5.109
 2180WAT    EPW 9428   5.842   6.894   5.087
 2181WAT      O 9429   5.333   6.994   6.318
 2181WAT     H1 9430   5.272   6.935   6.298
 2181WAT     H2 9431   5.289   7.069   6.319
 2181WAT    EPW 9432   5.318   6.996   6.315
 2182WAT      O 9433   6.212   6.958   5.974
 2182WAT     H1 9434   6.283   7.004   5.994
 2182WAT     H2 9435   6.184   6.993   5.899
 2182WAT    EPW 9436   6.218   6.970   5.966
 2183WAT      O 9437   6.195   7.433   5.749
 2183WAT     H1 9438   6.252   7.368   5.758
 2183WAT     H2 9439   6.166   7.446   5.830
 2183WAT    EPW 9440   6.199   7.426   5.762
 2184WAT      O 9441   5.206   7.338   5.656
 2184WAT     H1 9442   5.157   7.344   5.728
 2184WAT     H2 9443   5.256   7.268   5.671
 2184WAT    EPW 9444   5.206   7.328   5.669
 2185WAT      O 9445   6.326   7.593   5.419
 2185WAT     H1 9446   6.368   7.516   5.419
 2185WAT     H2 9447   6.268   7.584   5.354
 2185WAT    EPW 9448   6.324   7.580   5.409
 2186WAT      O 9449   5.718   7.692   5.260
 2186WAT     H1 9450   5.760   7.730   5.193
 2186WAT     H2 9451   5.780   7.684   5.321
 2186WAT    EPW 9452   5.734   7.696   5.259
 2187WAT      O 9453   6.610   7.810   6.669
 2187WAT     H1 9454   6.681   7.781   6.710
 2187WAT     H2 9455   6.639   7.828   6.589
 2187WAT    EPW 9456   6.625   7.808   6.663
 2188WAT      O 9457   6.697   7.277   6.869
 2188WAT     H1 9458   6.681   7.361   6.885
 2188WAT     H2 9459   6.635   7.254   6.812
 2188WAT    EPW 9460   6.686   7.286   6.863
 2189WAT      O 9461   6.772   7.333   6.131
 2189WAT     H1 9462   6.691   7.356   6.110
 2189WAT     H2 9463   6.771   7.246   6.123
 2189WAT    EPW 9464   6.760   7.323   6.127
 2190WAT      O 9465   5.676   7.004   6.558
 2190WAT     H1 9466   5.704   6.966   6.485
 2190WAT     H2 9467   5.595   6.973   6.568
 2190WAT    EPW 9468   5.668   6.994   6.549
 2191WAT      O 9469   6.396   7.910   6.853
 2191WAT     H1 9470   6.458   7.901   6.793
 2191WAT     H2 9471   6.409   7.991   6.883
 2191WAT    EPW 9472   6.407   7.921   6.849
 2192WAT      O 9473   6.220   6.877   3.618
 2192WAT     H1 9474   6.255   6.947   3.579
 2192WAT     H2 9475   6.289   6.836   3.651
 2192WAT    EPW 9476   6.235   6.882   3.617
 2193WAT      O 9477   6.093   7.466   4.108
 2193WAT     H1 9478   6.050   7.536   4.137
 2193WAT     H2 9479   6.151   7.450   4.171
 2193WAT    EPW 9480   6.095   7.474   4.121
 2194WAT      O 9481   5.054   7.338   3.250
 2194WAT     H1 9482   4.992   7.387   3.212
 2194WAT     H2 9483   5.014   7.262   3.265
 2194WAT    EPW 9484   5.039   7.334   3.246
 2195WAT      O 9485   5.364   7.883   3.086
 2195WAT     H1 9486   5.319   7.840   3.025
 2195WAT     H2 9487   5.374   7.825   3.150
 2195WAT    EPW 9488   5.359   7.868   3.087
 2196WAT      O 9489   6.337   7.626   3.787
 2196WAT     H1 9490   6.336   7.620   3.700
 2196WAT     H2 9491   6.281   7.564   3.813
 2196WAT    EPW 9492   6.328   7.616   3.778
 2197WAT      O 9493   5.795   6.968   3.534
 2197WAT     H1 9494   5.771   7.030   3.477
 2197WAT     H2 9495   5.871   6.939   3.501
 2197WAT    EPW 9496   5.803   6.973   3.520
 2198WAT      O 9497   5.320   7.745   3.742
 2198WAT     H1 9498   5.282   7.760   3.665
 2198WAT     H2 9499   5.371   7.676   3.726
 2198WAT    EPW 9500   5.322   7.737   3.728
 2199WAT      O 9501   5.706   7.291   4.309
 2199WAT     H1 9502   5.773   7.285   4.253
 2199WAT     H2 9503   5.673   7.210   4.310
 2199WAT    EPW 9504   5.711   7.278   4.301
 2200WAT      O 9505   5.438   7.500   3.697
 2200WAT     H1 9506   5.488   7.461   3.757
 2200WAT     H2 9507   5.364   7.453   3.698
 2200WAT    EPW 9508   5.434   7.487   3.706
 2201WAT      O 9509   6.077   7.534   4.810
 2201WAT     H1 9510   5.995   7.533   4.779
 2201WAT     H2 9511   6.078   7.605   4.861
 2201WAT    EPW 9512   6.065   7.545   4.813
 2202WAT      O 9513   5.517   7.015   3.628
 2202WAT     H1 9514   5.478   7.065   3.568
 2202WAT     H2 9515   5.602   7.024   3.610
 2202WAT    EPW 9516   5.523   7.024   3.616
 2203WAT      O 9517   6.475   6.770   4.614
 2203WAT     H1 9518   6.450   6.834   4.561
 2203WAT     H2 9519   6.401   6.747   4.655
 2203WAT    EPW 9520   6.460   6.776   4.612
 2204WAT      O 9521   5.860   6.963   3.808
 2204WAT     H1 9522   5.839   7.043   3.835
 2204WAT     H2 9523   5.838   6.964   3.723
 2204WAT    EPW 9524   5.854   6.975   3.799
 2205WAT      O 9525   6.248   7.146   3.048
 2205WAT     H1 9526   6.201   7.209   3.085
 2205WAT     H2 9527   6.262   7.089   3.112
 2205WAT    EPW 9528   6.243   7.147   3.063
 2206WAT      O 9529   5.108   7.404   3.996
 2206WAT     H1 9530   5.041   7.456   4.016
 2206WAT     H2 9531   5.078   7.324   4.012
 2206WAT    EPW 9532   5.094   7.400   4.001
 2207WAT      O 9533   5.308   6.968   4.035
 2207WAT     H1 9534   5.291   6.892   3.996
 2207WAT     H2 9535   5.366   6.946   4.097
 2207WAT    EPW 9536   5.314   6.953   4.039
 2208WAT      O 9537   5.673   7.142   4.960
 2208WAT     H1 9538   5.677   7.108   4.880
 2208WAT     H2 9539   5.722   7.213   4.955
 2208WAT    EPW 9540   5.681   7.147   4.948
 2209WAT      O 9541   6.823   7.127   3.751
 2209WAT     H1 9542   6.765   7.193   3.756
 2209WAT     H2 9543   6.772   7.056   3.745
 2209WAT    EPW 9544   6.807   7.126   3.751
 2210WAT      O 9545   5.253   7.060   4.885
 2210WAT     H1 9546   5.174   7.028   4.868
 2210WAT     H2 9547   5.302   7.031   4.819
 2210WAT    EPW 9548   5.248   7.051   4.873
 2211WAT      O 9549   5.879   6.885   4.826
 2211WAT     H1 9550   5.894   6.811   4.783
 2211WAT     H2 9551   5.809   6.918   4.785
 2211WAT    EPW 9552   5.871   6.879   4.813
 2212WAT      O 9553   5.970   7.369   3.667
 2212WAT     H1 9554   5.998   7.318   3.603
 2212WAT     H2 9555   6.041   7.380   3.717
 2212WAT    EPW 9556   5.985   7.363   3.665
 2213WAT      O 9557   6.073   7.316   3.187
 2213WAT     H1 9558   6.093   7.396   3.218
 2213WAT     H2 9559   5.996   7.329   3.146
 2213WAT    EPW 9560   6.064   7.330   3.186
 2214WAT      O 9561   6.733   7.062   4.174
 2214WAT     H1 9562   6.801   7.068   4.120
 2214WAT     H2 9563   6.756   6.999   4.229
 2214WAT    EPW 9564   6.746   7.053   4.174
 2215WAT      O 9565   4.994   7.179   4.623
 2215WAT     H1 9566   4.981   7.255   4.662
 2215WAT     H2 9567   5.057   7.196   4.566
 2215WAT    EPW 9568   5.001   7.192   4.620
 2216WAT      O 9569   6.280   6.970   3.260
 2216WAT     H1 9570   6.337   6.903   3.265
 2216WAT     H2 9571   6.302   7.020   3.328
 2216WAT    EPW 9572   6.292   6.967   3.271
 2217WAT      O 9573   5.123   7.059   3.543
 2217WAT     H1 9574   5.093   6.979   3.525
 2217WAT     H2 9575   5.072   7.085   3.609
 2217WAT    EPW 9576   5.111   7.051   3.550
 2218WAT      O 9577   6.056   7.213   3.447
 2218WAT     H1 9578   6.029   7.132   3.430
 2218WAT     H2 9579   6.057   7.251   3.369
 2218WAT    EPW 9580   6.052   7.207   3.433
 2219WAT      O 9581   6.020   6.946   3.365
 2219WAT     H1 9582   5.966   6.921   3.301
 2219WAT     H2 9583   6.099   6.941   3.328
 2219WAT    EPW 9584   6.024   6.942   3.350
 2220WAT      O 9585   5.806   7.232   3.853
 2220WAT     H1 9586   5.854   7.279   3.797
 2220WAT     H2 9587   5.840   7.252   3.931
 2220WAT    EPW 9588   5.818   7.242   3.856
 2221WAT      O 9589   5.464   6.754   3.708
 2221WAT     H1 9590   5.480   6.837   3.686
 2221WAT     H2 9591   5.445   6.717   3.632
 2221WAT    EPW 9592   5.463   6.761   3.693
 2222WAT      O 9593   5.547   7.734   4.113
 2222WAT     H1 9594   5.561   7.649   4.129
 2222WAT     H2 9595   5.483   7.733   4.054
 2222WAT    EPW 9596   5.539   7.721   4.107
 2223WAT      O 9597   6.198   7.166   4.437
 2223WAT     H1 9598   6.186   7.204   4.515
 2223WAT     H2 9599   6.134   7.107   4.434
 2223WAT    EPW 9600   6.186   7.163   4.448
 2224WAT      O 9601   6.427   6.748   3.742
 2224WAT     H1 9602   6.421   6.731   3.827
 2224WAT     H2 9603   6.458   6.674   3.708
 2224WAT    EPW 9604   6.431   6.735   3.750
 2225WAT      O 9605   6.604   7.194   4.539
 2225WAT     H1 9606   6.689   7.190   4.558
 2225WAT     H2 9607   6.566   7.193   4.617
 2225WAT    EPW 9608   6.611   7.193   4.553
 2226WAT      O 9609   5.380   7.149   3.834
 2226WAT     H1 9610   5.421   7.101   3.774
 2226WAT     H2 9611   5.362   7.092   3.898
 2226WAT    EPW 9612   5.383   7.134   3.835
 2227WAT      O 9613   5.282   7.353   4.211
 2227WAT     H1 9614   5.361   7.380   4.185
 2227WAT     H2 9615   5.230   7.371   4.144
 2227WAT    EPW 9616   5.286   7.359   4.198
 2228WAT      O 9617   6.469   7.659   3.174
 2228WAT     H1 9618   6.441   7.731   3.135
 2228WAT     H2 9619   6.483   7.683   3.256
 2228WAT    EPW 9620   6.467   7.673   3.180
 2229WAT      O 9621   6.779   7.085   3.215
 2229WAT     H1 9622   6.831   7.029   3.172
 2229WAT     H2 9623   6.748   7.136   3.151
 2229WAT    EPW 9624   6.782   7.084   3.199
 2230WAT      O 9625   5.834   7.367   4.969
 2230WAT     H1 9626   5.786   7.403   5.032
 2230WAT     H2 9627   5.820   7.419   4.900
 2230WAT    EPW 9628   5.825   7.380   4.968
 2231WAT      O 9629   6.911   7.472   4.433
 2231WAT     H1 9630   6.971   7.409   4.440
 2231WAT     H2 9631   6.859   7.443   4.369
 2231WAT    EPW 9632   6.912   7.458   4.424
 2232WAT      O 9633   5.222   7.733   3.478
 2232WAT     H1 9634   5.183   7.655   3.481
 2232WAT     H2 9635   5.287   7.722   3.421
 2232WAT    EPW 9636   5.226   7.720   3.470
 2233WAT      O 9637   6.657   6.936   3.423
 2233WAT     H1 9638   6.733   6.898   3.439
 2233WAT     H2 9639   6.677   6.998   3.365
 2233WAT    EPW 9640   6.671   6.940   3.417
 2234WAT      O 9641   6.346   7.180   3.878
 2234WAT     H1 9642   6.383   7.153   3.952
 2234WAT     H2 9643   6.282   7.122   3.864
 2234WAT    EPW 9644   6.342   7.167   3.887
 2235WAT      O 9645   5.711   7.134   3.335
 2235WAT     H1 9646   5.714   7.120   3.249
 2235WAT     H2 9647   5.710   7.221   3.341
 2235WAT    EPW 9648   5.712   7.145   3.323
 2236WAT      O 9649   5.386   7.511   4.815
 2236WAT     H1 9650   5.342   7.455   4.866
 2236WAT     H2 9651   5.399   7.464   4.742
 2236WAT    EPW 9652   5.381   7.495   4.812
 2237WAT      O 9653   5.408   7.402   3.302
 2237WAT     H1 9654   5.390   7.341   3.363
 2237WAT     H2 9655   5.369   7.371   3.230
 2237WAT    EPW 9656   5.399   7.388   3.301
 2238WAT      O 9657   5.270   7.675   4.006
 2238WAT     H1 9658   5.279   7.706   3.925
 2238WAT     H2 9659   5.242   7.593   3.993
 2238WAT    EPW 9660   5.267   7.668   3.992
 2239WAT      O 9661   5.460   7.579   4.402
 2239WAT     H1 9662   5.491   7.540   4.330
 2239WAT     H2 9663   5.400   7.634   4.371
 2239WAT    EPW 9664   5.456   7.581   4.386
 2240WAT      O 9665   6.503   7.364   4.153
 2240WAT     H1 9666   6.434   7.392   4.199
 2240WAT     H2 9667   6.503   7.416   4.083
 2240WAT    EPW 9668   6.493   7.376   4.149
 2241WAT      O 9669   6.041   6.935   4.498
 2241WAT     H1 9670   6.069   6.857   4.472
 2241WAT     H2 9671   6.077   6.945   4.577
 2241WAT    EPW 9672   6.050   6.925   4.506
 2242WAT      O 9673   6.312   7.115   3.492
 2242WAT     H1 9674   6.373   7.177   3.498
 2242WAT     H2 9675   6.238   7.160   3.487
 2242WAT    EPW 9676   6.310   7.131   3.492
 2243WAT      O 9677   5.229   7.735   4.773
 2243WAT     H1 9678   5.208   7.737   4.688
 2243WAT     H2 9679   5.277   7.663   4.781
 2243WAT    EPW 9680   5.233   7.725   4.762
 2244WAT      O 9681   5.898   7.271   4.110
 2244WAT     H1 9682   5.963   7.330   4.113
 2244WAT     H2 9683   5.937   7.196   4.131
 2244WAT    EPW 9684   5.913   7.269   4.114
 2245WAT      O 9685   6.126   7.555   3.319
 2245WAT     H1 9686   6.127   7.618   3.259
 2245WAT     H2 9687   6.066   7.581   3.376
 2245WAT    EPW 9688   6.117   7.568   3.319
 2246WAT      O 9689   5.562   6.830   3.299
 2246WAT     H1 9690   5.598   6.859   3.374
 2246WAT     H2 9691   5.517   6.898   3.270
 2246WAT    EPW 9692   5.561   6.844   3.306
 2247WAT      O 9693   6.739   7.800   4.513
 2247WAT     H1 9694   6.713   7.767   4.437
 2247WAT     H2 9695   6.825   7.788   4.512
 2247WAT    EPW 9696   6.748   7.793   4.502
 2248WAT      O 9697   6.613   6.904   4.811
 2248WAT     H1 9698   6.573   6.860   4.747
 2248WAT     H2 9699   6.615   6.847   4.877
 2248WAT    EPW 9700   6.608   6.889   4.811
 2249WAT      O 9701   5.443   7.680   3.291
 2249WAT     H1 9702   5.426   7.595   3.302
 2249WAT     H2 9703   5.516   7.692   3.339
 2249WAT    EPW 9704   5.452   7.669   3.300
 2250WAT      O 9705   6.159   7.754   4.405
 2250WAT     H1 9706   6.183   7.828   4.445
 2250WAT     H2 9707   6.197   7.692   4.452
 2250WAT    EPW 9708   6.168   7.756   4.417
 2251WAT      O 9709   5.005   6.805   3.486
 2251WAT     H1 9710   5.008   6.752   3.416
 2251WAT     H2 9711   4.974   6.753   3.549
 2251WAT    EPW 9712   5.001   6.789   3.485
 2252WAT      O 9713   5.947   7.615   3.531
 2252WAT     H1 9714   5.973   7.671   3.593
 2252WAT     H2 9715   5.944   7.538   3.572
 2252WAT    EPW 9716   5.951   7.612   3.546
 2253WAT      O 9717   5.426   7.045   3.195
 2253WAT     H1 9718   5.363   7.041   3.135
 2253WAT     H2 9719   5.493   7.083   3.154
 2253WAT    EPW 9720   5.427   7.050   3.180
 2254WAT      O 9721   5.810   7.820   4.037
 2254WAT     H1 9722   5.729   7.800   4.060
 2254WAT     H2 9723   5.859   7.779   4.097
 2254WAT    EPW 9724   5.805   7.811   4.049
 2255WAT      O 9725   5.303   7.772   4.273
 2255WAT     H1 9726   5.382   7.803   4.254
 2255WAT     H2 9727   5.275   7.741   4.196
 2255WAT    EPW 9728   5.311   7.772   4.259
 2256WAT      O 9729   5.558   7.350   3.902
 2256WAT     H1 9730   5.636   7.316   3.882
 2256WAT     H2 9731   5.502   7.284   3.886
 2256WAT    EPW 9732   5.561   7.335   3.897
 2257WAT      O 9733   5.100   7.476   3.497
 2257WAT     H1 9734   5.129   7.429   3.565
 2257WAT     H2 9735   5.108   7.421   3.430
 2257WAT    EPW 9736   5.105   7.461   3.497
 2258WAT      O 9737   6.646   7.672   4.276
 2258WAT     H1 9738   6.630   7.600   4.322
 2258WAT     H2 9739   6.567   7.702   4.256
 2258WAT    EPW 9740   6.632   7.666   4.280
 2259WAT      O 9741   5.608   7.630   3.061
 2259WAT     H1 9742   5.557   7.649   3.129
 2259WAT     H2 9743   5.555   7.587   3.006
 2259WAT    EPW 9744   5.593   7.626   3.063
 2260WAT      O 9745   6.785   7.627   4.036
 2260WAT     H1 9746   6.751   7.637   4.116
 2260WAT     H2 9747   6.825   7.703   4.022
 2260WAT    EPW 9748   6.786   7.640   4.046
 2261WAT      O 9749   5.683   7.411   3.308
 2261WAT     H1 9750   5.701   7.493   3.334
 2261WAT     H2 9751   5.596   7.408   3.307
 2261WAT    EPW 9752   5.673   7.423   3.312
 2262WAT      O 9753   6.494   7.157   4.794
 2262WAT     H1 9754   6.423   7.161   4.845
 2262WAT     H2 9755   6.523   7.075   4.805
 2262WAT    EPW 9756   6.488   7.145   4.803
 2263WAT      O 9757   5.063   7.118   4.015
 2263WAT     H1 9758   5.034   7.102   3.934
 2263WAT     H2 9759   5.138   7.074   4.018
 2263WAT    EPW 9760   5.069   7.109   4.004
 2264WAT      O 9761   6.352   7.482   4.898
 2264WAT     H1 9762   6.375   7.535   4.964
 2264WAT     H2 9763   6.268   7.500   4.886
 2264WAT    EPW 9764   6.343   7.493   4.906
 2265WAT      O 9765   6.527   7.553   4.699
 2265WAT     H1 9766   6.549   7.634   4.721
 2265WAT     H2 9767   6.478   7.525   4.765
 2265WAT    EPW 9768   6.523   7.561   4.712
 2266WAT      O 9769   6.586   7.286   3.772
 2266WAT     H1 9770   6.518   7.241   3.801
 2266WAT     H2 9771   6.583   7.360   3.818
 2266WAT    EPW 9772   6.576   7.290   3.783
 2267WAT      O 9773   6.843   7.667   4.861
 2267WAT     H1 9774   6.840   7.601   4.803
 2267WAT     H2 9775   6.921   7.703   4.847
 2267WAT    EPW 9776   6.854   7.662   4.850
 2268WAT      O 9777   6.422   7.000   4.456
 2268WAT     H1 9778   6.483   7.061   4.469
 2268WAT     H2 9779   6.349   7.046   4.444
 2268WAT    EPW 9780   6.421   7.016   4.456
 2269WAT      O 9781   5.953   7.672   4.238
 2269WAT     H1 9782   6.018   7.707   4.283
 2269WAT     H2 9783   5.896   7.648   4.300
 2269WAT    EPW 9784   5.954   7.674   4.253
 2270WAT      O 9785   5.686   7.285   4.590
 2270WAT     H1 9786   5.685   7.201   4.613
 2270WAT     H2 9787   5.704   7.283   4.505
 2270WAT    EPW 9788   5.688   7.273   4.581
 2271WAT      O 9789   6.501   6.794   4.285
 2271WAT     H1 9790   6.470   6.866   4.323
 2271WAT     H2 9791   6.587   6.800   4.297
 2271WAT    EPW 9792   6.509   6.805   4.293
 2272WAT      O 9793   5.770   6.871   4.498
 2272WAT     H1 9794   5.855   6.888   4.493
 2272WAT     H2 9795   5.767   6.791   4.532
 2272WAT    EPW 9796   5.782   6.862   4.502
 2273WAT      O 9797   6.712   7.521   3.143
 2273WAT     H1 9798   6.760   7.573   3.092
 2273WAT     H2 9799   6.635   7.562   3.147
 2273WAT    EPW 9800   6.708   7.535   3.136
 2274WAT      O 9801   5.833   7.786   3.127
 2274WAT     H1 9802   5.774   7.733   3.091
 2274WAT     H2 9803   5.800   7.866   3.114
 2274WAT    EPW 9804   5.819   7.790   3.120
 2275WAT      O 9805   5.543   7.452   4.159
 2275WAT     H1 9806   5.550   7.426   4.076
 2275WAT     H2 9807   5.598   7.400   4.202
 2275WAT    EPW 9808   5.552   7.441   4.153
 2276WAT      O 9809   6.195   7.318   4.676
 2276WAT     H1 9810   6.142   7.372   4.722
 2276WAT     H2 9811   6.249   7.287   4.737
 2276WAT    EPW 9812   6.195   7.322   4.692
 2277WAT      O 9813   6.274   7.402   4.305
 2277WAT     H1 9814   6.289   7.452   4.375
 2277WAT     H2 9815   6.251   7.325   4.338
 2277WAT    EPW 9816   6.273   7.398   4.320
 2278WAT      O 9817   6.491   7.333   3.517
 2278WAT     H1 9818   6.521   7.318   3.598
 2278WAT     H2 9819   6.556   7.377   3.479
 2278WAT    EPW 9820   6.505   7.337   3.523
 2279WAT      O 9821   5.776   6.843   4.114
 2279WAT     H1 9822   5.692   6.844   4.137
 2279WAT     H2 9823   5.774   6.855   4.027
 2279WAT    EPW 9824   5.764   6.845   4.104
 2280WAT      O 9825   6.638   6.925   3.702
 2280WAT     H1 9826   6.565   6.883   3.724
 2280WAT     H2 9827   6.628   6.942   3.617
 2280WAT    EPW 9828   6.626   6.921   3.693
 2281WAT      O 9829   6.526   7.730   3.432
 2281WAT     H1 9830   6.592   7.675   3.447
 2281WAT     H2 9831   6.457   7.690   3.468
 2281WAT    EPW 9832   6.525   7.716   3.440
 2282WAT      O 9833   5.019   6.944   4.770
 2282WAT     H1 9834   5.013   7.016   4.722
 2282WAT     H2 9835   4.936   6.926   4.790
 2282WAT    EPW 9836   5.005   6.952   4.766
 2283WAT      O 9837   5.365   7.161   3.445
 2283WAT     H1 9838   5.375   7.121   3.368
 2283WAT     H2 9839   5.286   7.133   3.472
 2283WAT    EPW 9840   5.355   7.151   3.438
 2284WAT      O 9841   6.798   7.457   4.685
 2284WAT     H1 9842   6.712   7.473   4.686
 2284WAT     H2 9843   6.821   7.471   4.602
 2284WAT    EPW 9844   6.788   7.461   4.673
 2285WAT      O 9845   6.289   7.549   4.544
 2285WAT     H1 9846   6.252   7.484   4.587
 2285WAT     H2 9847   6.363   7.564   4.588
 2285WAT    EPW 9848   6.294   7.542   4.557
 2286WAT      O 9849   6.106   7.745   4.993
 2286WAT     H1 9850   6.159   7.811   4.974
 2286WAT     H2 9851   6.027   7.782   4.996
 2286WAT    EPW 9852   6.102   7.760   4.990
 2287WAT      O 9853   5.422   7.371   4.579
 2287WAT     H1 9854   5.430   7.438   4.523
 2287WAT     H2 9855   5.503   7.340   4.585
 2287WAT    EPW 9856   5.435   7.377   4.572
 2288WAT      O 9857   5.213   7.243   4.451
 2288WAT     H1 9858   5.232   7.268   4.370
 2288WAT     H2 9859   5.279   7.276   4.498
 2288WAT    EPW 9860   5.226   7.252   4.446
 2289WAT      O 9861   6.693   7.505   3.426
 2289WAT     H1 9862   6.710   7.513   3.340
 2289WAT     H2 9863   6.773   7.498   3.461
 2289WAT    EPW 9864   6.707   7.505   3.418
 2290WAT      O 9865   5.398   6.936   4.683
 2290WAT     H1 9866   5.369   6.853   4.687
 2290WAT     H2 9867   5.385   6.958   4.600
 2290WAT    EPW 9868   5.392   6.927   4.672
 2291WAT      O 9869   6.583   7.462   4.443
 2291WAT     H1 9870   6.589   7.375   4.451
 2291WAT     H2 9871   6.560   7.489   4.523
 2291WAT    EPW 9872   6.580   7.453   4.456
 2292WAT      O 9873   5.141   7.717   4.501
 2292WAT     H1 9874   5.185   7.747   4.432
 2292WAT     H2 9875   5.113   7.638   4.476
 2292WAT    EPW 9876   5.143   7.710   4.487
 2293WAT      O 9877   5.268   7.318   3.073
 2293WAT     H1 9878   5.196   7.327   3.121
 2293WAT     H2 9879   5.260   7.238   3.038
 2293WAT    EPW 9880   5.256   7.308   3.075
 2294WAT      O 9881   6.131   6.980   4.761
 2294WAT     H1 9882   6.164   7.042   4.813
 2294WAT     H2 9883   6.052   6.966   4.794
 2294WAT    EPW 9884   6.124   6.987   4.773
 2295WAT      O 9885   6.144   6.986   3.857
 2295WAT     H1 9886   6.057   6.990   3.855
 2295WAT     H2 9887   6.165   6.948   3.781
 2295WAT    EPW 9888   6.134   6.981   3.845
 2296WAT      O 9889   6.459   7.095   4.117
 2296WAT     H1 9890   6.540   7.064   4.126
 2296WAT     H2 9891   6.466   7.179   4.139
 2296WAT    EPW 9892   6.472   7.103   4.121
 2297WAT      O 9893   5.625   7.675   4.612
 2297WAT     H1 9894   5.569   7.720   4.661
 2297WAT     H2 9895   5.577   7.652   4.543
 2297WAT    EPW 9896   5.610   7.678   4.609
 2298WAT      O 9897   6.549   7.514   3.925
 2298WAT     H1 9898   6.617   7.566   3.941
 2298WAT     H2 9899   6.494   7.566   3.882
 2298WAT    EPW 9900   6.551   7.529   3.921
 2299WAT      O 9901   5.604   7.041   4.347
 2299WAT     H1 9902   5.522   7.017   4.363
 2299WAT     H2 9903   5.652   6.977   4.381
 2299WAT    EPW 9904   5.599   7.028   4.354
 2300WAT      O 9905   6.763   6.870   4.376
 2300WAT     H1 9906   6.742   6.910   4.451
 2300WAT     H2 9907   6.845   6.843   4.389
 2300WAT    EPW 9908   6.772   6.872   4.389
 2301WAT      O 9909   5.994   7.022   4.170
 2301WAT     H1 9910   5.933   6.960   4.165
 2301WAT     H2 9911   6.069   6.977   4.164
 2301WAT    EPW 9912   5.996   7.006   4.169
 2302WAT      O 9913   5.811   7.498   4.722
 2302WAT     H1 9914   5.782   7.428   4.679
 2302WAT     H2 9915   5.760   7.563   4.695
 2302WAT    EPW 9916   5.799   7.497   4.712
 2303WAT      O 9917   5.827   6.841   3.195
 2303WAT     H1 9918   5.835   6.853   3.109
 2303WAT     H2 9919   5.741   6.850   3.209
 2303WAT    EPW 9920   5.816   6.844   3.184
 2304WAT      O 9921   5.338   6.994   4.421
 2304WAT     H1 9922   5.281   6.929   4.406
 2304WAT     H2 9923   5.288   7.066   4.421
 2304WAT    EPW 9924   5.322   6.995   4.419
 2305WAT      O 9925   6.247   6.908   4.107
 2305WAT     H1 9926   6.310   6.966   4.122
 2305WAT     H2 9927   6.220   6.927   4.026
 2305WAT    EPW 9928   6.252   6.919   4.097
 2306WAT      O 9929   6.178   7.405   3.850
 2306WAT     H1 9930   6.235   7.340   3.863
 2306WAT     H2 9931   6.151   7.424   3.931
 2306WAT    EPW 9932   6.183   7.398   3.864
 2307WAT      O 9933   5.203   7.348   3.733
 2307WAT     H1 9934   5.166   7.371   3.808
 2307WAT     H2 9935   5.248   7.276   3.754
 2307WAT    EPW 9936   5.204   7.341   3.747
 2308WAT      O 9937   6.326   7.559   3.516
 2308WAT     H1 9938   6.368   7.482   3.514
 2308WAT     H2 9939   6.267   7.551   3.451
 2308WAT    EPW 9940   6.323   7.546   3.506
 2309WAT      O 9941   5.725   7.680   3.369
 2309WAT     H1 9942   5.768   7.717   3.302
 2309WAT     H2 9943   5.787   7.669   3.430
 2309WAT    EPW 9944   5.740   7.684   3.368
 2310WAT      O 9945   6.614   7.807   4.765
 2310WAT     H1 9946   6.684   7.780   4.810
 2310WAT     H2 9947   6.646   7.823   4.685
 2310WAT    EPW 9948   6.629   7.805   4.760
 2311WAT      O 9949   6.707   7.264   4.932
 2311WAT     H1 9950   6.693   7.347   4.954
 2311WAT     H2 9951   6.635   7.242   4.888
 2311WAT    EPW 9952   6.694   7.273   4.929
 2312WAT      O 9953   6.770   7.337   4.230
 2312WAT     H1 9954   6.687   7.359   4.212
 2312WAT     H2 9955   6.771   7.251   4.219
 2312WAT    EPW 9956   6.758   7.328   4.225
 2313WAT      O 9957   5.663   7.021   4.698
 2313WAT     H1 9958   5.695   6.980   4.628
 2313WAT     H2 9959   5.580   6.994   4.701
 2313WAT    EPW 9960   5.656   7.011   4.688
 2314WAT      O 9961   6.389   7.904   4.932
 2314WAT     H1 9962   6.453   7.899   4.873
 2314WAT     H2 9963   6.399   7.984   4.966
 2314WAT    EPW 9964   6.400   7.915   4.928
 2315WAT      O 9965   6.208   6.895   1.741
 2315WAT     H1 9966   6.244   6.959   1.694
 2315WAT     H2 9967   6.277   6.855   1.776
 2315WAT    EPW 9968   6.224   6.898   1.739
 2316WAT      O 9969   6.100   7.466   2.216
 2316WAT     H1 9970   6.060   7.538   2.245
 2316WAT     H2 9971   6.159   7.449   2.278
 2316WAT    EPW 9972   6.103   7.474   2.229
 2317WAT      O 9973   5.058   7.330   1.372
 2317WAT     H1 9974   4.991   7.374   1.339
 2317WAT     H2 9975   5.026   7.250   1.385
 2317WAT    EPW 9976   5.043   7.325   1.369
 2318WAT      O 9977   5.351   7.907   1.190
 2318WAT     H1 9978   5.307   7.860   1.131
 2318WAT     H2 9979   5.364   7.850   1.255
 2318WAT    EPW 9980   5.347   7.892   1.191
 2319WAT      O 9981   6.340   7.642   1.894
 2319WAT     H1 9982   6.339   7.635   1.807
 2319WAT     H2 9983   6.285   7.580   1.920
 2319WAT    EPW 9984   6.332   7.632   1.885
 2320WAT      O 9985   5.780   6.971   1.637
 2320WAT     H1 9986   5.761   7.036   1.582
 2320WAT     H2 9987   5.857   6.941   1.608
 2320WAT    EPW 9988   5.788   6.976   1.625
 2321WAT      O 9989   5.341   7.767   1.842
 2321WAT     H1 9990   5.296   7.770   1.767
 2321WAT     H2 9991   5.384   7.692   1.837
 2321WAT    EPW 9992   5.341   7.756   1.830
 2322WAT      O 9993   5.701   7.305   2.407
 2322WAT     H1 9994   5.769   7.298   2.352
 2322WAT     H2 9995   5.663   7.227   2.402
 2322WAT    EPW 9996   5.705   7.292   2.398
 2323WAT      O 9997   5.440   7.509   1.864
 2323WAT     H1 9998   5.504   7.454   1.886
 2323WAT     H2 9999   5.370   7.458   1.855
 2323WAT    EPW10000   5.439   7.494   1.866
 2324WAT      O10001   6.072   7.519   2.921
 2324WAT     H110002   5.990   7.520   2.890
 2324WAT     H210003   6.076   7.591   2.970
 2324WAT    EPW10004   6.061   7.530   2.923
 2325WAT      O10005   5.507   7.016   1.718
 2325WAT     H110006   5.470   7.071   1.661
 2325WAT     H210007   5.590   7.010   1.690
 2325WAT    EPW10008   5.514   7.023   1.706
 2326WAT      O10009   6.479   6.766   2.696
 2326WAT     H110010   6.453   6.832   2.646
 2326WAT     H210011   6.406   6.743   2.739
 2326WAT    EPW10012   6.464   6.772   2.695
 2327WAT      O10013   5.817   6.934   1.909
 2327WAT     H110014   5.832   7.017   1.932
 2327WAT     H210015   5.794   6.941   1.825
 2327WAT    EPW10016   5.816   6.948   1.900
 2328WAT      O10017   6.210   7.132   1.156
 2328WAT     H110018   6.169   7.198   1.196
 2328WAT     H210019   6.233   7.079   1.221
 2328WAT    EPW10020   6.207   7.134   1.171
 2329WAT      O10021   5.070   7.400   2.107
 2329WAT     H110022   5.035   7.479   2.112
 2329WAT     H210023   5.019   7.351   2.157
 2329WAT    EPW10024   5.057   7.404   2.115
 2330WAT      O10025   5.335   6.960   2.135
 2330WAT     H110026   5.324   6.881   2.098
 2330WAT     H210027   5.391   6.945   2.200
 2330WAT    EPW10028   5.341   6.946   2.139
 2331WAT      O10029   5.659   7.121   3.050
 2331WAT     H110030   5.668   7.087   2.970
 2331WAT     H210031   5.707   7.194   3.046
 2331WAT    EPW10032   5.668   7.127   3.037
 2332WAT      O10033   6.831   7.135   1.855
 2332WAT     H110034   6.778   7.204   1.864
 2332WAT     H210035   6.777   7.068   1.843
 2332WAT    EPW10036   6.815   7.135   1.855
 2333WAT      O10037   5.246   7.050   2.981
 2333WAT     H110038   5.167   7.022   2.958
 2333WAT     H210039   5.298   7.019   2.918
 2333WAT    EPW10040   5.242   7.041   2.968
 2334WAT      O10041   5.865   6.873   2.925
 2334WAT     H110042   5.889   6.800   2.884
 2334WAT     H210043   5.802   6.905   2.874
 2334WAT    EPW10044   5.859   6.867   2.911
 2335WAT      O10045   5.981   7.385   1.770
 2335WAT     H110046   6.008   7.333   1.706
 2335WAT     H210047   6.053   7.398   1.818
 2335WAT    EPW10048   5.996   7.379   1.768
 2336WAT      O10049   6.065   7.326   1.298
 2336WAT     H110050   6.088   7.404   1.328
 2336WAT     H210051   5.989   7.341   1.258
 2336WAT    EPW10052   6.057   7.340   1.297
 2337WAT      O10053   6.726   7.054   2.289
 2337WAT     H110054   6.792   7.046   2.232
 2337WAT     H210055   6.744   6.994   2.350
 2337WAT    EPW10056   6.738   7.044   2.289
 2338WAT      O10057   4.999   7.180   2.719
 2338WAT     H110058   4.985   7.256   2.760
 2338WAT     H210059   5.062   7.199   2.662
 2338WAT    EPW10060   5.006   7.194   2.717
 2339WAT      O10061   6.275   6.967   1.370
 2339WAT     H110062   6.336   6.905   1.365
 2339WAT     H210063   6.301   7.016   1.437
 2339WAT    EPW10064   6.288   6.965   1.379
 2340WAT      O10065   5.118   7.089   1.648
 2340WAT     H110066   5.094   7.006   1.636
 2340WAT     H210067   5.072   7.115   1.717
 2340WAT    EPW10068   5.108   7.081   1.656
 2341WAT      O10069   6.058   7.219   1.556
 2341WAT     H110070   6.026   7.139   1.542
 2341WAT     H210071   6.055   7.257   1.478
 2341WAT    EPW10072   6.053   7.213   1.543
 2342WAT      O10073   6.016   6.950   1.482
 2342WAT     H110074   5.959   6.923   1.422
 2342WAT     H210075   6.094   6.942   1.442
 2342WAT    EPW10076   6.019   6.945   1.467
 2343WAT      O10077   5.873   7.203   1.953
 2343WAT     H110078   5.900   7.268   1.901
 2343WAT     H210079   5.884   7.236   2.033
 2343WAT    EPW10080   5.879   7.217   1.957
 2344WAT      O10081   5.452   6.752   1.772
 2344WAT     H110082   5.465   6.837   1.757
 2344WAT     H210083   5.425   6.722   1.694
 2344WAT    EPW10084   5.450   6.760   1.758
 2345WAT      O10085   5.572   7.801   2.270
 2345WAT     H110086   5.578   7.735   2.327
 2345WAT     H210087   5.523   7.768   2.206
 2345WAT    EPW10088   5.565   7.786   2.269
 2346WAT      O10089   6.197   7.165   2.538
 2346WAT     H110090   6.188   7.202   2.616
 2346WAT     H210091   6.133   7.106   2.536
 2346WAT    EPW10092   6.186   7.162   2.549
 2347WAT      O10093   6.428   6.769   1.850
 2347WAT     H110094   6.421   6.753   1.936
 2347WAT     H210095   6.458   6.693   1.818
 2347WAT    EPW10096   6.432   6.755   1.858
 2348WAT      O10097   6.598   7.197   2.639
 2348WAT     H110098   6.683   7.188   2.658
 2348WAT     H210099   6.559   7.194   2.717
 2348WAT    EPW10100   6.605   7.195   2.653
 2349WAT      O10101   5.395   7.147   1.938
 2349WAT     H110102   5.426   7.098   1.873
 2349WAT     H210103   5.378   7.089   2.001
 2349WAT    EPW10104   5.397   7.131   1.937
 2350WAT      O10105   5.273   7.344   2.296
 2350WAT     H110106   5.351   7.363   2.262
 2350WAT     H210107   5.217   7.363   2.231
 2350WAT    EPW10108   5.277   7.349   2.281
 2351WAT      O10109   6.463   7.672   1.285
 2351WAT     H110110   6.437   7.745   1.246
 2351WAT     H210111   6.480   7.698   1.367
 2351WAT    EPW10112   6.462   7.687   1.291
 2352WAT      O10113   6.771   7.074   1.270
 2352WAT     H110114   6.815   7.024   1.214
 2352WAT     H210115   6.723   7.125   1.219
 2352WAT    EPW10116   6.770   7.074   1.254
 2353WAT      O10117   5.815   7.350   3.072
 2353WAT     H110118   5.771   7.386   3.138
 2353WAT     H210119   5.804   7.406   3.006
 2353WAT    EPW10120   5.807   7.363   3.072
 2354WAT      O10121   6.910   7.469   2.515
 2354WAT     H110122   6.965   7.402   2.524
 2354WAT     H210123   6.855   7.444   2.453
 2354WAT    EPW10124   6.910   7.456   2.507
 2355WAT      O10125   5.223   7.731   1.590
 2355WAT     H110126   5.188   7.651   1.595
 2355WAT     H210127   5.284   7.723   1.528
 2355WAT    EPW10128   5.227   7.718   1.582
 2356WAT      O10129   6.664   6.944   1.503
 2356WAT     H110130   6.740   6.909   1.526
 2356WAT     H210131   6.685   6.997   1.436
 2356WAT    EPW10132   6.678   6.947   1.496
 2357WAT      O10133   6.366   7.200   1.976
 2357WAT     H110134   6.398   7.165   2.049
 2357WAT     H210135   6.297   7.151   1.958
 2357WAT    EPW10136   6.361   7.188   1.984
 2358WAT      O10137   5.723   7.161   1.453
 2358WAT     H110138   5.711   7.144   1.368
 2358WAT     H210139   5.721   7.248   1.457
 2358WAT    EPW10140   5.721   7.171   1.441
 2359WAT      O10141   5.401   7.506   2.912
 2359WAT     H110142   5.359   7.446   2.960
 2359WAT     H210143   5.410   7.467   2.834
 2359WAT    EPW10144   5.396   7.491   2.907
 2360WAT      O10145   5.410   7.418   1.407
 2360WAT     H110146   5.392   7.357   1.466
 2360WAT     H210147   5.371   7.389   1.334
 2360WAT    EPW10148   5.401   7.405   1.405
 2361WAT      O10149   5.367   7.686   2.108
 2361WAT     H110150   5.350   7.726   2.033
 2361WAT     H210151   5.396   7.607   2.083
 2361WAT    EPW10152   5.369   7.680   2.094
 2362WAT      O10153   5.486   7.588   2.461
 2362WAT     H110154   5.496   7.537   2.391
 2362WAT     H210155   5.414   7.634   2.443
 2362WAT    EPW10156   5.477   7.587   2.448
 2363WAT      O10157   6.505   7.366   2.249
 2363WAT     H110158   6.439   7.392   2.299
 2363WAT     H210159   6.504   7.423   2.183
 2363WAT    EPW10160   6.495   7.378   2.246
 2364WAT      O10161   6.035   6.943   2.607
 2364WAT     H110162   6.060   6.862   2.585
 2364WAT     H210163   6.065   6.952   2.688
 2364WAT    EPW10164   6.043   6.932   2.616
 2365WAT      O10165   6.312   7.118   1.600
 2365WAT     H110166   6.373   7.180   1.609
 2365WAT     H210167   6.238   7.163   1.591
 2365WAT    EPW10168   6.310   7.134   1.600
 2366WAT      O10169   5.233   7.725   2.883
 2366WAT     H110170   5.216   7.726   2.798
 2366WAT     H210171   5.282   7.654   2.894
 2366WAT    EPW10172   5.238   7.715   2.872
 2367WAT      O10173   5.901   7.277   2.217
 2367WAT     H110174   5.966   7.334   2.223
 2367WAT     H210175   5.936   7.203   2.248
 2367WAT    EPW10176   5.916   7.274   2.223
 2368WAT      O10177   6.124   7.566   1.429
 2368WAT     H110178   6.125   7.628   1.369
 2368WAT     H210179   6.063   7.593   1.486
 2368WAT    EPW10180   6.115   7.579   1.428
 2369WAT      O10181   5.537   6.809   1.357
 2369WAT     H110182   5.492   6.771   1.422
 2369WAT     H210183   5.496   6.885   1.346
 2369WAT    EPW10184   5.524   6.814   1.365
 2370WAT      O10185   6.614   7.853   2.603
 2370WAT     H110186   6.622   7.802   2.533
 2370WAT     H210187   6.633   7.932   2.574
 2370WAT    EPW10188   6.618   7.857   2.588
 2371WAT      O10189   6.611   6.903   2.897
 2371WAT     H110190   6.572   6.858   2.833
 2371WAT     H210191   6.613   6.846   2.963
 2371WAT    EPW10192   6.606   6.888   2.898
 2372WAT      O10193   5.440   7.697   1.396
 2372WAT     H110194   5.425   7.611   1.405
 2372WAT     H210195   5.511   7.710   1.445
 2372WAT    EPW10196   5.448   7.686   1.405
 2373WAT      O10197   6.198   7.756   2.495
 2373WAT     H110198   6.221   7.829   2.538
 2373WAT     H210199   6.224   7.692   2.549
 2373WAT    EPW10200   6.205   7.757   2.510
 2374WAT      O10201   5.022   6.824   1.611
 2374WAT     H110202   5.022   6.770   1.542
 2374WAT     H210203   4.994   6.774   1.676
 2374WAT    EPW10204   5.018   6.808   1.610
 2375WAT      O10205   5.942   7.631   1.639
 2375WAT     H110206   5.965   7.686   1.702
 2375WAT     H210207   5.942   7.553   1.679
 2375WAT    EPW10208   5.946   7.627   1.654
 2376WAT      O10209   5.417   7.052   1.305
 2376WAT     H110210   5.358   7.054   1.241
 2376WAT     H210211   5.486   7.093   1.270
 2376WAT    EPW10212   5.418   7.059   1.291
 2377WAT      O10213   5.827   7.811   2.140
 2377WAT     H110214   5.749   7.818   2.179
 2377WAT     H210215   5.878   7.775   2.201
 2377WAT    EPW10216   5.823   7.807   2.155
 2378WAT      O10217   5.297   7.775   2.366
 2378WAT     H110218   5.364   7.831   2.361
 2378WAT     H210219   5.292   7.741   2.286
 2378WAT    EPW10220   5.306   7.778   2.354
 2379WAT      O10221   5.607   7.318   1.983
 2379WAT     H110222   5.683   7.277   1.966
 2379WAT     H210223   5.548   7.255   1.971
 2379WAT    EPW10224   5.610   7.303   1.979
 2380WAT      O10225   5.109   7.470   1.618
 2380WAT     H110226   5.137   7.426   1.687
 2380WAT     H210227   5.114   7.412   1.553
 2380WAT    EPW10228   5.114   7.455   1.618
 2381WAT      O10229   6.613   7.685   2.374
 2381WAT     H110230   6.613   7.611   2.419
 2381WAT     H210231   6.530   7.692   2.347
 2381WAT    EPW10232   6.601   7.675   2.376
 2382WAT      O10233   5.603   7.651   1.167
 2382WAT     H110234   5.552   7.670   1.235
 2382WAT     H210235   5.549   7.612   1.110
 2382WAT    EPW10236   5.588   7.648   1.169
 2383WAT      O10237   6.773   7.680   2.140
 2383WAT     H110238   6.734   7.682   2.218
 2383WAT     H210239   6.795   7.763   2.126
 2383WAT    EPW10240   6.771   7.693   2.150
 2384WAT      O10241   5.685   7.435   1.417
 2384WAT     H110242   5.698   7.517   1.443
 2384WAT     H210243   5.598   7.429   1.414
 2384WAT    EPW10244   5.674   7.447   1.420
 2385WAT      O10245   6.483   7.154   2.893
 2385WAT     H110246   6.415   7.155   2.948
 2385WAT     H210247   6.515   7.073   2.901
 2385WAT    EPW10248   6.477   7.142   2.902
 2386WAT      O10249   5.060   7.055   2.126
 2386WAT     H110250   5.043   7.079   2.044
 2386WAT     H210251   5.145   7.035   2.124
 2386WAT    EPW10252   5.070   7.056   2.113
 2387WAT      O10253   6.349   7.467   3.003
 2387WAT     H110254   6.374   7.519   3.068
 2387WAT     H210255   6.265   7.488   2.991
 2387WAT    EPW10256   6.341   7.478   3.011
 2388WAT      O10257   6.527   7.538   2.804
 2388WAT     H110258   6.543   7.620   2.829
 2388WAT     H210259   6.477   7.507   2.869
 2388WAT    EPW10260   6.522   7.546   2.817
 2389WAT      O10261   6.606   7.309   1.881
 2389WAT     H110262   6.538   7.262   1.911
 2389WAT     H210263   6.600   7.384   1.925
 2389WAT    EPW10264   6.595   7.313   1.892
 2390WAT      O10265   6.837   7.671   2.943
 2390WAT     H110266   6.836   7.604   2.887
 2390WAT     H210267   6.917   7.704   2.935
 2390WAT    EPW10268   6.849   7.666   2.934
 2391WAT      O10269   6.423   7.000   2.548
 2391WAT     H110270   6.483   7.061   2.564
 2391WAT     H210271   6.349   7.045   2.540
 2391WAT    EPW10272   6.421   7.015   2.549
 2392WAT      O10273   5.975   7.680   2.347
 2392WAT     H110274   6.045   7.714   2.387
 2392WAT     H210275   5.922   7.658   2.413
 2392WAT    EPW10276   5.978   7.682   2.362
 2393WAT      O10277   5.684   7.276   2.686
 2393WAT     H110278   5.682   7.191   2.703
 2393WAT     H210279   5.703   7.280   2.601
 2393WAT    EPW10280   5.686   7.264   2.676
 2394WAT      O10281   6.506   6.802   2.368
 2394WAT     H110282   6.476   6.874   2.407
 2394WAT     H210283   6.590   6.799   2.393
 2394WAT    EPW10284   6.514   6.812   2.377
 2395WAT      O10285   5.767   6.890   2.539
 2395WAT     H110286   5.850   6.916   2.545
 2395WAT     H210287   5.773   6.812   2.500
 2395WAT    EPW10288   5.781   6.882   2.534
 2396WAT      O10289   6.689   7.509   1.253
 2396WAT     H110290   6.743   7.563   1.210
 2396WAT     H210291   6.616   7.555   1.259
 2396WAT    EPW10292   6.686   7.524   1.247
 2397WAT      O10293   5.830   7.803   1.236
 2397WAT     H110294   5.769   7.752   1.200
 2397WAT     H210295   5.797   7.883   1.228
 2397WAT    EPW10296   5.816   7.807   1.229
 2398WAT      O10297   5.533   7.429   2.229
 2398WAT     H110298   5.559   7.405   2.149
 2398WAT     H210299   5.589   7.388   2.282
 2398WAT    EPW10300   5.545   7.419   2.225
 2399WAT      O10301   6.194   7.312   2.779
 2399WAT     H110302   6.140   7.362   2.825
 2399WAT     H210303   6.251   7.283   2.837
 2399WAT    EPW10304   6.194   7.315   2.794
 2400WAT      O10305   6.283   7.399   2.410
 2400WAT     H110306   6.295   7.448   2.481
 2400WAT     H210307   6.257   7.322   2.442
 2400WAT    EPW10308   6.281   7.394   2.425
 2401WAT      O10309   6.487   7.339   1.632
 2401WAT     H110310   6.522   7.327   1.712
 2401WAT     H210311   6.550   7.382   1.589
 2401WAT    EPW10312   6.502   7.344   1.638
 2402WAT      O10313   5.781   6.871   2.183
 2402WAT     H110314   5.698   6.861   2.206
 2402WAT     H210315   5.778   6.879   2.096
 2402WAT    EPW10316   5.768   6.871   2.174
 2403WAT      O10317   6.639   6.943   1.787
 2403WAT     H110318   6.565   6.904   1.811
 2403WAT     H210319   6.627   6.958   1.702
 2403WAT    EPW10320   6.626   6.939   1.778
 2404WAT      O10321   6.528   7.740   1.543
 2404WAT     H110322   6.594   7.683   1.554
 2404WAT     H210323   6.460   7.698   1.578
 2404WAT    EPW10324   6.528   7.725   1.550
 2405WAT      O10325   5.013   6.941   2.859
 2405WAT     H110326   5.009   7.015   2.813
 2405WAT     H210327   4.929   6.924   2.877
 2405WAT    EPW10328   5.000   6.949   2.855
 2406WAT      O10329   5.361   7.180   1.548
 2406WAT     H110330   5.370   7.136   1.473
 2406WAT     H210331   5.283   7.156   1.577
 2406WAT    EPW10332   5.351   7.170   1.541
 2407WAT      O10333   6.803   7.454   2.774
 2407WAT     H110334   6.716   7.464   2.778
 2407WAT     H210335   6.822   7.469   2.690
 2407WAT    EPW10336   6.793   7.458   2.762
 2408WAT      O10337   6.291   7.543   2.650
 2408WAT     H110338   6.250   7.478   2.692
 2408WAT     H210339   6.363   7.555   2.697
 2408WAT    EPW10340   6.296   7.535   2.663
 2409WAT      O10341   6.118   7.730   3.099
 2409WAT     H110342   6.177   7.793   3.083
 2409WAT     H210343   6.043   7.774   3.104
 2409WAT    EPW10344   6.116   7.746   3.098
 2410WAT      O10345   5.430   7.389   2.659
 2410WAT     H110346   5.444   7.452   2.600
 2410WAT     H210347   5.508   7.352   2.669
 2410WAT    EPW10348   5.443   7.393   2.652
 2411WAT      O10349   5.219   7.248   2.545
 2411WAT     H110350   5.234   7.268   2.462
 2411WAT     H210351   5.284   7.287   2.588
 2411WAT    EPW10352   5.231   7.257   2.539
 2412WAT      O10353   6.687   7.507   1.533
 2412WAT     H110354   6.700   7.508   1.447
 2412WAT     H210355   6.767   7.495   1.566
 2412WAT    EPW10356   6.701   7.505   1.525
 2413WAT      O10357   5.394   6.917   2.784
 2413WAT     H110358   5.352   6.840   2.789
 2413WAT     H210359   5.376   6.945   2.704
 2413WAT    EPW10360   5.385   6.910   2.773
 2414WAT      O10361   6.589   7.465   2.541
 2414WAT     H110362   6.591   7.378   2.547
 2414WAT     H210363   6.563   7.491   2.620
 2414WAT    EPW10364   6.586   7.456   2.553
 2415WAT      O10365   5.178   7.689   2.608
 2415WAT     H110366   5.204   7.728   2.534
 2415WAT     H210367   5.127   7.624   2.580
 2415WAT    EPW10368   5.175   7.685   2.593
 2416WAT      O10369   5.262   7.332   1.183
 2416WAT     H110370   5.193   7.335   1.237
 2416WAT     H210371   5.256   7.254   1.146
 2416WAT    EPW10372   5.251   7.321   1.185
 2417WAT      O10373   6.121   6.971   2.871
 2417WAT     H110374   6.153   7.034   2.923
 2417WAT     H210375   6.042   6.956   2.904
 2417WAT    EPW10376   6.114   6.978   2.884
 2418WAT      O10377   6.130   7.057   1.953
 2418WAT     H110378   6.052   7.095   1.943
 2418WAT     H210379   6.136   7.005   1.883
 2418WAT    EPW10380   6.119   7.055   1.941
 2419WAT      O10381   6.456   7.097   2.217
 2419WAT     H110382   6.535   7.062   2.231
 2419WAT     H210383   6.466   7.180   2.239
 2419WAT    EPW10384   6.469   7.104   2.223
 2420WAT      O10385   5.626   7.663   2.702
 2420WAT     H110386   5.563   7.703   2.749
 2420WAT     H210387   5.587   7.646   2.626
 2420WAT    EPW10388   5.611   7.666   2.698
 2421WAT      O10389   6.553   7.536   2.034
 2421WAT     H110390   6.617   7.593   2.050
 2421WAT     H210391   6.495   7.583   1.990
 2421WAT    EPW10392   6.554   7.552   2.030
 2422WAT      O10393   5.581   7.062   2.419
 2422WAT     H110394   5.504   7.034   2.447
 2422WAT     H210395   5.637   7.001   2.446
 2422WAT    EPW10396   5.578   7.049   2.427
 2423WAT      O10397   6.755   6.863   2.492
 2423WAT     H110398   6.738   6.891   2.572
 2423WAT     H210399   6.838   6.834   2.497
 2423WAT    EPW10400   6.765   6.863   2.504
 2424WAT      O10401   5.983   7.029   2.300
 2424WAT     H110402   5.922   6.977   2.265
 2424WAT     H210403   6.058   6.992   2.274
 2424WAT    EPW10404   5.985   7.016   2.291
 2425WAT      O10405   5.808   7.488   2.826
 2425WAT     H110406   5.779   7.418   2.782
 2425WAT     H210407   5.757   7.552   2.796
 2425WAT    EPW10408   5.796   7.487   2.815
 2426WAT      O10409   5.817   6.834   1.328
 2426WAT     H110410   5.825   6.843   1.241
 2426WAT     H210411   5.731   6.840   1.341
 2426WAT    EPW10412   5.806   6.837   1.317
 2427WAT      O10413   5.332   6.992   2.528
 2427WAT     H110414   5.274   6.931   2.505
 2427WAT     H210415   5.287   7.066   2.526
 2427WAT    EPW10416   5.317   6.994   2.524
 2428WAT      O10417   6.223   6.939   2.187
 2428WAT     H110418   6.291   6.989   2.209
 2428WAT     H210419   6.194   6.975   2.113
 2428WAT    EPW10420   6.229   6.951   2.179
 2429WAT      O10421   6.188   7.418   1.957
 2429WAT     H110422   6.249   7.357   1.968
 2429WAT     H210423   6.159   7.434   2.038
 2429WAT    EPW10424   6.193   7.411   1.970
 2430WAT      O10425   5.210   7.349   1.860
 2430WAT     H110426   5.162   7.362   1.932
 2430WAT     H210427   5.255   7.276   1.879
 2430WAT    EPW10428   5.209   7.340   1.874
 2431WAT      O10429   6.326   7.569   1.624
 2431WAT     H110430   6.366   7.491   1.624
 2431WAT     H210431   6.267   7.561   1.560
 2431WAT    EPW10432   6.323   7.556   1.615
 2432WAT      O10433   5.720   7.703   1.479
 2432WAT     H110434   5.764   7.737   1.412
 2432WAT     H210435   5.781   7.690   1.540
 2432WAT    EPW10436   5.736   7.706   1.478
 2433WAT      O10437   6.587   7.797   2.876
 2433WAT     H110438   6.668   7.781   2.904
 2433WAT     H210439   6.599   7.824   2.794
 2433WAT    EPW10440   6.600   7.799   2.868
 2434WAT      O10441   6.700   7.264   3.024
 2434WAT     H110442   6.689   7.347   3.046
 2434WAT     H210443   6.626   7.243   2.983
 2434WAT    EPW10444   6.688   7.273   3.021
 2435WAT      O10445   6.775   7.332   2.303
 2435WAT     H110446   6.691   7.352   2.291
 2435WAT     H210447   6.775   7.245   2.305
 2435WAT    EPW10448   6.763   7.322   2.302
 2436WAT      O10449   5.663   6.998   2.774
 2436WAT     H110450   5.693   6.961   2.700
 2436WAT     H210451   5.582   6.968   2.781
 2436WAT    EPW10452   5.656   6.988   2.764
 2437WAT      O10453   6.368   7.889   3.050
 2437WAT     H110454   6.430   7.884   2.989
 2437WAT     H210455   6.379   7.969   3.084
 2437WAT    EPW10456   6.379   7.900   3.046
 2438WAT      O10457   6.061   7.476   0.375
 2438WAT     H110458   6.023   7.537   0.424
 2438WAT     H210459   6.139   7.465   0.414
 2438WAT    EPW10460   6.067   7.484   0.388
 2439WAT      O10461   5.702   7.252   0.554
 2439WAT     H110462   5.774   7.253   0.504
 2439WAT     H210463   5.671   7.171   0.544
 2439WAT    EPW10464   5.708   7.240   0.545
 2440WAT      O10465   6.082   7.527   1.031
 2440WAT     H110466   6.001   7.524   1.000
 2440WAT     H210467   6.083   7.599   1.081
 2440WAT    EPW10468   6.070   7.537   1.034
 2441WAT      O10469   6.443   6.746   0.800
 2441WAT     H110470   6.433   6.827   0.768
 2441WAT     H210471   6.375   6.736   0.854
 2441WAT    EPW10472   6.432   6.756   0.803
 2442WAT      O10473   5.091   7.522   0.336
 2442WAT     H110474   5.042   7.587   0.305
 2442WAT     H210475   5.033   7.462   0.362
 2442WAT    EPW10476   5.075   7.522   0.335
 2443WAT      O10477   5.328   6.914   0.363
 2443WAT     H110478   5.345   6.976   0.305
 2443WAT     H210479   5.387   6.852   0.345
 2443WAT    EPW10480   5.339   6.914   0.352
 2444WAT      O10481   5.651   7.147   1.179
 2444WAT     H110482   5.658   7.106   1.102
 2444WAT     H210483   5.700   7.218   1.170
 2444WAT    EPW10484   5.659   7.151   1.167
 2445WAT      O10485   5.243   7.066   1.086
 2445WAT     H110486   5.164   7.033   1.067
 2445WAT     H210487   5.294   7.034   1.022
 2445WAT    EPW10488   5.239   7.056   1.074
 2446WAT      O10489   5.852   6.863   1.056
 2446WAT     H110490   5.869   6.790   1.011
 2446WAT     H210491   5.781   6.896   1.017
 2446WAT    EPW10492   5.844   6.857   1.044
 2447WAT      O10493   6.809   7.048   0.449
 2447WAT     H110494   6.878   7.012   0.409
 2447WAT     H210495   6.800   6.998   0.521
 2447WAT    EPW10496   6.818   7.035   0.454
 2448WAT      O10497   4.993   7.183   0.831
 2448WAT     H110498   4.980   7.255   0.879
 2448WAT     H210499   5.059   7.206   0.778
 2448WAT    EPW10500   5.001   7.197   0.830
 2449WAT      O10501   5.511   7.789   0.390
 2449WAT     H110502   5.528   7.733   0.455
 2449WAT     H210503   5.590   7.802   0.354
 2449WAT    EPW10504   5.525   7.783   0.395
 2450WAT      O10505   6.218   7.177   0.638
 2450WAT     H110506   6.199   7.224   0.709
 2450WAT     H210507   6.156   7.116   0.636
 2450WAT    EPW10508   6.206   7.175   0.648
 2451WAT      O10509   6.629   7.210   0.769
 2451WAT     H110510   6.712   7.192   0.787
 2451WAT     H210511   6.592   7.222   0.847
 2451WAT    EPW10512   6.635   7.209   0.783
 2452WAT      O10513   5.284   7.324   0.402
 2452WAT     H110514   5.365   7.348   0.383
 2452WAT     H210515   5.235   7.385   0.364
 2452WAT    EPW10516   5.289   7.336   0.394
 2453WAT      O10517   5.812   7.373   1.180
 2453WAT     H110518   5.770   7.410   1.247
 2453WAT     H210519   5.802   7.431   1.115
 2453WAT    EPW10520   5.804   7.387   1.180
 2454WAT      O10521   6.911   7.467   0.669
 2454WAT     H110522   6.973   7.406   0.662
 2454WAT     H210523   6.852   7.442   0.609
 2454WAT    EPW10524   6.911   7.454   0.659
 2455WAT      O10525   5.388   7.526   1.024
 2455WAT     H110526   5.347   7.468   1.074
 2455WAT     H210527   5.399   7.484   0.948
 2455WAT    EPW10528   5.384   7.512   1.020
 2456WAT      O10529   5.491   7.582   0.589
 2456WAT     H110530   5.510   7.528   0.523
 2456WAT     H210531   5.412   7.612   0.569
 2456WAT    EPW10532   5.483   7.579   0.576
 2457WAT      O10533   6.522   7.337   0.359
 2457WAT     H110534   6.457   7.367   0.408
 2457WAT     H210535   6.507   7.373   0.281
 2457WAT    EPW10536   6.510   7.347   0.355
 2458WAT      O10537   6.048   6.949   0.681
 2458WAT     H110538   6.064   6.864   0.672
 2458WAT     H210539   6.064   6.964   0.766
 2458WAT    EPW10540   6.052   6.939   0.692
 2459WAT      O10541   5.217   7.744   0.996
 2459WAT     H110542   5.193   7.746   0.912
 2459WAT     H210543   5.271   7.676   1.000
 2459WAT    EPW10544   5.221   7.735   0.984
 2460WAT      O10545   5.907   7.246   0.376
 2460WAT     H110546   5.961   7.314   0.367
 2460WAT     H210547   5.959   7.177   0.370
 2460WAT    EPW10548   5.923   7.246   0.374
 2461WAT      O10549   6.716   7.812   0.737
 2461WAT     H110550   6.687   7.787   0.659
 2461WAT     H210551   6.802   7.798   0.734
 2461WAT    EPW10552   6.724   7.806   0.725
 2462WAT      O10553   6.680   6.817   0.930
 2462WAT     H110554   6.603   6.803   0.892
 2462WAT     H210555   6.673   6.778   1.007
 2462WAT    EPW10556   6.668   6.809   0.936
 2463WAT      O10557   6.146   7.786   0.672
 2463WAT     H110558   6.164   7.848   0.731
 2463WAT     H210559   6.197   7.719   0.695
 2463WAT    EPW10560   6.156   7.786   0.684
 2464WAT      O10561   5.784   7.785   0.320
 2464WAT     H110562   5.838   7.791   0.252
 2464WAT     H210563   5.835   7.754   0.384
 2464WAT    EPW10564   5.799   7.781   0.319
 2465WAT      O10565   5.258   7.693   0.489
 2465WAT     H110566   5.305   7.740   0.432
 2465WAT     H210567   5.207   7.644   0.439
 2465WAT    EPW10568   5.258   7.693   0.474
 2466WAT      O10569   6.605   7.698   0.502
 2466WAT     H110570   6.607   7.620   0.540
 2466WAT     H210571   6.520   7.716   0.494
 2466WAT    EPW10572   6.593   7.689   0.506
 2467WAT      O10573   6.777   7.696   0.278
 2467WAT     H110574   6.724   7.701   0.347
 2467WAT     H210575   6.757   7.767   0.232
 2467WAT    EPW10576   6.767   7.707   0.281
 2468WAT      O10577   6.407   7.188   0.971
 2468WAT     H110578   6.351   7.166   1.034
 2468WAT     H210579   6.402   7.121   0.915
 2468WAT    EPW10580   6.398   7.175   0.972
 2469WAT      O10581   6.356   7.479   1.112
 2469WAT     H110582   6.375   7.534   1.178
 2469WAT     H210583   6.270   7.491   1.100
 2469WAT    EPW10584   6.346   7.489   1.120
 2470WAT      O10585   6.532   7.551   0.913
 2470WAT     H110586   6.552   7.632   0.938
 2470WAT     H210587   6.480   7.522   0.977
 2470WAT    EPW10588   6.527   7.559   0.926
 2471WAT      O10589   6.835   7.675   1.084
 2471WAT     H110590   6.837   7.607   1.028
 2471WAT     H210591   6.913   7.712   1.074
 2471WAT    EPW10592   6.847   7.670   1.074
 2472WAT      O10593   6.423   7.019   0.745
 2472WAT     H110594   6.496   7.063   0.728
 2472WAT     H210595   6.363   7.061   0.698
 2472WAT    EPW10596   6.425   7.032   0.735
 2473WAT      O10597   5.934   7.676   0.531
 2473WAT     H110598   5.999   7.717   0.571
 2473WAT     H210599   5.874   7.666   0.593
 2473WAT    EPW10600   5.935   7.681   0.546
 2474WAT      O10601   5.676   7.283   0.827
 2474WAT     H110602   5.671   7.202   0.858
 2474WAT     H210603   5.695   7.271   0.743
 2474WAT    EPW10604   5.678   7.269   0.819
 2475WAT      O10605   6.549   6.794   0.500
 2475WAT     H110606   6.530   6.876   0.476
 2475WAT     H210607   6.623   6.804   0.546
 2475WAT    EPW10608   6.557   6.808   0.504
 2476WAT      O10609   5.777   6.884   0.731
 2476WAT     H110610   5.862   6.893   0.714
 2476WAT     H210611   5.769   6.801   0.756
 2476WAT    EPW10612   5.788   6.873   0.732
 2477WAT      O10613   5.552   7.408   0.385
 2477WAT     H110614   5.602   7.429   0.316
 2477WAT     H210615   5.602   7.354   0.431
 2477WAT    EPW10616   5.567   7.403   0.381
 2478WAT      O10617   6.202   7.343   0.859
 2478WAT     H110618   6.156   7.386   0.919
 2478WAT     H210619   6.268   7.308   0.905
 2478WAT    EPW10620   6.205   7.344   0.875
 2479WAT      O10621   6.301   7.412   0.507
 2479WAT     H110622   6.315   7.462   0.577
 2479WAT     H210623   6.275   7.336   0.541
 2479WAT    EPW10624   6.299   7.408   0.522
 2480WAT      O10625   5.778   6.850   0.364
 2480WAT     H110626   5.731   6.904   0.413
 2480WAT     H210627   5.719   6.812   0.313
 2480WAT    EPW10628   5.762   6.853   0.364
 2481WAT      O10629   5.013   6.944   0.965
 2481WAT     H110630   5.008   7.021   0.924
 2481WAT     H210631   4.929   6.925   0.981
 2481WAT    EPW10632   5.000   6.953   0.961
 2482WAT      O10633   6.807   7.454   0.922
 2482WAT     H110634   6.720   7.463   0.920
 2482WAT     H210635   6.830   7.466   0.838
 2482WAT    EPW10636   6.797   7.457   0.909
 2483WAT      O10637   6.306   7.570   0.742
 2483WAT     H110638   6.263   7.505   0.780
 2483WAT     H210639   6.378   7.579   0.791
 2483WAT    EPW10640   6.310   7.562   0.755
 2484WAT      O10641   6.113   7.741   1.208
 2484WAT     H110642   6.171   7.805   1.192
 2484WAT     H210643   6.037   7.784   1.213
 2484WAT    EPW10644   6.111   7.757   1.207
 2485WAT      O10645   5.426   7.393   0.783
 2485WAT     H110646   5.447   7.455   0.724
 2485WAT     H210647   5.502   7.355   0.800
 2485WAT    EPW10648   5.440   7.397   0.777
 2486WAT      O10649   5.216   7.260   0.659
 2486WAT     H110650   5.234   7.276   0.575
 2486WAT     H210651   5.282   7.297   0.702
 2486WAT    EPW10652   5.228   7.267   0.653
 2487WAT      O10653   5.385   6.931   0.888
 2487WAT     H110654   5.346   6.854   0.893
 2487WAT     H210655   5.373   6.955   0.804
 2487WAT    EPW10656   5.378   6.923   0.876
 2488WAT      O10657   6.598   7.467   0.655
 2488WAT     H110658   6.608   7.381   0.667
 2488WAT     H210659   6.577   7.496   0.735
 2488WAT    EPW10660   6.596   7.459   0.669
 2489WAT      O10661   5.112   7.717   0.730
 2489WAT     H110662   5.159   7.736   0.659
 2489WAT     H210663   5.082   7.636   0.713
 2489WAT    EPW10664   5.114   7.708   0.717
 2490WAT      O10665   6.083   6.982   0.958
 2490WAT     H110666   6.118   7.036   1.017
 2490WAT     H210667   6.010   6.954   0.996
 2490WAT    EPW10668   6.077   6.986   0.972
 2491WAT      O10669   6.527   7.058   0.393
 2491WAT     H110670   6.614   7.050   0.394
 2491WAT     H210671   6.515   7.144   0.383
 2491WAT    EPW10672   6.538   7.069   0.392
 2492WAT      O10673   5.724   7.675   0.722
 2492WAT     H110674   5.703   7.758   0.740
 2492WAT     H210675   5.651   7.643   0.684
 2492WAT    EPW10676   5.710   7.683   0.719
 2493WAT      O10677   5.615   6.995   0.537
 2493WAT     H110678   5.530   6.989   0.557
 2493WAT     H210679   5.654   6.951   0.601
 2493WAT    EPW10680   5.608   6.988   0.550
 2494WAT      O10681   6.774   6.862   0.657
 2494WAT     H110682   6.756   6.848   0.741
 2494WAT     H210683   6.850   6.821   0.645
 2494WAT    EPW10684   6.783   6.854   0.668
 2495WAT      O10685   6.031   6.990   0.395
 2495WAT     H110686   5.962   6.944   0.368
 2495WAT     H210687   6.032   6.977   0.482
 2495WAT    EPW10688   6.021   6.981   0.404
 2496WAT      O10689   5.821   7.503   0.926
 2496WAT     H110690   5.784   7.430   0.896
 2496WAT     H210691   5.794   7.564   0.870
 2496WAT    EPW10692   5.811   7.501   0.914
 2497WAT      O10693   5.347   7.010   0.627
 2497WAT     H110694   5.319   6.968   0.556
 2497WAT     H210695   5.300   7.083   0.627
 2497WAT    EPW10696   5.336   7.014   0.617
 2498WAT      O10697   6.289   6.908   0.295
 2498WAT     H110698   6.349   6.966   0.322
 2498WAT     H210699   6.214   6.942   0.322
 2498WAT    EPW10700   6.287   6.922   0.303
 2499WAT      O10701   6.600   7.808   0.991
 2499WAT     H110702   6.672   7.784   1.036
 2499WAT     H210703   6.631   7.828   0.912
 2499WAT    EPW10704   6.615   7.807   0.986
 2500WAT      O10705   6.638   7.260   1.115
 2500WAT     H110706   6.637   7.340   1.150
 2500WAT     H210707   6.556   7.249   1.086
 2500WAT    EPW10708   6.625   7.270   1.116
 2501WAT      O10709   6.788   7.328   0.452
 2501WAT     H110710   6.706   7.338   0.426
 2501WAT     H210711   6.799   7.241   0.453
 2501WAT    EPW10712   6.778   7.317   0.449
 2502WAT      O10713   5.647   7.018   0.927
 2502WAT     H110714   5.688   6.981   0.860
 2502WAT     H210715   5.566   6.987   0.921
 2502WAT    EPW10716   5.641   7.008   0.916
 2503WAT      O10717   6.371   7.900   1.150
 2503WAT     H110718   6.437   7.891   1.093
 2503WAT     H210719   6.384   7.979   1.184
 2503WAT    EPW10720   6.383   7.910   1.147
 2504WAT      O10721   6.129   4.981   7.416
 2504WAT     H110722   6.120   5.026   7.342
 2504WAT     H210723   6.215   4.969   7.423
 2504WAT    EPW10724   6.140   4.986   7.406
 2505WAT      O10725   5.053   6.094   7.394
 2505WAT     H110726   4.971   6.090   7.422
 2505WAT     H210727   5.063   6.019   7.350
 2505WAT    EPW10728   5.043   6.082   7.392
 2506WAT      O10729   6.703   6.492   7.195
 2506WAT     H110730   6.768   6.437   7.215
 2506WAT     H210731   6.648   6.444   7.148
 2506WAT    EPW10732   6.705   6.477   7.191
 2507WAT      O10733   5.043   5.453   7.006
 2507WAT     H110734   4.978   5.503   6.975
 2507WAT     H210735   5.013   5.372   6.998
 2507WAT    EPW10736   5.029   5.449   7.001
 2508WAT      O10737   5.386   6.041   6.991
 2508WAT     H110738   5.351   6.003   6.921
 2508WAT     H210739   5.400   5.975   7.046
 2508WAT    EPW10740   5.382   6.026   6.989
 2509WAT      O10741   6.333   5.833   7.517
 2509WAT     H110742   6.343   5.820   7.431
 2509WAT     H210743   6.288   5.762   7.543
 2509WAT    EPW10744   6.328   5.820   7.508
 2510WAT      O10745   5.321   6.226   7.386
 2510WAT     H110746   5.385   6.223   7.445
 2510WAT     H210747   5.262   6.171   7.417
 2510WAT    EPW10748   5.322   6.217   7.399
 2511WAT      O10749   5.789   5.159   7.324
 2511WAT     H110750   5.788   5.223   7.264
 2511WAT     H210751   5.851   5.105   7.296
 2511WAT    EPW10752   5.798   5.161   7.311
 2512WAT      O10753   5.210   6.500   6.984
 2512WAT     H110754   5.257   6.507   6.911
 2512WAT     H210755   5.246   6.432   7.026
 2512WAT    EPW10756   5.222   6.491   6.980
 2513WAT      O10757   5.282   5.880   7.513
 2513WAT     H110758   5.228   5.882   7.444
 2513WAT     H210759   5.337   5.816   7.492
 2513WAT    EPW10760   5.282   5.871   7.499
 2514WAT      O10761   5.453   5.686   7.422
 2514WAT     H110762   5.509   5.660   7.484
 2514WAT     H210763   5.389   5.626   7.425
 2514WAT    EPW10764   5.452   5.673   7.432
 2515WAT      O10765   5.770   6.238   7.624
 2515WAT     H110766   5.801   6.158   7.641
 2515WAT     H210767   5.840   6.289   7.631
 2515WAT    EPW10768   5.785   6.233   7.627
 2516WAT      O10769   5.869   6.199   7.310
 2516WAT     H110770   5.918   6.139   7.350
 2516WAT     H210771   5.888   6.187   7.225
 2516WAT    EPW10772   5.879   6.188   7.303
 2517WAT      O10773   5.526   5.187   7.430
 2517WAT     H110774   5.484   5.230   7.366
 2517WAT     H210775   5.606   5.175   7.398
 2517WAT    EPW10776   5.532   5.191   7.415
 2518WAT      O10777   5.856   5.175   7.595
 2518WAT     H110778   5.833   5.256   7.619
 2518WAT     H210779   5.833   5.171   7.511
 2518WAT    EPW10780   5.849   5.186   7.586
 2519WAT      O10781   6.264   5.316   6.827
 2519WAT     H110782   6.217   5.383   6.858
 2519WAT     H210783   6.276   5.265   6.896
 2519WAT    EPW10784   6.259   5.318   6.842
 2520WAT      O10785   5.099   5.607   7.696
 2520WAT     H110786   5.100   5.691   7.719
 2520WAT     H210787   5.102   5.565   7.773
 2520WAT    EPW10788   5.100   5.613   7.711
 2521WAT      O10789   5.078   6.567   7.633
 2521WAT     H110790   5.014   6.617   7.601
 2521WAT     H210791   5.116   6.535   7.561
 2521WAT    EPW10792   5.074   6.570   7.617
 2522WAT      O10793   5.665   6.387   7.322
 2522WAT     H110794   5.617   6.369   7.392
 2522WAT     H210795   5.731   6.331   7.327
 2522WAT    EPW10796   5.668   6.376   7.333
 2523WAT      O10797   6.252   6.593   7.110
 2523WAT     H110798   6.326   6.639   7.110
 2523WAT     H210799   6.278   6.512   7.132
 2523WAT    EPW10800   6.266   6.588   7.113
 2524WAT      O10801   6.057   6.635   7.299
 2524WAT     H110802   6.082   6.707   7.342
 2524WAT     H210803   6.119   6.624   7.239
 2524WAT    EPW10804   6.070   6.644   7.297
 2525WAT      O10805   5.205   6.477   7.399
 2525WAT     H110806   5.253   6.405   7.409
 2525WAT     H210807   5.258   6.532   7.357
 2525WAT    EPW10808   5.220   6.474   7.395
 2526WAT      O10809   6.820   5.285   7.541
 2526WAT     H110810   6.774   5.358   7.556
 2526WAT     H210811   6.758   5.226   7.522
 2526WAT    EPW10812   6.804   5.287   7.540
 2527WAT      O10813   5.403   6.233   7.783
 2527WAT     H110814   5.428   6.288   7.719
 2527WAT     H210815   5.440   6.157   7.760
 2527WAT    EPW10816   5.412   6.230   7.770
 2528WAT      O10817   5.618   6.599   7.588
 2528WAT     H110818   5.701   6.622   7.581
 2528WAT     H210819   5.575   6.671   7.562
 2528WAT    EPW10820   5.624   6.613   7.583
 2529WAT      O10821   6.003   5.559   7.451
 2529WAT     H110822   6.028   5.511   7.382
 2529WAT     H210823   6.076   5.566   7.498
 2529WAT    EPW10824   6.017   5.553   7.448
 2530WAT      O10825   6.099   5.513   6.948
 2530WAT     H110826   6.120   5.592   6.979
 2530WAT     H210827   6.022   5.526   6.910
 2530WAT    EPW10828   6.091   5.527   6.947
 2531WAT      O10829   6.472   6.760   7.073
 2531WAT     H110830   6.520   6.737   7.004
 2531WAT     H210831   6.527   6.807   7.122
 2531WAT    EPW10832   6.487   6.764   7.070
 2532WAT      O10833   5.939   6.432   6.917
 2532WAT     H110834   5.909   6.492   6.973
 2532WAT     H210835   6.017   6.463   6.894
 2532WAT    EPW10836   5.946   6.446   6.922
 2533WAT      O10837   6.295   5.150   7.049
 2533WAT     H110838   6.352   5.084   7.053
 2533WAT     H210839   6.315   5.198   7.119
 2533WAT    EPW10840   6.307   5.147   7.060
 2534WAT      O10841   5.127   5.236   7.300
 2534WAT     H110842   5.102   5.153   7.289
 2534WAT     H210843   5.077   5.264   7.366
 2534WAT    EPW10844   5.116   5.228   7.308
 2535WAT      O10845   6.064   5.422   7.212
 2535WAT     H110846   5.991   5.376   7.199
 2535WAT     H210847   6.083   5.454   7.133
 2535WAT    EPW10848   6.056   5.420   7.199
 2536WAT      O10849   6.051   5.093   7.173
 2536WAT     H110850   5.993   5.082   7.109
 2536WAT     H210851   6.125   5.112   7.131
 2536WAT    EPW10852   6.054   5.094   7.158
 2537WAT      O10853   6.771   6.710   7.483
 2537WAT     H110854   6.729   6.786   7.488
 2537WAT     H210855   6.707   6.653   7.468
 2537WAT    EPW10856   6.755   6.713   7.481
 2538WAT      O10857   5.832   5.451   7.641
 2538WAT     H110858   5.880   5.483   7.576
 2538WAT     H210859   5.876   5.476   7.712
 2538WAT    EPW10860   5.846   5.460   7.642
 2539WAT      O10861   6.481   6.288   7.491
 2539WAT     H110862   6.546   6.230   7.487
 2539WAT     H210863   6.410   6.239   7.504
 2539WAT    EPW10864   6.480   6.272   7.492
 2540WAT      O10865   5.433   4.940   7.521
 2540WAT     H110866   5.458   5.021   7.500
 2540WAT     H210867   5.406   4.907   7.445
 2540WAT    EPW10868   5.433   4.947   7.506
 2541WAT      O10869   6.395   4.935   7.474
 2541WAT     H110870   6.399   4.925   7.560
 2541WAT     H210871   6.433   4.862   7.443
 2541WAT    EPW10872   6.401   4.923   7.482
 2542WAT      O10873   5.414   5.358   7.622
 2542WAT     H110874   5.455   5.300   7.571
 2542WAT     H210875   5.346   5.313   7.653
 2542WAT    EPW10876   5.410   5.343   7.619
 2543WAT      O10877   6.668   6.085   7.057
 2543WAT     H110878   6.664   6.032   7.126
 2543WAT     H210879   6.754   6.093   7.042
 2543WAT    EPW10880   6.680   6.078   7.065
 2544WAT      O10881   5.499   6.015   7.623
 2544WAT     H110882   5.549   6.026   7.552
 2544WAT     H210883   5.427   5.977   7.591
 2544WAT    EPW10884   5.496   6.011   7.608
 2545WAT      O10885   5.319   6.638   7.759
 2545WAT     H110886   5.242   6.627   7.720
 2545WAT     H210887   5.365   6.682   7.699
 2545WAT    EPW10888   5.315   6.643   7.744
 2546WAT      O10889   6.472   5.753   6.974
 2546WAT     H110890   6.464   5.836   6.948
 2546WAT     H210891   6.443   5.754   7.057
 2546WAT    EPW10892   6.467   5.765   6.983
 2547WAT      O10893   5.644   6.034   7.385
 2547WAT     H110894   5.706   6.093   7.367
 2547WAT     H210895   5.660   5.969   7.329
 2547WAT    EPW10896   5.656   6.033   7.374
 2548WAT      O10897   6.806   5.216   6.955
 2548WAT     H110898   6.850   5.160   6.904
 2548WAT     H210899   6.771   5.272   6.898
 2548WAT    EPW10900   6.808   5.216   6.939
 2549WAT      O10901   5.138   6.150   7.818
 2549WAT     H110902   5.099   6.226   7.837
 2549WAT     H210903   5.221   6.173   7.806
 2549WAT    EPW10904   5.145   6.165   7.819
 2550WAT      O10905   5.136   5.856   7.273
 2550WAT     H110906   5.108   5.774   7.269
 2550WAT     H210907   5.213   5.854   7.232
 2550WAT    EPW10908   5.143   5.844   7.267
 2551WAT      O10909   6.683   5.108   7.183
 2551WAT     H110910   6.756   5.069   7.210
 2551WAT     H210911   6.708   5.153   7.113
 2551WAT    EPW10912   6.698   5.109   7.177
 2552WAT      O10913   6.007   6.389   7.641
 2552WAT     H110914   5.977   6.471   7.639
 2552WAT     H210915   6.044   6.379   7.563
 2552WAT    EPW10916   6.008   6.399   7.629
 2553WAT      O10917   5.047   6.317   7.237
 2553WAT     H110918   5.098   6.373   7.280
 2553WAT     H210919   5.043   6.248   7.289
 2553WAT    EPW10920   5.054   6.315   7.251
 2554WAT      O10921   6.346   5.363   7.675
 2554WAT     H110922   6.367   5.315   7.745
 2554WAT     H210923   6.285   5.315   7.636
 2554WAT    EPW10924   6.340   5.349   7.680
 2555WAT      O10925   5.059   6.149   7.009
 2555WAT     H110926   5.133   6.102   7.006
 2555WAT     H210927   5.071   6.202   7.077
 2555WAT    EPW10928   5.072   6.150   7.019
 2556WAT      O10929   5.113   5.887   7.732
 2556WAT     H110930   5.167   5.888   7.663
 2556WAT     H210931   5.126   5.966   7.768
 2556WAT    EPW10932   5.123   5.899   7.727
 2557WAT      O10933   5.799   5.347   7.122
 2557WAT     H110934   5.791   5.314   7.042
 2557WAT     H210935   5.761   5.425   7.115
 2557WAT    EPW10936   5.792   5.353   7.109
 2558WAT      O10937   5.526   6.345   7.560
 2558WAT     H110938   5.544   6.429   7.575
 2558WAT     H210939   5.598   6.303   7.586
 2558WAT    EPW10940   5.540   6.351   7.566
 2559WAT      O10941   5.395   5.558   7.086
 2559WAT     H110942   5.384   5.494   7.144
 2559WAT     H210943   5.360   5.527   7.013
 2559WAT    EPW10944   5.388   5.544   7.084
 2560WAT      O10945   5.670   5.836   7.754
 2560WAT     H110946   5.612   5.891   7.719
 2560WAT     H210947   5.643   5.757   7.728
 2560WAT    EPW10948   5.658   5.832   7.745
 2561WAT      O10949   6.311   5.301   7.277
 2561WAT     H110950   6.366   5.367   7.289
 2561WAT     H210951   6.233   5.340   7.268
 2561WAT    EPW10952   6.308   5.316   7.277
 2562WAT      O10953   6.152   5.751   7.082
 2562WAT     H110954   6.129   5.804   7.017
 2562WAT     H210955   6.090   5.764   7.142
 2562WAT    EPW10956   6.140   5.761   7.081
 2563WAT      O10957   6.680   6.088   7.476
 2563WAT     H110958   6.684   6.041   7.549
 2563WAT     H210959   6.656   6.030   7.416
 2563WAT    EPW10960   6.677   6.073   7.478
 2564WAT      O10961   6.118   6.170   7.781
 2564WAT     H110962   6.083   6.242   7.746
 2564WAT     H210963   6.154   6.199   7.855
 2564WAT    EPW10964   6.118   6.185   7.787
 2565WAT      O10965   5.646   6.658   7.265
 2565WAT     H110966   5.653   6.582   7.308
 2565WAT     H210967   5.711   6.653   7.206
 2565WAT    EPW10968   5.657   6.646   7.263
 2566WAT      O10969   5.589   4.994   7.031
 2566WAT     H110970   5.598   4.977   7.116
 2566WAT     H210971   5.546   5.070   7.029
 2566WAT    EPW10972   5.584   5.003   7.043
 2567WAT      O10973   5.864   6.628   7.098
 2567WAT     H110974   5.925   6.635   7.160
 2567WAT     H210975   5.869   6.703   7.055
 2567WAT    EPW10976   5.874   6.640   7.101
 2568WAT      O10977   5.392   5.824   7.171
 2568WAT     H110978   5.384   5.744   7.137
 2568WAT     H210979   5.437   5.811   7.244
 2568WAT    EPW10980   5.397   5.810   7.176
 2569WAT      O10981   5.032   4.969   7.256
 2569WAT     H110982   5.027   4.914   7.188
 2569WAT     H210983   5.000   4.922   7.322
 2569WAT    EPW10984   5.027   4.954   7.255
 2570WAT      O10985   5.981   5.787   7.295
 2570WAT     H110986   6.000   5.856   7.345
 2570WAT     H210987   5.983   5.721   7.351
 2570WAT    EPW10988   5.984   5.788   7.311
 2571WAT      O10989   5.468   5.236   6.986
 2571WAT     H110990   5.410   5.221   6.923
 2571WAT     H210991   5.536   5.271   6.944
 2571WAT    EPW10992   5.469   5.239   6.971
 2572WAT      O10993   5.891   5.993   7.683
 2572WAT     H110994   5.830   5.939   7.715
 2572WAT     H210995   5.938   6.014   7.754
 2572WAT    EPW10996   5.889   5.988   7.698
 2573WAT      O10997   5.558   6.629   6.883
 2573WAT     H110998   5.581   6.561   6.933
 2573WAT     H210999   5.568   6.698   6.936
 2573WAT    EPW11000   5.563   6.629   6.898
 2574WAT      O11001   5.587   5.582   7.647
 2574WAT     H111002   5.663   5.540   7.640
 2574WAT     H211003   5.528   5.518   7.655
 2574WAT    EPW11004   5.589   5.566   7.647
 2575WAT      O11005   6.862   6.662   7.051
 2575WAT     H111006   6.927   6.610   7.024
 2575WAT     H211007   6.811   6.609   7.097
 2575WAT    EPW11008   6.864   6.646   7.054
 2576WAT      O11009   5.076   5.583   7.257
 2576WAT     H111010   5.124   5.546   7.320
 2576WAT     H211011   5.085   5.529   7.190
 2576WAT    EPW11012   5.084   5.570   7.256
 2577WAT      O11013   5.582   5.774   6.865
 2577WAT     H111014   5.580   5.714   6.928
 2577WAT     H211015   5.524   5.745   6.807
 2577WAT    EPW11016   5.573   5.761   6.866
 2578WAT      O11017   6.711   5.948   7.714
 2578WAT     H111018   6.708   6.009   7.776
 2578WAT     H211019   6.794   5.922   7.716
 2578WAT    EPW11020   6.723   5.953   7.724
 2579WAT      O11021   5.668   5.596   7.078
 2579WAT     H111022   5.683   5.666   7.128
 2579WAT     H211023   5.584   5.578   7.093
 2579WAT    EPW11024   5.658   5.604   7.088
 2580WAT      O11025   5.175   5.229   7.682
 2580WAT     H111026   5.105   5.252   7.636
 2580WAT     H211027   5.168   5.142   7.688
 2580WAT    EPW11028   5.164   5.220   7.676
 2581WAT      O11029   6.945   6.407   7.857
 2581WAT     H111030   6.947   6.454   7.784
 2581WAT     H211031   7.020   6.427   7.897
 2581WAT    EPW11032   6.956   6.417   7.852
 2582WAT      O11033   6.536   6.328   7.057
 2582WAT     H111034   6.572   6.250   7.063
 2582WAT     H211035   6.461   6.320   7.101
 2582WAT    EPW11036   6.530   6.316   7.064
 2583WAT      O11037   6.589   5.468   7.573
 2583WAT     H111038   6.520   5.427   7.607
 2583WAT     H211039   6.586   5.547   7.609
 2583WAT    EPW11040   6.578   5.473   7.583
 2584WAT      O11041   6.210   6.148   6.975
 2584WAT     H111042   6.284   6.103   6.967
 2584WAT     H211043   6.181   6.154   6.893
 2584WAT    EPW11044   6.216   6.143   6.962
 2585WAT      O11045   5.897   6.644   7.559
 2585WAT     H111046   5.887   6.729   7.576
 2585WAT     H211047   5.928   6.643   7.478
 2585WAT    EPW11048   5.900   6.657   7.550
 2586WAT      O11049   6.724   5.643   6.943
 2586WAT     H111050   6.773   5.698   6.898
 2586WAT     H211051   6.645   5.679   6.942
 2586WAT    EPW11052   6.719   5.656   6.937
 2587WAT      O11053   5.797   5.927   6.946
 2587WAT     H111054   5.730   5.887   6.906
 2587WAT     H211055   5.774   6.011   6.944
 2587WAT    EPW11056   5.784   5.933   6.940
 2588WAT      O11057   6.481   5.522   7.323
 2588WAT     H111058   6.510   5.502   7.403
 2588WAT     H211059   6.553   5.550   7.282
 2588WAT    EPW11060   6.496   5.523   7.329
 2589WAT      O11061   6.620   5.104   7.456
 2589WAT     H111062   6.541   5.069   7.463
 2589WAT     H211063   6.626   5.123   7.370
 2589WAT    EPW11064   6.609   5.102   7.444
 2590WAT      O11065   6.617   5.912   7.271
 2590WAT     H111066   6.660   5.837   7.263
 2590WAT     H211067   6.533   5.889   7.265
 2590WAT    EPW11068   6.611   5.898   7.269
 2591WAT      O11069   5.382   5.324   7.236
 2591WAT     H111070   5.400   5.288   7.158
 2591WAT     H211071   5.301   5.298   7.252
 2591WAT    EPW11072   5.373   5.315   7.227
 2592WAT      O11073   6.267   6.104   7.549
 2592WAT     H111074   6.233   6.117   7.628
 2592WAT     H211075   6.295   6.022   7.551
 2592WAT    EPW11076   6.266   6.094   7.561
 2593WAT      O11077   6.025   6.016   7.443
 2593WAT     H111078   5.983   6.005   7.520
 2593WAT     H211079   6.102   6.049   7.466
 2593WAT    EPW11080   6.030   6.019   7.458
 2594WAT      O11081   6.427   6.734   7.760
 2594WAT     H111082   6.379   6.750   7.831
 2594WAT     H211083   6.489   6.679   7.789
 2594WAT    EPW11084   6.429   6.728   7.775
 2595WAT      O11085   6.703   5.653   7.220
 2595WAT     H111086   6.715   5.651   7.134
 2595WAT     H211087   6.780   5.628   7.252
 2595WAT    EPW11088   6.716   5.649   7.212
 2596WAT      O11089   6.085   6.366   7.375
 2596WAT     H111090   6.072   6.449   7.352
 2596WAT     H211091   6.013   6.325   7.348
 2596WAT    EPW11092   6.073   6.372   7.368
 2597WAT      O11093   5.271   5.470   6.852
 2597WAT     H111094   5.194   5.466   6.892
 2597WAT     H211095   5.280   5.390   6.818
 2597WAT    EPW11096   5.261   5.457   6.853
 2598WAT      O11097   6.133   5.215   7.578
 2598WAT     H111098   6.047   5.210   7.593
 2598WAT     H211099   6.149   5.148   7.525
 2598WAT    EPW11100   6.122   5.205   7.573
 2599WAT      O11101   5.586   6.400   7.049
 2599WAT     H111102   5.625   6.403   7.127
 2599WAT     H211103   5.506   6.370   7.068
 2599WAT    EPW11104   5.580   6.396   7.064
 2600WAT      O11105   6.543   5.726   7.668
 2600WAT     H111106   6.600   5.790   7.689
 2600WAT     H211107   6.484   5.767   7.619
 2600WAT    EPW11108   6.543   5.742   7.664
 2601WAT      O11109   6.548   6.549   7.416
 2601WAT     H111110   6.523   6.471   7.445
 2601WAT     H211111   6.589   6.531   7.342
 2601WAT    EPW11112   6.550   6.535   7.409
 2602WAT      O11113   5.342   6.287   7.111
 2602WAT     H111114   5.338   6.268   7.196
 2602WAT     H211115   5.355   6.209   7.074
 2602WAT    EPW11116   5.343   6.272   7.118
 2603WAT      O11117   5.636   6.159   6.907
 2603WAT     H111118   5.561   6.119   6.929
 2603WAT     H211119   5.633   6.234   6.951
 2603WAT    EPW11120   5.625   6.164   6.917
 2604WAT      O11121   5.856   5.047   6.984
 2604WAT     H111122   5.870   5.053   6.898
 2604WAT     H211123   5.770   5.041   6.990
 2604WAT    EPW11124   5.846   5.047   6.972
 2605WAT      O11125   6.214   5.605   7.630
 2605WAT     H111126   6.262   5.533   7.640
 2605WAT     H211127   6.206   5.636   7.711
 2605WAT    EPW11128   6.220   5.599   7.643
 2606WAT      O11129   5.238   5.517   7.474
 2606WAT     H111130   5.191   5.546   7.541
 2606WAT     H211131   5.289   5.456   7.510
 2606WAT    EPW11132   5.239   5.512   7.489
 2607WAT      O11133   6.374   5.768   7.246
 2607WAT     H111134   6.393   5.685   7.267
 2607WAT     H211135   6.299   5.760   7.201
 2607WAT    EPW11136   6.365   5.754   7.242
 2608WAT      O11137   5.369   6.647   7.254
 2608WAT     H111138   5.346   6.646   7.170
 2608WAT     H211139   5.457   6.647   7.250
 2608WAT    EPW11140   5.379   6.647   7.241
 2609WAT      O11141   5.729   5.838   7.200
 2609WAT     H111142   5.748   5.875   7.123
 2609WAT     H211143   5.807   5.821   7.234
 2609WAT    EPW11144   5.743   5.841   7.194
 2610WAT      O11145   6.650   6.701   6.872
 2610WAT     H111146   6.722   6.697   6.921
 2610WAT     H211147   6.636   6.618   6.848
 2610WAT    EPW11148   6.659   6.688   6.875
 2611WAT      O11149   6.286   6.327   7.176
 2611WAT     H111150   6.237   6.320   7.247
 2611WAT     H211151   6.249   6.272   7.119
 2611WAT    EPW11152   6.273   6.317   7.178
 2612WAT      O11153   5.340   6.449   7.972
 2612WAT     H111154   5.367   6.380   7.926
 2612WAT     H211155   5.348   6.515   7.915
 2612WAT    EPW11156   5.345   6.449   7.957
 2613WAT      O11157   5.942   6.186   7.048
 2613WAT     H111158   6.023   6.159   7.031
 2613WAT     H211159   5.935   6.260   7.003
 2613WAT    EPW11160   5.953   6.193   7.039
 2614WAT      O11161   6.139   5.021   5.542
 2614WAT     H111162   6.142   5.064   5.467
 2614WAT     H211163   6.223   5.001   5.557
 2614WAT    EPW11164   6.152   5.024   5.533
 2615WAT      O11165   6.093   5.644   5.977
 2615WAT     H111166   6.060   5.722   6.001
 2615WAT     H211167   6.150   5.626   6.041
 2615WAT    EPW11168   6.096   5.653   5.990
 2616WAT      O11169   5.024   5.999   5.566
 2616WAT     H111170   5.034   6.080   5.535
 2616WAT     H211171   5.068   5.950   5.509
 2616WAT    EPW11172   5.032   6.003   5.553
 2617WAT      O11173   6.691   6.492   5.323
 2617WAT     H111174   6.758   6.439   5.340
 2617WAT     H211175   6.640   6.444   5.271
 2617WAT    EPW11176   6.693   6.477   5.318
 2618WAT      O11177   5.043   5.387   5.187
 2618WAT     H111178   4.971   5.374   5.140
 2618WAT     H211179   5.043   5.320   5.243
 2618WAT    EPW11180   5.032   5.376   5.188
 2619WAT      O11181   5.393   6.038   5.059
 2619WAT     H111182   5.348   5.998   4.996
 2619WAT     H211183   5.402   5.976   5.121
 2619WAT    EPW11184   5.387   6.023   5.059
 2620WAT      O11185   6.338   5.826   5.631
 2620WAT     H111186   6.343   5.813   5.545
 2620WAT     H211187   6.285   5.763   5.659
 2620WAT    EPW11188   6.331   5.815   5.622
 2621WAT      O11189   5.361   6.202   5.425
 2621WAT     H111190   5.390   6.178   5.504
 2621WAT     H211191   5.277   6.220   5.438
 2621WAT    EPW11192   5.353   6.201   5.438
 2622WAT      O11193   5.789   5.124   5.426
 2622WAT     H111194   5.782   5.193   5.374
 2622WAT     H211195   5.866   5.089   5.404
 2622WAT    EPW11196   5.800   5.129   5.415
 2623WAT      O11197   5.210   6.504   5.077
 2623WAT     H111198   5.254   6.515   5.002
 2623WAT     H211199   5.246   6.432   5.111
 2623WAT    EPW11200   5.222   6.495   5.071
 2624WAT      O11201   5.044   6.390   6.213
 2624WAT     H111202   5.081   6.356   6.285
 2624WAT     H211203   4.983   6.331   6.191
 2624WAT    EPW11204   5.040   6.376   6.220
 2625WAT      O11205   5.732   6.173   6.644
 2625WAT     H111206   5.711   6.163   6.728
 2625WAT     H211207   5.660   6.148   6.601
 2625WAT    EPW11208   5.719   6.168   6.650
 2626WAT      O11209   5.351   5.841   5.637
 2626WAT     H111210   5.290   5.851   5.575
 2626WAT     H211211   5.398   5.773   5.608
 2626WAT    EPW11212   5.349   5.832   5.623
 2627WAT      O11213   5.686   5.476   6.187
 2627WAT     H111214   5.756   5.474   6.135
 2627WAT     H211215   5.657   5.394   6.186
 2627WAT    EPW11216   5.692   5.463   6.179
 2628WAT      O11217   5.701   6.412   6.389
 2628WAT     H111218   5.679   6.486   6.349
 2628WAT     H211219   5.785   6.425   6.410
 2628WAT    EPW11220   5.710   6.425   6.386
 2629WAT      O11221   5.460   5.606   5.547
 2629WAT     H111222   5.517   5.570   5.603
 2629WAT     H211223   5.385   5.567   5.568
 2629WAT    EPW11224   5.458   5.595   5.558
 2630WAT      O11225   5.837   6.304   5.831
 2630WAT     H111226   5.861   6.220   5.838
 2630WAT     H211227   5.912   6.346   5.818
 2630WAT    EPW11228   5.851   6.298   5.830
 2631WAT      O11229   5.903   6.204   5.445
 2631WAT     H111230   5.946   6.140   5.486
 2631WAT     H211231   5.920   6.188   5.361
 2631WAT    EPW11232   5.912   6.192   5.439
 2632WAT      O11233   6.055   5.695   6.649
 2632WAT     H111234   5.973   5.691   6.619
 2632WAT     H211235   6.050   5.754   6.713
 2632WAT    EPW11236   6.042   5.703   6.654
 2633WAT      O11237   5.512   5.142   5.514
 2633WAT     H111238   5.467   5.191   5.457
 2633WAT     H211239   5.592   5.141   5.480
 2633WAT    EPW11240   5.517   5.149   5.500
 2634WAT      O11241   6.489   4.933   6.470
 2634WAT     H111242   6.464   5.001   6.423
 2634WAT     H211243   6.416   4.908   6.511
 2634WAT    EPW11244   6.475   4.939   6.469
 2635WAT      O11245   5.816   5.091   5.704
 2635WAT     H111246   5.829   5.175   5.726
 2635WAT     H211247   5.795   5.095   5.620
 2635WAT    EPW11248   5.815   5.104   5.695
 2636WAT      O11249   6.245   5.310   4.924
 2636WAT     H111250   6.198   5.377   4.954
 2636WAT     H211251   6.261   5.262   4.995
 2636WAT    EPW11252   6.241   5.313   4.939
 2637WAT      O11253   5.097   5.629   5.880
 2637WAT     H111254   5.087   5.714   5.866
 2637WAT     H211255   5.025   5.606   5.924
 2637WAT    EPW11256   5.085   5.638   5.884
 2638WAT      O11257   5.044   6.637   5.756
 2638WAT     H111258   4.966   6.673   5.740
 2638WAT     H211259   5.072   6.614   5.677
 2638WAT    EPW11260   5.036   6.639   5.742
 2639WAT      O11261   5.681   6.368   5.405
 2639WAT     H111262   5.642   6.360   5.483
 2639WAT     H211263   5.755   6.323   5.414
 2639WAT    EPW11264   5.686   6.360   5.418
 2640WAT      O11265   6.253   6.596   5.224
 2640WAT     H111266   6.324   6.646   5.230
 2640WAT     H211267   6.281   6.517   5.248
 2640WAT    EPW11268   6.267   6.592   5.228
 2641WAT      O11269   6.055   6.637   5.411
 2641WAT     H111270   6.081   6.708   5.456
 2641WAT     H211271   6.117   6.628   5.350
 2641WAT    EPW11272   6.068   6.646   5.409
 2642WAT      O11273   5.304   5.107   5.912
 2642WAT     H111274   5.282   5.034   5.869
 2642WAT     H211275   5.364   5.079   5.970
 2642WAT    EPW11276   5.310   5.092   5.914
 2643WAT      O11277   5.699   5.316   6.842
 2643WAT     H111278   5.709   5.281   6.762
 2643WAT     H211279   5.740   5.392   6.836
 2643WAT    EPW11280   5.706   5.322   6.829
 2644WAT      O11281   5.143   6.591   5.502
 2644WAT     H111282   5.117   6.510   5.482
 2644WAT     H211283   5.216   6.601   5.454
 2644WAT    EPW11284   5.150   6.581   5.492
 2645WAT      O11285   6.821   5.282   5.663
 2645WAT     H111286   6.771   5.353   5.666
 2645WAT     H211287   6.763   5.217   5.653
 2645WAT    EPW11288   6.805   5.283   5.662
 2646WAT      O11289   6.301   6.621   6.214
 2646WAT     H111290   6.369   6.673   6.200
 2646WAT     H211291   6.285   6.586   6.135
 2646WAT    EPW11292   6.309   6.623   6.200
 2647WAT      O11293   5.297   5.199   6.770
 2647WAT     H111294   5.218   5.167   6.749
 2647WAT     H211295   5.350   5.160   6.713
 2647WAT    EPW11296   5.293   5.188   6.758
 2648WAT      O11297   5.333   6.255   5.891
 2648WAT     H111298   5.365   6.222   5.816
 2648WAT     H211299   5.385   6.220   5.952
 2648WAT    EPW11300   5.346   6.245   5.889
 2649WAT      O11301   5.628   6.636   5.754
 2649WAT     H111302   5.709   6.648   5.726
 2649WAT     H211303   5.579   6.677   5.694
 2649WAT    EPW11304   5.632   6.644   5.741
 2650WAT      O11305   5.895   5.053   6.712
 2650WAT     H111306   5.910   4.978   6.670
 2650WAT     H211307   5.837   5.093   6.662
 2650WAT    EPW11308   5.889   5.048   6.699
 2651WAT      O11309   5.985   5.548   5.561
 2651WAT     H111310   6.013   5.508   5.489
 2651WAT     H211311   6.059   5.563   5.606
 2651WAT    EPW11312   6.000   5.544   5.557
 2652WAT      O11313   6.081   5.516   5.055
 2652WAT     H111314   6.100   5.594   5.091
 2652WAT     H211315   6.002   5.528   5.021
 2652WAT    EPW11316   6.072   5.530   5.055
 2653WAT      O11317   6.467   6.776   5.209
 2653WAT     H111318   6.515   6.752   5.141
 2653WAT     H211319   6.523   6.821   5.259
 2653WAT    EPW11320   6.482   6.779   5.206
 2654WAT      O11321   5.545   6.643   6.324
 2654WAT     H111322   5.555   6.657   6.410
 2654WAT     H211323   5.465   6.607   6.318
 2654WAT    EPW11324   5.534   6.639   6.336
 2655WAT      O11325   6.713   5.229   6.091
 2655WAT     H111326   6.780   5.220   6.037
 2655WAT     H211327   6.726   5.167   6.151
 2655WAT    EPW11328   6.725   5.218   6.092
 2656WAT      O11329   5.014   5.331   6.505
 2656WAT     H111330   5.004   5.405   6.551
 2656WAT     H211331   5.078   5.350   6.450
 2656WAT    EPW11332   5.022   5.345   6.504
 2657WAT      O11333   6.191   6.407   6.591
 2657WAT     H111334   6.184   6.429   6.675
 2657WAT     H211335   6.277   6.396   6.579
 2657WAT    EPW11336   6.202   6.409   6.602
 2658WAT      O11337   5.935   6.429   5.025
 2658WAT     H111338   5.904   6.491   5.079
 2658WAT     H211339   6.014   6.458   5.003
 2658WAT    EPW11340   5.942   6.443   5.029
 2659WAT      O11341   6.291   5.156   5.153
 2659WAT     H111342   6.344   5.088   5.160
 2659WAT     H211343   6.310   5.205   5.223
 2659WAT    EPW11344   6.301   5.153   5.164
 2660WAT      O11345   5.076   5.200   5.395
 2660WAT     H111346   5.049   5.118   5.379
 2660WAT     H211347   5.034   5.221   5.469
 2660WAT    EPW11348   5.066   5.191   5.404
 2661WAT      O11349   5.282   6.556   6.214
 2661WAT     H111350   5.215   6.500   6.210
 2661WAT     H211351   5.324   6.544   6.138
 2661WAT    EPW11352   5.279   6.546   6.202
 2662WAT      O11353   6.055   5.421   5.320
 2662WAT     H111354   5.986   5.369   5.307
 2662WAT     H211355   6.070   5.454   5.241
 2662WAT    EPW11356   6.047   5.418   5.306
 2663WAT      O11357   6.052   6.665   6.317
 2663WAT     H111358   6.131   6.655   6.280
 2663WAT     H211359   5.998   6.667   6.249
 2663WAT    EPW11360   6.056   6.664   6.302
 2664WAT      O11361   6.050   5.095   5.280
 2664WAT     H111362   5.991   5.082   5.218
 2664WAT     H211363   6.123   5.115   5.236
 2664WAT    EPW11364   6.052   5.096   5.265
 2665WAT      O11365   6.758   6.694   5.597
 2665WAT     H111366   6.721   6.771   5.614
 2665WAT     H211367   6.691   6.640   5.586
 2665WAT    EPW11368   6.743   6.698   5.598
 2666WAT      O11369   5.867   5.367   5.739
 2666WAT     H111370   5.896   5.429   5.685
 2666WAT     H211371   5.876   5.402   5.818
 2666WAT    EPW11372   5.873   5.381   5.742
 2667WAT      O11373   6.507   6.283   5.675
 2667WAT     H111374   6.569   6.224   5.659
 2667WAT     H211375   6.433   6.237   5.667
 2667WAT    EPW11376   6.505   6.267   5.671
 2668WAT      O11377   5.443   6.384   6.511
 2668WAT     H111378   5.522   6.408   6.486
 2668WAT     H211379   5.431   6.429   6.585
 2668WAT    EPW11380   5.453   6.394   6.519
 2669WAT      O11381   5.439   4.880   5.567
 2669WAT     H111382   5.461   4.963   5.550
 2669WAT     H211383   5.414   4.849   5.490
 2669WAT    EPW11384   5.438   4.887   5.553
 2670WAT      O11385   5.649   5.963   5.930
 2670WAT     H111386   5.673   5.935   6.009
 2670WAT     H211387   5.578   5.915   5.913
 2670WAT    EPW11388   5.642   5.952   5.939
 2671WAT      O11389   6.220   5.339   6.308
 2671WAT     H111390   6.217   5.380   6.384
 2671WAT     H211391   6.158   5.278   6.314
 2671WAT    EPW11392   6.211   5.336   6.320
 2672WAT      O11393   5.753   5.949   6.188
 2672WAT     H111394   5.761   6.035   6.196
 2672WAT     H211395   5.730   5.923   6.268
 2672WAT    EPW11396   5.751   5.958   6.201
 2673WAT      O11397   6.357   6.056   6.200
 2673WAT     H111398   6.281   6.029   6.232
 2673WAT     H211399   6.353   6.143   6.208
 2673WAT    EPW11400   6.345   6.065   6.206
 2674WAT      O11401   6.395   4.931   5.623
 2674WAT     H111402   6.387   4.921   5.709
 2674WAT     H211403   6.430   4.856   5.596
 2674WAT    EPW11404   6.399   4.919   5.632
 2675WAT      O11405   5.011   6.368   6.834
 2675WAT     H111406   5.069   6.414   6.882
 2675WAT     H211407   5.018   6.287   6.867
 2675WAT    EPW11408   5.021   6.363   6.846
 2676WAT      O11409   6.605   5.391   6.408
 2676WAT     H111410   6.688   5.370   6.429
 2676WAT     H211411   6.563   5.382   6.484
 2676WAT    EPW11412   6.611   5.387   6.422
 2677WAT      O11413   5.398   5.288   5.726
 2677WAT     H111414   5.430   5.236   5.664
 2677WAT     H211415   5.372   5.233   5.788
 2677WAT    EPW11416   5.399   5.272   5.726
 2678WAT      O11417   6.663   6.084   5.179
 2678WAT     H111418   6.660   6.037   5.252
 2678WAT     H211419   6.749   6.094   5.164
 2678WAT    EPW11420   6.676   6.078   5.188
 2679WAT      O11421   5.438   6.103   5.675
 2679WAT     H111422   5.521   6.099   5.648
 2679WAT     H211423   5.411   6.020   5.665
 2679WAT    EPW11424   5.446   6.090   5.670
 2680WAT      O11425   5.304   6.710   5.818
 2680WAT     H111426   5.220   6.693   5.802
 2680WAT     H211427   5.338   6.718   5.739
 2680WAT    EPW11428   5.296   6.709   5.804
 2681WAT      O11429   5.263   5.513   6.079
 2681WAT     H111430   5.344   5.524   6.049
 2681WAT     H211431   5.213   5.544   6.015
 2681WAT    EPW11432   5.268   5.519   6.065
 2682WAT      O11433   6.867   6.493   6.559
 2682WAT     H111434   6.792   6.496   6.514
 2682WAT     H211435   6.847   6.443   6.628
 2682WAT    EPW11436   6.853   6.486   6.562
 2683WAT      O11437   6.472   5.750   5.091
 2683WAT     H111438   6.465   5.833   5.064
 2683WAT     H211439   6.441   5.753   5.173
 2683WAT    EPW11440   6.466   5.763   5.099
 2684WAT      O11441   5.680   6.046   5.537
 2684WAT     H111442   5.739   6.103   5.509
 2684WAT     H211443   5.675   5.988   5.471
 2684WAT    EPW11444   5.688   6.046   5.523
 2685WAT      O11445   6.794   5.221   5.098
 2685WAT     H111446   6.829   5.154   5.055
 2685WAT     H211447   6.763   5.273   5.034
 2685WAT    EPW11448   6.794   5.219   5.082
 2686WAT      O11449   5.063   6.176   5.924
 2686WAT     H111450   5.026   6.252   5.904
 2686WAT     H211451   5.148   6.193   5.917
 2686WAT    EPW11452   5.070   6.190   5.920
 2687WAT      O11453   5.834   5.558   6.850
 2687WAT     H111454   5.785   5.592   6.914
 2687WAT     H211455   5.814   5.608   6.781
 2687WAT    EPW11456   5.824   5.570   6.849
 2688WAT      O11457   6.911   5.629   6.299
 2688WAT     H111458   6.967   5.562   6.301
 2688WAT     H211459   6.851   5.603   6.241
 2688WAT    EPW11460   6.910   5.615   6.291
 2689WAT      O11461   5.194   5.844   5.405
 2689WAT     H111462   5.169   5.761   5.396
 2689WAT     H211463   5.263   5.851   5.352
 2689WAT    EPW11464   5.200   5.833   5.396
 2690WAT      O11465   6.660   5.098   5.315
 2690WAT     H111466   6.735   5.059   5.337
 2690WAT     H211467   6.684   5.154   5.252
 2690WAT    EPW11468   6.675   5.101   5.309
 2691WAT      O11469   6.060   6.458   5.772
 2691WAT     H111470   6.014   6.528   5.749
 2691WAT     H211471   6.090   6.427   5.696
 2691WAT    EPW11472   6.058   6.463   5.758
 2692WAT      O11473   5.505   6.147   6.077
 2692WAT     H111474   5.567   6.182   6.128
 2692WAT     H211475   5.550   6.097   6.021
 2692WAT    EPW11476   5.521   6.145   6.077
 2693WAT      O11477   6.359   5.371   5.752
 2693WAT     H111478   6.387   5.337   5.827
 2693WAT     H211479   6.292   5.319   5.730
 2693WAT    EPW11480   6.353   5.358   5.760
 2694WAT      O11481   5.040   6.134   5.099
 2694WAT     H111482   5.106   6.077   5.093
 2694WAT     H211483   5.054   6.173   5.176
 2694WAT    EPW11484   5.052   6.131   5.110
 2695WAT      O11485   5.025   5.907   5.832
 2695WAT     H111486   5.032   5.927   5.747
 2695WAT     H211487   5.040   5.983   5.872
 2695WAT    EPW11488   5.028   5.921   5.825
 2696WAT      O11489   5.795   5.328   5.243
 2696WAT     H111490   5.778   5.301   5.162
 2696WAT     H211491   5.762   5.409   5.245
 2696WAT    EPW11492   5.787   5.336   5.231
 2697WAT      O11493   6.627   6.522   6.404
 2697WAT     H111494   6.584   6.598   6.413
 2697WAT     H211495   6.627   6.509   6.318
 2697WAT    EPW11496   6.621   6.531   6.393
 2698WAT      O11497   5.615   6.371   5.674
 2698WAT     H111498   5.608   6.453   5.703
 2698WAT     H211499   5.682   6.339   5.718
 2698WAT    EPW11500   5.624   6.379   5.685
 2699WAT      O11501   5.370   5.683   6.704
 2699WAT     H111502   5.335   5.615   6.746
 2699WAT     H211503   5.382   5.653   6.623
 2699WAT    EPW11504   5.367   5.668   6.699
 2700WAT      O11505   5.408   5.540   5.215
 2700WAT     H111506   5.388   5.483   5.277
 2700WAT     H211507   5.365   5.510   5.145
 2700WAT    EPW11508   5.399   5.527   5.214
 2701WAT      O11509   5.405   5.827   5.910
 2701WAT     H111510   5.377   5.827   5.827
 2701WAT     H211511   5.431   5.745   5.923
 2701WAT    EPW11512   5.405   5.815   5.900
 2702WAT      O11513   5.467   5.754   6.251
 2702WAT     H111514   5.494   5.711   6.179
 2702WAT     H211515   5.415   5.816   6.219
 2702WAT    EPW11516   5.463   5.757   6.236
 2703WAT      O11517   6.499   5.551   6.018
 2703WAT     H111518   6.433   5.579   6.068
 2703WAT     H211519   6.496   5.605   5.949
 2703WAT    EPW11520   6.489   5.563   6.015
 2704WAT      O11521   5.840   6.665   6.142
 2704WAT     H111522   5.797   6.596   6.109
 2704WAT     H211523   5.832   6.725   6.080
 2704WAT    EPW11524   5.833   6.663   6.128
 2705WAT      O11525   6.068   5.111   6.379
 2705WAT     H111526   6.083   5.027   6.359
 2705WAT     H211527   6.097   5.118   6.460
 2705WAT    EPW11528   6.074   5.100   6.388
 2706WAT      O11529   6.304   5.306   5.382
 2706WAT     H111530   6.361   5.372   5.391
 2706WAT     H211531   6.228   5.346   5.371
 2706WAT    EPW11532   6.301   5.322   5.381
 2707WAT      O11533   5.249   5.920   6.781
 2707WAT     H111534   5.241   5.967   6.709
 2707WAT     H211535   5.292   5.849   6.755
 2707WAT    EPW11536   5.254   5.917   6.767
 2708WAT      O11537   6.395   6.109   6.643
 2708WAT     H111538   6.422   6.188   6.619
 2708WAT     H211539   6.425   6.056   6.581
 2708WAT    EPW11540   6.403   6.113   6.630
 2709WAT      O11541   5.818   6.441   6.669
 2709WAT     H111542   5.850   6.436   6.750
 2709WAT     H211543   5.791   6.359   6.653
 2709WAT    EPW11544   5.819   6.428   6.679
 2710WAT      O11545   5.889   5.457   5.998
 2710WAT     H111546   5.956   5.513   6.000
 2710WAT     H211547   5.923   5.384   6.031
 2710WAT    EPW11548   5.904   5.454   6.003
 2711WAT      O11549   6.132   5.748   5.212
 2711WAT     H111550   6.110   5.800   5.145
 2711WAT     H211551   6.071   5.764   5.271
 2711WAT    EPW11552   6.120   5.758   5.211
 2712WAT      O11553   6.687   6.075   5.631
 2712WAT     H111554   6.688   6.025   5.703
 2712WAT     H211555   6.658   6.021   5.569
 2712WAT    EPW11556   6.683   6.059   5.633
 2713WAT      O11557   6.257   6.490   5.971
 2713WAT     H111558   6.192   6.472   5.916
 2713WAT     H211559   6.298   6.556   5.933
 2713WAT    EPW11560   6.253   6.497   5.957
 2714WAT      O11561   6.252   6.136   5.952
 2714WAT     H111562   6.178   6.169   5.982
 2714WAT     H211563   6.283   6.089   6.019
 2714WAT    EPW11564   6.246   6.134   5.966
 2715WAT      O11565   5.634   6.631   5.339
 2715WAT     H111566   5.643   6.552   5.376
 2715WAT     H211567   5.706   6.639   5.291
 2715WAT    EPW11568   5.646   6.620   5.337
 2716WAT      O11569   5.591   4.973   5.125
 2716WAT     H111570   5.579   4.939   5.204
 2716WAT     H211571   5.539   5.043   5.125
 2716WAT    EPW11572   5.581   4.979   5.136
 2717WAT      O11573   5.872   6.637   5.199
 2717WAT     H111574   5.929   6.642   5.265
 2717WAT     H211575   5.877   6.716   5.162
 2717WAT    EPW11576   5.881   6.650   5.204
 2718WAT      O11577   6.479   5.957   6.428
 2718WAT     H111578   6.445   5.995   6.357
 2718WAT     H211579   6.564   5.975   6.422
 2718WAT    EPW11580   6.486   5.965   6.417
 2719WAT      O11581   6.187   6.539   6.845
 2719WAT     H111582   6.214   6.559   6.925
 2719WAT     H211583   6.218   6.604   6.796
 2719WAT    EPW11584   6.196   6.552   6.849
 2720WAT      O11585   6.610   5.065   6.681
 2720WAT     H111586   6.573   5.020   6.616
 2720WAT     H211587   6.612   5.007   6.747
 2720WAT    EPW11588   6.605   5.050   6.681
 2721WAT      O11589   5.428   5.817   5.239
 2721WAT     H111590   5.414   5.731   5.245
 2721WAT     H211591   5.500   5.829   5.287
 2721WAT    EPW11592   5.437   5.806   5.247
 2722WAT      O11593   6.122   5.965   6.308
 2722WAT     H111594   6.071   6.004   6.367
 2722WAT     H211595   6.152   5.895   6.351
 2722WAT    EPW11596   6.119   5.961   6.323
 2723WAT      O11597   4.953   4.946   5.364
 2723WAT     H111598   4.979   4.881   5.312
 2723WAT     H211599   4.913   4.905   5.429
 2723WAT    EPW11600   4.951   4.930   5.366
 2724WAT      O11601   5.958   5.794   5.429
 2724WAT     H111602   5.984   5.856   5.484
 2724WAT     H211603   5.959   5.722   5.478
 2724WAT    EPW11604   5.962   5.792   5.444
 2725WAT      O11605   6.511   6.265   5.964
 2725WAT     H111606   6.528   6.283   5.880
 2725WAT     H211607   6.428   6.237   5.961
 2725WAT    EPW11608   6.501   6.263   5.951
 2726WAT      O11609   5.451   5.209   5.106
 2726WAT     H111610   5.391   5.200   5.043
 2726WAT     H211611   5.515   5.253   5.067
 2726WAT    EPW11612   5.452   5.215   5.091
 2727WAT      O11613   5.905   6.032   5.838
 2727WAT     H111614   5.823   6.005   5.848
 2727WAT     H211615   5.946   5.997   5.907
 2727WAT    EPW11616   5.899   6.023   5.850
 2728WAT      O11617   5.577   6.619   4.957
 2728WAT     H111618   5.603   6.551   5.005
 2728WAT     H211619   5.581   6.686   5.013
 2728WAT    EPW11620   5.582   6.619   4.972
 2729WAT      O11621   5.311   5.954   6.138
 2729WAT     H111622   5.364   6.023   6.133
 2729WAT     H211623   5.319   5.917   6.059
 2729WAT    EPW11624   5.320   5.959   6.126
 2730WAT      O11625   5.600   5.474   5.755
 2730WAT     H111626   5.677   5.435   5.745
 2730WAT     H211627   5.542   5.409   5.750
 2730WAT    EPW11628   5.603   5.459   5.753
 2731WAT      O11629   6.853   6.656   5.170
 2731WAT     H111630   6.916   6.605   5.138
 2731WAT     H211631   6.804   6.600   5.216
 2731WAT    EPW11632   6.855   6.640   5.172
 2732WAT      O11633   5.111   5.579   5.394
 2732WAT     H111634   5.137   5.538   5.467
 2732WAT     H211635   5.104   5.514   5.336
 2732WAT    EPW11636   5.114   5.563   5.396
 2733WAT      O11637   6.595   5.902   6.125
 2733WAT     H111638   6.598   5.832   6.177
 2733WAT     H211639   6.516   5.936   6.141
 2733WAT    EPW11640   6.583   5.897   6.135
 2734WAT      O11641   5.559   5.760   4.984
 2734WAT     H111642   5.510   5.768   5.056
 2734WAT     H211643   5.505   5.726   4.926
 2734WAT    EPW11644   5.544   5.756   4.986
 2735WAT      O11645   5.223   6.054   6.539
 2735WAT     H111646   5.191   6.004   6.475
 2735WAT     H211647   5.199   6.134   6.516
 2735WAT    EPW11648   5.215   6.058   6.526
 2736WAT      O11649   6.699   5.910   5.862
 2736WAT     H111650   6.667   5.913   5.944
 2736WAT     H211651   6.785   5.904   5.874
 2736WAT    EPW11652   6.707   5.909   5.876
 2737WAT      O11653   5.684   5.582   5.225
 2737WAT     H111654   5.691   5.658   5.267
 2737WAT     H211655   5.598   5.567   5.223
 2737WAT    EPW11656   5.673   5.591   5.231
 2738WAT      O11657   6.489   5.321   6.660
 2738WAT     H111658   6.420   5.323   6.712
 2738WAT     H211659   6.518   5.239   6.668
 2738WAT    EPW11660   6.483   5.309   6.669
 2739WAT      O11661   5.052   5.247   5.887
 2739WAT     H111662   5.020   5.232   5.807
 2739WAT     H211663   5.128   5.204   5.887
 2739WAT    EPW11664   5.058   5.239   5.875
 2740WAT      O11665   6.837   6.422   5.946
 2740WAT     H111666   6.880   6.463   5.882
 2740WAT     H211667   6.897   6.412   6.008
 2740WAT    EPW11668   6.852   6.427   5.946
 2741WAT      O11669   6.351   5.654   6.743
 2741WAT     H111670   6.378   5.676   6.823
 2741WAT     H211671   6.269   5.685   6.739
 2741WAT    EPW11672   6.343   5.662   6.754
 2742WAT      O11673   6.580   5.711   6.594
 2742WAT     H111674   6.597   5.793   6.619
 2742WAT     H211675   6.508   5.690   6.639
 2742WAT    EPW11676   6.572   5.720   6.605
 2743WAT      O11677   6.537   6.329   5.167
 2743WAT     H111678   6.573   6.250   5.175
 2743WAT     H211679   6.461   6.322   5.209
 2743WAT    EPW11680   6.531   6.316   5.174
 2744WAT      O11681   6.604   5.466   5.661
 2744WAT     H111682   6.536   5.421   5.690
 2744WAT     H211683   6.596   5.543   5.701
 2744WAT    EPW11684   6.593   5.471   5.671
 2745WAT      O11685   6.882   5.795   6.778
 2745WAT     H111686   6.889   5.739   6.711
 2745WAT     H211687   6.962   5.830   6.783
 2745WAT    EPW11688   6.895   5.792   6.769
 2746WAT      O11689   6.745   6.044   6.413
 2746WAT     H111690   6.811   5.995   6.384
 2746WAT     H211691   6.734   6.103   6.349
 2746WAT    EPW11692   6.753   6.046   6.399
 2747WAT      O11693   6.212   6.147   5.087
 2747WAT     H111694   6.286   6.102   5.079
 2747WAT     H211695   6.180   6.148   5.006
 2747WAT    EPW11696   6.218   6.141   5.074
 2748WAT      O11697   5.755   6.233   6.187
 2748WAT     H111698   5.741   6.276   6.261
 2748WAT     H211699   5.744   6.294   6.125
 2748WAT    EPW11700   5.752   6.249   6.189
 2749WAT      O11701   5.496   6.109   6.504
 2749WAT     H111702   5.416   6.078   6.520
 2749WAT     H211703   5.484   6.195   6.497
 2749WAT    EPW11704   5.483   6.117   6.505
 2750WAT      O11705   6.445   5.173   6.324
 2750WAT     H111706   6.506   5.234   6.335
 2750WAT     H211707   6.372   5.218   6.314
 2750WAT    EPW11708   6.443   5.188   6.324
 2751WAT      O11709   5.996   5.890   6.069
 2751WAT     H111710   6.047   5.919   6.133
 2751WAT     H211711   5.915   5.893   6.103
 2751WAT    EPW11712   5.991   5.894   6.084
 2752WAT      O11713   5.666   5.466   6.466
 2752WAT     H111714   5.682   5.384   6.490
 2752WAT     H211715   5.684   5.466   6.381
 2752WAT    EPW11716   5.671   5.454   6.457
 2753WAT      O11717   5.896   6.664   5.668
 2753WAT     H111718   5.901   6.750   5.682
 2753WAT     H211719   5.915   6.657   5.583
 2753WAT    EPW11720   5.900   6.676   5.657
 2754WAT      O11721   6.497   4.966   6.140
 2754WAT     H111722   6.476   5.040   6.181
 2754WAT     H211723   6.581   4.954   6.160
 2754WAT    EPW11724   6.506   4.975   6.149
 2755WAT      O11725   5.791   5.066   6.334
 2755WAT     H111726   5.875   5.089   6.327
 2755WAT     H211727   5.790   4.985   6.301
 2755WAT    EPW11728   5.804   5.057   6.328
 2756WAT      O11729   5.699   6.450   6.024
 2756WAT     H111730   5.618   6.469   5.996
 2756WAT     H211731   5.738   6.416   5.954
 2756WAT    EPW11732   5.693   6.448   6.010
 2757WAT      O11733   6.128   6.101   6.712
 2757WAT     H111734   6.210   6.105   6.681
 2757WAT     H211735   6.079   6.117   6.642
 2757WAT    EPW11736   6.133   6.104   6.697
 2758WAT      O11737   6.468   6.370   6.576
 2758WAT     H111738   6.506   6.395   6.651
 2758WAT     H211739   6.516   6.409   6.515
 2758WAT    EPW11740   6.481   6.379   6.578
 2759WAT      O11741   6.725   5.642   5.062
 2759WAT     H111742   6.771   5.698   5.012
 2759WAT     H211743   6.645   5.676   5.062
 2759WAT    EPW11744   6.720   5.656   5.055
 2760WAT      O11745   5.784   5.907   5.059
 2760WAT     H111746   5.721   5.860   5.021
 2760WAT     H211747   5.759   5.990   5.043
 2760WAT    EPW11748   5.771   5.912   5.051
 2761WAT      O11749   5.522   5.585   5.998
 2761WAT     H111750   5.550   5.553   5.921
 2761WAT     H211751   5.576   5.549   6.056
 2761WAT    EPW11752   5.534   5.575   5.995
 2762WAT      O11753   6.223   5.505   6.532
 2762WAT     H111754   6.157   5.550   6.567
 2762WAT     H211755   6.283   5.504   6.596
 2762WAT    EPW11756   6.222   5.512   6.547
 2763WAT      O11757   6.273   5.582   6.175
 2763WAT     H111758   6.279   5.636   6.243
 2763WAT     H211759   6.257   5.504   6.212
 2763WAT    EPW11760   6.271   5.578   6.190
 2764WAT      O11761   5.981   6.656   6.586
 2764WAT     H111762   5.992   6.653   6.500
 2764WAT     H211763   5.941   6.581   6.605
 2764WAT    EPW11764   5.977   6.645   6.576
 2765WAT      O11765   6.486   5.524   5.417
 2765WAT     H111766   6.514   5.501   5.496
 2765WAT     H211767   6.557   5.558   5.379
 2765WAT    EPW11768   6.501   5.525   5.423
 2766WAT      O11769   5.767   5.026   5.979
 2766WAT     H111770   5.681   5.019   5.996
 2766WAT     H211771   5.771   5.033   5.893
 2766WAT    EPW11772   5.755   5.026   5.969
 2767WAT      O11773   6.621   5.096   5.594
 2767WAT     H111774   6.544   5.059   5.610
 2767WAT     H211775   6.618   5.114   5.509
 2767WAT    EPW11776   6.609   5.093   5.584
 2768WAT      O11777   6.610   5.922   5.405
 2768WAT     H111778   6.653   5.848   5.392
 2768WAT     H211779   6.527   5.900   5.394
 2768WAT    EPW11780   6.604   5.908   5.402
 2769WAT      O11781   5.964   6.128   6.485
 2769WAT     H111782   5.890   6.130   6.532
 2769WAT     H211783   5.970   6.208   6.452
 2769WAT    EPW11784   5.954   6.140   6.487
 2770WAT      O11785   5.040   5.113   6.680
 2770WAT     H111786   5.034   5.184   6.629
 2770WAT     H211787   4.966   5.070   6.663
 2770WAT    EPW11788   5.028   5.117   6.670
 2771WAT      O11789   5.538   6.773   6.067
 2771WAT     H111790   5.544   6.739   6.147
 2771WAT     H211791   5.522   6.704   6.016
 2771WAT    EPW11792   5.536   6.758   6.072
 2772WAT      O11793   5.345   5.293   5.350
 2772WAT     H111794   5.367   5.263   5.271
 2772WAT     H211795   5.265   5.261   5.363
 2772WAT    EPW11796   5.337   5.284   5.340
 2773WAT      O11797   6.287   6.097   5.678
 2773WAT     H111798   6.272   6.107   5.764
 2773WAT     H211799   6.313   6.014   5.671
 2773WAT    EPW11800   6.288   6.086   5.690
 2774WAT      O11801   6.033   6.011   5.592
 2774WAT     H111802   5.990   6.013   5.667
 2774WAT     H211803   6.113   6.041   5.613
 2774WAT    EPW11804   6.039   6.016   5.606
 2775WAT      O11805   5.994   6.398   6.398
 2775WAT     H111806   6.054   6.398   6.462
 2775WAT     H211807   6.014   6.469   6.351
 2775WAT    EPW11808   6.006   6.409   6.400
 2776WAT      O11809   6.842   5.617   6.568
 2776WAT     H111810   6.757   5.633   6.574
 2776WAT     H211811   6.859   5.629   6.483
 2776WAT    EPW11812   6.832   5.621   6.556
 2777WAT      O11813   6.279   5.751   6.396
 2777WAT     H111814   6.271   5.685   6.453
 2777WAT     H211815   6.353   5.789   6.419
 2777WAT    EPW11816   6.289   5.746   6.408
 2778WAT      O11817   5.181   6.737   6.601
 2778WAT     H111818   5.129   6.667   6.599
 2778WAT     H211819   5.130   6.800   6.633
 2778WAT    EPW11820   5.166   6.736   6.605
 2779WAT      O11821   6.053   5.876   6.856
 2779WAT     H111822   6.078   5.948   6.813
 2779WAT     H211823   5.972   5.895   6.881
 2779WAT    EPW11824   6.045   5.890   6.853
 2780WAT      O11825   6.366   6.738   5.901
 2780WAT     H111826   6.307   6.799   5.922
 2780WAT     H211827   6.429   6.750   5.961
 2780WAT    EPW11828   6.367   6.749   5.913
 2781WAT      O11829   6.037   6.233   6.107
 2781WAT     H111830   5.956   6.230   6.139
 2781WAT     H211831   6.084   6.267   6.173
 2781WAT    EPW11832   6.032   6.238   6.121
 2782WAT      O11833   6.601   6.437   6.811
 2782WAT     H111834   6.681   6.403   6.809
 2782WAT     H211835   6.566   6.403   6.884
 2782WAT    EPW11836   6.608   6.427   6.821
 2783WAT      O11837   5.410   5.571   6.451
 2783WAT     H111838   5.423   5.631   6.389
 2783WAT     H211839   5.488   5.534   6.461
 2783WAT    EPW11840   5.424   5.575   6.444
 2784WAT      O11841   5.225   5.407   6.331
 2784WAT     H111842   5.237   5.423   6.247
 2784WAT     H211843   5.287   5.454   6.371
 2784WAT    EPW11844   5.236   5.416   6.325
 2785WAT      O11845   6.710   5.672   5.339
 2785WAT     H111846   6.726   5.668   5.254
 2785WAT     H211847   6.784   5.644   5.375
 2785WAT    EPW11848   6.723   5.667   5.332
 2786WAT      O11849   5.469   5.074   6.588
 2786WAT     H111850   5.500   4.993   6.580
 2786WAT     H211851   5.434   5.091   6.510
 2786WAT    EPW11852   5.468   5.065   6.575
 2787WAT      O11853   6.111   6.380   5.506
 2787WAT     H111854   6.088   6.459   5.477
 2787WAT     H211855   6.040   6.331   5.489
 2787WAT    EPW11856   6.097   6.384   5.499
 2788WAT      O11857   6.591   5.676   6.313
 2788WAT     H111858   6.592   5.589   6.315
 2788WAT     H211859   6.584   5.698   6.397
 2788WAT    EPW11860   6.590   5.666   6.326
 2789WAT      O11861   5.119   5.904   6.330
 2789WAT     H111862   5.172   5.924   6.264
 2789WAT     H211863   5.107   5.818   6.321
 2789WAT    EPW11864   5.125   5.894   6.319
 2790WAT      O11865   5.246   5.453   4.999
 2790WAT     H111866   5.177   5.442   5.051
 2790WAT     H211867   5.252   5.377   4.956
 2790WAT    EPW11868   5.237   5.440   5.000
 2791WAT      O11869   6.150   5.137   6.645
 2791WAT     H111870   6.183   5.200   6.696
 2791WAT     H211871   6.071   5.123   6.679
 2791WAT    EPW11872   6.143   5.144   6.657
 2792WAT      O11873   6.121   5.225   5.731
 2792WAT     H111874   6.043   5.264   5.727
 2792WAT     H211875   6.116   5.162   5.672
 2792WAT    EPW11876   6.109   5.222   5.722
 2793WAT      O11877   5.611   6.387   5.126
 2793WAT     H111878   5.644   6.384   5.206
 2793WAT     H211879   5.529   6.362   5.137
 2793WAT    EPW11880   5.604   6.383   5.139
 2794WAT      O11881   6.446   5.279   6.000
 2794WAT     H111882   6.523   5.244   6.021
 2794WAT     H211883   6.457   5.364   6.018
 2794WAT    EPW11884   6.459   5.286   6.006
 2795WAT      O11885   5.642   5.874   6.433
 2795WAT     H111886   5.599   5.946   6.458
 2795WAT     H211887   5.584   5.833   6.382
 2795WAT    EPW11888   5.627   5.878   6.429
 2796WAT      O11889   6.535   5.704   5.785
 2796WAT     H111890   6.592   5.767   5.806
 2796WAT     H211891   6.476   5.746   5.736
 2796WAT    EPW11892   6.534   5.720   5.781
 2797WAT      O11893   6.533   6.537   5.550
 2797WAT     H111894   6.522   6.460   5.590
 2797WAT     H211895   6.571   6.515   5.474
 2797WAT    EPW11896   6.537   6.522   5.545
 2798WAT      O11897   5.359   6.290   5.165
 2798WAT     H111898   5.361   6.270   5.250
 2798WAT     H211899   5.362   6.213   5.126
 2798WAT    EPW11900   5.359   6.276   5.172
 2799WAT      O11901   5.649   6.143   4.991
 2799WAT     H111902   5.570   6.111   5.007
 2799WAT     H211903   5.651   6.218   5.034
 2799WAT    EPW11904   5.638   6.149   4.999
 2800WAT      O11905   5.593   5.222   6.214
 2800WAT     H111906   5.519   5.192   6.249
 2800WAT     H211907   5.653   5.166   6.244
 2800WAT    EPW11908   5.591   5.210   6.224
 2801WAT      O11909   6.744   5.016   6.275
 2801WAT     H111910   6.709   5.008   6.355
 2801WAT     H211911   6.827   4.991   6.286
 2801WAT    EPW11912   6.751   5.011   6.289
 2802WAT      O11913   5.958   5.206   6.085
 2802WAT     H111914   5.900   5.149   6.054
 2802WAT     H211915   6.035   5.171   6.062
 2802WAT    EPW11916   5.961   5.193   6.077
 2803WAT      O11917   6.299   6.330   6.205
 2803WAT     H111918   6.320   6.401   6.252
 2803WAT     H211919   6.290   6.362   6.124
 2803WAT    EPW11920   6.301   6.345   6.200
 2804WAT      O11921   6.259   6.719   6.636
 2804WAT     H111922   6.189   6.676   6.606
 2804WAT     H211923   6.230   6.800   6.649
 2804WAT    EPW11924   6.245   6.724   6.634
 2805WAT      O11925   5.781   5.682   6.597
 2805WAT     H111926   5.747   5.613   6.555
 2805WAT     H211927   5.742   5.750   6.558
 2805WAT    EPW11928   5.770   5.682   6.585
 2806WAT      O11929   5.858   5.033   5.091
 2806WAT     H111930   5.870   5.038   5.005
 2806WAT     H211931   5.771   5.026   5.099
 2806WAT    EPW11932   5.847   5.032   5.080
 2807WAT      O11933   6.714   6.160   6.153
 2807WAT     H111934   6.692   6.077   6.139
 2807WAT     H211935   6.661   6.205   6.100
 2807WAT    EPW11936   6.703   6.155   6.143
 2808WAT      O11937   5.621   6.633   6.605
 2808WAT     H111938   5.605   6.653   6.688
 2808WAT     H211939   5.684   6.573   6.610
 2808WAT    EPW11940   5.628   6.627   6.618
 2809WAT      O11941   6.617   6.477   6.122
 2809WAT     H111942   6.688   6.477   6.071
 2809WAT     H211943   6.563   6.422   6.083
 2809WAT    EPW11944   6.620   6.469   6.109
 2810WAT      O11945   5.355   5.156   6.348
 2810WAT     H111946   5.298   5.093   6.328
 2810WAT     H211947   5.308   5.229   6.341
 2810WAT    EPW11948   5.339   5.157   6.344
 2811WAT      O11949   6.205   5.125   5.976
 2811WAT     H111950   6.274   5.174   5.997
 2811WAT     H211951   6.179   5.158   5.900
 2811WAT    EPW11952   6.212   5.137   5.968
 2812WAT      O11953   5.341   6.536   6.741
 2812WAT     H111954   5.412   6.569   6.779
 2812WAT     H211955   5.304   6.605   6.702
 2812WAT    EPW11956   5.346   6.551   6.741
 2813WAT      O11957   6.202   5.603   5.725
 2813WAT     H111958   6.257   5.536   5.737
 2813WAT     H211959   6.169   5.617   5.804
 2813WAT    EPW11960   6.206   5.595   5.738
 2814WAT      O11961   5.218   5.495   5.645
 2814WAT     H111962   5.178   5.528   5.715
 2814WAT     H211963   5.257   5.423   5.675
 2814WAT    EPW11964   5.218   5.489   5.659
 2815WAT      O11965   5.176   6.317   6.449
 2815WAT     H111966   5.132   6.375   6.497
 2815WAT     H211967   5.259   6.344   6.456
 2815WAT    EPW11968   5.181   6.330   6.457
 2816WAT      O11969   6.368   5.768   5.357
 2816WAT     H111970   6.390   5.686   5.376
 2816WAT     H211971   6.291   5.760   5.317
 2816WAT    EPW11972   6.360   5.755   5.354
 2817WAT      O11973   5.355   6.631   5.320
 2817WAT     H111974   5.321   6.602   5.245
 2817WAT     H211975   5.440   6.615   5.311
 2817WAT    EPW11976   5.363   6.624   5.307
 2818WAT      O11977   5.708   5.850   5.322
 2818WAT     H111978   5.735   5.878   5.243
 2818WAT     H211979   5.783   5.832   5.363
 2818WAT    EPW11980   5.723   5.851   5.316
 2819WAT      O11981   6.638   6.708   5.003
 2819WAT     H111982   6.711   6.698   5.050
 2819WAT     H211983   6.621   6.628   4.973
 2819WAT    EPW11984   6.646   6.695   5.005
 2820WAT      O11985   6.680   5.959   6.679
 2820WAT     H111986   6.750   5.921   6.714
 2820WAT     H211987   6.711   5.999   6.608
 2820WAT    EPW11988   6.695   5.959   6.674
 2821WAT      O11989   6.291   6.329   5.291
 2821WAT     H111990   6.244   6.325   5.365
 2821WAT     H211991   6.250   6.274   5.238
 2821WAT    EPW11992   6.278   6.320   5.294
 2822WAT      O11993   6.717   5.410   6.786
 2822WAT     H111994   6.706   5.490   6.820
 2822WAT     H211995   6.641   5.394   6.746
 2822WAT    EPW11996   6.704   5.419   6.785
 2823WAT      O11997   6.763   5.509   6.091
 2823WAT     H111998   6.681   5.533   6.073
 2823WAT     H211999   6.758   5.423   6.098
 2823WAT    EPW12000   6.750   5.500   6.089
 2824WAT      O12001   5.710   5.201   6.564
 2824WAT     H112002   5.739   5.164   6.490
 2824WAT     H212003   5.631   5.166   6.575
 2824WAT    EPW12004   5.703   5.191   6.555
 2825WAT      O12005   6.446   6.016   6.905
 2825WAT     H112006   6.523   6.042   6.936
 2825WAT     H212007   6.449   6.039   6.821
 2825WAT    EPW12008   6.458   6.023   6.897
 2826WAT      O12009   5.419   6.509   5.971
 2826WAT     H112010   5.393   6.432   5.940
 2826WAT     H212011   5.386   6.567   5.914
 2826WAT    EPW12012   5.410   6.506   5.958
 2827WAT      O12013   5.951   6.192   5.176
 2827WAT     H112014   6.030   6.164   5.152
 2827WAT     H212015   5.938   6.262   5.126
 2827WAT    EPW12016   5.961   6.198   5.165
 2828WAT      O12017   5.150   6.778   6.320
 2828WAT     H112018   5.163   6.761   6.405
 2828WAT     H212019   5.192   6.713   6.280
 2828WAT    EPW12020   5.158   6.766   6.327
 2829WAT      O12021   6.121   5.038   3.645
 2829WAT     H112022   6.114   5.078   3.567
 2829WAT     H212023   6.206   5.019   3.650
 2829WAT    EPW12024   6.133   5.041   3.634
 2830WAT      O12025   6.066   5.633   4.084
 2830WAT     H112026   6.032   5.709   4.109
 2830WAT     H212027   6.126   5.616   4.145
 2830WAT    EPW12028   6.070   5.642   4.097
 2831WAT      O12029   5.059   6.114   3.615
 2831WAT     H112030   5.067   6.119   3.702
 2831WAT     H212031   5.061   6.028   3.599
 2831WAT    EPW12032   5.060   6.102   3.625
 2832WAT      O12033   6.689   6.480   3.406
 2832WAT     H112034   6.757   6.428   3.423
 2832WAT     H212035   6.637   6.430   3.356
 2832WAT    EPW12036   6.691   6.465   3.401
 2833WAT      O12037   5.040   5.405   3.287
 2833WAT     H112038   4.981   5.371   3.233
 2833WAT     H212039   5.046   5.345   3.351
 2833WAT    EPW12040   5.033   5.391   3.288
 2834WAT      O12041   5.406   6.032   3.181
 2834WAT     H112042   5.363   5.998   3.114
 2834WAT     H212043   5.397   5.972   3.244
 2834WAT    EPW12044   5.398   6.018   3.181
 2835WAT      O12045   6.330   5.821   3.723
 2835WAT     H112046   6.339   5.805   3.638
 2835WAT     H212047   6.275   5.760   3.751
 2835WAT    EPW12048   6.323   5.810   3.715
 2836WAT      O12049   5.310   6.218   3.563
 2836WAT     H112050   5.362   6.177   3.619
 2836WAT     H212051   5.232   6.181   3.575
 2836WAT    EPW12052   5.306   6.207   3.573
 2837WAT      O12053   5.735   5.115   3.549
 2837WAT     H112054   5.750   5.187   3.503
 2837WAT     H212055   5.757   5.050   3.494
 2837WAT    EPW12056   5.740   5.116   3.534
 2838WAT      O12057   5.167   6.467   3.159
 2838WAT     H112058   5.222   6.486   3.094
 2838WAT     H212059   5.212   6.408   3.206
 2838WAT    EPW12060   5.182   6.461   3.156
 2839WAT      O12061   5.054   6.328   4.287
 2839WAT     H112062   5.088   6.305   4.364
 2839WAT     H212063   4.990   6.270   4.275
 2839WAT    EPW12064   5.050   6.316   4.297
 2840WAT      O12065   5.729   6.171   4.726
 2840WAT     H112066   5.711   6.156   4.810
 2840WAT     H212067   5.657   6.147   4.684
 2840WAT    EPW12068   5.716   6.165   4.732
 2841WAT      O12069   5.255   5.841   3.756
 2841WAT     H112070   5.206   5.841   3.684
 2841WAT     H212071   5.294   5.763   3.754
 2841WAT    EPW12072   5.254   5.830   3.745
 2842WAT      O12073   5.664   5.449   4.311
 2842WAT     H112074   5.729   5.450   4.254
 2842WAT     H212075   5.643   5.365   4.317
 2842WAT    EPW12076   5.670   5.437   4.303
 2843WAT      O12077   5.719   6.443   4.471
 2843WAT     H112078   5.736   6.503   4.411
 2843WAT     H212079   5.798   6.417   4.498
 2843WAT    EPW12080   5.733   6.448   4.466
 2844WAT      O12081   5.372   5.593   3.763
 2844WAT     H112082   5.431   5.534   3.788
 2844WAT     H212083   5.300   5.545   3.749
 2844WAT    EPW12084   5.370   5.577   3.764
 2845WAT      O12085   5.843   6.274   3.895
 2845WAT     H112086   5.871   6.195   3.917
 2845WAT     H212087   5.916   6.322   3.895
 2845WAT    EPW12088   5.858   6.270   3.898
 2846WAT      O12089   5.933   6.235   3.539
 2846WAT     H112090   5.956   6.166   3.586
 2846WAT     H212091   5.971   6.221   3.462
 2846WAT    EPW12092   5.942   6.223   3.534
 2847WAT      O12093   6.024   5.692   4.747
 2847WAT     H112094   5.940   5.689   4.725
 2847WAT     H212095   6.024   5.744   4.818
 2847WAT    EPW12096   6.011   5.699   4.754
 2848WAT      O12097   5.469   5.134   3.633
 2848WAT     H112098   5.435   5.194   3.580
 2848WAT     H212099   5.553   5.131   3.609
 2848WAT    EPW12100   5.476   5.142   3.622
 2849WAT      O12101   6.522   4.942   4.563
 2849WAT     H112102   6.489   5.010   4.519
 2849WAT     H212103   6.454   4.913   4.609
 2849WAT    EPW12104   6.507   4.948   4.563
 2850WAT      O12105   5.805   5.070   3.819
 2850WAT     H112106   5.816   5.153   3.845
 2850WAT     H212107   5.781   5.079   3.735
 2850WAT    EPW12108   5.803   5.084   3.810
 2851WAT      O12109   6.243   5.333   3.028
 2851WAT     H112110   6.200   5.398   3.068
 2851WAT     H212111   6.263   5.279   3.093
 2851WAT    EPW12112   6.240   5.335   3.043
 2852WAT      O12113   5.032   5.536   3.992
 2852WAT     H112114   5.026   5.622   4.003
 2852WAT     H212115   4.957   5.505   4.026
 2852WAT    EPW12116   5.020   5.544   3.999
 2853WAT      O12117   5.084   6.556   3.806
 2853WAT     H112118   5.011   6.593   3.775
 2853WAT     H212119   5.124   6.526   3.734
 2853WAT    EPW12120   5.079   6.557   3.791
 2854WAT      O12121   5.662   6.265   3.502
 2854WAT     H112122   5.631   6.277   3.583
 2854WAT     H212123   5.748   6.251   3.515
 2854WAT    EPW12124   5.670   6.265   3.516
 2855WAT      O12125   6.260   6.586   3.314
 2855WAT     H112126   6.331   6.636   3.320
 2855WAT     H212127   6.286   6.509   3.345
 2855WAT    EPW12128   6.275   6.582   3.320
 2856WAT      O12129   6.082   6.661   3.510
 2856WAT     H112130   6.114   6.735   3.541
 2856WAT     H212131   6.137   6.640   3.445
 2856WAT    EPW12132   6.095   6.669   3.505
 2857WAT      O12133   5.682   5.314   4.972
 2857WAT     H112134   5.689   5.281   4.892
 2857WAT     H212135   5.719   5.393   4.966
 2857WAT    EPW12136   5.688   5.321   4.959
 2858WAT      O12137   5.211   6.477   3.569
 2858WAT     H112138   5.258   6.404   3.580
 2858WAT     H212139   5.268   6.531   3.530
 2858WAT    EPW12140   5.227   6.474   3.564
 2859WAT      O12141   6.813   5.280   3.762
 2859WAT     H112142   6.764   5.352   3.768
 2859WAT     H212143   6.755   5.216   3.748
 2859WAT    EPW12144   6.797   5.281   3.761
 2860WAT      O12145   6.301   6.603   4.323
 2860WAT     H112146   6.366   6.660   4.314
 2860WAT     H212147   6.288   6.573   4.241
 2860WAT    EPW12148   6.308   6.607   4.309
 2861WAT      O12149   5.270   5.189   4.897
 2861WAT     H112150   5.192   5.156   4.876
 2861WAT     H212151   5.322   5.159   4.833
 2861WAT    EPW12152   5.266   5.180   4.884
 2862WAT      O12153   5.371   6.300   3.935
 2862WAT     H112154   5.434   6.292   3.876
 2862WAT     H212155   5.394   6.242   3.997
 2862WAT    EPW12156   5.384   6.290   3.936
 2863WAT      O12157   5.650   6.596   3.848
 2863WAT     H112158   5.728   6.620   3.818
 2863WAT     H212159   5.595   6.650   3.806
 2863WAT    EPW12160   5.653   6.607   3.837
 2864WAT      O12161   5.886   5.042   4.817
 2864WAT     H112162   5.879   4.969   4.770
 2864WAT     H212163   5.824   5.094   4.783
 2864WAT    EPW12164   5.876   5.039   4.805
 2865WAT      O12165   5.966   5.548   3.667
 2865WAT     H112166   5.996   5.504   3.598
 2865WAT     H212167   6.037   5.561   3.716
 2865WAT    EPW12168   5.981   5.544   3.664
 2866WAT      O12169   6.087   5.522   3.170
 2866WAT     H112170   6.108   5.602   3.197
 2866WAT     H212171   6.010   5.532   3.132
 2866WAT    EPW12172   6.079   5.535   3.168
 2867WAT      O12173   6.469   6.770   3.301
 2867WAT     H112174   6.517   6.749   3.231
 2867WAT     H212175   6.524   6.817   3.350
 2867WAT    EPW12176   6.484   6.774   3.298
 2868WAT      O12177   5.476   6.691   4.451
 2868WAT     H112178   5.526   6.675   4.521
 2868WAT     H212179   5.426   6.620   4.444
 2868WAT    EPW12180   5.476   6.678   4.461
 2869WAT      O12181   6.703   5.234   4.196
 2869WAT     H112182   6.769   5.228   4.139
 2869WAT     H212183   6.718   5.169   4.252
 2869WAT    EPW12184   6.715   5.223   4.196
 2870WAT      O12185   5.029   5.339   4.677
 2870WAT     H112186   4.998   5.417   4.700
 2870WAT     H212187   5.070   5.353   4.602
 2870WAT    EPW12188   5.030   5.352   4.670
 2871WAT      O12189   6.189   6.408   4.708
 2871WAT     H112190   6.183   6.431   4.792
 2871WAT     H212191   6.275   6.399   4.696
 2871WAT    EPW12192   6.201   6.410   4.719
 2872WAT      O12193   5.955   6.416   3.128
 2872WAT     H112194   5.926   6.471   3.188
 2872WAT     H212195   6.029   6.453   3.101
 2872WAT    EPW12196   5.962   6.430   3.133
 2873WAT      O12197   6.285   5.162   3.238
 2873WAT     H112198   6.340   5.094   3.244
 2873WAT     H212199   6.308   5.212   3.306
 2873WAT    EPW12200   6.297   5.160   3.249
 2874WAT      O12201   5.075   5.260   3.523
 2874WAT     H112202   5.011   5.202   3.539
 2874WAT     H212203   5.076   5.309   3.596
 2874WAT    EPW12204   5.065   5.259   3.536
 2875WAT      O12205   5.251   6.541   4.316
 2875WAT     H112206   5.192   6.478   4.306
 2875WAT     H212207   5.296   6.539   4.241
 2875WAT    EPW12208   5.249   6.531   4.304
 2876WAT      O12209   6.068   5.422   3.437
 2876WAT     H112210   6.037   5.341   3.428
 2876WAT     H212211   6.069   5.453   3.355
 2876WAT    EPW12212   6.064   5.415   3.423
 2877WAT      O12213   6.052   6.658   4.421
 2877WAT     H112214   6.130   6.645   4.384
 2877WAT     H212215   5.996   6.650   4.354
 2877WAT    EPW12216   6.055   6.655   4.405
 2878WAT      O12217   6.050   5.140   3.392
 2878WAT     H112218   5.983   5.102   3.352
 2878WAT     H212219   6.115   5.132   3.335
 2878WAT    EPW12220   6.050   5.133   3.378
 2879WAT      O12221   6.774   6.685   3.685
 2879WAT     H112222   6.735   6.760   3.706
 2879WAT     H212223   6.708   6.629   3.676
 2879WAT    EPW12224   6.759   6.688   3.687
 2880WAT      O12225   5.835   5.358   3.843
 2880WAT     H112226   5.859   5.422   3.789
 2880WAT     H212227   5.839   5.395   3.922
 2880WAT    EPW12228   5.839   5.373   3.847
 2881WAT      O12229   6.505   6.270   3.765
 2881WAT     H112230   6.567   6.210   3.752
 2881WAT     H212231   6.431   6.225   3.755
 2881WAT    EPW12232   6.503   6.255   3.762
 2882WAT      O12233   5.449   6.391   4.589
 2882WAT     H112234   5.528   6.419   4.566
 2882WAT     H212235   5.435   6.429   4.666
 2882WAT    EPW12236   5.459   6.401   4.597
 2883WAT      O12237   5.419   4.877   3.724
 2883WAT     H112238   5.436   4.957   3.695
 2883WAT     H212239   5.398   4.833   3.652
 2883WAT    EPW12240   5.418   4.882   3.709
 2884WAT      O12241   5.642   5.961   4.028
 2884WAT     H112242   5.666   5.949   4.111
 2884WAT     H212243   5.593   5.891   4.010
 2884WAT    EPW12244   5.638   5.949   4.037
 2885WAT      O12245   6.223   5.347   4.421
 2885WAT     H112246   6.219   5.390   4.497
 2885WAT     H212247   6.163   5.284   4.429
 2885WAT    EPW12248   6.214   5.344   4.433
 2886WAT      O12249   5.737   5.981   4.289
 2886WAT     H112250   5.714   6.065   4.296
 2886WAT     H212251   5.707   5.945   4.362
 2886WAT    EPW12252   5.729   5.988   4.300
 2887WAT      O12253   6.351   6.040   4.297
 2887WAT     H112254   6.275   6.012   4.330
 2887WAT     H212255   6.346   6.127   4.304
 2887WAT    EPW12256   6.339   6.049   4.303
 2888WAT      O12257   6.381   4.945   3.709
 2888WAT     H112258   6.372   4.939   3.795
 2888WAT     H212259   6.412   4.866   3.686
 2888WAT    EPW12260   6.384   4.932   3.718
 2889WAT      O12261   5.006   6.364   4.938
 2889WAT     H112262   5.065   6.411   4.982
 2889WAT     H212263   5.013   6.284   4.973
 2889WAT    EPW12264   5.016   6.359   4.950
 2890WAT      O12265   6.602   5.392   4.520
 2890WAT     H112266   6.684   5.372   4.540
 2890WAT     H212267   6.559   5.383   4.595
 2890WAT    EPW12268   6.608   5.388   4.534
 2891WAT      O12269   5.307   5.242   3.844
 2891WAT     H112270   5.339   5.183   3.789
 2891WAT     H212271   5.251   5.197   3.893
 2891WAT    EPW12272   5.303   5.227   3.843
 2892WAT      O12273   6.662   6.081   3.275
 2892WAT     H112274   6.660   6.035   3.349
 2892WAT     H212275   6.747   6.092   3.260
 2892WAT    EPW12276   6.674   6.076   3.284
 2893WAT      O12277   5.443   6.049   3.736
 2893WAT     H112278   5.496   6.016   3.676
 2893WAT     H212279   5.388   5.983   3.753
 2893WAT    EPW12280   5.442   6.034   3.729
 2894WAT      O12281   5.273   6.728   3.904
 2894WAT     H112282   5.208   6.681   3.871
 2894WAT     H212283   5.329   6.736   3.838
 2894WAT    EPW12284   5.272   6.722   3.890
 2895WAT      O12285   5.206   5.394   4.165
 2895WAT     H112286   5.287   5.423   4.150
 2895WAT     H212287   5.157   5.442   4.112
 2895WAT    EPW12288   5.211   5.405   4.155
 2896WAT      O12289   6.869   6.499   4.665
 2896WAT     H112290   6.791   6.508   4.626
 2896WAT     H212291   6.851   6.451   4.735
 2896WAT    EPW12292   6.855   6.493   4.670
 2897WAT      O12293   6.480   5.740   3.174
 2897WAT     H112294   6.477   5.824   3.148
 2897WAT     H212295   6.452   5.744   3.257
 2897WAT    EPW12296   6.475   5.753   3.183
 2898WAT      O12297   5.574   5.990   3.493
 2898WAT     H112298   5.598   6.073   3.482
 2898WAT     H212299   5.640   5.945   3.459
 2898WAT    EPW12300   5.587   5.996   3.486
 2899WAT      O12301   6.810   5.216   3.184
 2899WAT     H112302   6.841   5.144   3.145
 2899WAT     H212303   6.781   5.265   3.117
 2899WAT    EPW12304   6.810   5.213   3.168
 2900WAT      O12305   5.122   6.176   3.884
 2900WAT     H112306   5.070   6.235   3.921
 2900WAT     H212307   5.201   6.210   3.891
 2900WAT    EPW12308   5.126   6.190   3.891
 2901WAT      O12309   5.808   5.563   4.969
 2901WAT     H112310   5.763   5.591   5.038
 2901WAT     H212311   5.779   5.613   4.904
 2901WAT    EPW12312   5.797   5.574   4.970
 2902WAT      O12313   6.905   5.634   4.409
 2902WAT     H112314   6.962   5.569   4.410
 2902WAT     H212315   6.846   5.608   4.350
 2902WAT    EPW12316   6.904   5.621   4.401
 2903WAT      O12317   5.106   5.849   3.525
 2903WAT     H112318   5.070   5.771   3.513
 2903WAT     H212319   5.176   5.848   3.473
 2903WAT    EPW12320   5.111   5.837   3.515
 2904WAT      O12321   6.675   5.113   3.410
 2904WAT     H112322   6.746   5.070   3.438
 2904WAT     H212323   6.705   5.161   3.344
 2904WAT    EPW12324   6.690   5.114   3.404
 2905WAT      O12325   6.051   6.459   3.887
 2905WAT     H112326   6.008   6.533   3.868
 2905WAT     H212327   6.090   6.439   3.812
 2905WAT    EPW12328   6.050   6.467   3.873
 2906WAT      O12329   5.019   6.321   3.439
 2906WAT     H112330   5.078   6.377   3.469
 2906WAT     H212331   5.018   6.257   3.499
 2906WAT    EPW12332   5.027   6.320   3.452
 2907WAT      O12333   5.441   6.120   4.135
 2907WAT     H112334   5.492   6.163   4.191
 2907WAT     H212335   5.498   6.072   4.090
 2907WAT    EPW12336   5.457   6.119   4.137
 2908WAT      O12337   6.344   5.377   3.852
 2908WAT     H112338   6.373   5.343   3.927
 2908WAT     H212339   6.275   5.327   3.833
 2908WAT    EPW12340   6.338   5.365   3.861
 2909WAT      O12341   4.997   6.141   3.221
 2909WAT     H112342   5.069   6.093   3.217
 2909WAT     H212343   5.014   6.200   3.283
 2909WAT    EPW12344   5.010   6.142   3.230
 2910WAT      O12345   5.115   5.916   3.983
 2910WAT     H112346   5.163   5.881   3.919
 2910WAT     H212347   5.117   6.002   3.965
 2910WAT    EPW12348   5.123   5.924   3.971
 2911WAT      O12349   5.767   5.325   3.368
 2911WAT     H112350   5.757   5.296   3.286
 2911WAT     H212351   5.745   5.410   3.362
 2911WAT    EPW12352   5.762   5.334   3.355
 2912WAT      O12353   6.621   6.544   4.526
 2912WAT     H112354   6.578   6.617   4.546
 2912WAT     H212355   6.621   6.542   4.439
 2912WAT    EPW12356   6.615   6.554   4.516
 2913WAT      O12357   5.601   6.336   3.763
 2913WAT     H112358   5.609   6.421   3.781
 2913WAT     H212359   5.670   6.300   3.802
 2913WAT    EPW12360   5.613   6.343   3.771
 2914WAT      O12361   5.342   5.659   4.827
 2914WAT     H112362   5.307   5.594   4.874
 2914WAT     H212363   5.346   5.626   4.746
 2914WAT    EPW12364   5.338   5.644   4.822
 2915WAT      O12365   5.397   5.571   3.345
 2915WAT     H112366   5.381   5.506   3.401
 2915WAT     H212367   5.358   5.544   3.272
 2915WAT    EPW12368   5.389   5.557   3.343
 2916WAT      O12369   5.475   5.745   3.987
 2916WAT     H112370   5.446   5.713   3.911
 2916WAT     H212371   5.476   5.676   4.039
 2916WAT    EPW12372   5.471   5.730   3.983
 2917WAT      O12373   5.426   5.734   4.347
 2917WAT     H112374   5.445   5.677   4.285
 2917WAT     H212375   5.373   5.792   4.307
 2917WAT    EPW12376   5.421   5.734   4.332
 2918WAT      O12377   6.494   5.560   4.127
 2918WAT     H112378   6.424   5.583   4.174
 2918WAT     H212379   6.488   5.609   4.055
 2918WAT    EPW12380   6.482   5.570   4.123
 2919WAT      O12381   5.830   6.608   4.260
 2919WAT     H112382   5.805   6.548   4.201
 2919WAT     H212383   5.812   6.684   4.221
 2919WAT    EPW12384   5.823   6.610   4.245
 2920WAT      O12385   6.072   5.121   4.486
 2920WAT     H112386   6.079   5.038   4.460
 2920WAT     H212387   6.098   5.119   4.570
 2920WAT    EPW12388   6.077   5.109   4.495
 2921WAT      O12389   6.329   5.322   3.454
 2921WAT     H112390   6.387   5.385   3.472
 2921WAT     H212391   6.252   5.362   3.462
 2921WAT    EPW12392   6.326   5.337   3.458
 2922WAT      O12393   5.232   5.909   4.874
 2922WAT     H112394   5.230   5.951   4.798
 2922WAT     H212395   5.269   5.833   4.855
 2922WAT    EPW12396   5.237   5.904   4.860
 2923WAT      O12397   6.390   6.110   4.754
 2923WAT     H112398   6.418   6.190   4.731
 2923WAT     H212399   6.420   6.059   4.690
 2923WAT    EPW12400   6.399   6.114   4.741
 2924WAT      O12401   5.820   6.436   4.770
 2924WAT     H112402   5.847   6.430   4.853
 2924WAT     H212403   5.793   6.355   4.753
 2924WAT    EPW12404   5.820   6.423   4.780
 2925WAT      O12405   5.855   5.448   4.104
 2925WAT     H112406   5.923   5.502   4.106
 2925WAT     H212407   5.887   5.372   4.133
 2925WAT    EPW12408   5.870   5.445   4.109
 2926WAT      O12409   6.150   5.764   3.295
 2926WAT     H112410   6.150   5.841   3.253
 2926WAT     H212411   6.096   5.778   3.362
 2926WAT    EPW12412   6.142   5.777   3.299
 2927WAT      O12413   6.687   6.065   3.738
 2927WAT     H112414   6.684   6.012   3.807
 2927WAT     H212415   6.667   6.013   3.671
 2927WAT    EPW12416   6.683   6.050   3.739
 2928WAT      O12417   6.254   6.473   4.078
 2928WAT     H112418   6.186   6.465   4.024
 2928WAT     H212419   6.304   6.533   4.039
 2928WAT    EPW12420   6.251   6.481   4.064
 2929WAT      O12421   6.254   6.118   4.043
 2929WAT     H112422   6.180   6.151   4.075
 2929WAT     H212423   6.285   6.070   4.109
 2929WAT    EPW12424   6.248   6.116   4.057
 2930WAT      O12425   5.674   6.547   3.496
 2930WAT     H112426   5.680   6.460   3.508
 2930WAT     H212427   5.738   6.564   3.439
 2930WAT    EPW12428   5.684   6.536   3.490
 2931WAT      O12429   5.554   4.962   3.294
 2931WAT     H112430   5.511   4.932   3.364
 2931WAT     H212431   5.513   5.038   3.277
 2931WAT    EPW12432   5.541   4.969   3.302
 2932WAT      O12433   5.881   6.603   3.322
 2932WAT     H112434   5.942   6.626   3.380
 2932WAT     H212435   5.866   6.676   3.277
 2932WAT    EPW12436   5.888   6.617   3.324
 2933WAT      O12437   6.472   5.961   4.534
 2933WAT     H112438   6.438   5.993   4.460
 2933WAT     H212439   6.557   5.978   4.527
 2933WAT    EPW12440   6.479   5.968   4.522
 2934WAT      O12441   6.184   6.538   4.961
 2934WAT     H112442   6.210   6.559   5.042
 2934WAT     H212443   6.210   6.605   4.913
 2934WAT    EPW12444   6.191   6.551   4.966
 2935WAT      O12445   6.610   5.070   4.795
 2935WAT     H112446   6.584   5.027   4.723
 2935WAT     H212447   6.605   5.010   4.857
 2935WAT    EPW12448   6.605   5.055   4.793
 2936WAT      O12449   5.351   5.849   3.389
 2936WAT     H112450   5.371   5.765   3.381
 2936WAT     H212451   5.419   5.882   3.434
 2936WAT    EPW12452   5.364   5.842   3.394
 2937WAT      O12453   6.113   5.957   4.411
 2937WAT     H112454   6.068   5.998   4.474
 2937WAT     H212455   6.148   5.889   4.452
 2937WAT    EPW12456   6.112   5.953   4.427
 2938WAT      O12457   4.849   5.106   3.604
 2938WAT     H112458   4.862   5.036   3.653
 2938WAT     H212459   4.775   5.088   3.561
 2938WAT    EPW12460   4.840   5.093   3.605
 2939WAT      O12461   5.994   5.792   3.525
 2939WAT     H112462   6.006   5.858   3.581
 2939WAT     H212463   5.980   5.723   3.576
 2939WAT    EPW12464   5.994   5.792   3.541
 2940WAT      O12465   6.506   6.255   4.050
 2940WAT     H112466   6.522   6.266   3.965
 2940WAT     H212467   6.424   6.226   4.051
 2940WAT    EPW12468   6.496   6.252   4.037
 2941WAT      O12469   5.456   5.212   3.227
 2941WAT     H112470   5.401   5.206   3.160
 2941WAT     H212471   5.526   5.251   3.192
 2941WAT    EPW12472   5.458   5.217   3.212
 2942WAT      O12473   5.902   6.004   3.936
 2942WAT     H112474   5.818   5.986   3.950
 2942WAT     H212475   5.942   5.972   4.007
 2942WAT    EPW12476   5.895   5.997   3.949
 2943WAT      O12477   5.550   6.618   3.104
 2943WAT     H112478   5.572   6.544   3.145
 2943WAT     H212479   5.555   6.678   3.167
 2943WAT    EPW12480   5.554   6.616   3.119
 2944WAT      O12481   5.258   5.925   4.224
 2944WAT     H112482   5.313   5.991   4.206
 2944WAT     H212483   5.216   5.912   4.149
 2944WAT    EPW12484   5.260   5.933   4.211
 2945WAT      O12485   5.537   5.404   3.887
 2945WAT     H112486   5.615   5.372   3.865
 2945WAT     H212487   5.483   5.336   3.875
 2945WAT    EPW12488   5.540   5.389   3.882
 2946WAT      O12489   6.846   6.656   3.262
 2946WAT     H112490   6.910   6.606   3.231
 2946WAT     H212491   6.797   6.600   3.308
 2946WAT    EPW12492   6.848   6.640   3.264
 2947WAT      O12493   4.992   5.591   3.497
 2947WAT     H112494   4.992   5.540   3.567
 2947WAT     H212495   5.014   5.537   3.432
 2947WAT    EPW12496   4.995   5.576   3.498
 2948WAT      O12497   6.594   5.896   4.232
 2948WAT     H112498   6.599   5.826   4.285
 2948WAT     H212499   6.514   5.927   4.246
 2948WAT    EPW12500   6.583   5.890   4.242
 2949WAT      O12501   5.596   5.754   3.080
 2949WAT     H112502   5.592   5.701   3.149
 2949WAT     H212503   5.531   5.725   3.029
 2949WAT    EPW12504   5.585   5.742   3.082
 2950WAT      O12505   5.220   6.038   4.626
 2950WAT     H112506   5.178   5.987   4.569
 2950WAT     H212507   5.194   6.118   4.605
 2950WAT    EPW12508   5.210   6.042   4.615
 2951WAT      O12509   6.695   5.899   3.968
 2951WAT     H112510   6.666   5.901   4.051
 2951WAT     H212511   6.781   5.895   3.977
 2951WAT    EPW12512   6.703   5.898   3.982
 2952WAT      O12513   5.668   5.587   3.297
 2952WAT     H112514   5.696   5.659   3.338
 2952WAT     H212515   5.586   5.577   3.325
 2952WAT    EPW12516   5.660   5.596   3.307
 2953WAT      O12517   6.487   5.324   4.774
 2953WAT     H112518   6.412   5.325   4.818
 2953WAT     H212519   6.515   5.242   4.782
 2953WAT    EPW12520   6.480   5.312   4.782
 2954WAT      O12521   5.098   5.160   4.020
 2954WAT     H112522   5.012   5.174   4.025
 2954WAT     H212523   5.131   5.213   4.081
 2954WAT    EPW12524   5.090   5.170   4.030
 2955WAT      O12525   6.842   6.413   4.021
 2955WAT     H112526   6.893   6.456   3.965
 2955WAT     H212527   6.892   6.404   4.091
 2955WAT    EPW12528   6.857   6.418   4.023
 2956WAT      O12529   6.341   5.660   4.861
 2956WAT     H112530   6.374   5.676   4.940
 2956WAT     H212531   6.261   5.696   4.865
 2956WAT    EPW12532   6.334   5.668   4.873
 2957WAT      O12533   6.567   5.714   4.704
 2957WAT     H112534   6.584   5.796   4.727
 2957WAT     H212535   6.496   5.694   4.751
 2957WAT    EPW12536   6.559   5.723   4.714
 2958WAT      O12537   6.523   6.319   3.259
 2958WAT     H112538   6.562   6.242   3.268
 2958WAT     H212539   6.451   6.312   3.308
 2958WAT    EPW12540   6.518   6.307   3.267
 2959WAT      O12541   6.596   5.465   3.765
 2959WAT     H112542   6.525   5.419   3.789
 2959WAT     H212543   6.586   5.541   3.807
 2959WAT    EPW12544   6.584   5.469   3.775
 2960WAT      O12545   6.871   5.798   4.886
 2960WAT     H112546   6.876   5.742   4.820
 2960WAT     H212547   6.950   5.835   4.888
 2960WAT    EPW12548   6.883   5.795   4.877
 2961WAT      O12549   6.738   6.047   4.514
 2961WAT     H112550   6.805   5.999   4.484
 2961WAT     H212551   6.725   6.106   4.451
 2961WAT    EPW12552   6.746   6.049   4.500
 2962WAT      O12553   6.182   6.012   3.163
 2962WAT     H112554   6.269   6.015   3.156
 2962WAT     H212555   6.154   6.024   3.081
 2962WAT    EPW12556   6.191   6.014   3.150
 2963WAT      O12557   5.645   6.249   4.281
 2963WAT     H112558   5.659   6.299   4.351
 2963WAT     H212559   5.665   6.301   4.214
 2963WAT    EPW12560   5.650   6.264   4.281
 2964WAT      O12561   5.488   6.110   4.591
 2964WAT     H112562   5.408   6.080   4.607
 2964WAT     H212563   5.476   6.196   4.581
 2964WAT    EPW12564   5.474   6.118   4.592
 2965WAT      O12565   6.447   5.176   4.423
 2965WAT     H112566   6.507   5.238   4.437
 2965WAT     H212567   6.372   5.220   4.418
 2965WAT    EPW12568   6.445   5.192   4.424
 2966WAT      O12569   5.975   5.882   4.183
 2966WAT     H112570   6.028   5.898   4.251
 2966WAT     H212571   5.896   5.900   4.214
 2966WAT    EPW12572   5.971   5.887   4.198
 2967WAT      O12573   5.629   5.467   4.588
 2967WAT     H112574   5.649   5.387   4.619
 2967WAT     H212575   5.651   5.461   4.504
 2967WAT    EPW12576   5.635   5.454   4.580
 2968WAT      O12577   5.910   6.680   3.773
 2968WAT     H112578   5.907   6.765   3.792
 2968WAT     H212579   5.936   6.678   3.690
 2968WAT    EPW12580   5.913   6.692   3.764
 2969WAT      O12581   6.487   4.972   4.230
 2969WAT     H112582   6.464   5.043   4.274
 2969WAT     H212583   6.572   4.964   4.247
 2969WAT    EPW12584   6.496   4.981   4.239
 2970WAT      O12585   5.794   5.067   4.489
 2970WAT     H112586   5.874   5.097   4.469
 2970WAT     H212587   5.809   4.982   4.504
 2970WAT    EPW12588   5.808   5.059   4.488
 2971WAT      O12589   5.712   6.431   4.079
 2971WAT     H112590   5.672   6.486   4.025
 2971WAT     H212591   5.759   6.380   4.027
 2971WAT    EPW12592   5.713   6.432   4.064
 2972WAT      O12593   6.125   6.086   4.827
 2972WAT     H112594   6.207   6.093   4.798
 2972WAT     H212595   6.077   6.102   4.757
 2972WAT    EPW12596   6.130   6.089   4.812
 2973WAT      O12597   6.466   6.374   4.690
 2973WAT     H112598   6.503   6.399   4.765
 2973WAT     H212599   6.512   6.418   4.630
 2973WAT    EPW12600   6.479   6.384   4.692
 2974WAT      O12601   6.732   5.626   3.150
 2974WAT     H112602   6.776   5.682   3.100
 2974WAT     H212603   6.651   5.658   3.150
 2974WAT    EPW12604   6.726   5.639   3.143
 2975WAT      O12605   5.834   5.892   3.105
 2975WAT     H112606   5.763   5.846   3.082
 2975WAT     H212607   5.807   5.974   3.105
 2975WAT    EPW12608   5.820   5.897   3.102
 2976WAT      O12609   5.465   5.511   4.135
 2976WAT     H112610   5.490   5.472   4.061
 2976WAT     H212611   5.526   5.488   4.192
 2976WAT    EPW12612   5.478   5.502   4.133
 2977WAT      O12613   6.215   5.519   4.644
 2977WAT     H112614   6.144   5.559   4.673
 2977WAT     H212615   6.270   5.522   4.713
 2977WAT    EPW12616   6.213   5.525   4.659
 2978WAT      O12617   6.260   5.584   4.274
 2978WAT     H112618   6.269   5.638   4.342
 2978WAT     H212619   6.249   5.506   4.312
 2978WAT    EPW12620   6.260   5.580   4.290
 2979WAT      O12621   5.969   6.660   4.685
 2979WAT     H112622   5.990   6.649   4.602
 2979WAT     H212623   5.934   6.583   4.708
 2979WAT    EPW12624   5.967   6.647   4.676
 2980WAT      O12625   6.504   5.532   3.514
 2980WAT     H112626   6.528   5.507   3.594
 2980WAT     H212627   6.577   5.566   3.481
 2980WAT    EPW12628   6.518   5.533   3.521
 2981WAT      O12629   5.750   4.988   4.102
 2981WAT     H112630   5.669   4.960   4.117
 2981WAT     H212631   5.755   4.992   4.015
 2981WAT    EPW12632   5.739   4.984   4.091
 2982WAT      O12633   6.611   5.101   3.684
 2982WAT     H112634   6.532   5.066   3.695
 2982WAT     H212635   6.613   5.120   3.599
 2982WAT    EPW12636   6.600   5.099   3.673
 2983WAT      O12637   6.621   5.921   3.503
 2983WAT     H112638   6.667   5.848   3.486
 2983WAT     H212639   6.538   5.895   3.492
 2983WAT    EPW12640   6.616   5.906   3.499
 2984WAT      O12641   5.972   6.121   4.593
 2984WAT     H112642   5.894   6.123   4.631
 2984WAT     H212643   5.982   6.202   4.562
 2984WAT    EPW12644   5.962   6.133   4.594
 2985WAT      O12645   5.030   5.082   4.775
 2985WAT     H112646   5.026   5.162   4.740
 2985WAT     H212647   4.948   5.053   4.770
 2985WAT    EPW12648   5.017   5.089   4.769
 2986WAT      O12649   5.507   6.782   4.183
 2986WAT     H112650   5.501   6.766   4.269
 2986WAT     H212651   5.484   6.707   4.146
 2986WAT    EPW12652   5.503   6.769   4.191
 2987WAT      O12653   5.348   5.317   3.463
 2987WAT     H112654   5.373   5.281   3.387
 2987WAT     H212655   5.265   5.292   3.471
 2987WAT    EPW12656   5.340   5.308   3.453
 2988WAT      O12657   6.281   6.092   3.768
 2988WAT     H112658   6.271   6.099   3.855
 2988WAT     H212659   6.307   6.009   3.758
 2988WAT    EPW12660   6.284   6.081   3.780
 2989WAT      O12661   6.025   6.019   3.687
 2989WAT     H112662   5.984   6.010   3.764
 2989WAT     H212663   6.105   6.045   3.709
 2989WAT    EPW12664   6.031   6.021   3.701
 2990WAT      O12665   6.001   6.388   4.509
 2990WAT     H112666   6.057   6.394   4.576
 2990WAT     H212667   6.023   6.456   4.459
 2990WAT    EPW12668   6.012   6.399   4.512
 2991WAT      O12669   6.830   5.619   4.677
 2991WAT     H112670   6.744   5.634   4.683
 2991WAT     H212671   6.847   5.632   4.592
 2991WAT    EPW12672   6.820   5.623   4.665
 2992WAT      O12673   6.275   5.750   4.497
 2992WAT     H112674   6.263   5.685   4.553
 2992WAT     H212675   6.349   5.787   4.524
 2992WAT    EPW12676   6.284   5.746   4.509
 2993WAT      O12677   5.184   6.722   4.700
 2993WAT     H112678   5.130   6.654   4.695
 2993WAT     H212679   5.132   6.787   4.729
 2993WAT    EPW12680   5.168   6.722   4.703
 2994WAT      O12681   6.044   5.859   4.970
 2994WAT     H112682   6.070   5.932   4.929
 2994WAT     H212683   5.962   5.877   4.994
 2994WAT    EPW12684   6.036   5.873   4.968
 2995WAT      O12685   6.415   6.688   4.011
 2995WAT     H112686   6.385   6.752   4.062
 2995WAT     H212687   6.482   6.655   4.055
 2995WAT    EPW12688   6.420   6.692   4.025
 2996WAT      O12689   6.039   6.208   4.197
 2996WAT     H112690   5.999   6.146   4.244
 2996WAT     H212691   6.092   6.246   4.255
 2996WAT    EPW12692   6.041   6.204   4.213
 2997WAT      O12693   6.596   6.447   4.924
 2997WAT     H112694   6.677   6.414   4.919
 2997WAT     H212695   6.564   6.409   4.996
 2997WAT    EPW12696   6.603   6.436   4.934
 2998WAT      O12697   5.368   5.560   4.560
 2998WAT     H112698   5.383   5.621   4.500
 2998WAT     H212699   5.447   5.524   4.572
 2998WAT    EPW12700   5.382   5.564   4.553
 2999WAT      O12701   5.174   5.396   4.441
 2999WAT     H112702   5.189   5.393   4.355
 2999WAT     H212703   5.242   5.442   4.472
 2999WAT    EPW12704   5.186   5.402   4.433
 3000WAT      O12705   6.725   5.675   3.427
 3000WAT     H112706   6.739   5.666   3.341
 3000WAT     H212707   6.799   5.645   3.463
 3000WAT    EPW12708   6.738   5.669   3.420
 3001WAT      O12709   5.443   5.092   4.702
 3001WAT     H112710   5.478   5.013   4.696
 3001WAT     H212711   5.401   5.102   4.626
 3001WAT    EPW12712   5.442   5.082   4.690
 3002WAT      O12713   6.131   6.410   3.628
 3002WAT     H112714   6.112   6.489   3.595
 3002WAT     H212715   6.063   6.361   3.603
 3002WAT    EPW12716   6.118   6.415   3.620
 3003WAT      O12717   6.587   5.676   4.424
 3003WAT     H112718   6.587   5.588   4.426
 3003WAT     H212719   6.577   5.698   4.508
 3003WAT    EPW12720   6.585   5.666   4.437
 3004WAT      O12721   5.080   5.883   4.437
 3004WAT     H112722   5.131   5.898   4.368
 3004WAT     H212723   5.062   5.798   4.431
 3004WAT    EPW12724   5.085   5.873   4.426
 3005WAT      O12725   5.259   5.469   3.119
 3005WAT     H112726   5.186   5.456   3.165
 3005WAT     H212727   5.272   5.392   3.079
 3005WAT    EPW12728   5.250   5.455   3.120
 3006WAT      O12729   6.148   5.104   4.754
 3006WAT     H112730   6.176   5.171   4.801
 3006WAT     H212731   6.068   5.090   4.784
 3006WAT    EPW12732   6.140   5.112   4.765
 3007WAT      O12733   6.100   5.241   3.833
 3007WAT     H112734   6.019   5.274   3.832
 3007WAT     H212735   6.096   5.176   3.776
 3007WAT    EPW12736   6.087   5.236   3.825
 3008WAT      O12737   5.584   6.365   3.238
 3008WAT     H112738   5.619   6.347   3.316
 3008WAT     H212739   5.500   6.344   3.248
 3008WAT    EPW12740   5.577   6.359   3.251
 3009WAT      O12741   6.436   5.290   4.100
 3009WAT     H112742   6.511   5.251   4.122
 3009WAT     H212743   6.450   5.374   4.119
 3009WAT    EPW12744   6.449   5.297   4.106
 3010WAT      O12745   5.616   5.868   4.513
 3010WAT     H112746   5.574   5.940   4.539
 3010WAT     H212747   5.557   5.825   4.466
 3010WAT    EPW12748   5.601   5.873   4.510
 3011WAT      O12749   6.522   5.702   3.888
 3011WAT     H112750   6.580   5.764   3.909
 3011WAT     H212751   6.465   5.745   3.837
 3011WAT    EPW12752   6.522   5.718   3.883
 3012WAT      O12753   6.552   6.520   3.644
 3012WAT     H112754   6.537   6.443   3.681
 3012WAT     H212755   6.585   6.499   3.566
 3012WAT    EPW12756   6.554   6.506   3.638
 3013WAT      O12757   5.326   6.273   3.287
 3013WAT     H112758   5.325   6.256   3.373
 3013WAT     H212759   5.347   6.196   3.252
 3013WAT    EPW12760   5.329   6.259   3.295
 3014WAT      O12761   5.667   6.125   3.108
 3014WAT     H112762   5.592   6.083   3.125
 3014WAT     H212763   5.655   6.204   3.143
 3014WAT    EPW12764   5.654   6.131   3.116
 3015WAT      O12765   5.575   5.196   4.358
 3015WAT     H112766   5.498   5.161   4.379
 3015WAT     H212767   5.633   5.136   4.383
 3015WAT    EPW12768   5.572   5.182   4.365
 3016WAT      O12769   6.738   5.007   4.363
 3016WAT     H112770   6.699   4.989   4.439
 3016WAT     H212771   6.822   4.989   4.379
 3016WAT    EPW12772   6.744   5.002   4.377
 3017WAT      O12773   5.926   5.196   4.183
 3017WAT     H112774   5.874   5.129   4.165
 3017WAT     H212775   6.006   5.164   4.166
 3017WAT    EPW12776   5.930   5.181   4.178
 3018WAT      O12777   6.287   6.311   4.304
 3018WAT     H112778   6.305   6.377   4.359
 3018WAT     H212779   6.285   6.349   4.226
 3018WAT    EPW12780   6.289   6.326   4.301
 3019WAT      O12781   6.238   6.726   4.760
 3019WAT     H112782   6.167   6.687   4.728
 3019WAT     H212783   6.214   6.809   4.770
 3019WAT    EPW12784   6.224   6.733   4.756
 3020WAT      O12785   5.746   5.689   4.706
 3020WAT     H112786   5.712   5.617   4.671
 3020WAT     H212787   5.713   5.753   4.658
 3020WAT    EPW12788   5.736   5.688   4.694
 3021WAT      O12789   5.825   5.010   3.266
 3021WAT     H112790   5.841   5.018   3.180
 3021WAT     H212791   5.738   5.002   3.269
 3021WAT    EPW12792   5.814   5.010   3.254
 3022WAT      O12793   6.695   6.163   4.252
 3022WAT     H112794   6.679   6.078   4.242
 3022WAT     H212795   6.643   6.200   4.193
 3022WAT    EPW12796   6.685   6.156   4.242
 3023WAT      O12797   5.643   6.649   4.681
 3023WAT     H112798   5.627   6.655   4.766
 3023WAT     H212799   5.696   6.580   4.675
 3023WAT    EPW12800   5.648   6.640   4.693
 3024WAT      O12801   6.599   6.507   4.131
 3024WAT     H112802   6.678   6.493   4.097
 3024WAT     H212803   6.556   6.434   4.114
 3024WAT    EPW12804   6.605   6.494   4.123
 3025WAT      O12805   5.314   5.136   4.460
 3025WAT     H112806   5.265   5.067   4.438
 3025WAT     H212807   5.259   5.203   4.455
 3025WAT    EPW12808   5.299   5.136   4.456
 3026WAT      O12809   6.187   5.145   4.080
 3026WAT     H112810   6.256   5.194   4.100
 3026WAT     H212811   6.159   5.179   4.005
 3026WAT    EPW12812   6.193   5.158   4.072
 3027WAT      O12813   5.349   6.529   4.830
 3027WAT     H112814   5.421   6.563   4.867
 3027WAT     H212815   5.311   6.598   4.793
 3027WAT    EPW12816   5.354   6.544   4.830
 3028WAT      O12817   6.184   5.608   3.830
 3028WAT     H112818   6.238   5.541   3.841
 3028WAT     H212819   6.148   5.618   3.909
 3028WAT    EPW12820   6.187   5.600   3.843
 3029WAT      O12821   5.138   5.436   3.742
 3029WAT     H112822   5.089   5.461   3.810
 3029WAT     H212823   5.187   5.372   3.775
 3029WAT    EPW12824   5.138   5.430   3.757
 3030WAT      O12825   5.176   6.304   4.540
 3030WAT     H112826   5.130   6.362   4.586
 3030WAT     H212827   5.257   6.337   4.540
 3030WAT    EPW12828   5.181   6.318   4.547
 3031WAT      O12829   6.381   5.770   3.448
 3031WAT     H112830   6.405   5.688   3.468
 3031WAT     H212831   6.305   5.760   3.407
 3031WAT    EPW12832   6.373   5.756   3.445
 3032WAT      O12833   5.418   6.636   3.461
 3032WAT     H112834   5.430   6.698   3.401
 3032WAT     H212835   5.496   6.599   3.469
 3032WAT    EPW12836   5.431   6.640   3.453
 3033WAT      O12837   5.768   5.834   3.373
 3033WAT     H112838   5.799   5.858   3.295
 3033WAT     H212839   5.841   5.824   3.421
 3033WAT    EPW12840   5.784   5.836   3.369
 3034WAT      O12841   6.635   6.707   3.090
 3034WAT     H112842   6.707   6.697   3.138
 3034WAT     H212843   6.616   6.627   3.063
 3034WAT    EPW12844   6.643   6.694   3.093
 3035WAT      O12845   6.672   5.962   4.782
 3035WAT     H112846   6.741   5.923   4.819
 3035WAT     H212847   6.705   6.001   4.712
 3035WAT    EPW12848   6.687   5.962   4.777
 3036WAT      O12849   6.293   6.329   3.413
 3036WAT     H112850   6.267   6.342   3.495
 3036WAT     H212851   6.225   6.291   3.375
 3036WAT    EPW12852   6.279   6.325   3.419
 3037WAT      O12853   6.716   5.404   4.909
 3037WAT     H112854   6.707   5.484   4.942
 3037WAT     H212855   6.641   5.391   4.867
 3037WAT    EPW12856   6.704   5.414   4.908
 3038WAT      O12857   6.759   5.515   4.197
 3038WAT     H112858   6.677   5.540   4.180
 3038WAT     H212859   6.753   5.428   4.204
 3038WAT    EPW12860   6.746   5.506   4.196
 3039WAT      O12861   5.689   5.212   4.699
 3039WAT     H112862   5.723   5.177   4.627
 3039WAT     H212863   5.609   5.179   4.703
 3039WAT    EPW12864   5.682   5.202   4.689
 3040WAT      O12865   6.448   6.013   5.017
 3040WAT     H112866   6.523   6.039   5.051
 3040WAT     H212867   6.454   6.036   4.933
 3040WAT    EPW12868   6.460   6.020   5.009
 3041WAT      O12869   5.387   6.545   4.074
 3041WAT     H112870   5.389   6.469   4.032
 3041WAT     H212871   5.349   6.599   4.018
 3041WAT    EPW12872   5.382   6.542   4.059
 3042WAT      O12873   6.065   6.222   3.297
 3042WAT     H112874   6.096   6.154   3.252
 3042WAT     H212875   6.028   6.272   3.236
 3042WAT    EPW12876   6.064   6.219   3.281
 3043WAT      O12877   5.155   6.779   4.425
 3043WAT     H112878   5.170   6.761   4.509
 3043WAT     H212879   5.188   6.709   4.383
 3043WAT    EPW12880   5.162   6.766   4.431
 3044WAT      O12881   6.143   5.033   1.744
 3044WAT     H112882   6.132   5.074   1.667
 3044WAT     H212883   6.228   5.013   1.744
 3044WAT    EPW12884   6.154   5.036   1.732
 3045WAT      O12885   6.107   5.632   2.235
 3045WAT     H112886   6.070   5.711   2.243
 3045WAT     H212887   6.142   5.618   2.313
 3045WAT    EPW12888   6.107   5.642   2.248
 3046WAT      O12889   5.055   6.103   1.699
 3046WAT     H112890   4.988   6.100   1.755
 3046WAT     H212891   5.067   6.019   1.676
 3046WAT    EPW12892   5.047   6.090   1.704
 3047WAT      O12893   6.702   6.494   1.525
 3047WAT     H112894   6.772   6.445   1.544
 3047WAT     H212895   6.653   6.441   1.476
 3047WAT    EPW12896   6.705   6.479   1.520
 3048WAT      O12897   5.049   5.447   1.363
 3048WAT     H112898   4.985   5.497   1.332
 3048WAT     H212899   5.020   5.366   1.349
 3048WAT    EPW12900   5.036   5.442   1.356
 3049WAT      O12901   5.333   6.056   1.300
 3049WAT     H112902   5.311   6.015   1.226
 3049WAT     H212903   5.344   5.991   1.357
 3049WAT    EPW12904   5.332   6.040   1.298
 3050WAT      O12905   6.338   5.828   1.853
 3050WAT     H112906   6.344   5.809   1.768
 3050WAT     H212907   6.285   5.766   1.884
 3050WAT    EPW12908   6.331   5.816   1.845
 3051WAT      O12909   5.307   6.228   1.699
 3051WAT     H112910   5.361   6.187   1.754
 3051WAT     H212911   5.232   6.185   1.707
 3051WAT    EPW12912   5.304   6.215   1.708
 3052WAT      O12913   5.793   5.153   1.646
 3052WAT     H112914   5.780   5.224   1.597
 3052WAT     H212915   5.866   5.118   1.614
 3052WAT    EPW12916   5.802   5.158   1.634
 3053WAT      O12917   5.216   6.514   1.305
 3053WAT     H112918   5.259   6.521   1.229
 3053WAT     H212919   5.246   6.440   1.339
 3053WAT    EPW12920   5.227   6.504   1.299
 3054WAT      O12921   5.130   6.326   2.417
 3054WAT     H112922   5.155   6.310   2.499
 3054WAT     H212923   5.061   6.273   2.405
 3054WAT    EPW12924   5.123   6.316   2.427
 3055WAT      O12925   5.742   6.163   2.841
 3055WAT     H112926   5.724   6.146   2.925
 3055WAT     H212927   5.670   6.138   2.799
 3055WAT    EPW12928   5.729   6.157   2.847
 3056WAT      O12929   5.265   5.853   1.872
 3056WAT     H112930   5.217   5.851   1.799
 3056WAT     H212931   5.321   5.786   1.862
 3056WAT    EPW12932   5.266   5.843   1.860
 3057WAT      O12933   5.714   5.408   2.423
 3057WAT     H112934   5.782   5.415   2.369
 3057WAT     H212935   5.696   5.323   2.423
 3057WAT    EPW12936   5.721   5.396   2.415
 3058WAT      O12937   5.705   6.411   2.597
 3058WAT     H112938   5.682   6.487   2.562
 3058WAT     H212939   5.791   6.421   2.611
 3058WAT    EPW12940   5.715   6.423   2.594
 3059WAT      O12941   5.441   5.636   1.868
 3059WAT     H112942   5.507   5.584   1.889
 3059WAT     H212943   5.372   5.582   1.868
 3059WAT    EPW12944   5.440   5.621   1.871
 3060WAT      O12945   5.843   6.297   2.035
 3060WAT     H112946   5.872   6.216   2.048
 3060WAT     H212947   5.916   6.343   2.018
 3060WAT    EPW12948   5.858   6.292   2.035
 3061WAT      O12949   5.925   6.231   1.640
 3061WAT     H112950   5.955   6.164   1.687
 3061WAT     H212951   5.934   6.205   1.558
 3061WAT    EPW12952   5.931   6.217   1.635
 3062WAT      O12953   6.008   5.626   2.726
 3062WAT     H112954   5.922   5.625   2.737
 3062WAT     H212955   6.036   5.684   2.785
 3062WAT    EPW12956   6.000   5.634   2.736
 3063WAT      O12957   5.517   5.146   1.725
 3063WAT     H112958   5.480   5.204   1.671
 3063WAT     H212959   5.601   5.146   1.700
 3063WAT    EPW12960   5.524   5.155   1.713
 3064WAT      O12961   6.451   4.924   2.722
 3064WAT     H112962   6.428   4.985   2.663
 3064WAT     H212963   6.375   4.894   2.751
 3064WAT    EPW12964   6.436   4.928   2.717
 3065WAT      O12965   5.825   5.087   1.918
 3065WAT     H112966   5.843   5.166   1.951
 3065WAT     H212967   5.808   5.103   1.834
 3065WAT    EPW12968   5.825   5.101   1.911
 3066WAT      O12969   6.222   5.311   1.144
 3066WAT     H112970   6.182   5.379   1.182
 3066WAT     H212971   6.241   5.259   1.211
 3066WAT    EPW12972   6.219   5.314   1.159
 3067WAT      O12973   5.096   5.597   2.121
 3067WAT     H112974   5.095   5.684   2.131
 3067WAT     H212975   5.025   5.570   2.163
 3067WAT    EPW12976   5.085   5.606   2.129
 3068WAT      O12977   5.089   6.565   1.954
 3068WAT     H112978   5.023   6.613   1.924
 3068WAT     H212979   5.124   6.531   1.881
 3068WAT    EPW12980   5.085   6.567   1.939
 3069WAT      O12981   5.651   6.258   1.651
 3069WAT     H112982   5.630   6.277   1.734
 3069WAT     H212983   5.738   6.249   1.655
 3069WAT    EPW12984   5.661   6.260   1.664
 3070WAT      O12985   6.267   6.595   1.417
 3070WAT     H112986   6.340   6.643   1.414
 3070WAT     H212987   6.295   6.517   1.443
 3070WAT    EPW12988   6.282   6.591   1.421
 3071WAT      O12989   6.098   6.667   1.623
 3071WAT     H112990   6.127   6.744   1.653
 3071WAT     H212991   6.151   6.650   1.556
 3071WAT    EPW12992   6.110   6.676   1.618
 3072WAT      O12993   5.318   5.092   2.130
 3072WAT     H112994   5.292   5.020   2.089
 3072WAT     H212995   5.372   5.062   2.192
 3072WAT    EPW12996   5.322   5.077   2.133
 3073WAT      O12997   5.690   5.306   3.090
 3073WAT     H112998   5.689   5.269   3.011
 3073WAT     H212999   5.734   5.380   3.078
 3073WAT    EPW13000   5.696   5.311   3.077
 3074WAT      O13001   5.212   6.487   1.711
 3074WAT     H113002   5.258   6.414   1.723
 3074WAT     H213003   5.266   6.537   1.664
 3074WAT    EPW13004   5.227   6.484   1.706
 3075WAT      O13005   6.813   5.283   1.847
 3075WAT     H113006   6.766   5.355   1.858
 3075WAT     H213007   6.754   5.223   1.825
 3075WAT    EPW13008   6.798   5.284   1.846
 3076WAT      O13009   6.299   6.623   2.424
 3076WAT     H113010   6.368   6.674   2.414
 3076WAT     H213011   6.284   6.592   2.344
 3076WAT    EPW13012   6.307   6.626   2.411
 3077WAT      O13013   5.290   5.209   3.006
 3077WAT     H113014   5.212   5.171   3.012
 3077WAT     H213015   5.332   5.163   2.945
 3077WAT    EPW13016   5.285   5.197   2.998
 3078WAT      O13017   5.371   6.283   2.081
 3078WAT     H113018   5.427   6.272   2.014
 3078WAT     H213019   5.401   6.229   2.142
 3078WAT    EPW13020   5.384   6.274   2.080
 3079WAT      O13021   5.649   6.610   1.917
 3079WAT     H113022   5.730   6.633   1.893
 3079WAT     H213023   5.599   6.662   1.867
 3079WAT    EPW13024   5.654   6.621   1.906
 3080WAT      O13025   5.867   5.028   2.993
 3080WAT     H113026   5.873   4.955   2.946
 3080WAT     H213027   5.807   5.075   2.950
 3080WAT    EPW13028   5.859   5.024   2.980
 3081WAT      O13029   5.996   5.556   1.794
 3081WAT     H113030   6.025   5.515   1.723
 3081WAT     H213031   6.068   5.569   1.841
 3081WAT    EPW13032   6.011   5.552   1.791
 3082WAT      O13033   6.085   5.515   1.282
 3082WAT     H113034   6.112   5.593   1.307
 3082WAT     H213035   6.009   5.531   1.242
 3082WAT    EPW13036   6.078   5.529   1.279
 3083WAT      O13037   6.479   6.776   1.380
 3083WAT     H113038   6.526   6.755   1.309
 3083WAT     H213039   6.534   6.822   1.428
 3083WAT    EPW13040   6.494   6.779   1.376
 3084WAT      O13041   5.553   6.645   2.544
 3084WAT     H113042   5.560   6.654   2.630
 3084WAT     H213043   5.475   6.607   2.533
 3084WAT    EPW13044   5.543   6.641   2.555
 3085WAT      O13045   6.697   5.246   2.292
 3085WAT     H113046   6.758   5.232   2.231
 3085WAT     H213047   6.723   5.198   2.359
 3085WAT    EPW13048   6.710   5.237   2.293
 3086WAT      O13049   4.973   5.337   2.696
 3086WAT     H113050   4.984   5.396   2.760
 3086WAT     H213051   5.044   5.348   2.647
 3086WAT    EPW13052   4.986   5.348   2.698
 3087WAT      O13053   6.185   6.392   2.800
 3087WAT     H113054   6.181   6.419   2.883
 3087WAT     H213055   6.271   6.389   2.783
 3087WAT    EPW13056   6.197   6.396   2.810
 3088WAT      O13057   5.938   6.421   1.257
 3088WAT     H113058   5.918   6.477   1.321
 3088WAT     H213059   6.012   6.454   1.224
 3088WAT    EPW13060   5.946   6.434   1.261
 3089WAT      O13061   6.276   5.143   1.359
 3089WAT     H113062   6.336   5.080   1.356
 3089WAT     H213063   6.300   5.192   1.427
 3089WAT    EPW13064   6.288   5.141   1.368
 3090WAT      O13065   5.133   5.242   1.639
 3090WAT     H113066   5.109   5.160   1.620
 3090WAT     H213067   5.084   5.262   1.709
 3090WAT    EPW13068   5.122   5.233   1.647
 3091WAT      O13069   5.307   6.549   2.422
 3091WAT     H113070   5.255   6.478   2.422
 3091WAT     H213071   5.346   6.545   2.345
 3091WAT    EPW13072   5.305   6.538   2.411
 3092WAT      O13073   6.057   5.428   1.548
 3092WAT     H113074   5.983   5.383   1.536
 3092WAT     H213075   6.073   5.461   1.469
 3092WAT    EPW13076   6.049   5.426   1.534
 3093WAT      O13077   6.052   6.669   2.531
 3093WAT     H113078   6.131   6.660   2.494
 3093WAT     H213079   5.998   6.671   2.463
 3093WAT    EPW13080   6.056   6.668   2.516
 3094WAT      O13081   6.032   5.097   1.490
 3094WAT     H113082   5.973   5.067   1.434
 3094WAT     H213083   6.103   5.112   1.441
 3094WAT    EPW13084   6.034   5.095   1.475
 3095WAT      O13085   6.776   6.702   1.788
 3095WAT     H113086   6.738   6.779   1.804
 3095WAT     H213087   6.709   6.647   1.782
 3095WAT    EPW13088   6.761   6.706   1.790
 3096WAT      O13089   5.888   5.359   1.967
 3096WAT     H113090   5.913   5.426   1.916
 3096WAT     H213091   5.897   5.392   2.048
 3096WAT    EPW13092   5.893   5.374   1.971
 3097WAT      O13093   6.511   6.281   1.875
 3097WAT     H113094   6.574   6.223   1.857
 3097WAT     H213095   6.438   6.235   1.867
 3097WAT    EPW13096   6.510   6.266   1.871
 3098WAT      O13097   5.457   6.373   2.734
 3098WAT     H113098   5.534   6.399   2.704
 3098WAT     H213099   5.444   6.423   2.804
 3098WAT    EPW13100   5.466   6.384   2.740
 3099WAT      O13101   5.445   4.885   1.789
 3099WAT     H113102   5.465   4.969   1.775
 3099WAT     H213103   5.422   4.856   1.710
 3099WAT    EPW13104   5.445   4.893   1.775
 3100WAT      O13105   5.665   5.960   2.140
 3100WAT     H113106   5.688   5.939   2.221
 3100WAT     H213107   5.605   5.900   2.120
 3100WAT    EPW13108   5.659   5.948   2.149
 3101WAT      O13109   5.757   5.944   2.400
 3101WAT     H113110   5.754   6.031   2.411
 3101WAT     H213111   5.727   5.913   2.476
 3101WAT    EPW13112   5.752   5.952   2.413
 3102WAT      O13113   6.354   6.066   2.398
 3102WAT     H113114   6.282   6.033   2.433
 3102WAT     H213115   6.345   6.152   2.408
 3102WAT    EPW13116   6.342   6.074   2.405
 3103WAT      O13117   6.400   4.933   1.779
 3103WAT     H113118   6.398   4.921   1.866
 3103WAT     H213119   6.433   4.858   1.749
 3103WAT    EPW13120   6.405   4.920   1.788
 3104WAT      O13121   4.968   6.342   3.014
 3104WAT     H113122   5.030   6.384   3.059
 3104WAT     H213123   4.965   6.263   3.052
 3104WAT    EPW13124   4.977   6.337   3.026
 3105WAT      O13125   6.570   5.374   2.610
 3105WAT     H113126   6.656   5.366   2.623
 3105WAT     H213127   6.536   5.368   2.690
 3105WAT    EPW13128   6.578   5.372   2.624
 3106WAT      O13129   5.408   5.279   1.947
 3106WAT     H113130   5.436   5.230   1.881
 3106WAT     H213131   5.384   5.221   2.007
 3106WAT    EPW13132   5.408   5.263   1.946
 3107WAT      O13133   6.673   6.067   1.387
 3107WAT     H113134   6.671   6.019   1.460
 3107WAT     H213135   6.758   6.081   1.374
 3107WAT    EPW13136   6.685   6.062   1.396
 3108WAT      O13137   5.450   6.061   1.867
 3108WAT     H113138   5.498   6.028   1.802
 3108WAT     H213139   5.390   6.000   1.881
 3108WAT    EPW13140   5.448   6.047   1.859
 3109WAT      O13141   5.315   6.714   2.011
 3109WAT     H113142   5.239   6.675   1.993
 3109WAT     H213143   5.352   6.723   1.932
 3109WAT    EPW13144   5.309   6.710   1.996
 3110WAT      O13145   5.272   5.479   2.308
 3110WAT     H113146   5.353   5.489   2.276
 3110WAT     H213147   5.221   5.506   2.244
 3110WAT    EPW13148   5.277   5.484   2.294
 3111WAT      O13149   6.857   6.492   2.759
 3111WAT     H113150   6.783   6.499   2.713
 3111WAT     H213151   6.834   6.444   2.828
 3111WAT    EPW13152   6.843   6.486   2.762
 3112WAT      O13153   6.481   5.752   1.307
 3112WAT     H113154   6.475   5.834   1.278
 3112WAT     H213155   6.453   5.757   1.390
 3112WAT    EPW13156   6.476   5.765   1.315
 3113WAT      O13157   5.566   5.993   1.621
 3113WAT     H113158   5.592   6.076   1.616
 3113WAT     H213159   5.637   5.949   1.595
 3113WAT    EPW13160   5.580   5.999   1.616
 3114WAT      O13161   6.808   5.209   1.250
 3114WAT     H113162   6.850   5.159   1.192
 3114WAT     H213163   6.763   5.265   1.201
 3114WAT    EPW13164   6.808   5.210   1.234
 3115WAT      O13165   5.113   6.171   2.076
 3115WAT     H113166   5.062   6.237   2.100
 3115WAT     H213167   5.192   6.208   2.069
 3115WAT    EPW13168   5.117   6.186   2.078
 3116WAT      O13169   5.828   5.547   3.060
 3116WAT     H113170   5.778   5.578   3.124
 3116WAT     H213171   5.800   5.588   2.989
 3116WAT    EPW13172   5.817   5.557   3.059
 3117WAT      O13173   6.894   5.632   2.494
 3117WAT     H113174   6.955   5.570   2.500
 3117WAT     H213175   6.844   5.606   2.427
 3117WAT    EPW13176   6.896   5.619   2.485
 3118WAT      O13177   5.127   5.840   1.634
 3118WAT     H113178   5.110   5.754   1.633
 3118WAT     H213179   5.197   5.848   1.582
 3118WAT    EPW13180   5.135   5.828   1.626
 3119WAT      O13181   6.678   5.100   1.476
 3119WAT     H113182   6.750   5.062   1.507
 3119WAT     H213183   6.706   5.143   1.405
 3119WAT    EPW13184   6.693   5.101   1.470
 3120WAT      O13185   6.062   6.459   1.977
 3120WAT     H113186   6.019   6.531   1.953
 3120WAT     H213187   6.098   6.431   1.902
 3120WAT    EPW13188   6.061   6.466   1.962
 3121WAT      O13189   5.042   6.334   1.552
 3121WAT     H113190   5.096   6.385   1.598
 3121WAT     H213191   5.035   6.262   1.601
 3121WAT    EPW13192   5.049   6.331   1.566
 3122WAT      O13193   5.480   6.117   2.273
 3122WAT     H113194   5.537   6.154   2.328
 3122WAT     H213195   5.532   6.071   2.220
 3122WAT    EPW13196   5.496   6.116   2.273
 3123WAT      O13197   6.364   5.380   1.983
 3123WAT     H113198   6.385   5.356   2.064
 3123WAT     H213199   6.300   5.324   1.961
 3123WAT    EPW13200   6.357   5.368   1.992
 3124WAT      O13201   5.062   6.167   1.323
 3124WAT     H113202   5.138   6.124   1.319
 3124WAT     H213203   5.071   6.218   1.393
 3124WAT    EPW13204   5.074   6.168   1.333
 3125WAT      O13205   5.125   5.897   2.107
 3125WAT     H113206   5.172   5.878   2.036
 3125WAT     H213207   5.120   5.984   2.105
 3125WAT    EPW13208   5.132   5.907   2.096
 3126WAT      O13209   5.787   5.359   1.462
 3126WAT     H113210   5.773   5.324   1.383
 3126WAT     H213211   5.754   5.439   1.455
 3126WAT    EPW13212   5.780   5.366   1.449
 3127WAT      O13213   6.619   6.530   2.602
 3127WAT     H113214   6.579   6.607   2.614
 3127WAT     H213215   6.619   6.521   2.515
 3127WAT    EPW13216   6.613   6.540   2.591
 3128WAT      O13217   5.599   6.342   1.909
 3128WAT     H113218   5.607   6.428   1.910
 3128WAT     H213219   5.672   6.313   1.947
 3128WAT    EPW13220   5.611   6.350   1.915
 3129WAT      O13221   5.367   5.662   2.944
 3129WAT     H113222   5.327   5.601   2.991
 3129WAT     H213223   5.367   5.629   2.864
 3129WAT    EPW13224   5.361   5.648   2.939
 3130WAT      O13225   5.408   5.583   1.446
 3130WAT     H113226   5.396   5.515   1.500
 3130WAT     H213227   5.369   5.558   1.372
 3130WAT    EPW13228   5.400   5.570   1.443
 3131WAT      O13229   5.471   5.770   2.112
 3131WAT     H113230   5.457   5.735   2.033
 3131WAT     H213231   5.492   5.701   2.161
 3131WAT    EPW13232   5.472   5.754   2.107
 3132WAT      O13233   5.446   5.728   2.465
 3132WAT     H113234   5.469   5.675   2.400
 3132WAT     H213235   5.393   5.786   2.427
 3132WAT    EPW13236   5.442   5.729   2.450
 3133WAT      O13237   6.485   5.583   2.250
 3133WAT     H113238   6.489   5.633   2.321
 3133WAT     H213239   6.491   5.640   2.184
 3133WAT    EPW13240   6.487   5.599   2.251
 3134WAT      O13241   5.842   6.664   2.355
 3134WAT     H113242   5.803   6.594   2.320
 3134WAT     H213243   5.831   6.726   2.294
 3134WAT    EPW13244   5.834   6.663   2.341
 3135WAT      O13245   6.088   5.079   2.631
 3135WAT     H113246   6.095   4.995   2.610
 3135WAT     H213247   6.103   5.081   2.716
 3135WAT    EPW13248   6.091   5.067   2.640
 3136WAT      O13249   6.306   5.299   1.583
 3136WAT     H113250   6.366   5.362   1.595
 3136WAT     H213251   6.231   5.343   1.581
 3136WAT    EPW13252   6.304   5.315   1.585
 3137WAT      O13253   5.255   5.911   2.986
 3137WAT     H113254   5.250   5.949   2.908
 3137WAT     H213255   5.297   5.836   2.970
 3137WAT    EPW13256   5.261   5.905   2.972
 3138WAT      O13257   6.404   6.114   2.847
 3138WAT     H113258   6.425   6.195   2.825
 3138WAT     H213259   6.439   6.066   2.783
 3138WAT    EPW13260   6.412   6.119   2.834
 3139WAT      O13261   5.822   6.431   2.884
 3139WAT     H113262   5.856   6.422   2.964
 3139WAT     H213263   5.797   6.350   2.863
 3139WAT    EPW13264   5.824   6.418   2.892
 3140WAT      O13265   5.921   5.427   2.233
 3140WAT     H113266   5.977   5.493   2.237
 3140WAT     H213267   5.969   5.357   2.256
 3140WAT    EPW13268   5.936   5.426   2.237
 3141WAT      O13269   6.161   5.751   1.413
 3141WAT     H113270   6.143   5.807   1.348
 3141WAT     H213271   6.103   5.773   1.474
 3141WAT    EPW13272   6.150   5.763   1.412
 3142WAT      O13273   6.695   6.077   1.827
 3142WAT     H113274   6.699   6.030   1.901
 3142WAT     H213275   6.670   6.018   1.767
 3142WAT    EPW13276   6.692   6.061   1.829
 3143WAT      O13277   6.253   6.488   2.180
 3143WAT     H113278   6.190   6.474   2.122
 3143WAT     H213279   6.302   6.550   2.144
 3143WAT    EPW13280   6.251   6.495   2.166
 3144WAT      O13281   6.234   6.148   2.157
 3144WAT     H113282   6.160   6.178   2.191
 3144WAT     H213283   6.271   6.104   2.222
 3144WAT    EPW13284   6.229   6.146   2.171
 3145WAT      O13285   5.629   6.508   1.538
 3145WAT     H113286   5.640   6.432   1.580
 3145WAT     H213287   5.710   6.539   1.530
 3145WAT    EPW13288   5.643   6.501   1.543
 3146WAT      O13289   5.547   4.955   1.367
 3146WAT     H113290   5.498   4.921   1.431
 3146WAT     H213291   5.512   5.035   1.356
 3146WAT    EPW13292   5.534   4.962   1.375
 3147WAT      O13293   5.879   6.603   1.461
 3147WAT     H113294   5.945   6.626   1.513
 3147WAT     H213295   5.861   6.676   1.417
 3147WAT    EPW13296   5.886   6.617   1.462
 3148WAT      O13297   6.489   5.971   2.621
 3148WAT     H113298   6.454   6.014   2.554
 3148WAT     H213299   6.573   5.995   2.619
 3148WAT    EPW13300   6.496   5.981   2.611
 3149WAT      O13301   6.195   6.531   3.050
 3149WAT     H113302   6.223   6.551   3.130
 3149WAT     H213303   6.221   6.599   3.001
 3149WAT    EPW13304   6.203   6.544   3.054
 3150WAT      O13305   6.606   5.064   2.901
 3150WAT     H113306   6.560   5.018   2.844
 3150WAT     H213307   6.615   5.010   2.969
 3150WAT    EPW13308   6.601   5.050   2.903
 3151WAT      O13309   5.360   5.859   1.491
 3151WAT     H113310   5.381   5.774   1.482
 3151WAT     H213311   5.426   5.892   1.537
 3151WAT    EPW13312   5.373   5.851   1.496
 3152WAT      O13313   6.134   5.957   2.520
 3152WAT     H113314   6.078   6.004   2.568
 3152WAT     H213315   6.164   5.898   2.576
 3152WAT    EPW13316   6.130   5.955   2.535
 3153WAT      O13317   5.035   4.980   1.586
 3153WAT     H113318   5.032   4.927   1.517
 3153WAT     H213319   4.999   4.933   1.650
 3153WAT    EPW13320   5.029   4.965   1.585
 3154WAT      O13321   6.010   5.797   1.646
 3154WAT     H113322   6.021   5.865   1.699
 3154WAT     H213323   5.998   5.730   1.701
 3154WAT    EPW13324   6.010   5.797   1.662
 3155WAT      O13325   6.499   6.278   2.161
 3155WAT     H113326   6.520   6.288   2.076
 3155WAT     H213327   6.413   6.263   2.159
 3155WAT    EPW13328   6.489   6.277   2.148
 3156WAT      O13329   5.460   5.213   1.317
 3156WAT     H113330   5.400   5.217   1.253
 3156WAT     H213331   5.529   5.254   1.282
 3156WAT    EPW13332   5.461   5.220   1.302
 3157WAT      O13333   5.917   6.027   2.051
 3157WAT     H113334   5.835   6.002   2.065
 3157WAT     H213335   5.961   5.994   2.119
 3157WAT    EPW13336   5.912   6.018   2.063
 3158WAT      O13337   5.578   6.640   1.140
 3158WAT     H113338   5.598   6.563   1.178
 3158WAT     H213339   5.570   6.694   1.208
 3158WAT    EPW13340   5.580   6.636   1.156
 3159WAT      O13341   5.284   5.923   2.344
 3159WAT     H113342   5.338   5.989   2.327
 3159WAT     H213343   5.247   5.906   2.267
 3159WAT    EPW13344   5.286   5.930   2.330
 3160WAT      O13345   5.615   5.453   1.998
 3160WAT     H113346   5.691   5.415   1.978
 3160WAT     H213347   5.557   5.389   1.983
 3160WAT    EPW13348   5.618   5.438   1.993
 3161WAT      O13349   6.852   6.662   1.365
 3161WAT     H113350   6.919   6.612   1.339
 3161WAT     H213351   6.804   6.608   1.415
 3161WAT    EPW13352   6.855   6.647   1.369
 3162WAT      O13353   5.095   5.559   1.639
 3162WAT     H113354   5.126   5.525   1.713
 3162WAT     H213355   5.102   5.494   1.581
 3162WAT    EPW13356   5.101   5.545   1.641
 3163WAT      O13357   6.591   5.925   2.319
 3163WAT     H113358   6.599   5.870   2.386
 3163WAT     H213359   6.514   5.962   2.332
 3163WAT    EPW13360   6.581   5.922   2.331
 3164WAT      O13361   5.595   5.810   1.206
 3164WAT     H113362   5.601   5.747   1.265
 3164WAT     H213363   5.542   5.776   1.145
 3164WAT    EPW13364   5.588   5.796   1.206
 3165WAT      O13365   5.240   6.024   2.736
 3165WAT     H113366   5.196   5.976   2.678
 3165WAT     H213367   5.211   6.105   2.721
 3165WAT    EPW13368   5.229   6.029   2.725
 3166WAT      O13369   6.710   5.921   2.061
 3166WAT     H113370   6.678   5.932   2.141
 3166WAT     H213371   6.796   5.915   2.074
 3166WAT    EPW13372   6.718   5.921   2.075
 3167WAT      O13373   5.675   5.612   1.399
 3167WAT     H113374   5.701   5.678   1.450
 3167WAT     H213375   5.592   5.600   1.423
 3167WAT    EPW13376   5.666   5.620   1.410
 3168WAT      O13377   6.489   5.319   2.875
 3168WAT     H113378   6.416   5.329   2.922
 3168WAT     H213379   6.512   5.236   2.890
 3168WAT    EPW13380   6.481   5.308   2.884
 3169WAT      O13381   5.084   5.260   2.111
 3169WAT     H113382   5.059   5.254   2.027
 3169WAT     H213383   5.153   5.207   2.115
 3169WAT    EPW13384   5.090   5.251   2.099
 3170WAT      O13385   6.837   6.428   2.141
 3170WAT     H113386   6.880   6.471   2.078
 3170WAT     H213387   6.896   6.420   2.205
 3170WAT    EPW13388   6.852   6.433   2.141
 3171WAT      O13389   6.323   5.695   2.943
 3171WAT     H113390   6.361   5.697   3.021
 3171WAT     H213391   6.240   5.718   2.960
 3171WAT    EPW13392   6.316   5.699   2.957
 3172WAT      O13393   6.569   5.715   2.797
 3172WAT     H113394   6.592   5.796   2.820
 3172WAT     H213395   6.498   5.699   2.845
 3172WAT    EPW13396   6.562   5.724   2.807
 3173WAT      O13397   6.553   6.316   1.384
 3173WAT     H113398   6.585   6.235   1.392
 3173WAT     H213399   6.476   6.311   1.425
 3173WAT    EPW13400   6.546   6.303   1.391
 3174WAT      O13401   6.604   5.474   1.880
 3174WAT     H113402   6.535   5.431   1.912
 3174WAT     H213403   6.599   5.552   1.919
 3174WAT    EPW13404   6.593   5.479   1.891
 3175WAT      O13405   6.873   5.783   2.974
 3175WAT     H113406   6.880   5.727   2.907
 3175WAT     H213407   6.952   5.820   2.978
 3175WAT    EPW13408   6.886   5.780   2.965
 3176WAT      O13409   6.751   6.059   2.608
 3176WAT     H113410   6.816   6.010   2.578
 3176WAT     H213411   6.741   6.120   2.547
 3176WAT    EPW13412   6.759   6.060   2.595
 3177WAT      O13413   6.224   6.143   1.302
 3177WAT     H113414   6.300   6.100   1.293
 3177WAT     H213415   6.195   6.151   1.220
 3177WAT    EPW13416   6.231   6.138   1.288
 3178WAT      O13417   5.727   6.227   2.392
 3178WAT     H113418   5.717   6.271   2.466
 3178WAT     H213419   5.721   6.289   2.330
 3178WAT    EPW13420   5.725   6.242   2.394
 3179WAT      O13421   5.506   6.097   2.702
 3179WAT     H113422   5.426   6.063   2.714
 3179WAT     H213423   5.492   6.184   2.704
 3179WAT    EPW13424   5.492   6.105   2.704
 3180WAT      O13425   6.431   5.134   2.530
 3180WAT     H113426   6.491   5.196   2.544
 3180WAT     H213427   6.470   5.079   2.475
 3180WAT    EPW13428   6.445   5.135   2.524
 3181WAT      O13429   6.001   5.884   2.285
 3181WAT     H113430   6.052   5.912   2.350
 3181WAT     H213431   5.921   5.891   2.317
 3181WAT    EPW13432   5.997   5.889   2.300
 3182WAT      O13433   5.626   5.429   2.690
 3182WAT     H113434   5.646   5.354   2.730
 3182WAT     H213435   5.660   5.419   2.610
 3182WAT    EPW13436   5.634   5.416   2.684
 3183WAT      O13437   5.922   6.676   1.860
 3183WAT     H113438   5.908   6.759   1.884
 3183WAT     H213439   5.966   6.683   1.786
 3183WAT    EPW13440   5.927   6.689   1.853
 3184WAT      O13441   6.565   4.911   2.406
 3184WAT     H113442   6.594   4.867   2.336
 3184WAT     H213443   6.637   4.951   2.436
 3184WAT    EPW13444   6.580   4.910   2.400
 3185WAT      O13445   5.817   5.032   2.648
 3185WAT     H113446   5.899   5.058   2.632
 3185WAT     H213447   5.827   4.953   2.683
 3185WAT    EPW13448   5.830   5.024   2.651
 3186WAT      O13449   5.711   6.450   2.228
 3186WAT     H113450   5.636   6.478   2.194
 3186WAT     H213451   5.752   6.415   2.159
 3186WAT    EPW13452   5.706   6.449   2.213
 3187WAT      O13453   6.136   6.057   2.890
 3187WAT     H113454   6.217   6.082   2.872
 3187WAT     H213455   6.088   6.093   2.826
 3187WAT    EPW13456   6.141   6.066   2.878
 3188WAT      O13457   6.464   6.378   2.778
 3188WAT     H113458   6.499   6.405   2.853
 3188WAT     H213459   6.510   6.419   2.717
 3188WAT    EPW13460   6.476   6.388   2.780
 3189WAT      O13461   6.722   5.626   1.263
 3189WAT     H113462   6.772   5.683   1.220
 3189WAT     H213463   6.645   5.666   1.268
 3189WAT    EPW13464   6.718   5.640   1.257
 3190WAT      O13465   5.850   5.919   1.266
 3190WAT     H113466   5.771   5.906   1.230
 3190WAT     H213467   5.852   6.005   1.282
 3190WAT    EPW13468   5.839   5.930   1.263
 3191WAT      O13469   5.542   5.539   2.252
 3191WAT     H113470   5.570   5.509   2.175
 3191WAT     H213471   5.594   5.500   2.310
 3191WAT    EPW13472   5.554   5.529   2.250
 3192WAT      O13473   6.160   5.394   2.761
 3192WAT     H113474   6.111   5.466   2.763
 3192WAT     H213475   6.185   5.384   2.844
 3192WAT    EPW13476   6.156   5.403   2.773
 3193WAT      O13477   6.181   5.574   2.500
 3193WAT     H113478   6.245   5.624   2.532
 3193WAT     H213479   6.114   5.589   2.554
 3193WAT    EPW13480   6.181   5.583   2.513
 3194WAT      O13481   5.975   6.652   2.799
 3194WAT     H113482   5.986   6.650   2.712
 3194WAT     H213483   5.937   6.576   2.817
 3194WAT    EPW13484   5.971   6.641   2.789
 3195WAT      O13485   6.492   5.512   1.629
 3195WAT     H113486   6.519   5.495   1.710
 3195WAT     H213487   6.563   5.541   1.588
 3195WAT    EPW13488   6.506   5.514   1.635
 3196WAT      O13489   5.810   5.040   2.255
 3196WAT     H113490   5.743   5.066   2.305
 3196WAT     H213491   5.773   5.027   2.177
 3196WAT    EPW13492   5.795   5.042   2.251
 3197WAT      O13493   6.618   5.106   1.752
 3197WAT     H113494   6.541   5.066   1.762
 3197WAT     H213495   6.622   5.121   1.666
 3197WAT    EPW13496   6.607   5.102   1.740
 3198WAT      O13497   6.628   5.905   1.615
 3198WAT     H113498   6.671   5.831   1.599
 3198WAT     H213499   6.544   5.881   1.610
 3198WAT    EPW13500   6.622   5.891   1.612
 3199WAT      O13501   5.967   6.127   2.675
 3199WAT     H113502   5.895   6.127   2.724
 3199WAT     H213503   5.973   6.209   2.647
 3199WAT    EPW13504   5.957   6.139   2.678
 3200WAT      O13505   5.026   5.066   2.745
 3200WAT     H113506   5.004   5.149   2.729
 3200WAT     H213507   5.026   5.061   2.832
 3200WAT    EPW13508   5.022   5.078   2.755
 3201WAT      O13509   5.535   6.779   2.288
 3201WAT     H113510   5.545   6.752   2.370
 3201WAT     H213511   5.514   6.706   2.245
 3201WAT    EPW13512   5.533   6.764   2.294
 3202WAT      O13513   5.385   5.327   1.561
 3202WAT     H113514   5.398   5.290   1.484
 3202WAT     H213515   5.304   5.303   1.583
 3202WAT    EPW13516   5.375   5.318   1.553
 3203WAT      O13517   6.288   6.102   1.887
 3203WAT     H113518   6.269   6.115   1.971
 3203WAT     H213519   6.313   6.018   1.884
 3203WAT    EPW13520   6.289   6.092   1.899
 3204WAT      O13521   6.034   6.030   1.798
 3204WAT     H113522   5.994   6.026   1.875
 3204WAT     H213523   6.114   6.058   1.818
 3204WAT    EPW13524   6.040   6.033   1.812
 3205WAT      O13525   5.996   6.400   2.600
 3205WAT     H113526   6.054   6.396   2.665
 3205WAT     H213527   6.016   6.474   2.559
 3205WAT    EPW13528   6.007   6.410   2.603
 3206WAT      O13529   6.822   5.606   2.761
 3206WAT     H113530   6.739   5.630   2.771
 3206WAT     H213531   6.839   5.623   2.677
 3206WAT    EPW13532   6.812   5.612   2.750
 3207WAT      O13533   6.291   5.780   2.671
 3207WAT     H113534   6.297   5.751   2.753
 3207WAT     H213535   6.361   5.832   2.662
 3207WAT    EPW13536   6.302   5.783   2.681
 3208WAT      O13537   5.171   6.714   2.796
 3208WAT     H113538   5.117   6.646   2.791
 3208WAT     H213539   5.120   6.780   2.822
 3208WAT    EPW13540   5.156   6.714   2.799
 3209WAT      O13541   6.060   5.798   2.943
 3209WAT     H113542   6.083   5.879   2.917
 3209WAT     H213543   5.991   5.812   2.994
 3209WAT    EPW13544   6.053   5.812   2.946
 3210WAT      O13545   6.388   6.725   2.122
 3210WAT     H113546   6.328   6.786   2.140
 3210WAT     H213547   6.449   6.736   2.183
 3210WAT    EPW13548   6.388   6.736   2.134
 3211WAT      O13549   6.019   6.229   2.324
 3211WAT     H113550   5.935   6.227   2.349
 3211WAT     H213551   6.058   6.270   2.390
 3211WAT    EPW13552   6.012   6.235   2.338
 3212WAT      O13553   6.587   6.444   3.019
 3212WAT     H113554   6.667   6.411   3.016
 3212WAT     H213555   6.551   6.406   3.089
 3212WAT    EPW13556   6.593   6.434   3.029
 3213WAT      O13557   5.384   5.563   2.683
 3213WAT     H113558   5.398   5.620   2.619
 3213WAT     H213559   5.459   5.518   2.687
 3213WAT    EPW13560   5.397   5.565   2.674
 3214WAT      O13561   5.213   5.389   2.557
 3214WAT     H113562   5.233   5.405   2.474
 3214WAT     H213563   5.265   5.442   2.602
 3214WAT    EPW13564   5.223   5.399   2.551
 3215WAT      O13565   6.717   5.651   1.540
 3215WAT     H113566   6.728   5.647   1.454
 3215WAT     H213567   6.793   5.624   1.572
 3215WAT    EPW13568   6.730   5.647   1.532
 3216WAT      O13569   5.446   5.064   2.817
 3216WAT     H113570   5.470   4.980   2.812
 3216WAT     H213571   5.422   5.083   2.735
 3216WAT    EPW13572   5.446   5.055   2.804
 3217WAT      O13573   6.134   6.399   1.713
 3217WAT     H113574   6.118   6.481   1.687
 3217WAT     H213575   6.061   6.356   1.689
 3217WAT    EPW13576   6.121   6.405   1.705
 3218WAT      O13577   6.546   5.651   2.518
 3218WAT     H113578   6.555   5.566   2.535
 3218WAT     H213579   6.543   5.687   2.597
 3218WAT    EPW13580   6.547   5.644   2.532
 3219WAT      O13581   5.097   5.878   2.547
 3219WAT     H113582   5.147   5.898   2.479
 3219WAT     H213583   5.077   5.794   2.534
 3219WAT    EPW13584   5.101   5.868   2.535
 3220WAT      O13585   5.277   5.494   1.212
 3220WAT     H113586   5.202   5.487   1.257
 3220WAT     H213587   5.283   5.418   1.171
 3220WAT    EPW13588   5.267   5.482   1.213
 3221WAT      O13589   6.121   5.100   2.910
 3221WAT     H113590   6.152   5.172   2.948
 3221WAT     H213591   6.044   5.087   2.948
 3221WAT    EPW13592   6.114   5.108   2.921
 3222WAT      O13593   6.141   5.215   1.954
 3222WAT     H113594   6.063   5.253   1.955
 3222WAT     H213595   6.135   5.158   1.888
 3222WAT    EPW13596   6.128   5.212   1.944
 3223WAT      O13597   5.569   6.398   1.294
 3223WAT     H113598   5.609   6.429   1.365
 3223WAT     H213599   5.493   6.367   1.325
 3223WAT    EPW13600   5.563   6.398   1.309
 3224WAT      O13601   6.428   5.314   2.248
 3224WAT     H113602   6.509   5.284   2.261
 3224WAT     H213603   6.437   5.401   2.257
 3224WAT    EPW13604   6.441   5.323   2.252
 3225WAT      O13605   5.633   5.852   2.632
 3225WAT     H113606   5.595   5.926   2.658
 3225WAT     H213607   5.571   5.814   2.583
 3225WAT    EPW13608   5.618   5.857   2.629
 3226WAT      O13609   6.540   5.715   2.008
 3226WAT     H113610   6.600   5.777   2.020
 3226WAT     H213611   6.479   5.754   1.959
 3226WAT    EPW13612   6.540   5.730   2.002
 3227WAT      O13613   6.552   6.536   1.756
 3227WAT     H113614   6.538   6.458   1.794
 3227WAT     H213615   6.588   6.515   1.679
 3227WAT    EPW13616   6.555   6.521   1.750
 3228WAT      O13617   5.344   6.299   1.425
 3228WAT     H113618   5.344   6.279   1.510
 3228WAT     H213619   5.343   6.221   1.386
 3228WAT    EPW13620   5.344   6.284   1.432
 3229WAT      O13621   5.639   6.132   1.233
 3229WAT     H113622   5.564   6.090   1.249
 3229WAT     H213623   5.621   6.215   1.254
 3229WAT    EPW13624   5.625   6.138   1.238
 3230WAT      O13625   5.645   5.144   2.457
 3230WAT     H113626   5.561   5.139   2.481
 3230WAT     H213627   5.687   5.097   2.517
 3230WAT    EPW13628   5.639   5.136   2.469
 3231WAT      O13629   6.765   5.091   2.514
 3231WAT     H113630   6.771   5.147   2.580
 3231WAT     H213631   6.841   5.049   2.515
 3231WAT    EPW13632   6.777   5.093   2.524
 3232WAT      O13633   6.047   5.193   2.310
 3232WAT     H113634   5.978   5.140   2.303
 3232WAT     H213635   6.110   5.149   2.269
 3232WAT    EPW13636   6.046   5.178   2.303
 3233WAT      O13637   6.289   6.334   2.415
 3233WAT     H113638   6.312   6.404   2.462
 3233WAT     H213639   6.276   6.366   2.335
 3233WAT    EPW13640   6.290   6.349   2.410
 3234WAT      O13641   6.245   6.723   2.850
 3234WAT     H113642   6.172   6.685   2.823
 3234WAT     H213643   6.219   6.805   2.866
 3234WAT    EPW13644   6.230   6.730   2.849
 3235WAT      O13645   5.744   5.650   2.804
 3235WAT     H113646   5.701   5.582   2.769
 3235WAT     H213647   5.711   5.719   2.762
 3235WAT    EPW13648   5.733   5.650   2.793
 3236WAT      O13649   5.825   4.992   1.338
 3236WAT     H113650   5.833   5.003   1.252
 3236WAT     H213651   5.738   4.993   1.350
 3236WAT    EPW13652   5.813   4.994   1.327
 3237WAT      O13653   6.707   6.183   2.357
 3237WAT     H113654   6.684   6.102   2.335
 3237WAT     H213655   6.654   6.233   2.308
 3237WAT    EPW13656   6.696   6.179   2.347
 3238WAT      O13657   5.622   6.624   2.826
 3238WAT     H113658   5.604   6.641   2.909
 3238WAT     H213659   5.686   6.564   2.831
 3238WAT    EPW13660   5.629   6.618   2.839
 3239WAT      O13661   6.613   6.487   2.314
 3239WAT     H113662   6.684   6.488   2.263
 3239WAT     H213663   6.558   6.436   2.271
 3239WAT    EPW13664   6.615   6.480   2.300
 3240WAT      O13665   5.382   5.158   2.560
 3240WAT     H113666   5.326   5.094   2.537
 3240WAT     H213667   5.331   5.229   2.561
 3240WAT    EPW13668   5.366   5.159   2.557
 3241WAT      O13669   6.269   5.097   2.173
 3241WAT     H113670   6.322   5.162   2.198
 3241WAT     H213671   6.230   5.128   2.101
 3241WAT    EPW13672   6.271   5.111   2.166
 3242WAT      O13673   5.335   6.531   2.947
 3242WAT     H113674   5.399   6.567   2.993
 3242WAT     H213675   5.297   6.598   2.907
 3242WAT    EPW13676   5.339   6.546   2.948
 3243WAT      O13677   6.206   5.609   1.969
 3243WAT     H113678   6.262   5.543   1.975
 3243WAT     H213679   6.179   5.621   2.051
 3243WAT    EPW13680   6.211   5.601   1.982
 3244WAT      O13681   5.213   5.482   1.886
 3244WAT     H113682   5.170   5.505   1.958
 3244WAT     H213683   5.253   5.408   1.909
 3244WAT    EPW13684   5.213   5.475   1.900
 3245WAT      O13685   5.193   6.295   2.682
 3245WAT     H113686   5.138   6.355   2.714
 3245WAT     H213687   5.272   6.329   2.700
 3245WAT    EPW13688   5.196   6.309   2.690
 3246WAT      O13689   6.382   5.763   1.580
 3246WAT     H113690   6.405   5.680   1.595
 3246WAT     H213691   6.307   5.755   1.535
 3246WAT    EPW13692   6.374   5.749   1.576
 3247WAT      O13693   5.381   6.629   1.525
 3247WAT     H113694   5.338   6.600   1.455
 3247WAT     H213695   5.455   6.582   1.525
 3247WAT    EPW13696   5.386   6.618   1.515
 3248WAT      O13697   5.771   5.840   1.518
 3248WAT     H113698   5.799   5.872   1.441
 3248WAT     H213699   5.845   5.828   1.563
 3248WAT    EPW13700   5.786   5.843   1.513
 3249WAT      O13701   6.653   6.698   1.177
 3249WAT     H113702   6.721   6.693   1.231
 3249WAT     H213703   6.632   6.615   1.162
 3249WAT    EPW13704   6.660   6.685   1.183
 3250WAT      O13705   6.683   5.958   2.871
 3250WAT     H113706   6.750   5.917   2.909
 3250WAT     H213707   6.721   6.002   2.805
 3250WAT    EPW13708   6.699   5.958   2.867
 3251WAT      O13709   6.305   6.332   1.499
 3251WAT     H113710   6.258   6.334   1.572
 3251WAT     H213711   6.262   6.274   1.449
 3251WAT    EPW13712   6.292   6.323   1.502
 3252WAT      O13713   6.732   5.393   2.987
 3252WAT     H113714   6.726   5.470   3.026
 3252WAT     H213715   6.652   5.379   2.954
 3252WAT    EPW13716   6.719   5.402   2.988
 3253WAT      O13717   6.759   5.524   2.272
 3253WAT     H113718   6.676   5.547   2.260
 3253WAT     H213719   6.756   5.437   2.278
 3253WAT    EPW13720   6.746   5.515   2.271
 3254WAT      O13721   5.688   5.188   2.833
 3254WAT     H113722   5.732   5.145   2.771
 3254WAT     H213723   5.610   5.150   2.832
 3254WAT    EPW13724   5.683   5.176   2.823
 3255WAT      O13725   6.455   6.004   3.105
 3255WAT     H113726   6.526   6.035   3.145
 3255WAT     H213727   6.462   6.036   3.024
 3255WAT    EPW13728   6.466   6.014   3.099
 3256WAT      O13729   5.439   6.532   2.175
 3256WAT     H113730   5.417   6.453   2.146
 3256WAT     H213731   5.404   6.586   2.116
 3256WAT    EPW13732   5.430   6.528   2.162
 3257WAT      O13733   5.955   6.166   1.373
 3257WAT     H113734   6.039   6.149   1.357
 3257WAT     H213735   5.941   6.242   1.332
 3257WAT    EPW13736   5.965   6.175   1.365
 3258WAT      O13737   5.161   6.768   2.519
 3258WAT     H113738   5.166   6.747   2.603
 3258WAT     H213739   5.202   6.703   2.479
 3258WAT    EPW13740   5.168   6.755   2.525
 3259WAT      O13741   6.066   5.639   0.339
 3259WAT     H113742   6.037   5.718   0.361
 3259WAT     H213743   6.134   5.627   0.392
 3259WAT    EPW13744   6.072   5.649   0.350
 3260WAT      O13745   5.113   6.329   0.504
 3260WAT     H113746   5.131   6.317   0.588
 3260WAT     H213747   5.053   6.268   0.487
 3260WAT    EPW13748   5.106   6.318   0.514
 3261WAT      O13749   5.735   6.154   0.975
 3261WAT     H113750   5.711   6.139   1.057
 3261WAT     H213751   5.663   6.139   0.929
 3261WAT    EPW13752   5.721   6.150   0.980
 3262WAT      O13753   5.680   5.428   0.545
 3262WAT     H113754   5.758   5.430   0.506
 3262WAT     H213755   5.655   5.345   0.538
 3262WAT    EPW13756   5.688   5.416   0.539
 3263WAT      O13757   5.709   6.449   0.707
 3263WAT     H113758   5.728   6.505   0.643
 3263WAT     H213759   5.787   6.418   0.731
 3263WAT    EPW13760   5.723   6.453   0.701
 3264WAT      O13761   6.021   5.721   0.913
 3264WAT     H113762   5.934   5.713   0.909
 3264WAT     H213763   6.034   5.767   0.986
 3264WAT    EPW13764   6.010   5.727   0.923
 3265WAT      O13765   6.441   4.900   0.798
 3265WAT     H113766   6.432   4.981   0.767
 3265WAT     H213767   6.375   4.891   0.854
 3265WAT    EPW13768   6.430   4.910   0.801
 3266WAT      O13769   5.071   5.675   0.323
 3266WAT     H113770   5.026   5.750   0.325
 3266WAT     H213771   5.012   5.616   0.349
 3266WAT    EPW13772   5.055   5.677   0.327
 3267WAT      O13773   5.318   5.074   0.370
 3267WAT     H113774   5.330   5.133   0.306
 3267WAT     H213775   5.380   5.014   0.353
 3267WAT    EPW13776   5.329   5.074   0.358
 3268WAT      O13777   5.693   5.315   1.191
 3268WAT     H113778   5.687   5.278   1.113
 3268WAT     H213779   5.734   5.390   1.175
 3268WAT    EPW13780   5.698   5.321   1.177
 3269WAT      O13781   6.303   6.621   0.582
 3269WAT     H113782   6.361   6.657   0.636
 3269WAT     H213783   6.333   6.641   0.503
 3269WAT    EPW13784   6.316   6.629   0.578
 3270WAT      O13785   5.280   5.233   1.104
 3270WAT     H113786   5.199   5.203   1.098
 3270WAT     H213787   5.319   5.201   1.033
 3270WAT    EPW13788   5.274   5.224   1.093
 3271WAT      O13789   5.856   5.024   1.064
 3271WAT     H113790   5.873   4.951   1.020
 3271WAT     H213791   5.785   5.056   1.024
 3271WAT    EPW13792   5.848   5.018   1.052
 3272WAT      O13793   5.512   6.685   0.603
 3272WAT     H113794   5.533   6.680   0.687
 3272WAT     H213795   5.445   6.628   0.595
 3272WAT    EPW13796   5.505   6.676   0.614
 3273WAT      O13797   6.795   5.205   0.442
 3273WAT     H113798   6.862   5.171   0.398
 3273WAT     H213799   6.791   5.156   0.514
 3273WAT    EPW13800   6.805   5.193   0.446
 3274WAT      O13801   5.024   5.342   0.855
 3274WAT     H113802   5.008   5.419   0.891
 3274WAT     H213803   5.080   5.360   0.791
 3274WAT    EPW13804   5.030   5.356   0.851
 3275WAT      O13805   6.188   6.423   0.897
 3275WAT     H113806   6.178   6.439   0.982
 3275WAT     H213807   6.273   6.404   0.889
 3275WAT    EPW13808   6.199   6.423   0.909
 3276WAT      O13809   5.302   6.532   0.483
 3276WAT     H113810   5.247   6.465   0.491
 3276WAT     H213811   5.334   6.522   0.402
 3276WAT    EPW13812   5.299   6.521   0.472
 3277WAT      O13813   6.043   6.676   0.649
 3277WAT     H113814   6.121   6.648   0.622
 3277WAT     H213815   5.988   6.642   0.591
 3277WAT    EPW13816   6.046   6.667   0.637
 3278WAT      O13817   5.448   6.393   0.825
 3278WAT     H113818   5.524   6.426   0.796
 3278WAT     H213819   5.434   6.437   0.899
 3278WAT    EPW13820   5.457   6.405   0.832
 3279WAT      O13821   5.668   6.040   0.242
 3279WAT     H113822   5.678   6.004   0.321
 3279WAT     H213823   5.669   5.972   0.188
 3279WAT    EPW13824   5.670   6.025   0.246
 3280WAT      O13825   6.225   5.346   0.660
 3280WAT     H113826   6.216   5.396   0.730
 3280WAT     H213827   6.155   5.294   0.663
 3280WAT    EPW13828   6.214   5.345   0.671
 3281WAT      O13829   5.724   5.979   0.510
 3281WAT     H113830   5.713   6.065   0.524
 3281WAT     H213831   5.702   5.943   0.586
 3281WAT    EPW13832   5.719   5.986   0.523
 3282WAT      O13833   6.305   6.091   0.450
 3282WAT     H113834   6.257   6.048   0.509
 3282WAT     H213835   6.297   6.175   0.475
 3282WAT    EPW13836   6.297   6.097   0.463
 3283WAT      O13837   5.008   6.386   1.152
 3283WAT     H113838   5.066   6.433   1.196
 3283WAT     H213839   5.017   6.306   1.186
 3283WAT    EPW13840   5.018   6.381   1.164
 3284WAT      O13841   6.635   5.365   0.755
 3284WAT     H113842   6.718   5.348   0.776
 3284WAT     H213843   6.596   5.377   0.832
 3284WAT    EPW13844   6.642   5.364   0.770
 3285WAT      O13845   5.272   5.494   0.399
 3285WAT     H113846   5.351   5.526   0.382
 3285WAT     H213847   5.218   5.554   0.366
 3285WAT    EPW13848   5.276   5.508   0.391
 3286WAT      O13849   6.881   6.496   0.891
 3286WAT     H113850   6.803   6.505   0.853
 3286WAT     H213851   6.864   6.447   0.961
 3286WAT    EPW13852   6.867   6.490   0.895
 3287WAT      O13853   5.828   5.560   1.169
 3287WAT     H113854   5.781   5.592   1.235
 3287WAT     H213855   5.803   5.608   1.101
 3287WAT    EPW13856   5.817   5.572   1.169
 3288WAT      O13857   6.905   5.620   0.637
 3288WAT     H113858   6.968   5.560   0.634
 3288WAT     H213859   6.846   5.591   0.581
 3288WAT    EPW13860   6.906   5.607   0.629
 3289WAT      O13861   5.447   6.187   0.342
 3289WAT     H113862   5.494   6.211   0.412
 3289WAT     H213863   5.505   6.143   0.294
 3289WAT    EPW13864   5.463   6.184   0.346
 3290WAT      O13865   6.630   6.528   0.767
 3290WAT     H113866   6.579   6.599   0.771
 3290WAT     H213867   6.623   6.504   0.683
 3290WAT    EPW13868   6.622   6.535   0.755
 3291WAT      O13869   5.392   5.689   1.046
 3291WAT     H113870   5.353   5.628   1.094
 3291WAT     H213871   5.388   5.657   0.965
 3291WAT    EPW13872   5.386   5.675   1.042
 3292WAT      O13873   5.438   5.768   0.578
 3292WAT     H113874   5.472   5.720   0.513
 3292WAT     H213875   5.390   5.828   0.537
 3292WAT    EPW13876   5.436   5.770   0.562
 3293WAT      O13877   6.491   5.481   0.358
 3293WAT     H113878   6.430   5.514   0.411
 3293WAT     H213879   6.461   5.498   0.278
 3293WAT    EPW13880   6.478   5.489   0.354
 3294WAT      O13881   5.817   6.606   0.500
 3294WAT     H113882   5.812   6.548   0.435
 3294WAT     H213883   5.801   6.682   0.461
 3294WAT    EPW13884   5.814   6.609   0.485
 3295WAT      O13885   6.046   5.112   0.692
 3295WAT     H113886   6.063   5.027   0.680
 3295WAT     H213887   6.065   5.124   0.776
 3295WAT    EPW13888   6.052   5.101   0.703
 3296WAT      O13889   5.244   5.918   1.082
 3296WAT     H113890   5.242   5.959   1.005
 3296WAT     H213891   5.295   5.849   1.066
 3296WAT    EPW13892   5.252   5.914   1.068
 3297WAT      O13893   6.402   6.090   0.934
 3297WAT     H113894   6.426   6.173   0.920
 3297WAT     H213895   6.432   6.048   0.864
 3297WAT    EPW13896   6.410   6.096   0.922
 3298WAT      O13897   5.801   6.428   1.013
 3298WAT     H113898   5.836   6.424   1.093
 3298WAT     H213899   5.784   6.345   0.994
 3298WAT    EPW13900   5.803   6.415   1.022
 3299WAT      O13901   5.912   5.416   0.402
 3299WAT     H113902   5.963   5.482   0.375
 3299WAT     H213903   5.961   5.345   0.390
 3299WAT    EPW13904   5.926   5.416   0.397
 3300WAT      O13905   6.414   6.381   0.231
 3300WAT     H113906   6.340   6.353   0.195
 3300WAT     H213907   6.405   6.468   0.234
 3300WAT    EPW13908   6.402   6.390   0.226
 3301WAT      O13909   6.197   6.196   0.202
 3301WAT     H113910   6.112   6.182   0.211
 3301WAT     H213911   6.233   6.149   0.266
 3301WAT    EPW13912   6.190   6.187   0.213
 3302WAT      O13913   6.515   5.951   0.714
 3302WAT     H113914   6.519   5.929   0.630
 3302WAT     H213915   6.597   5.977   0.732
 3302WAT    EPW13916   6.528   5.951   0.705
 3303WAT      O13917   6.173   6.539   1.161
 3303WAT     H113918   6.208   6.558   1.239
 3303WAT     H213919   6.192   6.609   1.113
 3303WAT    EPW13920   6.181   6.552   1.166
 3304WAT      O13921   6.684   4.969   0.923
 3304WAT     H113922   6.605   4.957   0.886
 3304WAT     H213923   6.675   4.932   1.002
 3304WAT    EPW13924   6.671   4.962   0.929
 3305WAT      O13925   6.131   5.969   0.635
 3305WAT     H113926   6.081   6.000   0.699
 3305WAT     H213927   6.173   5.902   0.672
 3305WAT    EPW13928   6.130   5.964   0.650
 3306WAT      O13929   6.560   6.194   0.376
 3306WAT     H113930   6.527   6.246   0.314
 3306WAT     H213931   6.492   6.147   0.402
 3306WAT    EPW13932   6.545   6.195   0.370
 3307WAT      O13933   5.934   6.136   0.288
 3307WAT     H113934   5.853   6.122   0.260
 3307WAT     H213935   5.957   6.061   0.326
 3307WAT    EPW13936   5.926   6.123   0.289
 3308WAT      O13937   5.287   5.957   0.428
 3308WAT     H113938   5.325   6.034   0.409
 3308WAT     H213939   5.251   5.933   0.353
 3308WAT    EPW13940   5.288   5.965   0.414
 3309WAT      O13941   6.561   5.823   0.466
 3309WAT     H113942   6.571   5.754   0.520
 3309WAT     H213943   6.483   5.809   0.430
 3309WAT    EPW13944   6.551   5.811   0.469
 3310WAT      O13945   5.237   6.044   0.838
 3310WAT     H113946   5.200   5.994   0.777
 3310WAT     H213947   5.207   6.124   0.819
 3310WAT    EPW13948   5.227   6.048   0.826
 3311WAT      O13949   6.801   5.899   0.343
 3311WAT     H113950   6.728   5.873   0.383
 3311WAT     H213951   6.772   5.932   0.267
 3311WAT    EPW13952   6.786   5.900   0.337
 3312WAT      O13953   6.443   5.335   0.975
 3312WAT     H113954   6.374   5.331   1.028
 3312WAT     H213955   6.426   5.274   0.915
 3312WAT    EPW13956   6.430   5.325   0.974
 3313WAT      O13957   6.829   6.518   0.373
 3313WAT     H113958   6.866   6.533   0.295
 3313WAT     H213959   6.888   6.469   0.415
 3313WAT    EPW13960   6.844   6.513   0.368
 3314WAT      O13961   6.327   5.679   1.087
 3314WAT     H113962   6.369   5.687   1.163
 3314WAT     H213963   6.256   5.728   1.098
 3314WAT    EPW13964   6.322   5.687   1.100
 3315WAT      O13965   6.560   5.704   0.927
 3315WAT     H113966   6.585   5.785   0.946
 3315WAT     H213967   6.487   5.693   0.974
 3315WAT    EPW13968   6.553   5.714   0.937
 3316WAT      O13969   6.881   5.790   1.110
 3316WAT     H113970   6.885   5.736   1.042
 3316WAT     H213971   6.958   5.829   1.110
 3316WAT    EPW13972   6.893   5.788   1.100
 3317WAT      O13973   6.774   6.042   0.754
 3317WAT     H113974   6.837   5.985   0.734
 3317WAT     H213975   6.776   6.098   0.688
 3317WAT    EPW13976   6.783   6.042   0.741
 3318WAT      O13977   5.662   6.253   0.514
 3318WAT     H113978   5.671   6.305   0.583
 3318WAT     H213979   5.696   6.299   0.448
 3318WAT    EPW13980   5.668   6.267   0.514
 3319WAT      O13981   5.503   6.118   0.824
 3319WAT     H113982   5.422   6.086   0.832
 3319WAT     H213983   5.491   6.204   0.818
 3319WAT    EPW13984   5.489   6.126   0.824
 3320WAT      O13985   6.429   5.173   0.742
 3320WAT     H113986   6.501   5.216   0.720
 3320WAT     H213987   6.365   5.220   0.704
 3320WAT    EPW13988   6.430   5.186   0.733
 3321WAT      O13989   5.974   5.895   0.422
 3321WAT     H113990   6.027   5.915   0.489
 3321WAT     H213991   5.894   5.907   0.455
 3321WAT    EPW13992   5.970   5.900   0.437
 3322WAT      O13993   5.631   5.458   0.816
 3322WAT     H113994   5.638   5.379   0.851
 3322WAT     H213995   5.657   5.446   0.733
 3322WAT    EPW13996   5.636   5.445   0.809
 3323WAT      O13997   6.548   4.939   0.497
 3323WAT     H113998   6.525   5.020   0.475
 3323WAT     H213999   6.623   4.950   0.540
 3323WAT    EPW14000   6.556   4.952   0.500
 3324WAT      O14001   5.774   5.054   0.744
 3324WAT     H114002   5.859   5.058   0.727
 3324WAT     H214003   5.762   4.972   0.770
 3324WAT    EPW14004   5.785   5.043   0.745
 3325WAT      O14005   5.724   6.421   0.298
 3325WAT     H114006   5.646   6.436   0.262
 3325WAT     H214007   5.775   6.402   0.229
 3325WAT    EPW14008   5.720   6.420   0.282
 3326WAT      O14009   6.149   6.096   1.039
 3326WAT     H114010   6.227   6.096   1.000
 3326WAT     H214011   6.093   6.105   0.972
 3326WAT    EPW14012   6.152   6.097   1.023
 3327WAT      O14013   6.462   6.360   0.909
 3327WAT     H114014   6.496   6.381   0.986
 3327WAT     H214015   6.512   6.404   0.852
 3327WAT    EPW14016   6.474   6.370   0.912
 3328WAT      O14017   5.535   5.594   0.380
 3328WAT     H114018   5.579   5.594   0.305
 3328WAT     H214019   5.581   5.540   0.431
 3328WAT    EPW14020   5.548   5.586   0.377
 3329WAT      O14021   6.215   5.536   0.862
 3329WAT     H114022   6.144   5.584   0.876
 3329WAT     H214023   6.260   5.543   0.937
 3329WAT    EPW14024   6.211   5.544   0.876
 3330WAT      O14025   6.280   5.576   0.507
 3330WAT     H114026   6.292   5.634   0.571
 3330WAT     H214027   6.259   5.502   0.549
 3330WAT    EPW14028   6.279   5.573   0.523
 3331WAT      O14029   5.943   6.646   0.905
 3331WAT     H114030   5.969   6.632   0.823
 3331WAT     H214031   5.910   6.569   0.930
 3331WAT    EPW14032   5.942   6.632   0.897
 3332WAT      O14033   5.777   5.016   0.376
 3332WAT     H114034   5.730   5.071   0.426
 3332WAT     H214035   5.717   4.979   0.325
 3332WAT    EPW14036   5.761   5.019   0.376
 3333WAT      O14037   5.969   6.100   0.828
 3333WAT     H114038   5.894   6.098   0.873
 3333WAT     H214039   5.971   6.181   0.796
 3333WAT    EPW14040   5.958   6.112   0.830
 3334WAT      O14041   5.033   5.111   1.008
 3334WAT     H114042   5.032   5.184   0.960
 3334WAT     H214043   4.957   5.072   0.989
 3334WAT    EPW14044   5.022   5.116   0.998
 3335WAT      O14045   5.528   6.717   0.323
 3335WAT     H114046   5.532   6.704   0.409
 3335WAT     H214047   5.505   6.639   0.291
 3335WAT    EPW14048   5.525   6.704   0.331
 3336WAT      O14049   5.969   6.360   0.738
 3336WAT     H114050   6.042   6.384   0.778
 3336WAT     H214051   5.990   6.359   0.654
 3336WAT    EPW14052   5.983   6.363   0.732
 3337WAT      O14053   6.832   5.612   0.903
 3337WAT     H114054   6.745   5.623   0.910
 3337WAT     H214055   6.848   5.624   0.818
 3337WAT    EPW14056   6.821   5.615   0.892
 3338WAT      O14057   6.298   5.762   0.713
 3338WAT     H114058   6.282   5.702   0.774
 3338WAT     H214059   6.370   5.802   0.741
 3338WAT    EPW14060   6.306   5.759   0.726
 3339WAT      O14061   5.183   6.724   0.903
 3339WAT     H114062   5.129   6.656   0.896
 3339WAT     H214063   5.131   6.790   0.923
 3339WAT    EPW14064   5.168   6.723   0.905
 3340WAT      O14065   6.092   5.852   1.152
 3340WAT     H114066   6.117   5.928   1.119
 3340WAT     H214067   6.012   5.867   1.182
 3340WAT    EPW14068   6.084   5.865   1.152
 3341WAT      O14069   6.393   6.650   0.314
 3341WAT     H114070   6.354   6.726   0.295
 3341WAT     H214071   6.465   6.675   0.357
 3341WAT    EPW14072   6.398   6.665   0.318
 3342WAT      O14073   6.008   6.348   0.465
 3342WAT     H114074   5.986   6.283   0.412
 3342WAT     H214075   6.095   6.353   0.456
 3342WAT    EPW14076   6.018   6.339   0.456
 3343WAT      O14077   6.600   6.430   1.139
 3343WAT     H114078   6.682   6.401   1.132
 3343WAT     H214079   6.572   6.394   1.214
 3343WAT    EPW14080   6.608   6.420   1.149
 3344WAT      O14081   5.387   5.586   0.786
 3344WAT     H114082   5.400   5.646   0.724
 3344WAT     H214083   5.465   5.546   0.792
 3344WAT    EPW14084   5.401   5.589   0.778
 3345WAT      O14085   5.213   5.419   0.654
 3345WAT     H114086   5.230   5.437   0.570
 3345WAT     H214087   5.270   5.467   0.698
 3345WAT    EPW14088   5.224   5.429   0.648
 3346WAT      O14089   5.393   5.096   0.890
 3346WAT     H114090   5.351   5.019   0.898
 3346WAT     H214091   5.378   5.119   0.808
 3346WAT    EPW14092   5.385   5.088   0.879
 3347WAT      O14093   6.585   5.624   0.658
 3347WAT     H114094   6.601   5.539   0.671
 3347WAT     H214095   6.571   5.655   0.738
 3347WAT    EPW14096   6.585   5.616   0.672
 3348WAT      O14097   5.113   5.891   0.644
 3348WAT     H114098   5.157   5.909   0.570
 3348WAT     H214099   5.093   5.807   0.635
 3348WAT    EPW14100   5.117   5.881   0.631
 3349WAT      O14101   6.090   5.143   0.965
 3349WAT     H114102   6.126   5.202   1.018
 3349WAT     H214103   6.017   5.119   1.008
 3349WAT    EPW14104   6.084   5.148   0.979
 3350WAT      O14105   6.514   5.204   0.397
 3350WAT     H114106   6.601   5.200   0.396
 3350WAT     H214107   6.497   5.289   0.391
 3350WAT    EPW14108   6.524   5.216   0.396
 3351WAT      O14109   5.626   5.876   0.750
 3351WAT     H114110   5.592   5.951   0.777
 3351WAT     H214111   5.563   5.841   0.701
 3351WAT    EPW14112   5.612   5.882   0.747
 3352WAT      O14113   5.614   5.164   0.547
 3352WAT     H114114   5.530   5.156   0.567
 3352WAT     H214115   5.654   5.122   0.613
 3352WAT    EPW14116   5.608   5.156   0.560
 3353WAT      O14117   6.775   5.016   0.649
 3353WAT     H114118   6.758   5.003   0.734
 3353WAT     H214119   6.855   4.981   0.639
 3353WAT    EPW14120   6.784   5.009   0.660
 3354WAT      O14121   6.030   5.156   0.407
 3354WAT     H114122   5.960   5.110   0.382
 3354WAT     H214123   6.033   5.145   0.493
 3354WAT    EPW14124   6.020   5.148   0.416
 3355WAT      O14125   6.286   6.363   0.479
 3355WAT     H114126   6.301   6.434   0.528
 3355WAT     H214127   6.331   6.379   0.407
 3355WAT    EPW14128   6.295   6.376   0.476
 3356WAT      O14129   6.214   6.735   0.963
 3356WAT     H114130   6.148   6.689   0.929
 3356WAT     H214131   6.182   6.816   0.969
 3356WAT    EPW14132   6.200   6.740   0.959
 3357WAT      O14133   5.746   5.687   0.926
 3357WAT     H114134   5.712   5.615   0.890
 3357WAT     H214135   5.710   5.752   0.881
 3357WAT    EPW14136   5.736   5.686   0.914
 3358WAT      O14137   6.807   6.139   0.487
 3358WAT     H114138   6.822   6.062   0.450
 3358WAT     H214139   6.731   6.165   0.453
 3358WAT    EPW14140   6.798   6.132   0.477
 3359WAT      O14141   5.630   6.667   0.866
 3359WAT     H114142   5.623   6.663   0.953
 3359WAT     H214143   5.675   6.595   0.846
 3359WAT    EPW14144   5.635   6.656   0.876
 3360WAT      O14145   6.600   6.444   0.509
 3360WAT     H114146   6.665   6.475   0.460
 3360WAT     H214147   6.583   6.366   0.474
 3360WAT    EPW14148   6.607   6.437   0.496
 3361WAT      O14149   5.346   5.172   0.631
 3361WAT     H114150   5.318   5.131   0.560
 3361WAT     H214151   5.299   5.246   0.632
 3361WAT    EPW14152   5.335   5.177   0.621
 3362WAT      O14153   6.280   5.052   0.309
 3362WAT     H114154   6.342   5.109   0.332
 3362WAT     H214155   6.206   5.091   0.334
 3362WAT    EPW14156   6.279   5.066   0.316
 3363WAT      O14157   5.339   6.541   1.054
 3363WAT     H114158   5.414   6.580   1.079
 3363WAT     H214159   5.297   6.604   1.010
 3363WAT    EPW14160   5.344   6.556   1.051
 3364WAT      O14161   5.186   6.310   0.768
 3364WAT     H114162   5.135   6.368   0.808
 3364WAT     H214163   5.266   6.342   0.781
 3364WAT    EPW14164   5.191   6.323   0.776
 3365WAT      O14165   6.677   5.946   1.005
 3365WAT     H114166   6.746   5.910   1.044
 3365WAT     H214167   6.711   5.991   0.940
 3365WAT    EPW14168   6.692   5.947   1.001
 3366WAT      O14169   6.684   5.396   1.097
 3366WAT     H114170   6.679   5.474   1.136
 3366WAT     H214171   6.602   5.383   1.069
 3366WAT    EPW14172   6.671   5.406   1.099
 3367WAT      O14173   6.764   5.485   0.431
 3367WAT     H114174   6.679   5.492   0.413
 3367WAT     H214175   6.778   5.399   0.437
 3367WAT    EPW14176   6.753   5.474   0.430
 3368WAT      O14177   5.649   5.197   0.937
 3368WAT     H114178   5.693   5.161   0.871
 3368WAT     H214179   5.569   5.163   0.930
 3368WAT    EPW14180   5.644   5.186   0.926
 3369WAT      O14181   6.458   6.010   1.217
 3369WAT     H114182   6.534   6.034   1.253
 3369WAT     H214183   6.470   6.023   1.132
 3369WAT    EPW14184   6.471   6.016   1.210
 3370WAT      O14185   5.442   6.452   0.228
 3370WAT     H114186   5.430   6.369   0.253
 3370WAT     H214187   5.412   6.454   0.146
 3370WAT    EPW14188   5.436   6.440   0.220
 3371WAT      O14189   5.150   6.742   0.616
 3371WAT     H114190   5.181   6.727   0.696
 3371WAT     H214191   5.194   6.686   0.565
 3371WAT    EPW14192   5.161   6.731   0.620
 3372WAT      O14193   6.125   3.133   7.403
 3372WAT     H114194   6.115   3.181   7.331
 3372WAT     H214195   6.212   3.122   7.409
 3372WAT    EPW14196   6.137   3.138   7.393
 3373WAT      O14197   5.116   4.272   7.425
 3373WAT     H114198   5.103   4.270   7.511
 3373WAT     H214199   5.107   4.189   7.401
 3373WAT    EPW14200   5.113   4.260   7.434
 3374WAT      O14201   6.704   4.649   7.191
 3374WAT     H114202   6.769   4.594   7.210
 3374WAT     H214203   6.649   4.600   7.144
 3374WAT    EPW14204   6.705   4.634   7.187
 3375WAT      O14205   5.044   3.618   7.018
 3375WAT     H114206   4.978   3.666   6.986
 3375WAT     H214207   5.014   3.536   7.010
 3375WAT    EPW14208   5.030   3.613   7.012
 3376WAT      O14209   5.375   4.202   6.971
 3376WAT     H114210   5.335   4.162   6.904
 3376WAT     H214211   5.389   4.137   7.028
 3376WAT    EPW14212   5.371   4.187   6.969
 3377WAT      O14213   6.328   3.991   7.521
 3377WAT     H114214   6.338   3.982   7.435
 3377WAT     H214215   6.285   3.920   7.545
 3377WAT    EPW14216   6.323   3.979   7.512
 3378WAT      O14217   5.358   4.386   7.347
 3378WAT     H114218   5.429   4.349   7.382
 3378WAT     H214219   5.292   4.338   7.378
 3378WAT    EPW14220   5.359   4.373   7.357
 3379WAT      O14221   5.745   3.286   7.349
 3379WAT     H114222   5.763   3.334   7.279
 3379WAT     H214223   5.737   3.205   7.316
 3379WAT    EPW14224   5.747   3.281   7.334
 3380WAT      O14225   5.180   4.638   6.940
 3380WAT     H114226   5.231   4.650   6.869
 3380WAT     H214227   5.225   4.581   6.988
 3380WAT    EPW14228   5.194   4.631   6.936
 3381WAT      O14229   5.309   3.999   7.531
 3381WAT     H114230   5.258   4.011   7.461
 3381WAT     H214231   5.361   3.933   7.508
 3381WAT    EPW14232   5.309   3.991   7.517
 3382WAT      O14233   5.460   3.798   7.422
 3382WAT     H114234   5.510   3.774   7.489
 3382WAT     H214235   5.390   3.745   7.429
 3382WAT    EPW14236   5.457   3.787   7.433
 3383WAT      O14237   5.786   4.403   7.637
 3383WAT     H114238   5.818   4.324   7.654
 3383WAT     H214239   5.856   4.455   7.644
 3383WAT    EPW14240   5.801   4.399   7.640
 3384WAT      O14241   5.873   4.350   7.316
 3384WAT     H114242   5.921   4.289   7.355
 3384WAT     H214243   5.892   4.341   7.231
 3384WAT    EPW14244   5.883   4.339   7.309
 3385WAT      O14245   5.491   3.358   7.437
 3385WAT     H114246   5.455   3.405   7.373
 3385WAT     H214247   5.573   3.344   7.409
 3385WAT    EPW14248   5.498   3.363   7.423
 3386WAT      O14249   5.860   3.320   7.600
 3386WAT     H114250   5.836   3.401   7.621
 3386WAT     H214251   5.827   3.309   7.520
 3386WAT    EPW14252   5.851   3.331   7.591
 3387WAT      O14253   6.253   3.471   6.824
 3387WAT     H114254   6.203   3.532   6.860
 3387WAT     H214255   6.273   3.419   6.891
 3387WAT    EPW14256   6.249   3.472   6.839
 3388WAT      O14257   5.066   3.752   7.706
 3388WAT     H114258   5.073   3.836   7.728
 3388WAT     H214259   5.072   3.710   7.782
 3388WAT    EPW14260   5.068   3.758   7.720
 3389WAT      O14261   5.084   4.713   7.601
 3389WAT     H114262   5.021   4.763   7.568
 3389WAT     H214263   5.125   4.682   7.531
 3389WAT    EPW14264   5.081   4.716   7.586
 3390WAT      O14265   5.671   4.542   7.302
 3390WAT     H114266   5.627   4.534   7.378
 3390WAT     H214267   5.739   4.488   7.312
 3390WAT    EPW14268   5.674   4.533   7.315
 3391WAT      O14269   6.280   4.750   7.088
 3391WAT     H114270   6.350   4.801   7.099
 3391WAT     H214271   6.306   4.673   7.121
 3391WAT    EPW14272   6.295   4.746   7.095
 3392WAT      O14273   6.064   4.763   7.255
 3392WAT     H114274   6.079   4.830   7.309
 3392WAT     H214275   6.132   4.763   7.201
 3392WAT    EPW14276   6.076   4.773   7.255
 3393WAT      O14277   5.223   4.629   7.374
 3393WAT     H114278   5.278   4.562   7.381
 3393WAT     H214279   5.271   4.692   7.338
 3393WAT    EPW14280   5.238   4.629   7.370
 3394WAT      O14281   6.822   3.431   7.543
 3394WAT     H114282   6.779   3.505   7.559
 3394WAT     H214283   6.758   3.375   7.521
 3394WAT    EPW14284   6.806   3.434   7.542
 3395WAT      O14285   5.395   4.392   7.735
 3395WAT     H114286   5.433   4.446   7.679
 3395WAT     H214287   5.436   4.316   7.722
 3395WAT    EPW14288   5.406   4.388   7.725
 3396WAT      O14289   5.663   4.778   7.549
 3396WAT     H114290   5.739   4.818   7.565
 3396WAT     H214291   5.605   4.842   7.550
 3396WAT    EPW14292   5.666   4.793   7.551
 3397WAT      O14293   5.998   3.705   7.446
 3397WAT     H114294   6.021   3.651   7.382
 3397WAT     H214295   6.071   3.713   7.493
 3397WAT    EPW14296   6.013   3.698   7.444
 3398WAT      O14297   6.080   3.652   6.964
 3398WAT     H114298   6.103   3.731   6.993
 3398WAT     H214299   6.004   3.666   6.924
 3398WAT    EPW14300   6.072   3.666   6.962
 3399WAT      O14301   6.483   4.944   7.081
 3399WAT     H114302   6.528   4.919   7.010
 3399WAT     H214303   6.541   4.991   7.126
 3399WAT    EPW14304   6.498   4.947   7.077
 3400WAT      O14305   5.940   4.583   6.901
 3400WAT     H114306   5.907   4.644   6.954
 3400WAT     H214307   6.019   4.615   6.879
 3400WAT    EPW14308   5.947   4.597   6.905
 3401WAT      O14309   6.310   3.303   7.039
 3401WAT     H114310   6.363   3.234   7.044
 3401WAT     H214311   6.334   3.352   7.107
 3401WAT    EPW14312   6.321   3.300   7.050
 3402WAT      O14313   5.115   3.408   7.303
 3402WAT     H114314   5.096   3.324   7.293
 3402WAT     H214315   5.063   3.433   7.368
 3402WAT    EPW14316   5.105   3.400   7.311
 3403WAT      O14317   6.076   3.547   7.227
 3403WAT     H114318   6.048   3.465   7.218
 3403WAT     H214319   6.071   3.580   7.147
 3403WAT    EPW14320   6.071   3.540   7.214
 3404WAT      O14321   6.066   3.268   7.168
 3404WAT     H114322   6.002   3.246   7.112
 3404WAT     H214323   6.137   3.273   7.118
 3404WAT    EPW14324   6.067   3.265   7.153
 3405WAT      O14325   6.761   4.865   7.478
 3405WAT     H114326   6.720   4.942   7.483
 3405WAT     H214327   6.696   4.809   7.461
 3405WAT    EPW14328   6.745   4.868   7.476
 3406WAT      O14329   5.829   3.597   7.639
 3406WAT     H114330   5.874   3.629   7.572
 3406WAT     H214331   5.874   3.624   7.709
 3406WAT    EPW14332   5.842   3.605   7.639
 3407WAT      O14333   6.477   4.446   7.497
 3407WAT     H114334   6.541   4.388   7.490
 3407WAT     H214335   6.406   4.398   7.515
 3407WAT    EPW14336   6.476   4.430   7.498
 3408WAT      O14337   5.431   3.099   7.523
 3408WAT     H114338   5.441   3.182   7.501
 3408WAT     H214339   5.406   3.060   7.449
 3408WAT    EPW14340   5.429   3.105   7.509
 3409WAT      O14341   6.392   3.088   7.465
 3409WAT     H114342   6.397   3.074   7.551
 3409WAT     H214343   6.430   3.018   7.430
 3409WAT    EPW14344   6.398   3.076   7.472
 3410WAT      O14345   5.396   3.508   7.650
 3410WAT     H114346   5.432   3.455   7.590
 3410WAT     H214347   5.326   3.464   7.677
 3410WAT    EPW14348   5.391   3.494   7.645
 3411WAT      O14349   6.669   4.244   7.052
 3411WAT     H114350   6.663   4.191   7.121
 3411WAT     H214351   6.754   4.250   7.037
 3411WAT    EPW14352   6.680   4.237   7.060
 3412WAT      O14353   5.513   4.159   7.629
 3412WAT     H114354   5.558   4.177   7.557
 3412WAT     H214355   5.446   4.110   7.600
 3412WAT    EPW14356   5.510   4.154   7.614
 3413WAT      O14357   5.304   4.811   7.742
 3413WAT     H114358   5.233   4.787   7.698
 3413WAT     H214359   5.351   4.854   7.682
 3413WAT    EPW14360   5.301   4.814   7.726
 3414WAT      O14361   6.466   3.910   6.974
 3414WAT     H114362   6.459   3.993   6.948
 3414WAT     H214363   6.435   3.912   7.055
 3414WAT    EPW14364   6.460   3.923   6.982
 3415WAT      O14365   5.633   4.205   7.380
 3415WAT     H114366   5.699   4.260   7.368
 3415WAT     H214367   5.654   4.136   7.331
 3415WAT    EPW14368   5.646   4.203   7.371
 3416WAT      O14369   6.804   3.372   6.951
 3416WAT     H114370   6.846   3.318   6.897
 3416WAT     H214371   6.766   3.429   6.896
 3416WAT    EPW14372   6.804   3.373   6.935
 3417WAT      O14373   5.131   4.307   7.709
 3417WAT     H114374   5.088   4.375   7.743
 3417WAT     H214375   5.215   4.332   7.713
 3417WAT    EPW14376   5.137   4.321   7.714
 3418WAT      O14377   5.159   4.020   7.303
 3418WAT     H114378   5.129   3.938   7.291
 3418WAT     H214379   5.231   4.022   7.253
 3418WAT    EPW14380   5.165   4.008   7.294
 3419WAT      O14381   6.683   3.261   7.178
 3419WAT     H114382   6.757   3.223   7.205
 3419WAT     H214383   6.708   3.307   7.108
 3419WAT    EPW14384   6.698   3.262   7.172
 3420WAT      O14385   6.014   4.567   7.653
 3420WAT     H114386   5.990   4.651   7.653
 3420WAT     H214387   6.047   4.555   7.572
 3420WAT    EPW14388   6.015   4.578   7.641
 3421WAT      O14389   5.037   4.467   7.243
 3421WAT     H114390   5.095   4.525   7.271
 3421WAT     H214391   5.041   4.403   7.302
 3421WAT    EPW14392   5.046   4.466   7.256
 3422WAT      O14393   6.347   3.514   7.662
 3422WAT     H114394   6.369   3.464   7.730
 3422WAT     H214395   6.286   3.467   7.621
 3422WAT    EPW14396   6.341   3.500   7.666
 3423WAT      O14397   5.044   4.302   7.011
 3423WAT     H114398   5.117   4.255   7.008
 3423WAT     H214399   5.057   4.356   7.079
 3423WAT    EPW14400   5.057   4.303   7.021
 3424WAT      O14401   5.113   4.031   7.724
 3424WAT     H114402   5.176   4.012   7.668
 3424WAT     H214403   5.123   4.117   7.738
 3424WAT    EPW14404   5.123   4.041   7.718
 3425WAT      O14405   5.775   3.451   7.128
 3425WAT     H114406   5.771   3.437   7.042
 3425WAT     H214407   5.761   3.537   7.135
 3425WAT    EPW14408   5.773   3.462   7.116
 3426WAT      O14409   5.556   4.525   7.556
 3426WAT     H114410   5.580   4.608   7.564
 3426WAT     H214411   5.626   4.481   7.585
 3426WAT    EPW14412   5.570   4.531   7.561
 3427WAT      O14413   5.419   3.733   7.078
 3427WAT     H114414   5.399   3.678   7.142
 3427WAT     H214415   5.375   3.701   7.010
 3427WAT    EPW14416   5.409   3.720   7.077
 3428WAT      O14417   5.686   3.982   7.759
 3428WAT     H114418   5.628   4.038   7.725
 3428WAT     H214419   5.655   3.904   7.737
 3428WAT    EPW14420   5.673   3.979   7.750
 3429WAT      O14421   6.341   3.461   7.261
 3429WAT     H114422   6.393   3.529   7.278
 3429WAT     H214423   6.261   3.495   7.261
 3429WAT    EPW14424   6.337   3.476   7.264
 3430WAT      O14425   6.142   3.897   7.085
 3430WAT     H114426   6.119   3.950   7.020
 3430WAT     H214427   6.081   3.912   7.146
 3430WAT    EPW14428   6.130   3.907   7.085
 3431WAT      O14429   6.677   4.247   7.474
 3431WAT     H114430   6.683   4.198   7.546
 3431WAT     H214431   6.652   4.191   7.413
 3431WAT    EPW14432   6.675   4.232   7.476
 3432WAT      O14433   6.108   4.345   7.814
 3432WAT     H114434   6.083   4.418   7.773
 3432WAT     H214435   6.121   4.371   7.896
 3432WAT    EPW14436   6.106   4.360   7.820
 3433WAT      O14437   5.657   4.830   7.252
 3433WAT     H114438   5.670   4.774   7.317
 3433WAT     H214439   5.716   4.806   7.192
 3433WAT    EPW14440   5.668   4.818   7.253
 3434WAT      O14441   5.595   3.155   7.031
 3434WAT     H114442   5.601   3.135   7.116
 3434WAT     H214443   5.548   3.228   7.030
 3434WAT    EPW14444   5.589   3.163   7.043
 3435WAT      O14445   5.861   4.783   7.072
 3435WAT     H114446   5.925   4.779   7.131
 3435WAT     H214447   5.870   4.863   7.037
 3435WAT    EPW14448   5.872   4.795   7.075
 3436WAT      O14449   5.402   3.999   7.166
 3436WAT     H114450   5.396   3.916   7.142
 3436WAT     H214451   5.473   4.001   7.216
 3436WAT    EPW14452   5.411   3.987   7.170
 3437WAT      O14453   5.033   3.137   7.271
 3437WAT     H114454   5.035   3.081   7.204
 3437WAT     H214455   5.000   3.090   7.337
 3437WAT    EPW14456   5.029   3.121   7.271
 3438WAT      O14457   5.973   3.940   7.301
 3438WAT     H114458   5.998   4.006   7.352
 3438WAT     H214459   5.977   3.871   7.353
 3438WAT    EPW14460   5.977   3.940   7.316
 3439WAT      O14461   5.460   3.392   6.998
 3439WAT     H114462   5.400   3.381   6.935
 3439WAT     H214463   5.529   3.424   6.955
 3439WAT    EPW14464   5.461   3.395   6.982
 3440WAT      O14465   5.901   4.156   7.697
 3440WAT     H114466   5.844   4.099   7.729
 3440WAT     H214467   5.946   4.181   7.767
 3440WAT    EPW14468   5.899   4.152   7.712
 3441WAT      O14469   5.550   4.776   6.863
 3441WAT     H114470   5.576   4.709   6.912
 3441WAT     H214471   5.562   4.845   6.915
 3441WAT    EPW14472   5.555   4.776   6.878
 3442WAT      O14473   5.583   3.724   7.663
 3442WAT     H114474   5.657   3.680   7.651
 3442WAT     H214475   5.524   3.662   7.678
 3442WAT    EPW14476   5.585   3.709   7.663
 3443WAT      O14477   6.862   4.821   7.047
 3443WAT     H114478   6.926   4.769   7.020
 3443WAT     H214479   6.810   4.767   7.093
 3443WAT    EPW14480   6.864   4.805   7.050
 3444WAT      O14481   5.094   3.749   7.264
 3444WAT     H114482   5.131   3.705   7.330
 3444WAT     H214483   5.094   3.692   7.199
 3444WAT    EPW14484   5.099   3.734   7.264
 3445WAT      O14485   5.570   3.902   6.881
 3445WAT     H114486   5.530   3.857   6.945
 3445WAT     H214487   5.518   3.889   6.812
 3445WAT    EPW14488   5.556   3.893   6.881
 3446WAT      O14489   6.712   4.103   7.710
 3446WAT     H114490   6.711   4.166   7.770
 3446WAT     H214491   6.795   4.075   7.711
 3446WAT    EPW14492   6.724   4.108   7.719
 3447WAT      O14493   5.697   3.726   7.116
 3447WAT     H114494   5.708   3.802   7.156
 3447WAT     H214495   5.610   3.716   7.112
 3447WAT    EPW14496   5.686   3.736   7.121
 3448WAT      O14497   5.147   3.386   7.688
 3448WAT     H114498   5.080   3.411   7.639
 3448WAT     H214499   5.138   3.300   7.693
 3448WAT    EPW14500   5.136   3.377   7.681
 3449WAT      O14501   6.924   4.558   7.840
 3449WAT     H114502   6.925   4.603   7.765
 3449WAT     H214503   6.997   4.581   7.880
 3449WAT    EPW14504   6.935   4.568   7.835
 3450WAT      O14505   6.534   4.486   7.055
 3450WAT     H114506   6.572   4.407   7.058
 3450WAT     H214507   6.461   4.475   7.101
 3450WAT    EPW14508   6.528   4.473   7.062
 3451WAT      O14509   6.594   3.622   7.573
 3451WAT     H114510   6.523   3.582   7.602
 3451WAT     H214511   6.589   3.701   7.610
 3451WAT    EPW14512   6.583   3.628   7.583
 3452WAT      O14513   6.213   4.312   6.976
 3452WAT     H114514   6.285   4.265   6.968
 3452WAT     H214515   6.181   4.316   6.895
 3452WAT    EPW14516   6.219   4.306   6.963
 3453WAT      O14517   5.921   4.893   7.595
 3453WAT     H114518   5.897   4.973   7.622
 3453WAT     H214519   5.987   4.909   7.540
 3453WAT    EPW14520   5.927   4.907   7.591
 3454WAT      O14521   6.718   3.801   6.943
 3454WAT     H114522   6.767   3.856   6.897
 3454WAT     H214523   6.639   3.837   6.942
 3454WAT    EPW14524   6.714   3.814   6.936
 3455WAT      O14525   5.778   4.071   6.951
 3455WAT     H114526   5.716   4.021   6.916
 3455WAT     H214527   5.749   4.152   6.938
 3455WAT    EPW14528   5.765   4.076   6.944
 3456WAT      O14529   6.491   3.690   7.325
 3456WAT     H114530   6.520   3.666   7.404
 3456WAT     H214531   6.562   3.720   7.285
 3456WAT    EPW14532   6.505   3.690   7.331
 3457WAT      O14533   6.616   3.260   7.450
 3457WAT     H114534   6.537   3.225   7.457
 3457WAT     H214535   6.624   3.279   7.366
 3457WAT    EPW14536   6.606   3.257   7.439
 3458WAT      O14537   6.611   4.075   7.268
 3458WAT     H114538   6.655   4.000   7.260
 3458WAT     H214539   6.527   4.050   7.261
 3458WAT    EPW14540   6.605   4.060   7.266
 3459WAT      O14541   5.368   3.506   7.236
 3459WAT     H114542   5.389   3.463   7.163
 3459WAT     H214543   5.287   3.478   7.252
 3459WAT    EPW14544   5.359   3.495   7.227
 3460WAT      O14545   6.263   4.264   7.572
 3460WAT     H114546   6.231   4.277   7.653
 3460WAT     H214547   6.291   4.181   7.574
 3460WAT    EPW14548   6.263   4.254   7.585
 3461WAT      O14549   6.028   4.168   7.453
 3461WAT     H114550   5.986   4.159   7.529
 3461WAT     H214551   6.104   4.204   7.475
 3461WAT    EPW14552   6.033   4.172   7.467
 3462WAT      O14553   6.433   4.891   7.745
 3462WAT     H114554   6.377   4.859   7.804
 3462WAT     H214555   6.509   4.853   7.765
 3462WAT    EPW14556   6.436   4.881   7.757
 3463WAT      O14557   6.709   3.821   7.220
 3463WAT     H114558   6.718   3.815   7.133
 3463WAT     H214559   6.786   3.793   7.250
 3463WAT    EPW14560   6.721   3.816   7.211
 3464WAT      O14561   6.084   4.521   7.385
 3464WAT     H114562   6.072   4.598   7.344
 3464WAT     H214563   6.014   4.474   7.360
 3464WAT    EPW14564   6.072   4.526   7.375
 3465WAT      O14565   5.269   3.641   6.861
 3465WAT     H114566   5.194   3.637   6.906
 3465WAT     H214567   5.278   3.561   6.829
 3465WAT    EPW14568   5.259   3.629   6.863
 3466WAT      O14569   6.133   3.367   7.563
 3466WAT     H114570   6.048   3.362   7.582
 3466WAT     H214571   6.147   3.299   7.511
 3466WAT    EPW14572   6.123   3.357   7.558
 3467WAT      O14573   5.590   4.552   7.033
 3467WAT     H114574   5.624   4.556   7.113
 3467WAT     H214575   5.507   4.528   7.047
 3467WAT    EPW14576   5.583   4.549   7.047
 3468WAT      O14577   6.542   3.881   7.667
 3468WAT     H114578   6.599   3.945   7.686
 3468WAT     H214579   6.482   3.922   7.619
 3468WAT    EPW14580   6.542   3.897   7.662
 3469WAT      O14581   6.541   4.705   7.407
 3469WAT     H114582   6.517   4.627   7.439
 3469WAT     H214583   6.585   4.684   7.335
 3469WAT    EPW14584   6.544   4.690   7.401
 3470WAT      O14585   5.336   4.453   7.079
 3470WAT     H114586   5.342   4.435   7.165
 3470WAT     H214587   5.346   4.375   7.041
 3470WAT    EPW14588   5.338   4.439   7.086
 3471WAT      O14589   5.633   4.306   6.896
 3471WAT     H114590   5.554   4.274   6.913
 3471WAT     H214591   5.634   4.382   6.939
 3471WAT    EPW14592   5.621   4.313   6.905
 3472WAT      O14593   5.869   3.179   6.985
 3472WAT     H114594   5.882   3.184   6.899
 3472WAT     H214595   5.783   3.187   6.994
 3472WAT    EPW14596   5.858   3.181   6.974
 3473WAT      O14597   6.212   3.757   7.623
 3473WAT     H114598   6.261   3.685   7.630
 3473WAT     H214599   6.200   3.782   7.706
 3473WAT    EPW14600   6.217   3.750   7.637
 3474WAT      O14601   5.223   3.662   7.496
 3474WAT     H114602   5.170   3.692   7.557
 3474WAT     H214603   5.272   3.603   7.538
 3474WAT    EPW14604   5.223   3.658   7.511
 3475WAT      O14605   6.367   3.927   7.246
 3475WAT     H114606   6.391   3.847   7.269
 3475WAT     H214607   6.292   3.915   7.203
 3475WAT    EPW14608   6.359   3.914   7.243
 3476WAT      O14609   5.381   4.828   7.263
 3476WAT     H114610   5.353   4.860   7.187
 3476WAT     H214611   5.467   4.819   7.251
 3476WAT    EPW14612   5.389   4.831   7.250
 3477WAT      O14613   5.718   3.994   7.211
 3477WAT     H114614   5.735   4.025   7.131
 3477WAT     H214615   5.797   3.979   7.245
 3477WAT    EPW14616   5.732   3.997   7.204
 3478WAT      O14617   6.648   4.868   6.873
 3478WAT     H114618   6.721   4.859   6.920
 3478WAT     H214619   6.629   4.787   6.849
 3478WAT    EPW14620   6.656   4.855   6.876
 3479WAT      O14621   6.289   4.486   7.184
 3479WAT     H114622   6.240   4.480   7.255
 3479WAT     H214623   6.249   4.433   7.127
 3479WAT    EPW14624   6.276   4.477   7.186
 3480WAT      O14625   5.306   4.593   7.923
 3480WAT     H114626   5.342   4.530   7.874
 3480WAT     H214627   5.317   4.665   7.875
 3480WAT    EPW14628   5.313   4.595   7.909
 3481WAT      O14629   5.946   4.347   7.053
 3481WAT     H114630   6.026   4.320   7.035
 3481WAT     H214631   5.935   4.418   7.002
 3481WAT    EPW14632   5.956   4.354   7.043
 3482WAT      O14633   6.139   3.177   5.542
 3482WAT     H114634   6.129   3.218   5.466
 3482WAT     H214635   6.225   3.162   5.546
 3482WAT    EPW14636   6.151   3.181   5.532
 3483WAT      O14637   6.099   3.815   5.980
 3483WAT     H114638   6.062   3.889   6.006
 3483WAT     H214639   6.154   3.795   6.044
 3483WAT    EPW14640   6.101   3.823   5.993
 3484WAT      O14641   4.970   4.266   5.535
 3484WAT     H114642   5.010   4.280   5.612
 3484WAT     H214643   5.005   4.190   5.508
 3484WAT    EPW14644   4.981   4.257   5.542
 3485WAT      O14645   6.692   4.654   5.319
 3485WAT     H114646   6.759   4.602   5.336
 3485WAT     H214647   6.641   4.607   5.266
 3485WAT    EPW14648   6.694   4.640   5.314
 3486WAT      O14649   5.024   3.650   5.142
 3486WAT     H114650   4.951   3.691   5.115
 3486WAT     H214651   4.994   3.573   5.171
 3486WAT    EPW14652   5.009   3.645   5.142
 3487WAT      O14653   5.328   4.186   5.047
 3487WAT     H114654   5.288   4.156   4.976
 3487WAT     H214655   5.329   4.118   5.101
 3487WAT    EPW14656   5.322   4.172   5.045
 3488WAT      O14657   6.346   3.983   5.621
 3488WAT     H114658   6.351   3.966   5.535
 3488WAT     H214659   6.292   3.922   5.651
 3488WAT    EPW14660   6.339   3.972   5.613
 3489WAT      O14661   5.344   4.411   5.439
 3489WAT     H114662   5.373   4.357   5.501
 3489WAT     H214663   5.264   4.382   5.423
 3489WAT    EPW14664   5.337   4.399   5.446
 3490WAT      O14665   5.710   3.280   5.426
 3490WAT     H114666   5.737   3.345   5.375
 3490WAT     H214667   5.721   3.209   5.376
 3490WAT    EPW14668   5.716   3.279   5.411
 3491WAT      O14669   5.224   4.647   5.060
 3491WAT     H114670   5.258   4.656   4.980
 3491WAT     H214671   5.263   4.576   5.091
 3491WAT    EPW14672   5.234   4.638   5.053
 3492WAT      O14673   5.075   4.517   6.185
 3492WAT     H114674   5.106   4.489   6.262
 3492WAT     H214675   5.015   4.457   6.164
 3492WAT    EPW14676   5.070   4.504   6.193
 3493WAT      O14677   5.726   4.341   6.632
 3493WAT     H114678   5.706   4.327   6.715
 3493WAT     H214679   5.655   4.312   6.589
 3493WAT    EPW14680   5.712   4.335   6.638
 3494WAT      O14681   5.263   4.010   5.643
 3494WAT     H114682   5.216   4.015   5.569
 3494WAT     H214683   5.305   3.935   5.635
 3494WAT    EPW14684   5.262   4.000   5.631
 3495WAT      O14685   5.716   3.626   6.211
 3495WAT     H114686   5.781   3.629   6.153
 3495WAT     H214687   5.686   3.544   6.203
 3495WAT    EPW14688   5.721   3.614   6.201
 3496WAT      O14689   5.705   4.618   6.369
 3496WAT     H114690   5.709   4.685   6.313
 3496WAT     H214691   5.789   4.601   6.387
 3496WAT    EPW14692   5.718   4.625   6.363
 3497WAT      O14693   5.405   3.775   5.658
 3497WAT     H114694   5.473   3.724   5.679
 3497WAT     H214695   5.338   3.719   5.654
 3497WAT    EPW14696   5.405   3.759   5.661
 3498WAT      O14697   5.845   4.446   5.803
 3498WAT     H114698   5.871   4.364   5.820
 3498WAT     H214699   5.920   4.490   5.795
 3498WAT    EPW14700   5.860   4.440   5.804
 3499WAT      O14701   5.894   4.353   5.438
 3499WAT     H114702   5.938   4.293   5.483
 3499WAT     H214703   5.916   4.338   5.355
 3499WAT    EPW14704   5.903   4.342   5.432
 3500WAT      O14705   6.041   3.849   6.658
 3500WAT     H114706   5.959   3.844   6.629
 3500WAT     H214707   6.037   3.908   6.722
 3500WAT    EPW14708   6.029   3.857   6.663
 3501WAT      O14709   5.440   3.321   5.488
 3501WAT     H114710   5.398   3.378   5.436
 3501WAT     H214711   5.522   3.323   5.459
 3501WAT    EPW14712   5.446   3.330   5.476
 3502WAT      O14713   6.495   3.091   6.466
 3502WAT     H114714   6.467   3.159   6.418
 3502WAT     H214715   6.423   3.063   6.505
 3502WAT    EPW14716   6.480   3.097   6.465
 3503WAT      O14717   5.821   3.259   5.687
 3503WAT     H114718   5.829   3.344   5.708
 3503WAT     H214719   5.779   3.262   5.610
 3503WAT    EPW14720   5.816   3.272   5.679
 3504WAT      O14721   6.219   3.481   4.955
 3504WAT     H114722   6.173   3.540   5.000
 3504WAT     H214723   6.244   3.425   5.017
 3504WAT    EPW14724   6.216   3.482   4.971
 3505WAT      O14725   5.103   3.790   5.893
 3505WAT     H114726   5.098   3.877   5.897
 3505WAT     H214727   5.026   3.764   5.925
 3505WAT    EPW14728   5.091   3.799   5.898
 3506WAT      O14729   5.031   4.732   5.691
 3506WAT     H114730   4.956   4.758   5.654
 3506WAT     H214731   5.076   4.698   5.624
 3506WAT    EPW14732   5.027   4.731   5.675
 3507WAT      O14733   5.665   4.506   5.397
 3507WAT     H114734   5.620   4.494   5.471
 3507WAT     H214735   5.741   4.465   5.412
 3507WAT    EPW14736   5.670   4.498   5.410
 3508WAT      O14737   6.248   4.758   5.211
 3508WAT     H114738   6.319   4.809   5.217
 3508WAT     H214739   6.277   4.679   5.234
 3508WAT    EPW14740   6.263   4.754   5.215
 3509WAT      O14741   6.059   4.794   5.408
 3509WAT     H114742   6.084   4.865   5.452
 3509WAT     H214743   6.119   4.787   5.345
 3509WAT    EPW14744   6.072   4.803   5.405
 3510WAT      O14745   5.339   3.252   5.942
 3510WAT     H114746   5.308   3.183   5.899
 3510WAT     H214747   5.399   3.217   5.996
 3510WAT    EPW14748   5.343   3.236   5.944
 3511WAT      O14749   5.692   3.454   6.847
 3511WAT     H114750   5.701   3.418   6.768
 3511WAT     H214751   5.731   3.531   6.840
 3511WAT    EPW14752   5.699   3.460   6.835
 3512WAT      O14753   5.192   4.642   5.483
 3512WAT     H114754   5.253   4.580   5.493
 3512WAT     H214755   5.226   4.695   5.424
 3512WAT    EPW14756   5.206   4.640   5.476
 3513WAT      O14757   6.824   3.438   5.661
 3513WAT     H114758   6.774   3.509   5.665
 3513WAT     H214759   6.767   3.373   5.645
 3513WAT    EPW14760   6.808   3.439   5.659
 3514WAT      O14761   6.297   4.779   6.207
 3514WAT     H114762   6.364   4.833   6.196
 3514WAT     H214763   6.284   4.745   6.127
 3514WAT    EPW14764   6.305   4.782   6.193
 3515WAT      O14765   5.286   3.373   6.781
 3515WAT     H114766   5.207   3.339   6.767
 3515WAT     H214767   5.335   3.337   6.718
 3515WAT    EPW14768   5.281   3.363   6.770
 3516WAT      O14769   5.358   4.458   5.834
 3516WAT     H114770   5.417   4.444   5.771
 3516WAT     H214771   5.381   4.403   5.897
 3516WAT    EPW14772   5.370   4.448   5.834
 3517WAT      O14773   5.631   4.761   5.745
 3517WAT     H114774   5.710   4.782   5.714
 3517WAT     H214775   5.577   4.804   5.691
 3517WAT    EPW14776   5.635   4.771   5.732
 3518WAT      O14777   5.893   3.190   6.711
 3518WAT     H114778   5.911   3.116   6.668
 3518WAT     H214779   5.828   3.225   6.665
 3518WAT    EPW14780   5.886   3.184   6.698
 3519WAT      O14781   5.989   3.719   5.568
 3519WAT     H114782   6.013   3.663   5.505
 3519WAT     H214783   6.063   3.732   5.612
 3519WAT    EPW14784   6.004   3.712   5.565
 3520WAT      O14785   6.065   3.658   5.109
 3520WAT     H114786   6.088   3.739   5.131
 3520WAT     H214787   5.984   3.666   5.079
 3520WAT    EPW14788   6.057   3.671   5.108
 3521WAT      O14789   6.462   4.940   5.196
 3521WAT     H114790   6.510   4.918   5.126
 3521WAT     H214791   6.519   4.983   5.246
 3521WAT    EPW14792   6.478   4.943   5.193
 3522WAT      O14793   5.505   4.847   6.319
 3522WAT     H114794   5.527   4.830   6.401
 3522WAT     H214795   5.436   4.795   6.305
 3522WAT    EPW14796   5.498   4.836   6.329
 3523WAT      O14797   6.716   3.388   6.097
 3523WAT     H114798   6.783   3.377   6.041
 3523WAT     H214799   6.729   3.325   6.156
 3523WAT    EPW14800   6.728   3.377   6.097
 3524WAT      O14801   5.010   3.489   6.518
 3524WAT     H114802   4.997   3.563   6.563
 3524WAT     H214803   5.073   3.510   6.461
 3524WAT    EPW14804   5.017   3.503   6.516
 3525WAT      O14805   6.188   4.564   6.583
 3525WAT     H114806   6.181   4.589   6.666
 3525WAT     H214807   6.274   4.553   6.572
 3525WAT    EPW14808   6.200   4.566   6.593
 3526WAT      O14809   5.956   4.573   5.027
 3526WAT     H114810   5.924   4.636   5.079
 3526WAT     H214811   6.029   4.609   4.995
 3526WAT    EPW14812   5.962   4.588   5.030
 3527WAT      O14813   6.284   3.300   5.155
 3527WAT     H114814   6.339   3.232   5.157
 3527WAT     H214815   6.308   3.348   5.223
 3527WAT    EPW14816   6.296   3.297   5.165
 3528WAT      O14817   5.001   3.430   5.328
 3528WAT     H114818   4.974   3.348   5.316
 3528WAT     H214819   4.947   3.461   5.390
 3528WAT    EPW14820   4.989   3.423   5.336
 3529WAT      O14821   5.271   4.720   6.205
 3529WAT     H114822   5.209   4.659   6.203
 3529WAT     H214823   5.306   4.717   6.126
 3529WAT    EPW14824   5.267   4.711   6.193
 3530WAT      O14825   6.066   3.547   5.364
 3530WAT     H114826   6.029   3.469   5.354
 3530WAT     H214827   6.060   3.583   5.285
 3530WAT    EPW14828   6.060   3.541   5.351
 3531WAT      O14829   6.049   4.832   6.307
 3531WAT     H114830   6.127   4.819   6.270
 3531WAT     H214831   5.993   4.829   6.240
 3531WAT    EPW14832   6.052   4.830   6.292
 3532WAT      O14833   6.042   3.270   5.293
 3532WAT     H114834   5.972   3.251   5.243
 3532WAT     H214835   6.108   3.272   5.235
 3532WAT    EPW14836   6.041   3.268   5.277
 3533WAT      O14837   6.764   4.858   5.593
 3533WAT     H114838   6.726   4.934   5.610
 3533WAT     H214839   6.698   4.803   5.584
 3533WAT    EPW14840   6.749   4.861   5.594
 3534WAT      O14841   5.880   3.532   5.742
 3534WAT     H114842   5.907   3.597   5.690
 3534WAT     H214843   5.888   3.566   5.822
 3534WAT    EPW14844   5.885   3.547   5.746
 3535WAT      O14845   6.513   4.439   5.669
 3535WAT     H114846   6.575   4.380   5.653
 3535WAT     H214847   6.439   4.394   5.659
 3535WAT    EPW14848   6.511   4.424   5.665
 3536WAT      O14849   5.450   4.544   6.487
 3536WAT     H114850   5.525   4.578   6.460
 3536WAT     H214851   5.433   4.586   6.561
 3536WAT    EPW14852   5.459   4.555   6.494
 3537WAT      O14853   5.441   3.056   5.578
 3537WAT     H114854   5.438   3.139   5.551
 3537WAT     H214855   5.418   3.010   5.508
 3537WAT    EPW14856   5.437   3.061   5.564
 3538WAT      O14857   5.650   4.139   5.920
 3538WAT     H114858   5.672   4.123   6.003
 3538WAT     H214859   5.596   4.074   5.900
 3538WAT    EPW14860   5.646   4.127   5.930
 3539WAT      O14861   6.216   3.496   6.308
 3539WAT     H114862   6.209   3.537   6.384
 3539WAT     H214863   6.153   3.435   6.312
 3539WAT    EPW14864   6.206   3.493   6.320
 3540WAT      O14865   5.745   4.147   6.184
 3540WAT     H114866   5.720   4.231   6.192
 3540WAT     H214867   5.718   4.111   6.258
 3540WAT    EPW14868   5.737   4.154   6.196
 3541WAT      O14869   6.358   4.211   6.197
 3541WAT     H114870   6.281   4.187   6.231
 3541WAT     H214871   6.355   4.299   6.202
 3541WAT    EPW14872   6.346   4.221   6.203
 3542WAT      O14873   6.402   3.090   5.615
 3542WAT     H114874   6.391   3.081   5.701
 3542WAT     H214875   6.435   3.014   5.590
 3542WAT    EPW14876   6.405   3.078   5.624
 3543WAT      O14877   4.978   4.497   6.813
 3543WAT     H114878   5.039   4.547   6.850
 3543WAT     H214879   4.989   4.419   6.852
 3543WAT    EPW14880   4.988   4.493   6.824
 3544WAT      O14881   6.602   3.547   6.409
 3544WAT     H114882   6.684   3.525   6.430
 3544WAT     H214883   6.559   3.538   6.484
 3544WAT    EPW14884   6.608   3.542   6.423
 3545WAT      O14885   5.505   3.372   5.755
 3545WAT     H114886   5.472   3.354   5.677
 3545WAT     H214887   5.450   3.334   5.811
 3545WAT    EPW14888   5.492   3.364   5.752
 3546WAT      O14889   6.666   4.249   5.183
 3546WAT     H114890   6.664   4.198   5.253
 3546WAT     H214891   6.751   4.258   5.165
 3546WAT    EPW14892   6.678   4.243   5.190
 3547WAT      O14893   5.426   4.234   5.632
 3547WAT     H114894   5.504   4.210   5.599
 3547WAT     H214895   5.384   4.159   5.641
 3547WAT    EPW14896   5.432   4.220   5.628
 3548WAT      O14897   5.253   4.876   5.772
 3548WAT     H114898   5.178   4.840   5.745
 3548WAT     H214899   5.303   4.874   5.701
 3548WAT    EPW14900   5.249   4.871   5.758
 3549WAT      O14901   5.262   3.660   6.088
 3549WAT     H114902   5.344   3.664   6.058
 3549WAT     H214903   5.215   3.692   6.022
 3549WAT    EPW14904   5.267   3.665   6.074
 3550WAT      O14905   6.862   4.650   6.557
 3550WAT     H114906   6.787   4.655   6.512
 3550WAT     H214907   6.842   4.603   6.627
 3550WAT    EPW14908   6.848   4.644   6.561
 3551WAT      O14909   6.474   3.898   5.078
 3551WAT     H114910   6.471   3.982   5.054
 3551WAT     H214911   6.444   3.900   5.160
 3551WAT    EPW14912   6.469   3.911   5.087
 3552WAT      O14913   5.661   4.175   5.490
 3552WAT     H114914   5.724   4.232   5.472
 3552WAT     H214915   5.673   4.112   5.429
 3552WAT    EPW14916   5.672   4.174   5.478
 3553WAT      O14917   6.793   3.367   5.060
 3553WAT     H114918   6.837   3.316   5.004
 3553WAT     H214919   6.748   3.420   5.008
 3553WAT    EPW14920   6.793   3.367   5.044
 3554WAT      O14921   5.104   4.342   5.778
 3554WAT     H114922   5.057   4.404   5.818
 3554WAT     H214923   5.186   4.372   5.782
 3554WAT    EPW14924   5.109   4.356   5.784
 3555WAT      O14925   5.818   3.701   6.859
 3555WAT     H114926   5.775   3.730   6.929
 3555WAT     H214927   5.794   3.757   6.796
 3555WAT    EPW14928   5.808   3.714   6.860
 3556WAT      O14929   6.910   3.783   6.300
 3556WAT     H114930   6.966   3.716   6.302
 3556WAT     H214931   6.851   3.759   6.241
 3556WAT    EPW14932   6.909   3.770   6.292
 3557WAT      O14933   5.114   4.038   5.415
 3557WAT     H114934   5.083   3.957   5.414
 3557WAT     H214935   5.178   4.036   5.356
 3557WAT    EPW14936   5.119   4.026   5.406
 3558WAT      O14937   6.674   3.257   5.296
 3558WAT     H114938   6.748   3.220   5.323
 3558WAT     H214939   6.698   3.300   5.224
 3558WAT    EPW14940   6.689   3.258   5.290
 3559WAT      O14941   6.066   4.611   5.763
 3559WAT     H114942   6.017   4.680   5.742
 3559WAT     H214943   6.093   4.581   5.686
 3559WAT    EPW14944   6.063   4.617   5.749
 3560WAT      O14945   5.083   4.421   5.339
 3560WAT     H114946   5.090   4.501   5.372
 3560WAT     H214947   5.038   4.378   5.400
 3560WAT    EPW14948   5.078   4.426   5.353
 3561WAT      O14949   5.447   4.290   6.035
 3561WAT     H114950   5.497   4.334   6.091
 3561WAT     H214951   5.504   4.245   5.987
 3561WAT    EPW14952   5.462   4.290   6.036
 3562WAT      O14953   6.361   3.531   5.752
 3562WAT     H114954   6.389   3.496   5.827
 3562WAT     H214955   6.294   3.479   5.729
 3562WAT    EPW14956   6.355   3.518   5.760
 3563WAT      O14957   5.040   4.303   5.090
 3563WAT     H114958   5.109   4.257   5.064
 3563WAT     H214959   5.067   4.339   5.165
 3563WAT    EPW14960   5.054   4.302   5.098
 3564WAT      O14961   5.116   4.078   5.867
 3564WAT     H114962   5.167   4.050   5.802
 3564WAT     H214963   5.110   4.164   5.852
 3564WAT    EPW14964   5.123   4.087   5.855
 3565WAT      O14965   5.773   3.474   5.241
 3565WAT     H114966   5.751   3.449   5.160
 3565WAT     H214967   5.733   3.551   5.249
 3565WAT    EPW14968   5.764   3.482   5.230
 3566WAT      O14969   6.622   4.685   6.403
 3566WAT     H114970   6.581   4.761   6.410
 3566WAT     H214971   6.624   4.670   6.317
 3566WAT    EPW14972   6.617   4.694   6.391
 3567WAT      O14973   5.596   4.499   5.670
 3567WAT     H114974   5.601   4.583   5.693
 3567WAT     H214975   5.668   4.463   5.706
 3567WAT    EPW14976   5.608   4.506   5.679
 3568WAT      O14977   5.362   3.846   6.700
 3568WAT     H114978   5.327   3.779   6.743
 3568WAT     H214979   5.375   3.814   6.620
 3568WAT    EPW14980   5.359   3.832   6.695
 3569WAT      O14981   5.350   3.722   5.145
 3569WAT     H114982   5.328   3.657   5.199
 3569WAT     H214983   5.299   3.710   5.076
 3569WAT    EPW14984   5.339   3.711   5.143
 3570WAT      O14985   5.464   3.941   5.884
 3570WAT     H114986   5.442   3.904   5.808
 3570WAT     H214987   5.487   3.873   5.934
 3570WAT    EPW14988   5.464   3.925   5.880
 3571WAT      O14989   5.449   3.906   6.238
 3571WAT     H114990   5.473   3.853   6.174
 3571WAT     H214991   5.391   3.959   6.201
 3571WAT    EPW14992   5.444   3.906   6.223
 3572WAT      O14993   6.499   3.709   6.019
 3572WAT     H114994   6.432   3.736   6.069
 3572WAT     H214995   6.495   3.762   5.950
 3572WAT    EPW14996   6.488   3.721   6.016
 3573WAT      O14997   5.821   4.812   6.148
 3573WAT     H114998   5.797   4.743   6.100
 3573WAT     H214999   5.808   4.879   6.093
 3573WAT    EPW15000   5.816   4.812   6.133
 3574WAT      O15001   6.065   3.263   6.380
 3574WAT     H115002   6.083   3.181   6.358
 3574WAT     H215003   6.095   3.269   6.462
 3574WAT    EPW15004   6.072   3.252   6.389
 3575WAT      O15005   6.328   3.453   5.378
 3575WAT     H115006   6.383   3.520   5.387
 3575WAT     H215007   6.249   3.490   5.384
 3575WAT    EPW15008   6.324   3.468   5.380
 3576WAT      O15009   5.230   4.078   6.769
 3576WAT     H115010   5.227   4.125   6.696
 3576WAT     H215011   5.274   4.007   6.746
 3576WAT    EPW15012   5.236   4.075   6.755
 3577WAT      O15013   6.390   4.267   6.643
 3577WAT     H115014   6.419   4.346   6.619
 3577WAT     H215015   6.421   4.214   6.580
 3577WAT    EPW15016   6.399   4.271   6.630
 3578WAT      O15017   5.809   4.611   6.660
 3578WAT     H115018   5.844   4.602   6.739
 3578WAT     H215019   5.780   4.531   6.641
 3578WAT    EPW15020   5.810   4.598   6.668
 3579WAT      O15021   5.901   3.622   6.003
 3579WAT     H115022   5.968   3.678   6.003
 3579WAT     H215023   5.936   3.548   6.032
 3579WAT    EPW15024   5.916   3.619   6.007
 3580WAT      O15025   6.138   3.910   5.202
 3580WAT     H115026   6.115   3.957   5.132
 3580WAT     H215027   6.076   3.930   5.261
 3580WAT    EPW15028   6.125   3.920   5.201
 3581WAT      O15029   6.690   4.227   5.626
 3581WAT     H115030   6.690   4.179   5.699
 3581WAT     H215031   6.660   4.172   5.565
 3581WAT    EPW15032   6.685   4.212   5.628
 3582WAT      O15033   6.263   4.652   5.961
 3582WAT     H115034   6.199   4.632   5.905
 3582WAT     H215035   6.301   4.722   5.924
 3582WAT    EPW15036   6.259   4.660   5.947
 3583WAT      O15037   6.267   4.283   5.940
 3583WAT     H115038   6.192   4.318   5.967
 3583WAT     H215039   6.293   4.235   6.008
 3583WAT    EPW15040   6.260   4.281   5.954
 3584WAT      O15041   5.628   4.767   5.320
 3584WAT     H115042   5.634   4.689   5.358
 3584WAT     H215043   5.704   4.774   5.277
 3584WAT    EPW15044   5.640   4.757   5.319
 3585WAT      O15045   5.537   3.124   5.149
 3585WAT     H115046   5.485   3.083   5.205
 3585WAT     H215047   5.492   3.195   5.126
 3585WAT    EPW15048   5.523   3.129   5.154
 3586WAT      O15049   5.875   4.778   5.197
 3586WAT     H115050   5.930   4.788   5.264
 3586WAT     H215051   5.879   4.856   5.157
 3586WAT    EPW15052   5.884   4.791   5.201
 3587WAT      O15053   6.477   4.115   6.428
 3587WAT     H115054   6.444   4.152   6.356
 3587WAT     H215055   6.562   4.131   6.422
 3587WAT    EPW15056   6.485   4.123   6.417
 3588WAT      O15057   6.187   4.699   6.832
 3588WAT     H115058   6.222   4.715   6.910
 3588WAT     H215059   6.217   4.764   6.783
 3588WAT    EPW15060   6.197   4.711   6.836
 3589WAT      O15061   6.606   3.223   6.682
 3589WAT     H115062   6.572   3.179   6.614
 3589WAT     H215063   6.609   3.163   6.745
 3589WAT    EPW15064   6.601   3.207   6.681
 3590WAT      O15065   5.341   3.987   5.245
 3590WAT     H115066   5.336   3.905   5.218
 3590WAT     H215067   5.418   3.991   5.286
 3590WAT    EPW15068   5.351   3.976   5.247
 3591WAT      O15069   6.121   4.130   6.313
 3591WAT     H115070   6.072   4.169   6.374
 3591WAT     H215071   6.152   4.059   6.354
 3591WAT    EPW15072   6.118   4.125   6.328
 3592WAT      O15073   4.872   3.176   5.331
 3592WAT     H115074   4.917   3.118   5.283
 3592WAT     H215075   4.872   3.140   5.411
 3592WAT    EPW15076   4.879   3.162   5.336
 3593WAT      O15077   5.964   3.952   5.417
 3593WAT     H115078   5.986   4.016   5.472
 3593WAT     H215079   5.965   3.881   5.468
 3593WAT    EPW15080   5.967   3.951   5.433
 3594WAT      O15081   6.517   4.420   5.960
 3594WAT     H115082   6.536   4.441   5.878
 3594WAT     H215083   6.437   4.385   5.954
 3594WAT    EPW15084   6.508   4.418   5.947
 3595WAT      O15085   5.407   3.360   5.071
 3595WAT     H115086   5.350   3.366   5.005
 3595WAT     H215087   5.476   3.405   5.042
 3595WAT    EPW15088   5.409   3.368   5.057
 3596WAT      O15089   5.912   4.175   5.832
 3596WAT     H115090   5.828   4.156   5.844
 3596WAT     H215091   5.951   4.143   5.904
 3596WAT    EPW15092   5.905   4.167   5.844
 3597WAT      O15093   5.548   4.762   4.947
 3597WAT     H115094   5.589   4.693   4.982
 3597WAT     H215095   5.563   4.826   5.004
 3597WAT    EPW15096   5.556   4.761   4.961
 3598WAT      O15097   5.267   4.090   6.116
 3598WAT     H115098   5.321   4.157   6.099
 3598WAT     H215099   5.234   4.070   6.038
 3598WAT    EPW15100   5.270   4.097   6.102
 3599WAT      O15101   5.608   3.620   5.779
 3599WAT     H115102   5.692   3.606   5.760
 3599WAT     H215103   5.572   3.541   5.775
 3599WAT    EPW15104   5.615   3.606   5.776
 3600WAT      O15105   6.845   4.821   5.161
 3600WAT     H115106   6.910   4.770   5.132
 3600WAT     H215107   6.797   4.767   5.210
 3600WAT    EPW15108   6.848   4.806   5.164
 3601WAT      O15109   5.054   3.764   5.416
 3601WAT     H115110   5.082   3.717   5.484
 3601WAT     H215111   5.072   3.712   5.347
 3601WAT    EPW15112   5.061   3.749   5.416
 3602WAT      O15113   6.596   4.055   6.125
 3602WAT     H115114   6.599   3.985   6.177
 3602WAT     H215115   6.517   4.089   6.141
 3602WAT    EPW15116   6.584   4.050   6.135
 3603WAT      O15117   5.614   3.885   4.959
 3603WAT     H115118   5.531   3.859   4.963
 3603WAT     H215119   5.628   3.897   4.873
 3603WAT    EPW15120   5.604   3.883   4.947
 3604WAT      O15121   5.223   4.206   6.524
 3604WAT     H115122   5.183   4.154   6.466
 3604WAT     H215123   5.199   4.286   6.500
 3604WAT    EPW15124   5.214   4.210   6.512
 3605WAT      O15125   6.700   4.067   5.862
 3605WAT     H115126   6.669   4.069   5.943
 3605WAT     H215127   6.786   4.060   5.873
 3605WAT    EPW15128   6.708   4.066   5.876
 3606WAT      O15129   5.626   3.712   5.239
 3606WAT     H115130   5.648   3.795   5.256
 3606WAT     H215131   5.546   3.718   5.207
 3606WAT    EPW15132   5.618   3.725   5.237
 3607WAT      O15133   6.482   3.478   6.659
 3607WAT     H115134   6.411   3.480   6.709
 3607WAT     H215135   6.511   3.396   6.668
 3607WAT    EPW15136   6.476   3.466   6.668
 3608WAT      O15137   5.143   3.421   5.826
 3608WAT     H115138   5.074   3.407   5.876
 3608WAT     H215139   5.207   3.378   5.867
 3608WAT    EPW15140   5.142   3.412   5.840
 3609WAT      O15141   6.838   4.580   5.944
 3609WAT     H115142   6.881   4.623   5.881
 3609WAT     H215143   6.898   4.569   6.006
 3609WAT    EPW15144   6.853   4.585   5.944
 3610WAT      O15145   6.343   3.814   6.741
 3610WAT     H115146   6.370   3.835   6.822
 3610WAT     H215147   6.261   3.844   6.739
 3610WAT    EPW15148   6.335   3.822   6.753
 3611WAT      O15149   6.576   3.867   6.596
 3611WAT     H115150   6.593   3.950   6.621
 3611WAT     H215151   6.503   3.848   6.640
 3611WAT    EPW15152   6.568   3.877   6.606
 3612WAT      O15153   6.539   4.494   5.161
 3612WAT     H115154   6.575   4.415   5.171
 3612WAT     H215155   6.463   4.488   5.204
 3612WAT    EPW15156   6.533   4.482   5.169
 3613WAT      O15157   6.608   3.623   5.663
 3613WAT     H115158   6.539   3.577   5.691
 3613WAT     H215159   6.599   3.700   5.703
 3613WAT    EPW15160   6.597   3.627   5.673
 3614WAT      O15161   6.879   3.951   6.778
 3614WAT     H115162   6.885   3.895   6.712
 3614WAT     H215163   6.959   3.986   6.783
 3614WAT    EPW15164   6.892   3.948   6.769
 3615WAT      O15165   6.744   4.199   6.412
 3615WAT     H115166   6.810   4.149   6.383
 3615WAT     H215167   6.734   4.258   6.349
 3615WAT    EPW15168   6.752   4.200   6.398
 3616WAT      O15169   6.221   4.297   5.101
 3616WAT     H115170   6.295   4.252   5.093
 3616WAT     H215171   6.190   4.301   5.019
 3616WAT    EPW15172   6.227   4.291   5.088
 3617WAT      O15173   5.655   4.417   6.178
 3617WAT     H115174   5.661   4.468   6.248
 3617WAT     H215175   5.673   4.470   6.112
 3617WAT    EPW15176   5.658   4.432   6.179
 3618WAT      O15177   5.494   4.266   6.490
 3618WAT     H115178   5.414   4.235   6.504
 3618WAT     H215179   5.482   4.351   6.479
 3618WAT    EPW15180   5.481   4.274   6.490
 3619WAT      O15181   6.443   3.329   6.321
 3619WAT     H115182   6.503   3.391   6.333
 3619WAT     H215183   6.368   3.374   6.312
 3619WAT    EPW15184   6.440   3.345   6.321
 3620WAT      O15185   5.988   4.055   6.081
 3620WAT     H115186   6.038   4.075   6.149
 3620WAT     H215187   5.907   4.070   6.110
 3620WAT    EPW15188   5.983   4.060   6.095
 3621WAT      O15189   5.658   3.608   6.483
 3621WAT     H115190   5.669   3.524   6.505
 3621WAT     H215191   5.686   3.611   6.400
 3621WAT    EPW15192   5.664   3.596   6.474
 3622WAT      O15193   5.896   4.816   5.663
 3622WAT     H115194   5.897   4.902   5.682
 3622WAT     H215195   5.920   4.814   5.579
 3622WAT    EPW15196   5.900   4.829   5.653
 3623WAT      O15197   6.501   3.127   6.132
 3623WAT     H115198   6.477   3.200   6.174
 3623WAT     H215199   6.585   3.117   6.155
 3623WAT    EPW15200   6.510   3.137   6.142
 3624WAT      O15201   5.791   3.206   6.338
 3624WAT     H115202   5.873   3.235   6.336
 3624WAT     H215203   5.794   3.133   6.291
 3624WAT    EPW15204   5.804   3.200   6.331
 3625WAT      O15205   5.716   4.610   5.984
 3625WAT     H115206   5.667   4.657   5.929
 3625WAT     H215207   5.762   4.559   5.932
 3625WAT    EPW15208   5.716   4.610   5.968
 3626WAT      O15209   6.124   4.257   6.717
 3626WAT     H115210   6.205   4.259   6.686
 3626WAT     H215211   6.075   4.277   6.648
 3626WAT    EPW15212   6.129   4.260   6.702
 3627WAT      O15213   6.466   4.528   6.576
 3627WAT     H115214   6.502   4.556   6.650
 3627WAT     H215215   6.513   4.569   6.514
 3627WAT    EPW15216   6.478   4.538   6.578
 3628WAT      O15217   6.721   3.779   5.059
 3628WAT     H115218   6.771   3.832   5.011
 3628WAT     H215219   6.643   3.818   5.058
 3628WAT    EPW15220   6.717   3.793   5.052
 3629WAT      O15221   5.829   4.106   5.075
 3629WAT     H115222   5.755   4.132   5.036
 3629WAT     H215223   5.863   4.179   5.106
 3629WAT    EPW15224   5.823   4.120   5.074
 3630WAT      O15225   5.533   3.716   6.030
 3630WAT     H115226   5.559   3.681   5.954
 3630WAT     H215227   5.592   3.688   6.087
 3630WAT    EPW15228   5.546   3.707   6.027
 3631WAT      O15229   6.212   3.666   6.531
 3631WAT     H115230   6.145   3.708   6.568
 3631WAT     H215231   6.272   3.664   6.595
 3631WAT    EPW15232   6.211   3.672   6.546
 3632WAT      O15233   6.273   3.740   6.177
 3632WAT     H115234   6.279   3.793   6.246
 3632WAT     H215235   6.256   3.663   6.213
 3632WAT    EPW15236   6.271   3.737   6.193
 3633WAT      O15237   5.975   4.824   6.577
 3633WAT     H115238   5.987   4.819   6.490
 3633WAT     H215239   5.932   4.751   6.596
 3633WAT    EPW15240   5.971   4.813   6.567
 3634WAT      O15241   6.494   3.679   5.417
 3634WAT     H115242   6.521   3.657   5.498
 3634WAT     H215243   6.566   3.713   5.381
 3634WAT    EPW15244   6.509   3.681   5.424
 3635WAT      O15245   5.776   3.202   5.965
 3635WAT     H115246   5.693   3.189   5.987
 3635WAT     H215247   5.773   3.212   5.878
 3635WAT    EPW15248   5.763   3.202   5.955
 3636WAT      O15249   6.626   3.257   5.577
 3636WAT     H115250   6.548   3.220   5.593
 3636WAT     H215251   6.623   3.275   5.492
 3636WAT    EPW15252   6.614   3.254   5.567
 3637WAT      O15253   6.617   4.073   5.399
 3637WAT     H115254   6.662   3.999   5.386
 3637WAT     H215255   6.534   4.049   5.386
 3637WAT    EPW15256   6.612   4.059   5.395
 3638WAT      O15257   5.964   4.294   6.486
 3638WAT     H115258   5.888   4.296   6.529
 3638WAT     H215259   5.970   4.374   6.453
 3638WAT    EPW15260   5.954   4.306   6.488
 3639WAT      O15261   5.038   3.268   6.690
 3639WAT     H115262   5.029   3.338   6.638
 3639WAT     H215263   4.967   3.220   6.672
 3639WAT    EPW15264   5.026   3.271   6.680
 3640WAT      O15265   5.505   4.948   6.052
 3640WAT     H115266   5.508   4.929   6.137
 3640WAT     H215267   5.483   4.872   6.014
 3640WAT    EPW15268   5.502   4.934   6.059
 3641WAT      O15269   5.291   3.485   5.296
 3641WAT     H115270   5.318   3.437   5.228
 3641WAT     H215271   5.208   3.461   5.307
 3641WAT    EPW15272   5.283   3.474   5.288
 3642WAT      O15273   6.292   4.253   5.665
 3642WAT     H115274   6.281   4.260   5.751
 3642WAT     H215275   6.319   4.171   5.655
 3642WAT    EPW15276   6.294   4.242   5.676
 3643WAT      O15277   6.036   4.169   5.583
 3643WAT     H115278   5.996   4.165   5.660
 3643WAT     H215279   6.115   4.199   5.602
 3643WAT    EPW15280   6.042   4.173   5.597
 3644WAT      O15281   5.989   4.563   6.393
 3644WAT     H115282   6.048   4.563   6.457
 3644WAT     H215283   6.013   4.629   6.342
 3644WAT    EPW15284   6.001   4.573   6.395
 3645WAT      O15285   6.839   3.773   6.568
 3645WAT     H115286   6.753   3.788   6.575
 3645WAT     H215287   6.856   3.784   6.483
 3645WAT    EPW15288   6.829   3.777   6.557
 3646WAT      O15289   6.273   3.911   6.398
 3646WAT     H115290   6.262   3.844   6.453
 3646WAT     H215291   6.348   3.946   6.423
 3646WAT    EPW15292   6.282   3.906   6.410
 3647WAT      O15293   5.167   4.866   6.593
 3647WAT     H115294   5.104   4.806   6.587
 3647WAT     H215295   5.127   4.936   6.626
 3647WAT    EPW15296   5.152   4.868   6.597
 3648WAT      O15297   6.041   4.034   6.864
 3648WAT     H115298   6.066   4.106   6.822
 3648WAT     H215299   5.959   4.051   6.888
 3648WAT    EPW15300   6.033   4.047   6.862
 3649WAT      O15301   6.363   4.908   5.899
 3649WAT     H115302   6.303   4.968   5.920
 3649WAT     H215303   6.425   4.919   5.959
 3649WAT    EPW15304   6.363   4.918   5.911
 3650WAT      O15305   6.053   4.386   6.088
 3650WAT     H115306   6.001   4.337   6.137
 3650WAT     H215307   6.107   4.423   6.145
 3650WAT    EPW15308   6.053   4.384   6.103
 3651WAT      O15309   6.594   4.604   6.812
 3651WAT     H115310   6.674   4.570   6.809
 3651WAT     H215311   6.559   4.568   6.883
 3651WAT    EPW15312   6.601   4.593   6.822
 3652WAT      O15313   5.406   3.728   6.451
 3652WAT     H115314   5.419   3.785   6.386
 3652WAT     H215315   5.484   3.689   6.460
 3652WAT    EPW15316   5.419   3.731   6.443
 3653WAT      O15317   5.213   3.566   6.338
 3653WAT     H115318   5.226   3.584   6.254
 3653WAT     H215319   5.274   3.613   6.378
 3653WAT    EPW15320   5.224   3.576   6.332
 3654WAT      O15321   6.718   3.822   5.334
 3654WAT     H115322   6.729   3.812   5.248
 3654WAT     H215323   6.792   3.791   5.367
 3654WAT    EPW15324   6.731   3.816   5.326
 3655WAT      O15325   5.424   3.237   6.583
 3655WAT     H115326   5.388   3.157   6.585
 3655WAT     H215327   5.404   3.266   6.504
 3655WAT    EPW15328   5.416   3.229   6.572
 3656WAT      O15329   6.104   4.532   5.496
 3656WAT     H115330   6.083   4.612   5.468
 3656WAT     H215331   6.033   4.485   5.481
 3656WAT    EPW15332   6.091   4.537   5.490
 3657WAT      O15333   6.589   3.832   6.315
 3657WAT     H115334   6.590   3.744   6.317
 3657WAT     H215335   6.581   3.854   6.399
 3657WAT    EPW15336   6.588   3.822   6.328
 3658WAT      O15337   5.094   4.049   6.332
 3658WAT     H115338   5.145   4.064   6.263
 3658WAT     H215339   5.078   3.964   6.327
 3658WAT    EPW15340   5.099   4.039   6.321
 3659WAT      O15341   5.160   3.655   4.900
 3659WAT     H115342   5.110   3.653   4.971
 3659WAT     H215343   5.182   3.571   4.889
 3659WAT    EPW15344   5.156   3.642   4.909
 3660WAT      O15345   6.148   3.280   6.648
 3660WAT     H115346   6.177   3.346   6.697
 3660WAT     H215347   6.068   3.264   6.680
 3660WAT    EPW15348   6.140   3.288   6.660
 3661WAT      O15349   6.126   3.382   5.729
 3661WAT     H115350   6.047   3.420   5.728
 3661WAT     H215351   6.118   3.317   5.672
 3661WAT    EPW15352   6.113   3.378   5.721
 3662WAT      O15353   5.617   4.516   5.107
 3662WAT     H115354   5.650   4.516   5.188
 3662WAT     H215355   5.532   4.500   5.120
 3662WAT    EPW15356   5.609   4.514   5.121
 3663WAT      O15357   6.451   3.436   5.998
 3663WAT     H115358   6.528   3.401   6.020
 3663WAT     H215359   6.462   3.521   6.017
 3663WAT    EPW15360   6.464   3.444   6.004
 3664WAT      O15361   5.634   4.029   6.413
 3664WAT     H115362   5.591   4.100   6.441
 3664WAT     H215363   5.576   3.989   6.361
 3664WAT    EPW15364   5.619   4.034   6.409
 3665WAT      O15365   6.536   3.862   5.785
 3665WAT     H115366   6.593   3.924   5.806
 3665WAT     H215367   6.479   3.902   5.733
 3665WAT    EPW15368   6.536   3.877   5.781
 3666WAT      O15369   6.539   4.697   5.551
 3666WAT     H115370   6.529   4.620   5.590
 3666WAT     H215371   6.575   4.677   5.474
 3666WAT    EPW15372   6.543   4.683   5.545
 3667WAT      O15373   5.363   4.436   5.163
 3667WAT     H115374   5.366   4.424   5.249
 3667WAT     H215375   5.348   4.356   5.132
 3667WAT    EPW15376   5.362   4.422   5.171
 3668WAT      O15377   5.607   4.257   4.988
 3668WAT     H115378   5.524   4.233   5.001
 3668WAT     H215379   5.612   4.335   5.027
 3668WAT    EPW15380   5.595   4.265   4.996
 3669WAT      O15381   5.607   3.378   6.216
 3669WAT     H115382   5.529   3.352   6.243
 3669WAT     H215383   5.661   3.316   6.245
 3669WAT    EPW15384   5.604   3.365   6.224
 3670WAT      O15385   6.743   3.171   6.278
 3670WAT     H115386   6.703   3.150   6.353
 3670WAT     H215387   6.825   3.145   6.290
 3670WAT    EPW15388   6.749   3.164   6.291
 3671WAT      O15389   5.970   3.369   6.082
 3671WAT     H115390   5.910   3.317   6.047
 3671WAT     H215391   6.046   3.332   6.059
 3671WAT    EPW15392   5.973   3.356   6.074
 3672WAT      O15393   6.301   4.487   6.191
 3672WAT     H115394   6.317   4.556   6.243
 3672WAT     H215395   6.301   4.522   6.111
 3672WAT    EPW15396   6.303   4.503   6.187
 3673WAT      O15397   6.255   4.882   6.625
 3673WAT     H115398   6.182   4.844   6.596
 3673WAT     H215399   6.231   4.964   6.640
 3673WAT    EPW15400   6.241   4.889   6.623
 3674WAT      O15401   5.766   3.839   6.599
 3674WAT     H115402   5.734   3.766   6.563
 3674WAT     H215403   5.731   3.903   6.550
 3674WAT    EPW15404   5.756   3.838   6.587
 3675WAT      O15405   5.815   3.171   5.133
 3675WAT     H115406   5.834   3.179   5.048
 3675WAT     H215407   5.728   3.168   5.135
 3675WAT    EPW15408   5.805   3.172   5.121
 3676WAT      O15409   6.713   4.315   6.152
 3676WAT     H115410   6.692   4.231   6.138
 3676WAT     H215411   6.661   4.358   6.096
 3676WAT    EPW15412   6.702   4.309   6.141
 3677WAT      O15413   5.604   4.816   6.591
 3677WAT     H115414   5.593   4.808   6.677
 3677WAT     H215415   5.670   4.761   6.574
 3677WAT    EPW15416   5.612   4.807   6.601
 3678WAT      O15417   6.618   4.636   6.122
 3678WAT     H115418   6.689   4.636   6.071
 3678WAT     H215419   6.565   4.579   6.082
 3678WAT    EPW15420   6.621   4.627   6.108
 3679WAT      O15421   5.356   3.323   6.332
 3679WAT     H115422   5.300   3.260   6.311
 3679WAT     H215423   5.309   3.396   6.326
 3679WAT    EPW15424   5.341   3.325   6.328
 3680WAT      O15425   6.212   3.280   5.972
 3680WAT     H115426   6.282   3.329   5.992
 3680WAT     H215427   6.186   3.313   5.896
 3680WAT    EPW15428   6.219   3.292   5.964
 3681WAT      O15429   5.337   4.678   6.714
 3681WAT     H115430   5.402   4.716   6.759
 3681WAT     H215431   5.296   4.746   6.677
 3681WAT    EPW15432   5.341   4.694   6.715
 3682WAT      O15433   6.210   3.767   5.728
 3682WAT     H115434   6.261   3.697   5.740
 3682WAT     H215435   6.177   3.783   5.807
 3682WAT    EPW15436   6.213   3.759   5.741
 3683WAT      O15437   5.155   3.647   5.659
 3683WAT     H115438   5.132   3.697   5.726
 3683WAT     H215439   5.153   3.566   5.691
 3683WAT    EPW15440   5.152   3.643   5.673
 3684WAT      O15441   5.181   4.468   6.437
 3684WAT     H115442   5.131   4.524   6.481
 3684WAT     H215443   5.261   4.501   6.445
 3684WAT    EPW15444   5.185   4.481   6.445
 3685WAT      O15445   6.375   3.921   5.347
 3685WAT     H115446   6.396   3.838   5.368
 3685WAT     H215447   6.297   3.914   5.309
 3685WAT    EPW15448   6.367   3.908   5.345
 3686WAT      O15449   5.350   4.781   5.297
 3686WAT     H115450   5.316   4.761   5.219
 3686WAT     H215451   5.435   4.764   5.288
 3686WAT    EPW15452   5.357   4.776   5.284
 3687WAT      O15453   5.712   3.976   5.296
 3687WAT     H115454   5.739   4.010   5.220
 3687WAT     H215455   5.787   3.959   5.338
 3687WAT    EPW15456   5.727   3.979   5.291
 3688WAT      O15457   6.632   4.871   4.988
 3688WAT     H115458   6.704   4.860   5.036
 3688WAT     H215459   6.614   4.791   4.959
 3688WAT    EPW15460   6.640   4.858   4.990
 3689WAT      O15461   6.678   4.116   6.679
 3689WAT     H115462   6.748   4.077   6.714
 3689WAT     H215463   6.710   4.155   6.607
 3689WAT    EPW15464   6.693   4.116   6.673
 3690WAT      O15465   6.294   4.495   5.287
 3690WAT     H115466   6.247   4.489   5.361
 3690WAT     H215467   6.258   4.434   5.236
 3690WAT    EPW15468   6.281   4.485   5.291
 3691WAT      O15469   6.708   3.568   6.787
 3691WAT     H115470   6.697   3.647   6.821
 3691WAT     H215471   6.633   3.552   6.747
 3691WAT    EPW15472   6.695   3.577   6.786
 3692WAT      O15473   6.763   3.667   6.090
 3692WAT     H115474   6.681   3.691   6.072
 3692WAT     H215475   6.759   3.581   6.098
 3692WAT    EPW15476   6.750   3.658   6.088
 3693WAT      O15477   5.689   3.328   6.572
 3693WAT     H115478   5.719   3.293   6.498
 3693WAT     H215479   5.609   3.293   6.580
 3693WAT    EPW15480   5.682   3.318   6.562
 3694WAT      O15481   6.444   4.174   6.904
 3694WAT     H115482   6.523   4.199   6.933
 3694WAT     H215483   6.446   4.196   6.819
 3694WAT    EPW15484   6.456   4.181   6.896
 3695WAT      O15485   5.379   4.711   5.952
 3695WAT     H115486   5.380   4.631   5.916
 3695WAT     H215487   5.337   4.759   5.893
 3695WAT    EPW15488   5.373   4.706   5.938
 3696WAT      O15489   5.957   4.332   5.171
 3696WAT     H115490   6.041   4.312   5.158
 3696WAT     H215491   5.946   4.405   5.124
 3696WAT    EPW15492   5.968   4.340   5.162
 3697WAT      O15493   5.170   4.949   6.328
 3697WAT     H115494   5.174   4.919   6.410
 3697WAT     H215495   5.197   4.881   6.280
 3697WAT    EPW15496   5.174   4.934   6.333
 3698WAT      O15497   6.134   3.165   3.646
 3698WAT     H115498   6.128   3.196   3.565
 3698WAT     H215499   6.217   3.137   3.652
 3698WAT    EPW15500   6.145   3.165   3.635
 3699WAT      O15501   5.051   4.038   3.711
 3699WAT     H115502   4.970   4.059   3.734
 3699WAT     H215503   5.039   3.980   3.647
 3699WAT    EPW15504   5.037   4.032   3.705
 3700WAT      O15505   6.674   4.652   3.422
 3700WAT     H115506   6.739   4.596   3.440
 3700WAT     H215507   6.619   4.604   3.374
 3700WAT    EPW15508   6.676   4.637   3.418
 3701WAT      O15509   5.333   4.212   3.204
 3701WAT     H115510   5.312   4.186   3.124
 3701WAT     H215511   5.301   4.149   3.255
 3701WAT    EPW15512   5.325   4.199   3.200
 3702WAT      O15513   6.321   3.984   3.729
 3702WAT     H115514   6.321   3.952   3.648
 3702WAT     H215515   6.250   3.949   3.766
 3702WAT    EPW15516   6.310   3.974   3.722
 3703WAT      O15517   5.107   4.436   3.529
 3703WAT     H115518   5.145   4.370   3.571
 3703WAT     H215519   5.032   4.402   3.500
 3703WAT    EPW15520   5.102   4.421   3.531
 3704WAT      O15521   5.691   3.263   3.563
 3704WAT     H115522   5.707   3.314   3.494
 3704WAT     H215523   5.703   3.182   3.532
 3704WAT    EPW15524   5.696   3.258   3.548
 3705WAT      O15525   4.998   4.478   4.288
 3705WAT     H115526   5.019   4.467   4.372
 3705WAT     H215527   4.915   4.451   4.284
 3705WAT    EPW15528   4.989   4.472   4.300
 3706WAT      O15529   5.690   4.330   4.733
 3706WAT     H115530   5.665   4.302   4.812
 3706WAT     H215531   5.620   4.316   4.683
 3706WAT    EPW15532   5.676   4.324   4.737
 3707WAT      O15533   5.619   3.621   4.277
 3707WAT     H115534   5.692   3.633   4.231
 3707WAT     H215535   5.613   3.535   4.284
 3707WAT    EPW15536   5.629   3.610   4.272
 3708WAT      O15537   5.695   4.612   4.478
 3708WAT     H115538   5.717   4.675   4.422
 3708WAT     H215539   5.772   4.585   4.508
 3708WAT    EPW15540   5.710   4.617   4.474
 3709WAT      O15541   5.338   3.517   3.667
 3709WAT     H115542   5.390   3.518   3.737
 3709WAT     H215543   5.258   3.515   3.701
 3709WAT    EPW15544   5.334   3.517   3.683
 3710WAT      O15545   5.840   4.419   3.907
 3710WAT     H115546   5.859   4.334   3.916
 3710WAT     H215547   5.918   4.455   3.890
 3710WAT    EPW15548   5.854   4.412   3.906
 3711WAT      O15549   5.905   4.400   3.520
 3711WAT     H115550   5.926   4.331   3.570
 3711WAT     H215551   5.908   4.367   3.439
 3711WAT    EPW15552   5.909   4.385   3.515
 3712WAT      O15553   5.947   3.818   4.763
 3712WAT     H115554   5.873   3.848   4.729
 3712WAT     H215555   5.976   3.884   4.812
 3712WAT    EPW15556   5.940   3.832   4.765
 3713WAT      O15557   5.419   3.246   3.622
 3713WAT     H115558   5.382   3.325   3.626
 3713WAT     H215559   5.502   3.262   3.600
 3713WAT    EPW15560   5.426   3.260   3.620
 3714WAT      O15561   6.458   3.075   4.626
 3714WAT     H115562   6.443   3.155   4.593
 3714WAT     H215563   6.389   3.061   4.677
 3714WAT    EPW15564   6.446   3.085   4.628
 3715WAT      O15565   5.810   3.277   3.815
 3715WAT     H115566   5.810   3.362   3.834
 3715WAT     H215567   5.771   3.273   3.737
 3715WAT    EPW15568   5.805   3.289   3.806
 3716WAT      O15569   6.180   3.449   3.043
 3716WAT     H115570   6.136   3.520   3.067
 3716WAT     H215571   6.229   3.431   3.112
 3716WAT    EPW15572   6.181   3.457   3.056
 3717WAT      O15573   4.974   3.682   3.973
 3717WAT     H115574   5.015   3.635   3.912
 3717WAT     H215575   4.891   3.656   3.966
 3717WAT    EPW15576   4.968   3.671   3.963
 3718WAT      O15577   4.885   4.857   3.752
 3718WAT     H115578   4.807   4.843   3.717
 3718WAT     H215579   4.939   4.810   3.702
 3718WAT    EPW15580   4.882   4.848   3.740
 3719WAT      O15581   5.639   4.463   3.542
 3719WAT     H115582   5.617   4.463   3.626
 3719WAT     H215583   5.724   4.443   3.542
 3719WAT    EPW15584   5.648   4.460   3.554
 3720WAT      O15585   6.263   4.796   3.344
 3720WAT     H115586   6.334   4.845   3.330
 3720WAT     H215587   6.250   4.756   3.268
 3720WAT    EPW15588   6.271   4.797   3.331
 3721WAT      O15589   6.055   4.804   3.517
 3721WAT     H115590   6.072   4.876   3.564
 3721WAT     H215591   6.119   4.803   3.458
 3721WAT    EPW15592   6.067   4.815   3.515
 3722WAT      O15593   5.211   3.189   4.041
 3722WAT     H115594   5.170   3.261   4.013
 3722WAT     H215595   5.180   3.126   3.989
 3722WAT    EPW15596   5.201   3.191   4.029
 3723WAT      O15597   5.654   3.466   4.971
 3723WAT     H115598   5.650   3.448   4.886
 3723WAT     H215599   5.702   3.539   4.974
 3723WAT    EPW15600   5.660   3.474   4.959
 3724WAT      O15601   5.105   4.701   3.633
 3724WAT     H115602   5.091   4.618   3.610
 3724WAT     H215603   5.167   4.727   3.578
 3724WAT    EPW15604   5.112   4.692   3.621
 3725WAT      O15605   6.830   3.448   3.765
 3725WAT     H115606   6.768   3.509   3.752
 3725WAT     H215607   6.784   3.374   3.776
 3725WAT    EPW15608   6.814   3.446   3.764
 3726WAT      O15609   6.294   4.777   4.300
 3726WAT     H115610   6.358   4.835   4.285
 3726WAT     H215611   6.267   4.755   4.220
 3726WAT    EPW15612   6.300   4.782   4.286
 3727WAT      O15613   5.220   3.386   4.857
 3727WAT     H115614   5.144   3.346   4.841
 3727WAT     H215615   5.269   3.365   4.788
 3727WAT    EPW15616   5.216   3.377   4.845
 3728WAT      O15617   5.318   4.415   3.897
 3728WAT     H115618   5.394   4.434   3.859
 3728WAT     H215619   5.341   4.370   3.968
 3728WAT    EPW15620   5.333   4.411   3.902
 3729WAT      O15621   5.632   4.742   3.857
 3729WAT     H115622   5.706   4.766   3.818
 3729WAT     H215623   5.572   4.793   3.820
 3729WAT    EPW15624   5.634   4.753   3.846
 3730WAT      O15625   5.860   3.182   4.857
 3730WAT     H115626   5.893   3.112   4.817
 3730WAT     H215627   5.782   3.192   4.820
 3730WAT    EPW15628   5.854   3.173   4.846
 3731WAT      O15629   5.855   3.744   3.636
 3731WAT     H115630   5.905   3.695   3.583
 3731WAT     H215631   5.910   3.772   3.697
 3731WAT    EPW15632   5.870   3.741   3.637
 3732WAT      O15633   6.042   3.676   3.171
 3732WAT     H115634   6.072   3.756   3.191
 3732WAT     H215635   5.969   3.693   3.127
 3732WAT    EPW15636   6.036   3.691   3.168
 3733WAT      O15637   6.476   4.966   3.282
 3733WAT     H115638   6.527   4.932   3.219
 3733WAT     H215639   6.531   5.009   3.333
 3733WAT    EPW15640   6.491   4.967   3.280
 3734WAT      O15641   5.452   4.823   4.442
 3734WAT     H115642   5.498   4.838   4.514
 3734WAT     H215643   5.420   4.743   4.454
 3734WAT    EPW15644   5.454   4.813   4.454
 3735WAT      O15645   6.725   3.385   4.204
 3735WAT     H115646   6.793   3.370   4.151
 3735WAT     H215647   6.742   3.334   4.273
 3735WAT    EPW15648   6.738   3.375   4.207
 3736WAT      O15649   4.886   3.496   4.632
 3736WAT     H115650   4.839   3.518   4.702
 3736WAT     H215651   4.826   3.486   4.570
 3736WAT    EPW15652   4.870   3.498   4.633
 3737WAT      O15653   6.189   4.620   4.669
 3737WAT     H115654   6.176   4.622   4.756
 3737WAT     H215655   6.270   4.587   4.662
 3737WAT    EPW15656   6.199   4.615   4.681
 3738WAT      O15657   5.868   4.528   3.146
 3738WAT     H115658   5.847   4.591   3.203
 3738WAT     H215659   5.949   4.547   3.122
 3738WAT    EPW15660   5.877   4.540   3.151
 3739WAT      O15661   6.347   3.385   3.257
 3739WAT     H115662   6.383   3.306   3.256
 3739WAT     H215663   6.416   3.439   3.265
 3739WAT    EPW15664   6.363   3.382   3.258
 3740WAT      O15665   5.118   4.721   4.219
 3740WAT     H115666   5.078   4.646   4.239
 3740WAT     H215667   5.192   4.694   4.180
 3740WAT    EPW15668   5.123   4.706   4.216
 3741WAT      O15669   5.979   3.588   3.429
 3741WAT     H115670   5.907   3.540   3.415
 3741WAT     H215671   5.996   3.622   3.350
 3741WAT    EPW15672   5.971   3.586   3.415
 3742WAT      O15673   6.059   4.847   4.434
 3742WAT     H115674   6.133   4.820   4.396
 3742WAT     H215675   5.997   4.822   4.378
 3742WAT    EPW15676   6.061   4.839   4.420
 3743WAT      O15677   6.094   3.263   3.386
 3743WAT     H115678   6.015   3.250   3.350
 3743WAT     H215679   6.149   3.252   3.320
 3743WAT    EPW15680   6.090   3.259   3.371
 3744WAT      O15681   6.746   4.859   3.700
 3744WAT     H115682   6.707   4.936   3.711
 3744WAT     H215683   6.679   4.803   3.690
 3744WAT    EPW15684   6.730   4.862   3.700
 3745WAT      O15685   5.767   3.554   3.846
 3745WAT     H115686   5.787   3.614   3.787
 3745WAT     H215687   5.796   3.589   3.921
 3745WAT    EPW15688   5.774   3.568   3.849
 3746WAT      O15689   6.459   4.436   3.765
 3746WAT     H115690   6.523   4.378   3.751
 3746WAT     H215691   6.386   4.392   3.743
 3746WAT    EPW15692   6.457   4.421   3.760
 3747WAT      O15693   5.428   4.565   4.564
 3747WAT     H115694   5.513   4.584   4.555
 3747WAT     H215695   5.408   4.593   4.644
 3747WAT    EPW15696   5.438   4.572   4.575
 3748WAT      O15697   5.597   4.098   4.026
 3748WAT     H115698   5.634   4.103   4.105
 3748WAT     H215699   5.534   4.040   4.037
 3748WAT    EPW15700   5.593   4.090   4.039
 3749WAT      O15701   6.217   3.499   4.455
 3749WAT     H115702   6.196   3.553   4.520
 3749WAT     H215703   6.151   3.442   4.454
 3749WAT    EPW15704   6.204   3.498   4.465
 3750WAT      O15705   5.723   4.176   4.262
 3750WAT     H115706   5.694   4.259   4.269
 3750WAT     H215707   5.698   4.140   4.337
 3750WAT    EPW15708   5.715   4.183   4.274
 3751WAT      O15709   6.354   4.231   4.334
 3751WAT     H115710   6.273   4.204   4.354
 3751WAT     H215711   6.346   4.317   4.323
 3751WAT    EPW15712   6.341   4.239   4.335
 3752WAT      O15713   6.395   3.071   3.692
 3752WAT     H115714   6.401   3.064   3.779
 3752WAT     H215715   6.428   2.996   3.663
 3752WAT    EPW15716   6.401   3.059   3.701
 3753WAT      O15717   4.986   4.540   4.945
 3753WAT     H115718   5.064   4.572   4.967
 3753WAT     H215719   4.988   4.458   4.974
 3753WAT    EPW15720   4.998   4.532   4.952
 3754WAT      O15721   6.617   3.539   4.527
 3754WAT     H115722   6.698   3.520   4.552
 3754WAT     H215723   6.593   3.603   4.582
 3754WAT    EPW15724   6.625   3.546   4.539
 3755WAT      O15725   5.461   3.200   3.895
 3755WAT     H115726   5.440   3.203   3.810
 3755WAT     H215727   5.384   3.198   3.936
 3755WAT    EPW15728   5.447   3.200   3.888
 3756WAT      O15729   6.659   4.242   3.292
 3756WAT     H115730   6.653   4.190   3.361
 3756WAT     H215731   6.745   4.248   3.279
 3756WAT    EPW15732   6.671   4.235   3.300
 3757WAT      O15733   5.257   4.238   3.662
 3757WAT     H115734   5.267   4.275   3.740
 3757WAT     H215735   5.200   4.173   3.678
 3757WAT    EPW15736   5.250   4.234   3.676
 3758WAT      O15737   5.193   4.807   3.874
 3758WAT     H115738   5.158   4.765   3.806
 3758WAT     H215739   5.263   4.846   3.840
 3758WAT    EPW15740   5.198   4.807   3.859
 3759WAT      O15741   5.130   3.672   4.201
 3759WAT     H115742   5.209   3.667   4.166
 3759WAT     H215743   5.076   3.666   4.132
 3759WAT    EPW15744   5.134   3.670   4.186
 3760WAT      O15745   6.872   4.662   4.659
 3760WAT     H115746   6.799   4.659   4.611
 3760WAT     H215747   6.852   4.615   4.730
 3760WAT    EPW15748   6.858   4.655   4.663
 3761WAT      O15749   6.462   3.900   3.204
 3761WAT     H115750   6.457   3.983   3.178
 3761WAT     H215751   6.429   3.902   3.284
 3761WAT    EPW15752   6.457   3.912   3.212
 3762WAT      O15753   5.521   4.207   3.499
 3762WAT     H115754   5.545   4.289   3.516
 3762WAT     H215755   5.443   4.200   3.538
 3762WAT    EPW15756   5.513   4.218   3.508
 3763WAT      O15757   6.785   3.388   3.161
 3763WAT     H115758   6.832   3.344   3.103
 3763WAT     H215759   6.735   3.441   3.112
 3763WAT    EPW15760   6.785   3.389   3.146
 3764WAT      O15761   5.024   4.391   3.955
 3764WAT     H115762   4.977   4.464   3.966
 3764WAT     H215763   5.104   4.421   3.933
 3764WAT    EPW15764   5.029   4.407   3.954
 3765WAT      O15765   5.820   3.693   4.977
 3765WAT     H115766   5.758   3.752   4.994
 3765WAT     H215767   5.857   3.722   4.904
 3765WAT    EPW15768   5.816   3.706   4.969
 3766WAT      O15769   6.838   3.799   4.399
 3766WAT     H115770   6.846   3.740   4.335
 3766WAT     H215771   6.754   3.822   4.394
 3766WAT    EPW15772   6.827   3.794   4.388
 3767WAT      O15773   6.658   3.292   3.395
 3767WAT     H115774   6.723   3.251   3.437
 3767WAT     H215775   6.697   3.326   3.325
 3767WAT    EPW15776   6.674   3.291   3.391
 3768WAT      O15777   6.061   4.585   3.845
 3768WAT     H115778   6.010   4.653   3.827
 3768WAT     H215779   6.099   4.566   3.769
 3768WAT    EPW15780   6.059   4.592   3.831
 3769WAT      O15781   5.424   4.298   4.119
 3769WAT     H115782   5.473   4.344   4.175
 3769WAT     H215783   5.479   4.239   4.087
 3769WAT    EPW15784   5.439   4.296   4.122
 3770WAT      O15785   6.393   3.497   3.877
 3770WAT     H115786   6.406   3.532   3.956
 3770WAT     H215787   6.325   3.443   3.889
 3770WAT    EPW15788   6.385   3.494   3.891
 3771WAT      O15789   5.095   3.951   3.977
 3771WAT     H115790   5.054   3.874   3.979
 3771WAT     H215791   5.090   3.974   3.893
 3771WAT    EPW15792   5.089   3.943   3.965
 3772WAT      O15793   5.733   3.464   3.362
 3772WAT     H115794   5.727   3.448   3.277
 3772WAT     H215795   5.672   3.525   3.376
 3772WAT    EPW15796   5.723   3.471   3.352
 3773WAT      O15797   6.629   4.668   4.496
 3773WAT     H115798   6.593   4.748   4.495
 3773WAT     H215799   6.622   4.641   4.414
 3773WAT    EPW15800   6.623   4.676   4.484
 3774WAT      O15801   5.580   4.477   3.808
 3774WAT     H115802   5.588   4.562   3.826
 3774WAT     H215803   5.651   4.442   3.844
 3774WAT    EPW15804   5.592   4.484   3.816
 3775WAT      O15805   5.291   3.732   3.490
 3775WAT     H115806   5.297   3.669   3.550
 3775WAT     H215807   5.208   3.760   3.497
 3775WAT    EPW15808   5.280   3.727   3.500
 3776WAT      O15809   5.371   3.926   4.072
 3776WAT     H115810   5.290   3.945   4.045
 3776WAT     H215811   5.378   3.840   4.060
 3776WAT    EPW15812   5.360   3.916   4.066
 3777WAT      O15813   5.455   3.884   4.337
 3777WAT     H115814   5.507   3.817   4.315
 3777WAT     H215815   5.419   3.909   4.262
 3777WAT    EPW15816   5.458   3.878   4.323
 3778WAT      O15817   6.479   3.680   4.078
 3778WAT     H115818   6.424   3.707   4.140
 3778WAT     H215819   6.478   3.744   4.019
 3778WAT    EPW15820   6.471   3.693   4.079
 3779WAT      O15821   5.830   4.786   4.288
 3779WAT     H115822   5.828   4.718   4.233
 3779WAT     H215823   5.804   4.853   4.239
 3779WAT    EPW15824   5.826   4.786   4.273
 3780WAT      O15825   6.030   3.282   4.506
 3780WAT     H115826   6.052   3.201   4.484
 3780WAT     H215827   6.055   3.288   4.589
 3780WAT    EPW15828   6.037   3.271   4.515
 3781WAT      O15829   5.168   4.108   4.835
 3781WAT     H115830   5.174   4.141   4.754
 3781WAT     H215831   5.086   4.080   4.840
 3781WAT    EPW15832   5.157   4.109   4.824
 3782WAT      O15833   6.399   4.274   4.766
 3782WAT     H115834   6.421   4.352   4.734
 3782WAT     H215835   6.423   4.219   4.703
 3782WAT    EPW15836   6.406   4.277   4.752
 3783WAT      O15837   5.795   4.593   4.797
 3783WAT     H115838   5.838   4.577   4.871
 3783WAT     H215839   5.763   4.515   4.774
 3783WAT    EPW15840   5.797   4.579   4.804
 3784WAT      O15841   5.859   3.629   4.101
 3784WAT     H115842   5.914   3.692   4.075
 3784WAT     H215843   5.911   3.559   4.109
 3784WAT    EPW15844   5.875   3.628   4.098
 3785WAT      O15845   6.114   3.919   3.317
 3785WAT     H115846   6.130   3.995   3.278
 3785WAT     H215847   6.042   3.936   3.364
 3785WAT    EPW15848   6.105   3.933   3.318
 3786WAT      O15849   6.656   4.234   3.724
 3786WAT     H115850   6.659   4.185   3.797
 3786WAT     H215851   6.631   4.177   3.663
 3786WAT    EPW15852   6.653   4.218   3.726
 3787WAT      O15853   6.238   4.685   4.045
 3787WAT     H115854   6.182   4.651   3.987
 3787WAT     H215855   6.268   4.756   4.004
 3787WAT    EPW15856   6.234   4.690   4.030
 3788WAT      O15857   6.199   4.188   4.019
 3788WAT     H115858   6.132   4.212   4.069
 3788WAT     H215859   6.188   4.102   4.010
 3788WAT    EPW15860   6.187   4.179   4.025
 3789WAT      O15861   5.634   4.740   3.505
 3789WAT     H115862   5.642   4.658   3.535
 3789WAT     H215863   5.697   4.745   3.444
 3789WAT    EPW15864   5.645   4.728   3.500
 3790WAT      O15865   5.582   3.115   3.290
 3790WAT     H115866   5.537   3.091   3.361
 3790WAT     H215867   5.535   3.181   3.258
 3790WAT    EPW15868   5.568   3.122   3.296
 3791WAT      O15869   5.850   4.742   3.332
 3791WAT     H115870   5.917   4.748   3.389
 3791WAT     H215871   5.847   4.820   3.295
 3791WAT    EPW15872   5.860   4.754   3.335
 3792WAT      O15873   6.463   4.109   4.555
 3792WAT     H115874   6.432   4.151   4.485
 3792WAT     H215875   6.549   4.117   4.547
 3792WAT    EPW15876   6.471   4.116   4.543
 3793WAT      O15877   6.191   4.713   4.941
 3793WAT     H115878   6.211   4.732   5.024
 3793WAT     H215879   6.235   4.772   4.895
 3793WAT    EPW15880   6.201   4.724   4.947
 3794WAT      O15881   6.694   3.119   4.761
 3794WAT     H115882   6.619   3.109   4.717
 3794WAT     H215883   6.676   3.085   4.840
 3794WAT    EPW15884   6.680   3.112   4.766
 3795WAT      O15885   5.233   3.987   3.350
 3795WAT     H115886   5.280   3.923   3.387
 3795WAT     H215887   5.153   3.974   3.382
 3795WAT    EPW15888   5.228   3.975   3.361
 3796WAT      O15889   6.105   4.149   4.432
 3796WAT     H115890   6.056   4.178   4.498
 3796WAT     H215891   6.131   4.070   4.458
 3796WAT    EPW15892   6.101   4.141   4.445
 3797WAT      O15893   5.888   3.979   3.479
 3797WAT     H115894   5.920   4.037   3.535
 3797WAT     H215895   5.870   3.910   3.529
 3797WAT    EPW15896   5.890   3.977   3.495
 3798WAT      O15897   6.422   4.397   4.047
 3798WAT     H115898   6.433   4.420   3.963
 3798WAT     H215899   6.370   4.328   4.043
 3798WAT    EPW15900   6.416   4.391   4.034
 3799WAT      O15901   5.458   3.335   3.183
 3799WAT     H115902   5.380   3.368   3.163
 3799WAT     H215903   5.514   3.390   3.144
 3799WAT    EPW15904   5.455   3.348   3.174
 3800WAT      O15905   5.849   4.135   3.898
 3800WAT     H115906   5.768   4.118   3.926
 3800WAT     H215907   5.893   4.063   3.918
 3800WAT    EPW15908   5.843   4.122   3.905
 3801WAT      O15909   5.535   4.758   3.101
 3801WAT     H115910   5.545   4.686   3.150
 3801WAT     H215911   5.537   4.823   3.160
 3801WAT    EPW15912   5.537   4.757   3.117
 3802WAT      O15913   5.499   3.483   3.893
 3802WAT     H115914   5.583   3.501   3.877
 3802WAT     H215915   5.499   3.396   3.899
 3802WAT    EPW15916   5.512   3.473   3.892
 3803WAT      O15917   6.852   4.815   3.282
 3803WAT     H115918   6.915   4.762   3.252
 3803WAT     H215919   6.798   4.761   3.324
 3803WAT    EPW15920   6.853   4.799   3.284
 3804WAT      O15921   6.579   4.099   4.219
 3804WAT     H115922   6.581   4.029   4.271
 3804WAT     H215923   6.502   4.136   4.238
 3804WAT    EPW15924   6.568   4.094   4.229
 3805WAT      O15925   5.594   3.863   3.198
 3805WAT     H115926   5.575   3.803   3.259
 3805WAT     H215927   5.526   3.858   3.143
 3805WAT    EPW15928   5.581   3.853   3.199
 3806WAT      O15929   5.179   4.214   4.572
 3806WAT     H115930   5.139   4.173   4.507
 3806WAT     H215931   5.142   4.293   4.573
 3806WAT    EPW15932   5.168   4.220   4.563
 3807WAT      O15933   6.678   4.067   3.954
 3807WAT     H115934   6.646   4.083   4.033
 3807WAT     H215935   6.764   4.060   3.967
 3807WAT    EPW15936   6.686   4.068   3.967
 3808WAT      O15937   5.563   3.690   3.418
 3808WAT     H115938   5.601   3.715   3.492
 3808WAT     H215939   5.478   3.694   3.437
 3808WAT    EPW15940   5.556   3.694   3.432
 3809WAT      O15941   6.427   3.544   4.780
 3809WAT     H115942   6.363   3.529   4.838
 3809WAT     H215943   6.420   3.476   4.726
 3809WAT    EPW15944   6.416   3.532   4.781
 3810WAT      O15945   6.836   4.569   4.053
 3810WAT     H115946   6.870   4.615   3.987
 3810WAT     H215947   6.900   4.569   4.113
 3810WAT    EPW15948   6.851   4.576   4.052
 3811WAT      O15949   6.305   3.840   4.861
 3811WAT     H115950   6.355   3.845   4.932
 3811WAT     H215951   6.234   3.886   4.883
 3811WAT    EPW15952   6.302   3.848   4.875
 3812WAT      O15953   6.558   3.825   4.684
 3812WAT     H115954   6.575   3.903   4.718
 3812WAT     H215955   6.487   3.798   4.728
 3812WAT    EPW15956   6.550   3.833   4.696
 3813WAT      O15957   6.520   4.480   3.274
 3813WAT     H115958   6.561   4.404   3.283
 3813WAT     H215959   6.438   4.462   3.296
 3813WAT    EPW15960   6.514   4.466   3.279
 3814WAT      O15961   6.598   3.608   3.730
 3814WAT     H115962   6.540   3.561   3.775
 3814WAT     H215963   6.590   3.688   3.764
 3814WAT    EPW15964   6.588   3.613   3.742
 3815WAT      O15965   6.883   3.927   4.893
 3815WAT     H115966   6.891   3.874   4.824
 3815WAT     H215967   6.959   3.970   4.894
 3815WAT    EPW15968   6.895   3.925   4.883
 3816WAT      O15969   6.740   4.165   4.540
 3816WAT     H115970   6.810   4.120   4.513
 3816WAT     H215971   6.734   4.230   4.481
 3816WAT    EPW15972   6.750   4.168   4.527
 3817WAT      O15973   6.154   4.185   3.219
 3817WAT     H115974   6.206   4.243   3.258
 3817WAT     H215975   6.174   4.193   3.135
 3817WAT    EPW15976   6.164   4.195   3.212
 3818WAT      O15977   5.623   4.435   4.270
 3818WAT     H115978   5.634   4.480   4.344
 3818WAT     H215979   5.654   4.488   4.209
 3818WAT    EPW15980   5.629   4.449   4.272
 3819WAT      O15981   5.452   4.287   4.577
 3819WAT     H115982   5.370   4.256   4.578
 3819WAT     H215983   5.442   4.372   4.561
 3819WAT    EPW15984   5.438   4.295   4.575
 3820WAT      O15985   6.423   3.351   4.571
 3820WAT     H115986   6.490   3.401   4.547
 3820WAT     H215987   6.354   3.388   4.532
 3820WAT    EPW15988   6.423   3.364   4.562
 3821WAT      O15989   5.989   4.239   4.198
 3821WAT     H115990   6.025   4.206   4.270
 3821WAT     H215991   5.906   4.214   4.203
 3821WAT    EPW15992   5.982   4.231   4.209
 3822WAT      O15993   5.581   3.657   4.568
 3822WAT     H115994   5.596   3.581   4.609
 3822WAT     H215995   5.604   3.641   4.486
 3822WAT    EPW15996   5.586   3.643   4.562
 3823WAT      O15997   5.892   4.800   3.763
 3823WAT     H115998   5.891   4.883   3.787
 3823WAT     H215999   5.919   4.803   3.680
 3823WAT    EPW16000   5.896   4.812   3.754
 3824WAT      O16001   6.502   3.114   4.309
 3824WAT     H116002   6.474   3.193   4.286
 3824WAT     H216003   6.580   3.129   4.344
 3824WAT    EPW16004   6.509   3.128   4.311
 3825WAT      O16005   5.748   3.244   4.522
 3825WAT     H116006   5.835   3.250   4.516
 3825WAT     H216007   5.736   3.167   4.563
 3825WAT    EPW16008   5.759   3.233   4.527
 3826WAT      O16009   5.738   4.606   4.087
 3826WAT     H116010   5.696   4.659   4.032
 3826WAT     H216011   5.780   4.551   4.035
 3826WAT    EPW16012   5.738   4.606   4.072
 3827WAT      O16013   6.134   4.251   4.841
 3827WAT     H116014   6.213   4.259   4.805
 3827WAT     H216015   6.079   4.268   4.775
 3827WAT    EPW16016   6.137   4.254   4.826
 3828WAT      O16017   6.457   4.535   4.678
 3828WAT     H116018   6.495   4.563   4.752
 3828WAT     H216019   6.509   4.567   4.616
 3828WAT    EPW16020   6.471   4.544   4.680
 3829WAT      O16021   6.714   3.801   3.158
 3829WAT     H116022   6.762   3.860   3.114
 3829WAT     H216023   6.636   3.839   3.164
 3829WAT    EPW16024   6.710   3.816   3.152
 3830WAT      O16025   5.866   4.056   3.101
 3830WAT     H116026   5.827   4.091   3.031
 3830WAT     H216027   5.900   4.126   3.142
 3830WAT    EPW16028   5.865   4.072   3.097
 3831WAT      O16029   5.399   3.648   4.098
 3831WAT     H116030   5.419   3.597   4.030
 3831WAT     H216031   5.465   3.635   4.153
 3831WAT    EPW16032   5.411   3.638   4.096
 3832WAT      O16033   6.173   3.695   4.651
 3832WAT     H116034   6.095   3.722   4.680
 3832WAT     H216035   6.225   3.703   4.720
 3832WAT    EPW16036   6.169   3.700   4.665
 3833WAT      O16037   6.338   3.723   4.320
 3833WAT     H116038   6.300   3.791   4.360
 3833WAT     H216039   6.296   3.654   4.353
 3833WAT    EPW16040   6.326   3.723   4.331
 3834WAT      O16041   5.873   4.819   4.650
 3834WAT     H116042   5.937   4.804   4.592
 3834WAT     H216043   5.861   4.742   4.688
 3834WAT    EPW16044   5.881   4.806   4.647
 3835WAT      O16045   6.470   3.642   3.476
 3835WAT     H116046   6.495   3.618   3.556
 3835WAT     H216047   6.538   3.689   3.447
 3835WAT    EPW16048   6.484   3.645   3.484
 3836WAT      O16049   5.762   3.213   4.127
 3836WAT     H116050   5.698   3.254   4.171
 3836WAT     H216051   5.731   3.209   4.045
 3836WAT    EPW16052   5.748   3.219   4.121
 3837WAT      O16053   6.432   3.322   3.566
 3837WAT     H116054   6.433   3.246   3.610
 3837WAT     H216055   6.507   3.322   3.522
 3837WAT    EPW16056   6.443   3.311   3.566
 3838WAT      O16057   6.593   4.065   3.506
 3838WAT     H116058   6.634   3.989   3.493
 3838WAT     H216059   6.509   4.045   3.499
 3838WAT    EPW16060   6.587   4.051   3.503
 3839WAT      O16061   5.952   4.281   4.632
 3839WAT     H116062   5.870   4.278   4.662
 3839WAT     H216063   5.958   4.361   4.597
 3839WAT    EPW16064   5.941   4.292   4.631
 3840WAT      O16065   5.005   3.254   4.711
 3840WAT     H116066   4.971   3.327   4.677
 3840WAT     H216067   4.939   3.197   4.708
 3840WAT    EPW16068   4.990   3.256   4.705
 3841WAT      O16069   5.509   4.864   4.169
 3841WAT     H116070   5.489   4.857   4.253
 3841WAT     H216071   5.465   4.799   4.132
 3841WAT    EPW16072   5.499   4.854   4.176
 3842WAT      O16073   6.238   4.248   3.751
 3842WAT     H116074   6.220   4.245   3.836
 3842WAT     H216075   6.276   4.171   3.735
 3842WAT    EPW16076   6.241   4.236   3.761
 3843WAT      O16077   5.983   4.175   3.657
 3843WAT     H116078   5.940   4.161   3.731
 3843WAT     H216079   6.063   4.197   3.683
 3843WAT    EPW16080   5.988   4.176   3.671
 3844WAT      O16081   5.964   4.535   4.526
 3844WAT     H116082   6.037   4.566   4.563
 3844WAT     H216083   5.983   4.532   4.441
 3844WAT    EPW16084   5.978   4.539   4.519
 3845WAT      O16085   6.835   3.757   4.676
 3845WAT     H116086   6.749   3.768   4.685
 3845WAT     H216087   6.848   3.769   4.590
 3845WAT    EPW16088   6.824   3.761   4.664
 3846WAT      O16089   6.249   3.920   4.502
 3846WAT     H116090   6.229   3.857   4.559
 3846WAT     H216091   6.318   3.959   4.538
 3846WAT    EPW16092   6.256   3.916   4.516
 3847WAT      O16093   5.130   4.835   4.684
 3847WAT     H116094   5.057   4.786   4.689
 3847WAT     H216095   5.104   4.913   4.714
 3847WAT    EPW16096   5.115   4.839   4.689
 3848WAT      O16097   6.053   4.007   4.944
 3848WAT     H116098   6.083   4.081   4.910
 3848WAT     H216099   5.976   4.030   4.979
 3848WAT    EPW16100   6.046   4.021   4.944
 3849WAT      O16101   6.345   4.938   3.985
 3849WAT     H116102   6.286   4.996   4.012
 3849WAT     H216103   6.407   4.942   4.047
 3849WAT    EPW16104   6.346   4.947   3.998
 3850WAT      O16105   6.020   4.510   4.260
 3850WAT     H116106   6.000   4.429   4.233
 3850WAT     H216107   6.107   4.511   4.258
 3850WAT    EPW16108   6.030   4.498   4.256
 3851WAT      O16109   6.591   4.608   4.913
 3851WAT     H116110   6.672   4.577   4.908
 3851WAT     H216111   6.559   4.571   4.986
 3851WAT    EPW16112   6.598   4.598   4.923
 3852WAT      O16113   5.319   3.765   4.555
 3852WAT     H116114   5.340   3.819   4.490
 3852WAT     H216115   5.396   3.732   4.581
 3852WAT    EPW16116   5.333   3.768   4.549
 3853WAT      O16117   5.193   3.550   4.443
 3853WAT     H116118   5.161   3.580   4.367
 3853WAT     H216119   5.244   3.615   4.470
 3853WAT    EPW16120   5.196   3.564   4.435
 3854WAT      O16121   6.690   3.813   3.436
 3854WAT     H116122   6.708   3.815   3.351
 3854WAT     H216123   6.765   3.786   3.472
 3854WAT    EPW16124   6.704   3.809   3.429
 3855WAT      O16125   5.376   3.279   4.654
 3855WAT     H116126   5.346   3.199   4.669
 3855WAT     H216127   5.355   3.294   4.570
 3855WAT    EPW16128   5.368   3.270   4.644
 3856WAT      O16129   6.137   4.541   3.574
 3856WAT     H116130   6.120   4.625   3.556
 3856WAT     H216131   6.062   4.500   3.557
 3856WAT    EPW16132   6.123   4.547   3.569
 3857WAT      O16133   6.572   3.869   4.395
 3857WAT     H116134   6.515   3.810   4.366
 3857WAT     H216135   6.556   3.872   4.481
 3857WAT    EPW16136   6.561   3.861   4.403
 3858WAT      O16137   5.014   4.094   4.367
 3858WAT     H116138   4.950   4.134   4.412
 3858WAT     H216139   4.998   4.009   4.380
 3858WAT    EPW16140   5.002   4.088   4.376
 3859WAT      O16141   6.098   3.307   4.775
 3859WAT     H116142   6.130   3.369   4.828
 3859WAT     H216143   6.023   3.285   4.813
 3859WAT    EPW16144   6.092   3.313   4.789
 3860WAT      O16145   6.163   3.333   3.872
 3860WAT     H116146   6.089   3.351   3.915
 3860WAT     H216147   6.137   3.281   3.808
 3860WAT    EPW16148   6.148   3.328   3.869
 3861WAT      O16149   5.553   4.532   3.274
 3861WAT     H116150   5.588   4.518   3.354
 3861WAT     H216151   5.469   4.514   3.285
 3861WAT    EPW16152   5.546   4.527   3.288
 3862WAT      O16153   6.445   3.378   4.218
 3862WAT     H116154   6.531   3.387   4.202
 3862WAT     H216155   6.427   3.444   4.272
 3862WAT    EPW16156   6.455   3.389   4.224
 3863WAT      O16157   5.603   4.067   4.489
 3863WAT     H116158   5.553   4.134   4.513
 3863WAT     H216159   5.548   4.017   4.443
 3863WAT    EPW16160   5.587   4.070   4.486
 3864WAT      O16161   6.528   3.852   3.860
 3864WAT     H116162   6.580   3.917   3.887
 3864WAT     H216163   6.463   3.893   3.819
 3864WAT    EPW16164   6.526   3.868   3.858
 3865WAT      O16165   6.520   4.699   3.656
 3865WAT     H116166   6.497   4.622   3.691
 3865WAT     H216167   6.552   4.678   3.578
 3865WAT    EPW16168   6.521   4.685   3.650
 3866WAT      O16169   5.290   4.471   3.324
 3866WAT     H116170   5.229   4.462   3.386
 3866WAT     H216171   5.291   4.393   3.284
 3866WAT    EPW16172   5.281   4.458   3.327
 3867WAT      O16173   5.597   4.286   3.148
 3867WAT     H116174   5.514   4.262   3.159
 3867WAT     H216175   5.599   4.368   3.179
 3867WAT    EPW16176   5.585   4.295   3.154
 3868WAT      O16177   5.588   3.344   4.310
 3868WAT     H116178   5.505   3.323   4.326
 3868WAT     H216179   5.631   3.309   4.376
 3868WAT    EPW16180   5.582   3.336   4.322
 3869WAT      O16181   6.745   3.209   4.425
 3869WAT     H116182   6.734   3.235   4.507
 3869WAT     H216183   6.823   3.171   4.425
 3869WAT    EPW16184   6.755   3.207   4.437
 3870WAT      O16185   5.991   3.372   4.098
 3870WAT     H116186   5.921   3.320   4.107
 3870WAT     H216187   6.054   3.329   4.140
 3870WAT    EPW16188   5.990   3.358   4.105
 3871WAT      O16189   6.298   4.497   4.282
 3871WAT     H116190   6.312   4.580   4.304
 3871WAT     H216191   6.319   4.495   4.197
 3871WAT    EPW16192   6.303   4.509   4.272
 3872WAT      O16193   6.305   4.873   4.726
 3872WAT     H116194   6.256   4.814   4.685
 3872WAT     H216195   6.253   4.943   4.731
 3872WAT    EPW16196   6.290   4.875   4.721
 3873WAT      O16197   5.687   3.888   4.686
 3873WAT     H116198   5.655   3.816   4.649
 3873WAT     H216199   5.666   3.951   4.630
 3873WAT    EPW16200   5.679   3.886   4.672
 3874WAT      O16201   5.852   3.187   3.239
 3874WAT     H116202   5.853   3.189   3.152
 3874WAT     H216203   5.768   3.177   3.258
 3874WAT    EPW16204   5.840   3.186   3.229
 3875WAT      O16205   6.728   4.322   4.309
 3875WAT     H116206   6.690   4.255   4.269
 3875WAT     H216207   6.681   4.391   4.285
 3875WAT    EPW16208   6.716   4.322   4.300
 3876WAT      O16209   5.593   4.854   4.688
 3876WAT     H116210   5.587   4.820   4.768
 3876WAT     H216211   5.674   4.834   4.662
 3876WAT    EPW16212   5.604   4.846   4.696
 3877WAT      O16213   6.608   4.553   4.218
 3877WAT     H116214   6.672   4.570   4.161
 3877WAT     H216215   6.546   4.517   4.169
 3877WAT    EPW16216   6.608   4.550   4.203
 3878WAT      O16217   5.310   3.308   4.387
 3878WAT     H116218   5.245   3.256   4.362
 3878WAT     H216219   5.272   3.385   4.398
 3878WAT    EPW16220   5.295   3.311   4.385
 3879WAT      O16221   6.258   3.209   4.102
 3879WAT     H116222   6.313   3.269   4.134
 3879WAT     H216223   6.234   3.243   4.025
 3879WAT    EPW16224   6.262   3.223   4.095
 3880WAT      O16225   5.326   4.673   4.804
 3880WAT     H116226   5.392   4.717   4.839
 3880WAT     H216227   5.276   4.735   4.769
 3880WAT    EPW16228   5.328   4.689   4.804
 3881WAT      O16229   6.240   3.653   3.705
 3881WAT     H116230   6.291   3.611   3.762
 3881WAT     H216231   6.187   3.700   3.755
 3881WAT    EPW16232   6.240   3.654   3.721
 3882WAT      O16233   5.087   3.525   3.775
 3882WAT     H116234   5.029   3.558   3.718
 3882WAT     H216235   5.073   3.439   3.771
 3882WAT    EPW16236   5.076   3.517   3.766
 3883WAT      O16237   5.091   4.483   4.556
 3883WAT     H116238   5.028   4.527   4.598
 3883WAT     H216239   5.161   4.534   4.564
 3883WAT    EPW16240   5.092   4.497   4.563
 3884WAT      O16241   6.349   3.899   3.464
 3884WAT     H116242   6.367   3.815   3.477
 3884WAT     H216243   6.271   3.897   3.425
 3884WAT    EPW16244   6.340   3.886   3.460
 3885WAT      O16245   5.359   4.738   3.475
 3885WAT     H116246   5.332   4.675   3.421
 3885WAT     H216247   5.446   4.728   3.476
 3885WAT    EPW16248   5.368   4.727   3.467
 3886WAT      O16249   6.658   4.875   3.094
 3886WAT     H116250   6.724   4.861   3.150
 3886WAT     H216251   6.632   4.795   3.073
 3886WAT    EPW16252   6.664   4.861   3.100
 3887WAT      O16253   6.663   4.062   4.793
 3887WAT     H116254   6.736   4.032   4.831
 3887WAT     H216255   6.693   4.109   4.726
 3887WAT    EPW16256   6.678   4.064   4.789
 3888WAT      O16257   6.257   4.421   3.342
 3888WAT     H116258   6.231   4.460   3.416
 3888WAT     H216259   6.229   4.476   3.280
 3888WAT    EPW16260   6.249   4.435   3.344
 3889WAT      O16261   6.680   3.554   4.893
 3889WAT     H116262   6.681   3.629   4.937
 3889WAT     H216263   6.599   3.550   4.861
 3889WAT    EPW16264   6.668   3.564   4.895
 3890WAT      O16265   6.749   3.659   4.156
 3890WAT     H116266   6.666   3.674   4.133
 3890WAT     H216267   6.749   3.574   4.177
 3890WAT    EPW16268   6.737   3.648   4.156
 3891WAT      O16269   5.617   3.410   4.698
 3891WAT     H116270   5.669   3.365   4.644
 3891WAT     H216271   5.540   3.369   4.691
 3891WAT    EPW16272   5.613   3.397   4.689
 3892WAT      O16273   6.453   4.166   5.025
 3892WAT     H116274   6.528   4.194   5.060
 3892WAT     H216275   6.458   4.192   4.942
 3892WAT    EPW16276   6.465   4.174   5.018
 3893WAT      O16277   5.338   4.661   4.056
 3893WAT     H116278   5.340   4.580   4.023
 3893WAT     H216279   5.295   4.706   3.995
 3893WAT    EPW16280   5.332   4.656   4.042
 3894WAT      O16281   5.903   4.282   3.270
 3894WAT     H116282   5.988   4.266   3.259
 3894WAT     H216283   5.891   4.355   3.223
 3894WAT    EPW16284   5.914   4.291   3.261
 3895WAT      O16285   5.131   4.925   4.416
 3895WAT     H116286   5.132   4.889   4.496
 3895WAT     H216287   5.142   4.858   4.362
 3895WAT    EPW16288   5.133   4.910   4.420
 3896WAT      O16289   6.248   3.135   1.677
 3896WAT     H116290   6.212   3.199   1.724
 3896WAT     H216291   6.314   3.107   1.726
 3896WAT    EPW16292   6.252   3.140   1.691
 3897WAT      O16293   6.060   3.798   2.206
 3897WAT     H116294   6.028   3.874   2.233
 3897WAT     H216295   6.130   3.786   2.256
 3897WAT    EPW16296   6.066   3.807   2.217
 3898WAT      O16297   5.059   4.259   1.738
 3898WAT     H116298   5.061   4.271   1.825
 3898WAT     H216299   5.058   4.172   1.729
 3898WAT    EPW16300   5.059   4.248   1.750
 3899WAT      O16301   6.704   4.645   1.518
 3899WAT     H116302   6.771   4.592   1.533
 3899WAT     H216303   6.651   4.596   1.467
 3899WAT    EPW16304   6.706   4.630   1.513
 3900WAT      O16305   5.021   3.625   1.354
 3900WAT     H116306   4.951   3.669   1.326
 3900WAT     H216307   5.004   3.543   1.329
 3900WAT    EPW16308   5.008   3.619   1.346
 3901WAT      O16309   5.328   4.204   1.305
 3901WAT     H116310   5.300   4.164   1.233
 3901WAT     H216311   5.329   4.141   1.365
 3901WAT    EPW16312   5.324   4.189   1.303
 3902WAT      O16313   6.341   3.993   1.838
 3902WAT     H116314   6.340   3.968   1.754
 3902WAT     H216315   6.283   3.941   1.876
 3902WAT    EPW16316   6.332   3.982   1.831
 3903WAT      O16317   5.312   4.371   1.695
 3903WAT     H116318   5.361   4.327   1.752
 3903WAT     H216319   5.234   4.332   1.700
 3903WAT    EPW16320   5.307   4.359   1.704
 3904WAT      O16321   5.726   3.308   1.606
 3904WAT     H116322   5.748   3.369   1.548
 3904WAT     H216323   5.803   3.281   1.638
 3904WAT    EPW16324   5.741   3.313   1.602
 3905WAT      O16325   5.224   4.667   1.301
 3905WAT     H116326   5.268   4.674   1.226
 3905WAT     H216327   5.254   4.592   1.335
 3905WAT    EPW16328   5.235   4.657   1.295
 3906WAT      O16329   5.085   4.495   2.547
 3906WAT     H116330   5.112   4.492   2.630
 3906WAT     H216331   5.008   4.454   2.549
 3906WAT    EPW16332   5.078   4.489   2.560
 3907WAT      O16333   5.746   4.228   2.914
 3907WAT     H116334   5.706   4.260   2.985
 3907WAT     H216335   5.680   4.207   2.861
 3907WAT    EPW16336   5.730   4.229   2.917
 3908WAT      O16337   5.246   3.968   1.907
 3908WAT     H116338   5.202   3.964   1.831
 3908WAT     H216339   5.292   3.893   1.908
 3908WAT    EPW16340   5.246   3.956   1.896
 3909WAT      O16341   5.684   3.546   2.414
 3909WAT     H116342   5.754   3.556   2.362
 3909WAT     H216343   5.671   3.460   2.415
 3909WAT    EPW16344   5.693   3.535   2.406
 3910WAT      O16345   5.721   4.598   2.573
 3910WAT     H116346   5.730   4.667   2.520
 3910WAT     H216347   5.801   4.585   2.604
 3910WAT    EPW16348   5.734   4.606   2.569
 3911WAT      O16349   5.357   3.698   1.838
 3911WAT     H116350   5.412   3.666   1.898
 3911WAT     H216351   5.386   3.664   1.763
 3911WAT    EPW16352   5.369   3.688   1.836
 3912WAT      O16353   5.846   4.430   2.017
 3912WAT     H116354   5.873   4.348   2.031
 3912WAT     H216355   5.920   4.474   2.008
 3912WAT    EPW16356   5.861   4.424   2.018
 3913WAT      O16357   5.926   4.370   1.648
 3913WAT     H116358   5.956   4.301   1.693
 3913WAT     H216359   5.940   4.347   1.565
 3913WAT    EPW16360   5.932   4.356   1.642
 3914WAT      O16361   6.025   3.745   2.801
 3914WAT     H116362   5.943   3.762   2.778
 3914WAT     H216363   6.044   3.809   2.858
 3914WAT    EPW16364   6.016   3.757   2.806
 3915WAT      O16365   5.501   3.348   1.779
 3915WAT     H116366   5.454   3.393   1.722
 3915WAT     H216367   5.578   3.337   1.739
 3915WAT    EPW16368   5.505   3.353   1.765
 3916WAT      O16369   6.498   3.076   2.693
 3916WAT     H116370   6.479   3.158   2.671
 3916WAT     H216371   6.432   3.052   2.744
 3916WAT    EPW16372   6.486   3.084   2.697
 3917WAT      O16373   5.844   3.247   1.936
 3917WAT     H116374   5.928   3.267   1.928
 3917WAT     H216375   5.804   3.324   1.943
 3917WAT    EPW16376   5.851   3.261   1.936
 3918WAT      O16377   6.201   3.469   1.208
 3918WAT     H116378   6.253   3.523   1.253
 3918WAT     H216379   6.208   3.394   1.251
 3918WAT    EPW16380   6.210   3.466   1.221
 3919WAT      O16381   5.050   4.693   1.933
 3919WAT     H116382   4.991   4.745   1.895
 3919WAT     H216383   5.095   4.660   1.865
 3919WAT    EPW16384   5.048   4.696   1.917
 3920WAT      O16385   5.651   4.393   1.645
 3920WAT     H116386   5.627   4.414   1.726
 3920WAT     H216387   5.738   4.384   1.651
 3920WAT    EPW16388   5.661   4.395   1.658
 3921WAT      O16389   6.263   4.760   1.420
 3921WAT     H116390   6.335   4.809   1.414
 3921WAT     H216391   6.294   4.682   1.445
 3921WAT    EPW16392   6.278   4.755   1.422
 3922WAT      O16393   6.079   4.795   1.623
 3922WAT     H116394   6.100   4.870   1.663
 3922WAT     H216395   6.136   4.790   1.558
 3922WAT    EPW16396   6.090   4.806   1.619
 3923WAT      O16397   5.676   3.471   3.067
 3923WAT     H116398   5.678   3.437   2.986
 3923WAT     H216399   5.711   3.550   3.057
 3923WAT    EPW16400   5.681   3.477   3.054
 3924WAT      O16401   5.208   4.628   1.708
 3924WAT     H116402   5.256   4.556   1.720
 3924WAT     H216403   5.259   4.680   1.661
 3924WAT    EPW16404   5.222   4.625   1.702
 3925WAT      O16405   6.833   3.436   1.868
 3925WAT     H116406   6.782   3.507   1.871
 3925WAT     H216407   6.777   3.372   1.848
 3925WAT    EPW16408   6.817   3.437   1.865
 3926WAT      O16409   6.312   4.761   2.412
 3926WAT     H116410   6.384   4.810   2.410
 3926WAT     H216411   6.301   4.738   2.328
 3926WAT    EPW16412   6.321   4.765   2.399
 3927WAT      O16413   5.359   4.453   2.057
 3927WAT     H116414   5.423   4.454   1.998
 3927WAT     H216415   5.383   4.390   2.113
 3927WAT    EPW16416   5.372   4.444   2.057
 3928WAT      O16417   5.637   4.746   1.948
 3928WAT     H116418   5.716   4.771   1.920
 3928WAT     H216419   5.582   4.796   1.904
 3928WAT    EPW16420   5.641   4.757   1.937
 3929WAT      O16421   5.839   3.162   2.960
 3929WAT     H116422   5.804   3.084   2.941
 3929WAT     H216423   5.783   3.219   2.925
 3929WAT    EPW16424   5.825   3.159   2.952
 3930WAT      O16425   6.007   3.649   1.804
 3930WAT     H116426   6.036   3.569   1.822
 3930WAT     H216427   6.056   3.701   1.854
 3930WAT    EPW16428   6.019   3.645   1.814
 3931WAT      O16429   6.473   4.942   1.369
 3931WAT     H116430   6.518   4.916   1.298
 3931WAT     H216431   6.532   4.988   1.414
 3931WAT    EPW16432   6.489   4.945   1.365
 3932WAT      O16433   5.496   4.845   2.557
 3932WAT     H116434   5.524   4.822   2.637
 3932WAT     H216435   5.425   4.796   2.545
 3932WAT    EPW16436   5.489   4.835   2.567
 3933WAT      O16437   6.727   3.419   2.331
 3933WAT     H116438   6.786   3.404   2.269
 3933WAT     H216439   6.744   3.358   2.391
 3933WAT    EPW16440   6.738   3.408   2.331
 3934WAT      O16441   6.235   4.504   2.763
 3934WAT     H116442   6.206   4.518   2.844
 3934WAT     H216443   6.321   4.511   2.770
 3934WAT    EPW16444   6.243   4.507   2.776
 3935WAT      O16445   5.946   4.567   1.253
 3935WAT     H116446   5.921   4.624   1.314
 3935WAT     H216447   6.020   4.602   1.222
 3935WAT    EPW16448   5.953   4.580   1.258
 3936WAT      O16449   6.271   3.265   1.378
 3936WAT     H116450   6.330   3.200   1.381
 3936WAT     H216451   6.310   3.329   1.423
 3936WAT    EPW16452   6.286   3.265   1.385
 3937WAT      O16453   5.116   3.414   1.602
 3937WAT     H116454   5.053   3.355   1.592
 3937WAT     H216455   5.110   3.438   1.685
 3937WAT    EPW16456   5.106   3.409   1.613
 3938WAT      O16457   5.259   4.709   2.482
 3938WAT     H116458   5.205   4.643   2.500
 3938WAT     H216459   5.278   4.697   2.398
 3938WAT    EPW16460   5.254   4.698   2.473
 3939WAT      O16461   6.073   3.561   1.539
 3939WAT     H116462   6.049   3.477   1.541
 3939WAT     H216463   6.052   3.590   1.618
 3939WAT    EPW16464   6.066   3.553   1.551
 3940WAT      O16465   6.065   4.817   2.529
 3940WAT     H116466   6.138   4.800   2.486
 3940WAT     H216467   6.003   4.810   2.468
 3940WAT    EPW16468   6.066   4.813   2.514
 3941WAT      O16469   6.015   3.288   1.514
 3941WAT     H116470   5.965   3.258   1.450
 3941WAT     H216471   6.094   3.255   1.496
 3941WAT    EPW16472   6.019   3.279   1.502
 3942WAT      O16473   6.757   4.866   1.783
 3942WAT     H116474   6.717   4.943   1.789
 3942WAT     H216475   6.692   4.809   1.775
 3942WAT    EPW16476   6.742   4.869   1.783
 3943WAT      O16477   5.792   3.530   1.969
 3943WAT     H116478   5.845   3.575   1.917
 3943WAT     H216479   5.826   3.543   2.049
 3943WAT    EPW16480   5.804   3.538   1.973
 3944WAT      O16481   6.505   4.448   1.883
 3944WAT     H116482   6.568   4.391   1.863
 3944WAT     H216483   6.432   4.401   1.875
 3944WAT    EPW16484   6.504   4.433   1.879
 3945WAT      O16485   5.546   4.474   2.756
 3945WAT     H116486   5.587   4.516   2.692
 3945WAT     H216487   5.480   4.527   2.776
 3945WAT    EPW16488   5.542   4.488   2.750
 3946WAT      O16489   5.444   3.085   1.886
 3946WAT     H116490   5.457   3.170   1.871
 3946WAT     H216491   5.437   3.051   1.806
 3946WAT    EPW16492   5.445   3.092   1.872
 3947WAT      O16493   5.654   4.102   2.119
 3947WAT     H116494   5.675   4.095   2.203
 3947WAT     H216495   5.604   4.032   2.104
 3947WAT    EPW16496   5.650   4.091   2.129
 3948WAT      O16497   6.268   3.500   2.486
 3948WAT     H116498   6.267   3.551   2.557
 3948WAT     H216499   6.201   3.445   2.499
 3948WAT    EPW16500   6.258   3.499   2.499
 3949WAT      O16501   5.729   4.128   2.383
 3949WAT     H116502   5.711   4.212   2.398
 3949WAT     H216503   5.698   4.088   2.454
 3949WAT    EPW16504   5.722   4.135   2.395
 3950WAT      O16505   6.343   4.234   2.394
 3950WAT     H116506   6.268   4.204   2.428
 3950WAT     H216507   6.343   4.319   2.415
 3950WAT    EPW16508   6.332   4.242   2.402
 3951WAT      O16509   6.457   3.056   1.841
 3951WAT     H116510   6.444   3.044   1.926
 3951WAT     H216511   6.488   2.979   1.813
 3951WAT    EPW16512   6.460   3.043   1.849
 3952WAT      O16513   6.615   3.571   2.632
 3952WAT     H116514   6.693   3.548   2.662
 3952WAT     H216515   6.590   3.635   2.685
 3952WAT    EPW16516   6.623   3.577   2.644
 3953WAT      O16517   6.673   4.233   1.389
 3953WAT     H116518   6.669   4.184   1.461
 3953WAT     H216519   6.758   4.239   1.372
 3953WAT    EPW16520   6.685   4.226   1.397
 3954WAT      O16521   5.423   4.185   1.869
 3954WAT     H116522   5.476   4.150   1.810
 3954WAT     H216523   5.373   4.117   1.893
 3954WAT    EPW16524   5.423   4.170   1.864
 3955WAT      O16525   5.261   4.857   2.000
 3955WAT     H116526   5.191   4.813   1.973
 3955WAT     H216527   5.312   4.859   1.929
 3955WAT    EPW16528   5.258   4.851   1.985
 3956WAT      O16529   6.878   4.660   2.786
 3956WAT     H116530   6.800   4.676   2.750
 3956WAT     H216531   6.859   4.612   2.856
 3956WAT    EPW16532   6.864   4.655   2.791
 3957WAT      O16533   6.492   3.904   1.316
 3957WAT     H116534   6.485   3.986   1.288
 3957WAT     H216535   6.458   3.906   1.396
 3957WAT    EPW16536   6.486   3.916   1.323
 3958WAT      O16537   5.552   4.131   1.623
 3958WAT     H116538   5.580   4.214   1.620
 3958WAT     H216539   5.623   4.085   1.601
 3958WAT    EPW16540   5.567   4.136   1.619
 3959WAT      O16541   6.790   3.368   1.249
 3959WAT     H116542   6.836   3.318   1.194
 3959WAT     H216543   6.744   3.419   1.196
 3959WAT    EPW16544   6.790   3.368   1.233
 3960WAT      O16545   5.105   4.336   2.008
 3960WAT     H116546   5.059   4.392   2.056
 3960WAT     H216547   5.187   4.367   2.014
 3960WAT    EPW16548   5.110   4.349   2.016
 3961WAT      O16549   5.790   3.726   3.047
 3961WAT     H116550   5.738   3.779   3.093
 3961WAT     H216551   5.784   3.757   2.966
 3961WAT    EPW16552   5.781   3.739   3.042
 3962WAT      O16553   6.915   3.798   2.525
 3962WAT     H116554   6.972   3.732   2.527
 3962WAT     H216555   6.860   3.777   2.461
 3962WAT    EPW16556   6.916   3.785   2.516
 3963WAT      O16557   5.105   3.984   1.669
 3963WAT     H116558   5.082   3.901   1.656
 3963WAT     H216559   5.171   3.996   1.612
 3963WAT    EPW16560   5.112   3.974   1.658
 3964WAT      O16561   6.679   3.255   1.491
 3964WAT     H116562   6.755   3.221   1.517
 3964WAT     H216563   6.700   3.299   1.419
 3964WAT    EPW16564   6.693   3.256   1.484
 3965WAT      O16565   6.059   4.605   1.980
 3965WAT     H116566   6.012   4.675   1.957
 3965WAT     H216567   6.095   4.579   1.904
 3965WAT    EPW16568   6.058   4.611   1.965
 3966WAT      O16569   5.030   4.470   1.562
 3966WAT     H116570   5.084   4.524   1.603
 3966WAT     H216571   5.021   4.404   1.618
 3966WAT    EPW16572   5.037   4.468   1.576
 3967WAT      O16573   5.452   4.261   2.229
 3967WAT     H116574   5.501   4.303   2.288
 3967WAT     H216575   5.510   4.219   2.180
 3967WAT    EPW16576   5.468   4.261   2.231
 3968WAT      O16577   6.371   3.601   1.983
 3968WAT     H116578   6.400   3.594   2.065
 3968WAT     H216579   6.324   3.529   1.971
 3968WAT    EPW16580   6.368   3.589   1.993
 3969WAT      O16581   5.059   4.320   1.325
 3969WAT     H116582   5.135   4.279   1.325
 3969WAT     H216583   5.061   4.367   1.399
 3969WAT    EPW16584   5.070   4.321   1.336
 3970WAT      O16585   5.071   4.072   2.098
 3970WAT     H116586   5.121   4.030   2.040
 3970WAT     H216587   5.079   4.156   2.076
 3970WAT    EPW16588   5.079   4.078   2.086
 3971WAT      O16589   5.786   3.494   1.403
 3971WAT     H116590   5.738   3.482   1.331
 3971WAT     H216591   5.751   3.565   1.439
 3971WAT    EPW16592   5.774   3.503   1.398
 3972WAT      O16593   6.636   4.726   2.652
 3972WAT     H116594   6.581   4.788   2.677
 3972WAT     H216595   6.634   4.729   2.565
 3972WAT    EPW16596   6.628   4.736   2.643
 3973WAT      O16597   5.592   4.479   1.898
 3973WAT     H116598   5.602   4.565   1.908
 3973WAT     H216599   5.662   4.446   1.938
 3973WAT    EPW16600   5.604   4.487   1.906
 3974WAT      O16601   5.383   3.848   3.004
 3974WAT     H116602   5.310   3.806   3.028
 3974WAT     H216603   5.397   3.819   2.923
 3974WAT    EPW16604   5.374   3.837   2.995
 3975WAT      O16605   5.398   3.751   1.430
 3975WAT     H116606   5.381   3.688   1.488
 3975WAT     H216607   5.356   3.726   1.358
 3975WAT    EPW16608   5.389   3.738   1.428
 3976WAT      O16609   5.472   3.896   2.107
 3976WAT     H116610   5.407   3.935   2.151
 3976WAT     H216611   5.486   3.823   2.153
 3976WAT    EPW16612   5.464   3.891   2.121
 3977WAT      O16613   5.412   3.856   2.465
 3977WAT     H116614   5.428   3.790   2.410
 3977WAT     H216615   5.365   3.911   2.417
 3977WAT    EPW16616   5.408   3.854   2.450
 3978WAT      O16617   6.515   3.723   2.200
 3978WAT     H116618   6.446   3.748   2.247
 3978WAT     H216619   6.515   3.779   2.133
 3978WAT    EPW16620   6.504   3.735   2.197
 3979WAT      O16621   5.835   4.782   2.372
 3979WAT     H116622   5.807   4.726   2.311
 3979WAT     H216623   5.820   4.860   2.337
 3979WAT    EPW16624   5.829   4.785   2.358
 3980WAT      O16625   6.118   3.290   2.606
 3980WAT     H116626   6.124   3.212   2.568
 3980WAT     H216627   6.121   3.271   2.691
 3980WAT    EPW16628   6.119   3.276   2.613
 3981WAT      O16629   6.337   3.541   1.448
 3981WAT     H116630   6.399   3.573   1.500
 3981WAT     H216631   6.263   3.553   1.493
 3981WAT    EPW16632   6.335   3.547   1.462
 3982WAT      O16633   5.316   4.111   2.942
 3982WAT     H116634   5.235   4.104   2.909
 3982WAT     H216635   5.338   4.029   2.962
 3982WAT    EPW16636   5.307   4.098   2.940
 3983WAT      O16637   6.431   4.262   2.865
 3983WAT     H116638   6.461   4.341   2.842
 3983WAT     H216639   6.449   4.212   2.796
 3983WAT    EPW16640   6.438   4.267   2.851
 3984WAT      O16641   5.774   4.588   2.888
 3984WAT     H116642   5.795   4.566   2.970
 3984WAT     H216643   5.710   4.532   2.868
 3984WAT    EPW16644   5.768   4.577   2.897
 3985WAT      O16645   5.892   3.570   2.225
 3985WAT     H116646   5.947   3.637   2.225
 3985WAT     H216647   5.942   3.502   2.247
 3985WAT    EPW16648   5.907   3.569   2.229
 3986WAT      O16649   6.138   3.859   1.411
 3986WAT     H116650   6.127   3.922   1.352
 3986WAT     H216651   6.091   3.886   1.479
 3986WAT    EPW16652   6.130   3.872   1.412
 3987WAT      O16653   6.690   4.246   1.823
 3987WAT     H116654   6.694   4.201   1.898
 3987WAT     H216655   6.661   4.187   1.765
 3987WAT    EPW16656   6.687   4.231   1.826
 3988WAT      O16657   6.272   4.662   2.156
 3988WAT     H116658   6.200   4.636   2.115
 3988WAT     H216659   6.302   4.726   2.105
 3988WAT    EPW16660   6.266   4.668   2.142
 3989WAT      O16661   6.215   4.300   2.148
 3989WAT     H116662   6.155   4.349   2.188
 3989WAT     H216663   6.264   4.270   2.213
 3989WAT    EPW16664   6.213   4.303   2.163
 3990WAT      O16665   5.625   4.646   1.538
 3990WAT     H116666   5.638   4.569   1.577
 3990WAT     H216667   5.705   4.678   1.527
 3990WAT    EPW16668   5.639   4.639   1.542
 3991WAT      O16669   5.571   3.162   1.421
 3991WAT     H116670   5.615   3.195   1.489
 3991WAT     H216671   5.522   3.229   1.394
 3991WAT    EPW16672   5.570   3.176   1.427
 3992WAT      O16673   5.868   4.745   1.451
 3992WAT     H116674   5.933   4.761   1.507
 3992WAT     H216675   5.856   4.822   1.411
 3992WAT    EPW16676   5.876   4.759   1.453
 3993WAT      O16677   6.469   4.130   2.622
 3993WAT     H116678   6.434   4.171   2.554
 3993WAT     H216679   6.555   4.143   2.612
 3993WAT    EPW16680   6.476   4.138   2.610
 3994WAT      O16681   6.722   3.106   2.851
 3994WAT     H116682   6.651   3.094   2.801
 3994WAT     H216683   6.697   3.076   2.929
 3994WAT    EPW16684   6.707   3.100   2.855
 3995WAT      O16685   5.329   4.014   1.506
 3995WAT     H116686   5.351   3.931   1.491
 3995WAT     H216687   5.397   4.047   1.549
 3995WAT    EPW16688   5.342   4.007   1.510
 3996WAT      O16689   6.116   4.141   2.525
 3996WAT     H116690   6.071   4.175   2.591
 3996WAT     H216691   6.151   4.069   2.560
 3996WAT    EPW16692   6.115   4.135   2.540
 3997WAT      O16693   4.911   3.225   1.594
 3997WAT     H116694   4.940   3.159   1.545
 3997WAT     H216695   4.892   3.188   1.670
 3997WAT    EPW16696   4.912   3.210   1.598
 3998WAT      O16697   6.010   3.924   1.649
 3998WAT     H116698   6.026   3.992   1.700
 3998WAT     H216699   6.002   3.857   1.705
 3998WAT    EPW16700   6.011   3.924   1.665
 3999WAT      O16701   6.497   4.491   2.167
 3999WAT     H116702   6.511   4.474   2.083
 3999WAT     H216703   6.414   4.517   2.170
 3999WAT    EPW16704   6.487   4.493   2.155
 4000WAT      O16705   5.438   3.390   1.337
 4000WAT     H116706   5.368   3.382   1.285
 4000WAT     H216707   5.496   3.432   1.287
 4000WAT    EPW16708   5.436   3.395   1.322
 4001WAT      O16709   5.913   4.160   2.039
 4001WAT     H116710   5.831   4.135   2.053
 4001WAT     H216711   5.954   4.136   2.112
 4001WAT    EPW16712   5.907   4.153   2.052
 4002WAT      O16713   5.585   4.787   1.147
 4002WAT     H116714   5.605   4.709   1.181
 4002WAT     H216715   5.577   4.838   1.217
 4002WAT    EPW16716   5.587   4.783   1.163
 4003WAT      O16717   5.292   4.033   2.275
 4003WAT     H116718   5.330   4.111   2.269
 4003WAT     H216719   5.215   4.045   2.235
 4003WAT    EPW16720   5.286   4.046   2.268
 4004WAT      O16721   5.516   3.530   1.997
 4004WAT     H116722   5.602   3.543   1.994
 4004WAT     H216723   5.502   3.464   1.942
 4004WAT    EPW16724   5.526   3.522   1.989
 4005WAT      O16725   6.854   4.814   1.361
 4005WAT     H116726   6.920   4.764   1.334
 4005WAT     H216727   6.805   4.760   1.409
 4005WAT    EPW16728   6.856   4.799   1.364
 4006WAT      O16729   5.039   3.713   1.634
 4006WAT     H116730   5.055   3.659   1.701
 4006WAT     H216731   5.049   3.662   1.564
 4006WAT    EPW16732   5.043   3.697   1.634
 4007WAT      O16733   6.584   4.102   2.312
 4007WAT     H116734   6.593   4.033   2.365
 4007WAT     H216735   6.503   4.130   2.327
 4007WAT    EPW16736   6.573   4.096   2.322
 4008WAT      O16737   5.552   3.930   1.247
 4008WAT     H116738   5.507   3.891   1.310
 4008WAT     H216739   5.505   3.914   1.175
 4008WAT    EPW16740   5.539   3.922   1.246
 4009WAT      O16741   6.703   4.095   2.058
 4009WAT     H116742   6.669   4.101   2.138
 4009WAT     H216743   6.788   4.081   2.074
 4009WAT    EPW16744   6.711   4.094   2.072
 4010WAT      O16745   5.672   3.724   1.490
 4010WAT     H116746   5.699   3.805   1.509
 4010WAT     H216747   5.587   3.735   1.474
 4010WAT    EPW16748   5.663   3.738   1.490
 4011WAT      O16749   6.404   3.509   2.885
 4011WAT     H116750   6.332   3.489   2.930
 4011WAT     H216751   6.410   3.445   2.827
 4011WAT    EPW16752   6.395   3.497   2.883
 4012WAT      O16753   6.844   4.600   2.120
 4012WAT     H116754   6.896   4.634   2.059
 4012WAT     H216755   6.897   4.592   2.190
 4012WAT    EPW16756   6.860   4.603   2.122
 4013WAT      O16757   6.351   3.821   2.962
 4013WAT     H116758   6.383   3.839   3.041
 4013WAT     H216759   6.270   3.852   2.964
 4013WAT    EPW16760   6.344   3.828   2.974
 4014WAT      O16761   6.559   3.832   2.771
 4014WAT     H116762   6.586   3.913   2.789
 4014WAT     H216763   6.490   3.821   2.824
 4014WAT    EPW16764   6.553   3.842   2.781
 4015WAT      O16765   6.546   4.478   1.374
 4015WAT     H116766   6.581   4.399   1.385
 4015WAT     H216767   6.472   4.474   1.418
 4015WAT    EPW16768   6.540   4.465   1.382
 4016WAT      O16769   6.623   3.629   1.866
 4016WAT     H116770   6.550   3.597   1.901
 4016WAT     H216771   6.625   3.712   1.894
 4016WAT    EPW16772   6.613   3.637   1.875
 4017WAT      O16773   6.881   3.955   3.001
 4017WAT     H116774   6.887   3.898   2.936
 4017WAT     H216775   6.958   3.996   3.000
 4017WAT    EPW16776   6.893   3.953   2.991
 4018WAT      O16777   6.737   4.216   2.596
 4018WAT     H116778   6.804   4.171   2.563
 4018WAT     H216779   6.724   4.280   2.538
 4018WAT    EPW16780   6.745   4.219   2.583
 4019WAT      O16781   6.233   4.302   1.304
 4019WAT     H116782   6.307   4.256   1.295
 4019WAT     H216783   6.201   4.304   1.222
 4019WAT    EPW16784   6.239   4.295   1.290
 4020WAT      O16785   5.651   4.406   2.377
 4020WAT     H116786   5.663   4.454   2.448
 4020WAT     H216787   5.667   4.461   2.312
 4020WAT    EPW16788   5.655   4.421   2.378
 4021WAT      O16789   5.516   4.193   2.762
 4021WAT     H116790   5.451   4.174   2.817
 4021WAT     H216791   5.513   4.280   2.754
 4021WAT    EPW16792   5.506   4.203   2.769
 4022WAT      O16793   6.448   3.350   2.654
 4022WAT     H116794   6.506   3.414   2.640
 4022WAT     H216795   6.380   3.373   2.603
 4022WAT    EPW16796   6.446   3.363   2.644
 4023WAT      O16797   5.981   4.053   2.295
 4023WAT     H116798   6.031   4.083   2.360
 4023WAT     H216799   5.900   4.069   2.324
 4023WAT    EPW16800   5.976   4.060   2.309
 4024WAT      O16801   5.619   3.580   2.684
 4024WAT     H116802   5.629   3.500   2.717
 4024WAT     H216803   5.639   3.571   2.600
 4024WAT    EPW16804   5.623   3.567   2.677
 4025WAT      O16805   5.901   4.818   1.874
 4025WAT     H116806   5.893   4.901   1.897
 4025WAT     H216807   5.938   4.822   1.795
 4025WAT    EPW16808   5.905   4.831   1.866
 4026WAT      O16809   6.536   3.121   2.356
 4026WAT     H116810   6.506   3.201   2.342
 4026WAT     H216811   6.609   3.134   2.401
 4026WAT    EPW16812   6.542   3.134   2.361
 4027WAT      O16813   5.847   3.209   2.630
 4027WAT     H116814   5.921   3.250   2.609
 4027WAT     H216815   5.875   3.137   2.671
 4027WAT    EPW16816   5.862   3.205   2.633
 4028WAT      O16817   5.719   4.606   2.188
 4028WAT     H116818   5.678   4.655   2.129
 4028WAT     H216819   5.767   4.552   2.140
 4028WAT    EPW16820   5.720   4.605   2.172
 4029WAT      O16821   6.167   4.207   2.933
 4029WAT     H116822   6.246   4.233   2.909
 4029WAT     H216823   6.115   4.243   2.873
 4029WAT    EPW16824   6.171   4.216   2.921
 4030WAT      O16825   6.508   4.523   2.795
 4030WAT     H116826   6.526   4.554   2.874
 4030WAT     H216827   6.549   4.578   2.741
 4030WAT    EPW16828   6.516   4.535   2.799
 4031WAT      O16829   6.725   3.770   1.256
 4031WAT     H116830   6.772   3.829   1.211
 4031WAT     H216831   6.648   3.811   1.268
 4031WAT    EPW16832   6.721   3.785   1.251
 4032WAT      O16833   5.843   4.090   1.290
 4032WAT     H116834   5.764   4.113   1.260
 4032WAT     H216835   5.877   4.165   1.317
 4032WAT    EPW16836   5.836   4.104   1.290
 4033WAT      O16837   5.491   3.663   2.256
 4033WAT     H116838   5.483   3.608   2.188
 4033WAT     H216839   5.552   3.625   2.306
 4033WAT    EPW16840   5.499   3.649   2.254
 4034WAT      O16841   6.267   3.669   2.700
 4034WAT     H116842   6.187   3.685   2.731
 4034WAT     H216843   6.311   3.639   2.769
 4034WAT    EPW16844   6.262   3.667   2.715
 4035WAT      O16845   6.286   3.755   2.356
 4035WAT     H116846   6.290   3.810   2.424
 4035WAT     H216847   6.277   3.677   2.394
 4035WAT    EPW16848   6.286   3.751   2.372
 4036WAT      O16849   5.912   4.820   2.813
 4036WAT     H116850   5.998   4.810   2.803
 4036WAT     H216851   5.885   4.740   2.835
 4036WAT    EPW16852   5.921   4.807   2.815
 4037WAT      O16853   6.520   3.677   1.612
 4037WAT     H116854   6.543   3.650   1.692
 4037WAT     H216855   6.592   3.716   1.582
 4037WAT    EPW16856   6.534   3.679   1.620
 4038WAT      O16857   5.827   3.137   2.197
 4038WAT     H116858   5.742   3.118   2.208
 4038WAT     H216859   5.831   3.165   2.115
 4038WAT    EPW16860   5.815   3.138   2.187
 4039WAT      O16861   6.648   3.248   1.777
 4039WAT     H116862   6.576   3.205   1.801
 4039WAT     H216863   6.635   3.265   1.692
 4039WAT    EPW16864   6.635   3.244   1.768
 4040WAT      O16865   6.617   4.070   1.613
 4040WAT     H116866   6.664   3.998   1.597
 4040WAT     H216867   6.534   4.042   1.609
 4040WAT    EPW16868   6.612   4.055   1.610
 4041WAT      O16869   5.970   4.282   2.740
 4041WAT     H116870   5.901   4.266   2.791
 4041WAT     H216871   5.959   4.365   2.716
 4041WAT    EPW16872   5.959   4.292   2.744
 4042WAT      O16873   5.495   4.918   2.281
 4042WAT     H116874   5.507   4.908   2.367
 4042WAT     H216875   5.461   4.842   2.257
 4042WAT    EPW16876   5.492   4.905   2.290
 4043WAT      O16877   5.373   3.514   1.580
 4043WAT     H116878   5.403   3.475   1.509
 4043WAT     H216879   5.290   3.486   1.586
 4043WAT    EPW16880   5.365   3.504   1.571
 4044WAT      O16881   6.287   4.265   1.882
 4044WAT     H116882   6.264   4.275   1.966
 4044WAT     H216883   6.315   4.182   1.879
 4044WAT    EPW16884   6.288   4.254   1.894
 4045WAT      O16885   6.041   4.163   1.793
 4045WAT     H116886   5.999   4.158   1.870
 4045WAT     H216887   6.118   4.198   1.814
 4045WAT    EPW16888   6.046   4.167   1.808
 4046WAT      O16889   5.999   4.563   2.628
 4046WAT     H116890   6.071   4.544   2.674
 4046WAT     H216891   6.015   4.644   2.600
 4046WAT    EPW16892   6.012   4.572   2.631
 4047WAT      O16893   6.837   3.776   2.792
 4047WAT     H116894   6.751   3.789   2.793
 4047WAT     H216895   6.860   3.794   2.710
 4047WAT    EPW16896   6.828   3.781   2.780
 4048WAT      O16897   6.282   3.922   2.582
 4048WAT     H116898   6.284   3.853   2.635
 4048WAT     H216899   6.351   3.969   2.607
 4048WAT    EPW16900   6.292   3.919   2.594
 4049WAT      O16901   6.094   3.945   2.980
 4049WAT     H116902   6.124   4.024   2.956
 4049WAT     H216903   6.021   3.963   3.024
 4049WAT    EPW16904   6.088   3.959   2.983
 4050WAT      O16905   6.403   4.884   2.050
 4050WAT     H116906   6.372   4.947   2.102
 4050WAT     H216907   6.477   4.859   2.089
 4050WAT    EPW16908   6.409   4.890   2.063
 4051WAT      O16909   6.063   4.455   2.329
 4051WAT     H116910   5.997   4.456   2.385
 4051WAT     H216911   6.133   4.471   2.379
 4051WAT    EPW16912   6.064   4.457   2.345
 4052WAT      O16913   6.597   4.612   3.040
 4052WAT     H116914   6.676   4.575   3.042
 4052WAT     H216915   6.555   4.574   3.106
 4052WAT    EPW16916   6.603   4.601   3.050
 4053WAT      O16917   5.411   3.761   2.740
 4053WAT     H116918   5.389   3.790   2.661
 4053WAT     H216919   5.469   3.699   2.724
 4053WAT    EPW16920   5.416   3.756   2.726
 4054WAT      O16921   6.736   3.831   1.533
 4054WAT     H116922   6.745   3.818   1.448
 4054WAT     H216923   6.809   3.798   1.567
 4054WAT    EPW16924   6.748   3.824   1.526
 4055WAT      O16925   5.453   3.154   2.732
 4055WAT     H116926   5.419   3.108   2.798
 4055WAT     H216927   5.384   3.197   2.700
 4055WAT    EPW16928   5.438   3.154   2.737
 4056WAT      O16929   6.132   4.539   1.718
 4056WAT     H116930   6.112   4.619   1.689
 4056WAT     H216931   6.062   4.492   1.698
 4056WAT    EPW16932   6.119   4.544   1.711
 4057WAT      O16933   6.600   3.876   2.485
 4057WAT     H116934   6.621   3.796   2.458
 4057WAT     H216935   6.577   3.865   2.568
 4057WAT    EPW16936   6.600   3.863   2.493
 4058WAT      O16937   5.254   3.667   1.208
 4058WAT     H116938   5.177   3.667   1.250
 4058WAT     H216939   5.261   3.586   1.177
 4058WAT    EPW16940   5.244   3.655   1.209
 4059WAT      O16941   6.104   3.226   2.880
 4059WAT     H116942   6.122   3.295   2.930
 4059WAT     H216943   6.024   3.203   2.904
 4059WAT    EPW16944   6.095   3.233   2.891
 4060WAT      O16945   5.576   4.534   1.290
 4060WAT     H116946   5.615   4.566   1.362
 4060WAT     H216947   5.497   4.509   1.319
 4060WAT    EPW16948   5.570   4.535   1.305
 4061WAT      O16949   6.448   3.384   2.297
 4061WAT     H116950   6.531   3.412   2.301
 4061WAT     H216951   6.407   3.432   2.357
 4061WAT    EPW16952   6.455   3.395   2.307
 4062WAT      O16953   5.623   3.991   2.600
 4062WAT     H116954   5.582   4.050   2.649
 4062WAT     H216955   5.558   3.947   2.563
 4062WAT    EPW16956   5.608   3.993   2.602
 4063WAT      O16957   6.559   3.881   1.970
 4063WAT     H116958   6.608   3.949   1.995
 4063WAT     H216959   6.492   3.918   1.928
 4063WAT    EPW16960   6.556   3.897   1.968
 4064WAT      O16961   6.542   4.693   1.738
 4064WAT     H116962   6.528   4.619   1.783
 4064WAT     H216963   6.585   4.666   1.667
 4064WAT    EPW16964   6.546   4.678   1.734
 4065WAT      O16965   5.346   4.450   1.423
 4065WAT     H116966   5.348   4.431   1.508
 4065WAT     H216967   5.341   4.371   1.385
 4065WAT    EPW16968   5.345   4.435   1.430
 4066WAT      O16969   5.618   4.260   1.228
 4066WAT     H116970   5.540   4.227   1.249
 4066WAT     H216971   5.613   4.344   1.252
 4066WAT    EPW16972   5.606   4.267   1.234
 4067WAT      O16973   5.642   3.277   2.447
 4067WAT     H116974   5.618   3.213   2.393
 4067WAT     H216975   5.707   3.243   2.493
 4067WAT    EPW16976   5.648   3.263   2.446
 4068WAT      O16977   6.756   3.206   2.513
 4068WAT     H116978   6.733   3.209   2.597
 4068WAT     H216979   6.837   3.172   2.515
 4068WAT    EPW16980   6.765   3.201   2.526
 4069WAT      O16981   6.010   3.328   2.297
 4069WAT     H116982   5.949   3.269   2.275
 4069WAT     H216983   6.084   3.293   2.268
 4069WAT    EPW16984   6.012   3.314   2.290
 4070WAT      O16985   6.294   4.493   2.486
 4070WAT     H116986   6.273   4.491   2.570
 4070WAT     H216987   6.310   4.577   2.470
 4070WAT    EPW16988   6.293   4.505   2.496
 4071WAT      O16989   6.206   4.848   2.831
 4071WAT     H116990   6.210   4.788   2.894
 4071WAT     H216991   6.188   4.922   2.874
 4071WAT    EPW16992   6.203   4.850   2.847
 4072WAT      O16993   5.754   3.804   2.775
 4072WAT     H116994   5.712   3.733   2.746
 4072WAT     H216995   5.720   3.869   2.726
 4072WAT    EPW16996   5.743   3.803   2.763
 4073WAT      O16997   5.840   3.174   1.322
 4073WAT     H116998   5.848   3.172   1.236
 4073WAT     H216999   5.754   3.179   1.335
 4073WAT    EPW17000   5.829   3.175   1.311
 4074WAT      O17001   6.679   4.364   2.353
 4074WAT     H117002   6.661   4.281   2.334
 4074WAT     H217003   6.625   4.409   2.301
 4074WAT    EPW17004   6.668   4.359   2.343
 4075WAT      O17005   5.571   4.796   2.829
 4075WAT     H117006   5.549   4.787   2.913
 4075WAT     H217007   5.644   4.749   2.822
 4075WAT    EPW17008   5.578   4.787   2.840
 4076WAT      O17009   6.613   4.745   2.186
 4076WAT     H117010   6.692   4.720   2.160
 4076WAT     H217011   6.567   4.670   2.187
 4076WAT    EPW17012   6.618   4.730   2.182
 4077WAT      O17013   6.247   3.227   2.185
 4077WAT     H117014   6.308   3.282   2.213
 4077WAT     H217015   6.223   3.260   2.108
 4077WAT    EPW17016   6.252   3.240   2.178
 4078WAT      O17017   6.179   3.801   1.954
 4078WAT     H117018   6.240   3.739   1.965
 4078WAT     H217019   6.141   3.806   2.032
 4078WAT    EPW17020   6.183   3.793   1.967
 4079WAT      O17021   5.132   3.534   1.848
 4079WAT     H117022   5.202   3.585   1.863
 4079WAT     H217023   5.138   3.472   1.910
 4079WAT    EPW17024   5.143   3.532   1.860
 4080WAT      O17025   6.371   3.905   1.569
 4080WAT     H117026   6.407   3.828   1.589
 4080WAT     H217027   6.298   3.884   1.527
 4080WAT    EPW17028   6.366   3.891   1.566
 4081WAT      O17029   5.382   4.776   1.532
 4081WAT     H117030   5.338   4.752   1.460
 4081WAT     H217031   5.454   4.727   1.529
 4081WAT    EPW17032   5.386   4.765   1.521
 4082WAT      O17033   5.765   3.980   1.532
 4082WAT     H117034   5.789   4.013   1.454
 4082WAT     H217035   5.841   3.968   1.573
 4082WAT    EPW17036   5.780   3.983   1.527
 4083WAT      O17037   6.652   4.854   1.172
 4083WAT     H117038   6.720   4.848   1.227
 4083WAT     H217039   6.632   4.770   1.156
 4083WAT    EPW17040   6.659   4.841   1.178
 4084WAT      O17041   6.685   4.067   2.836
 4084WAT     H117042   6.750   4.056   2.893
 4084WAT     H217043   6.717   4.127   2.781
 4084WAT    EPW17044   6.699   4.075   2.836
 4085WAT      O17045   6.304   4.495   1.499
 4085WAT     H117046   6.261   4.491   1.575
 4085WAT     H217047   6.264   4.435   1.449
 4085WAT    EPW17048   6.292   4.486   1.503
 4086WAT      O17049   6.649   3.567   3.005
 4086WAT     H117050   6.650   3.648   3.037
 4086WAT     H217051   6.570   3.559   2.970
 4086WAT    EPW17052   6.638   3.577   3.005
 4087WAT      O17053   6.763   3.694   2.310
 4087WAT     H117054   6.688   3.709   2.269
 4087WAT     H217055   6.762   3.608   2.326
 4087WAT    EPW17056   6.752   3.683   2.306
 4088WAT      O17057   5.667   3.327   2.807
 4088WAT     H117058   5.725   3.301   2.746
 4088WAT     H217059   5.597   3.277   2.790
 4088WAT    EPW17060   5.666   3.316   2.795
 4089WAT      O17061   6.457   4.156   3.121
 4089WAT     H117062   6.525   4.194   3.161
 4089WAT     H217063   6.460   4.190   3.040
 4089WAT    EPW17064   6.467   4.167   3.115
 4090WAT      O17065   5.329   4.688   2.209
 4090WAT     H117066   5.347   4.614   2.167
 4090WAT     H217067   5.304   4.742   2.145
 4090WAT    EPW17068   5.328   4.685   2.193
 4091WAT      O17069   5.969   4.319   1.380
 4091WAT     H117070   6.053   4.304   1.364
 4091WAT     H217071   5.952   4.393   1.337
 4091WAT    EPW17072   5.979   4.327   1.371
 4092WAT      O17073   5.178   4.974   2.529
 4092WAT     H117074   5.141   4.983   2.608
 4092WAT     H217075   5.193   4.889   2.523
 4092WAT    EPW17076   5.175   4.963   2.540
 4093WAT      O17077   6.063   3.811   0.324
 4093WAT     H117078   6.044   3.893   0.346
 4093WAT     H217079   6.127   3.789   0.380
 4093WAT    EPW17080   6.070   3.820   0.336
 4094WAT      O17081   5.110   4.484   0.502
 4094WAT     H117082   5.128   4.472   0.587
 4094WAT     H217083   5.047   4.426   0.486
 4094WAT    EPW17084   5.103   4.474   0.512
 4095WAT      O17085   5.729   4.306   0.976
 4095WAT     H117086   5.701   4.286   1.056
 4095WAT     H217087   5.659   4.294   0.926
 4095WAT    EPW17088   5.715   4.301   0.980
 4096WAT      O17089   5.683   3.580   0.523
 4096WAT     H117090   5.754   3.584   0.473
 4096WAT     H217091   5.667   3.494   0.529
 4096WAT    EPW17092   5.691   3.568   0.516
 4097WAT      O17093   5.711   4.615   0.712
 4097WAT     H117094   5.732   4.670   0.648
 4097WAT     H217095   5.788   4.581   0.736
 4097WAT    EPW17096   5.726   4.618   0.706
 4098WAT      O17097   6.026   3.764   1.029
 4098WAT     H117098   5.959   3.780   0.976
 4098WAT     H217099   6.045   3.842   1.064
 4098WAT    EPW17100   6.019   3.778   1.027
 4099WAT      O17101   6.449   3.062   0.799
 4099WAT     H117102   6.435   3.144   0.773
 4099WAT     H217103   6.384   3.046   0.854
 4099WAT    EPW17104   6.437   3.072   0.803
 4100WAT      O17105   5.075   3.815   0.309
 4100WAT     H117106   5.038   3.893   0.316
 4100WAT     H217107   5.015   3.761   0.342
 4100WAT    EPW17108   5.061   3.818   0.315
 4101WAT      O17109   5.333   3.239   0.368
 4101WAT     H117110   5.353   3.294   0.303
 4101WAT     H217111   5.390   3.173   0.358
 4101WAT    EPW17112   5.345   3.237   0.357
 4102WAT      O17113   5.629   3.508   1.176
 4102WAT     H117114   5.619   3.477   1.095
 4102WAT     H217115   5.658   3.589   1.163
 4102WAT    EPW17116   5.632   3.515   1.162
 4103WAT      O17117   6.299   4.771   0.583
 4103WAT     H117118   6.356   4.808   0.637
 4103WAT     H217119   6.329   4.792   0.503
 4103WAT    EPW17120   6.312   4.780   0.579
 4104WAT      O17121   5.243   3.399   1.134
 4104WAT     H117122   5.157   3.391   1.139
 4104WAT     H217123   5.263   3.364   1.056
 4104WAT    EPW17124   5.233   3.392   1.123
 4105WAT      O17125   5.880   3.164   1.051
 4105WAT     H117126   5.906   3.086   1.022
 4105WAT     H217127   5.827   3.192   0.988
 4105WAT    EPW17128   5.876   3.157   1.037
 4106WAT      O17129   5.507   4.850   0.616
 4106WAT     H117130   5.530   4.846   0.699
 4106WAT     H217131   5.438   4.796   0.611
 4106WAT    EPW17132   5.500   4.841   0.627
 4107WAT      O17133   6.791   3.360   0.433
 4107WAT     H117134   6.859   3.327   0.389
 4107WAT     H217135   6.787   3.312   0.505
 4107WAT    EPW17136   6.800   3.348   0.437
 4108WAT      O17137   5.056   3.506   0.849
 4108WAT     H117138   5.040   3.583   0.886
 4108WAT     H217139   5.113   3.525   0.786
 4108WAT    EPW17140   5.062   3.520   0.845
 4109WAT      O17141   6.188   4.570   0.897
 4109WAT     H117142   6.180   4.590   0.982
 4109WAT     H217143   6.272   4.551   0.888
 4109WAT    EPW17144   6.199   4.570   0.908
 4110WAT      O17145   5.291   4.700   0.503
 4110WAT     H117146   5.236   4.632   0.508
 4110WAT     H217147   5.327   4.690   0.424
 4110WAT    EPW17148   5.288   4.688   0.492
 4111WAT      O17149   6.043   4.837   0.657
 4111WAT     H117150   6.120   4.808   0.629
 4111WAT     H217151   5.987   4.806   0.598
 4111WAT    EPW17152   6.046   4.828   0.644
 4112WAT      O17153   5.451   4.549   0.822
 4112WAT     H117154   5.526   4.583   0.795
 4112WAT     H217155   5.435   4.591   0.897
 4112WAT    EPW17156   5.460   4.560   0.829
 4113WAT      O17157   5.685   4.220   0.231
 4113WAT     H117158   5.698   4.184   0.309
 4113WAT     H217159   5.679   4.152   0.177
 4113WAT    EPW17160   5.686   4.205   0.235
 4114WAT      O17161   6.206   3.484   0.649
 4114WAT     H117162   6.197   3.534   0.720
 4114WAT     H217163   6.136   3.432   0.651
 4114WAT    EPW17164   6.194   3.484   0.660
 4115WAT      O17165   5.746   4.153   0.495
 4115WAT     H117166   5.733   4.237   0.514
 4115WAT     H217167   5.724   4.111   0.569
 4115WAT    EPW17168   5.741   4.159   0.509
 4116WAT      O17169   6.354   4.254   0.547
 4116WAT     H117170   6.280   4.212   0.568
 4116WAT     H217171   6.329   4.338   0.546
 4116WAT    EPW17172   6.339   4.260   0.550
 4117WAT      O17173   5.021   4.535   1.143
 4117WAT     H117174   5.079   4.584   1.187
 4117WAT     H217175   5.026   4.457   1.182
 4117WAT    EPW17176   5.030   4.531   1.156
 4118WAT      O17177   6.639   3.509   0.787
 4118WAT     H117178   6.722   3.485   0.777
 4118WAT     H217179   6.633   3.526   0.873
 4118WAT    EPW17180   6.650   3.508   0.798
 4119WAT      O17181   5.284   3.645   0.383
 4119WAT     H117182   5.361   3.681   0.364
 4119WAT     H217183   5.226   3.701   0.349
 4119WAT    EPW17184   5.287   3.658   0.375
 4120WAT      O17185   6.872   4.656   0.885
 4120WAT     H117186   6.794   4.663   0.846
 4120WAT     H217187   6.855   4.607   0.955
 4120WAT    EPW17188   6.858   4.650   0.889
 4121WAT      O17189   5.755   3.756   1.170
 4121WAT     H117190   5.701   3.813   1.208
 4121WAT     H217191   5.766   3.788   1.090
 4121WAT    EPW17192   5.749   3.769   1.164
 4122WAT      O17193   6.909   3.769   0.637
 4122WAT     H117194   6.973   3.710   0.632
 4122WAT     H217195   6.849   3.739   0.581
 4122WAT    EPW17196   6.910   3.756   0.628
 4123WAT      O17197   5.458   4.348   0.348
 4123WAT     H117198   5.506   4.369   0.418
 4123WAT     H217199   5.515   4.310   0.295
 4123WAT    EPW17200   5.473   4.346   0.351
 4124WAT      O17201   6.622   4.679   0.753
 4124WAT     H117202   6.573   4.751   0.760
 4124WAT     H217203   6.615   4.658   0.669
 4124WAT    EPW17204   6.614   4.687   0.742
 4125WAT      O17205   5.378   3.853   1.041
 4125WAT     H117206   5.334   3.789   1.080
 4125WAT     H217207   5.381   3.828   0.957
 4125WAT    EPW17208   5.372   3.840   1.034
 4126WAT      O17209   5.454   3.938   0.558
 4126WAT     H117210   5.483   3.887   0.493
 4126WAT     H217211   5.404   3.996   0.518
 4126WAT    EPW17212   5.451   3.939   0.543
 4127WAT      O17213   6.488   3.644   0.366
 4127WAT     H117214   6.423   3.671   0.418
 4127WAT     H217215   6.476   3.688   0.292
 4127WAT    EPW17216   6.477   3.654   0.363
 4128WAT      O17217   5.820   4.770   0.504
 4128WAT     H117218   5.812   4.714   0.438
 4128WAT     H217219   5.803   4.847   0.468
 4128WAT    EPW17220   5.816   4.773   0.489
 4129WAT      O17221   6.018   3.277   0.732
 4129WAT     H117222   6.040   3.198   0.700
 4129WAT     H217223   6.061   3.281   0.807
 4129WAT    EPW17224   6.027   3.266   0.738
 4130WAT      O17225   5.227   4.077   1.087
 4130WAT     H117226   5.226   4.124   1.013
 4130WAT     H217227   5.277   4.008   1.067
 4130WAT    EPW17228   5.234   4.073   1.073
 4131WAT      O17229   6.401   4.240   0.954
 4131WAT     H117230   6.426   4.321   0.931
 4131WAT     H217231   6.434   4.190   0.891
 4131WAT    EPW17232   6.410   4.245   0.941
 4132WAT      O17233   5.805   4.580   1.013
 4132WAT     H117234   5.843   4.573   1.092
 4132WAT     H217235   5.784   4.497   0.994
 4132WAT    EPW17236   5.807   4.566   1.022
 4133WAT      O17237   5.887   3.594   0.343
 4133WAT     H117238   5.945   3.658   0.331
 4133WAT     H217239   5.935   3.522   0.336
 4133WAT    EPW17240   5.903   3.593   0.340
 4134WAT      O17241   6.355   4.525   0.226
 4134WAT     H117242   6.295   4.517   0.164
 4134WAT     H217243   6.367   4.612   0.232
 4134WAT    EPW17244   6.348   4.537   0.218
 4135WAT      O17245   6.156   4.386   0.050
 4135WAT     H117246   6.091   4.369   0.105
 4135WAT     H217247   6.209   4.317   0.059
 4135WAT    EPW17248   6.154   4.373   0.059
 4136WAT      O17249   6.486   4.093   0.727
 4136WAT     H117250   6.449   4.152   0.675
 4136WAT     H217251   6.570   4.114   0.727
 4136WAT    EPW17252   6.493   4.105   0.720
 4137WAT      O17253   6.179   4.693   1.162
 4137WAT     H117254   6.210   4.715   1.240
 4137WAT     H217255   6.197   4.762   1.112
 4137WAT    EPW17256   6.186   4.706   1.166
 4138WAT      O17257   6.688   3.130   0.925
 4138WAT     H117258   6.610   3.117   0.888
 4138WAT     H217259   6.680   3.091   1.003
 4138WAT    EPW17260   6.675   3.122   0.932
 4139WAT      O17261   6.130   4.119   0.640
 4139WAT     H117262   6.078   4.151   0.703
 4139WAT     H217263   6.163   4.046   0.675
 4139WAT    EPW17264   6.127   4.113   0.655
 4140WAT      O17265   6.540   4.356   0.359
 4140WAT     H117266   6.492   4.401   0.301
 4140WAT     H217267   6.480   4.315   0.407
 4140WAT    EPW17268   6.524   4.357   0.357
 4141WAT      O17269   5.960   4.310   0.245
 4141WAT     H117270   5.875   4.295   0.228
 4141WAT     H217271   5.985   4.238   0.288
 4141WAT    EPW17272   5.951   4.297   0.249
 4142WAT      O17273   5.287   4.127   0.427
 4142WAT     H117274   5.329   4.201   0.410
 4142WAT     H217275   5.236   4.115   0.357
 4142WAT    EPW17276   5.286   4.136   0.414
 4143WAT      O17277   6.625   3.960   0.476
 4143WAT     H117278   6.619   3.891   0.530
 4143WAT     H217279   6.563   4.013   0.504
 4143WAT    EPW17280   6.615   3.957   0.488
 4144WAT      O17281   5.236   4.211   0.847
 4144WAT     H117282   5.202   4.160   0.785
 4144WAT     H217283   5.207   4.290   0.827
 4144WAT    EPW17284   5.227   4.215   0.835
 4145WAT      O17285   6.849   4.049   0.339
 4145WAT     H117286   6.781   4.016   0.384
 4145WAT     H217287   6.817   4.059   0.258
 4145WAT    EPW17288   6.834   4.046   0.334
 4146WAT      O17289   6.399   3.492   1.007
 4146WAT     H117290   6.340   3.467   1.066
 4146WAT     H217291   6.395   3.430   0.945
 4146WAT    EPW17292   6.390   3.479   1.006
 4147WAT      O17293   6.826   4.684   0.371
 4147WAT     H117294   6.876   4.720   0.309
 4147WAT     H217295   6.881   4.630   0.413
 4147WAT    EPW17296   6.842   4.681   0.368
 4148WAT      O17297   6.334   3.831   1.104
 4148WAT     H117298   6.378   3.843   1.178
 4148WAT     H217299   6.268   3.888   1.110
 4148WAT    EPW17300   6.331   3.842   1.116
 4149WAT      O17301   6.563   3.846   0.940
 4149WAT     H117302   6.586   3.928   0.955
 4149WAT     H217303   6.489   3.836   0.985
 4149WAT    EPW17304   6.555   3.856   0.949
 4150WAT      O17305   6.877   3.941   1.103
 4150WAT     H117306   6.886   3.885   1.037
 4150WAT     H217307   6.956   3.979   1.108
 4150WAT    EPW17308   6.890   3.939   1.094
 4151WAT      O17309   6.749   4.181   0.730
 4151WAT     H117310   6.816   4.127   0.716
 4151WAT     H217311   6.753   4.237   0.663
 4151WAT    EPW17312   6.759   4.181   0.718
 4152WAT      O17313   5.671   4.421   0.515
 4152WAT     H117314   5.678   4.472   0.586
 4152WAT     H217315   5.706   4.468   0.451
 4152WAT    EPW17316   5.677   4.435   0.516
 4153WAT      O17317   5.505   4.273   0.814
 4153WAT     H117318   5.425   4.241   0.828
 4153WAT     H217319   5.493   4.359   0.808
 4153WAT    EPW17320   5.492   4.281   0.815
 4154WAT      O17321   6.416   3.339   0.768
 4154WAT     H117322   6.488   3.386   0.755
 4154WAT     H217323   6.356   3.378   0.717
 4154WAT    EPW17324   6.418   3.352   0.758
 4155WAT      O17325   5.998   4.080   0.402
 4155WAT     H117326   6.047   4.091   0.473
 4155WAT     H217327   5.916   4.090   0.432
 4155WAT    EPW17328   5.993   4.083   0.417
 4156WAT      O17329   5.636   3.641   0.787
 4156WAT     H117330   5.622   3.563   0.824
 4156WAT     H217331   5.659   3.621   0.705
 4156WAT    EPW17332   5.637   3.626   0.781
 4157WAT      O17333   6.543   3.113   0.498
 4157WAT     H117334   6.527   3.195   0.473
 4157WAT     H217335   6.618   3.119   0.542
 4157WAT    EPW17336   6.552   3.126   0.501
 4158WAT      O17337   5.754   3.217   0.806
 4158WAT     H117338   5.835   3.224   0.774
 4158WAT     H217339   5.740   3.131   0.808
 4158WAT    EPW17340   5.764   3.205   0.801
 4159WAT      O17341   5.728   4.592   0.299
 4159WAT     H117342   5.646   4.605   0.272
 4159WAT     H217343   5.771   4.576   0.225
 4159WAT    EPW17344   5.722   4.591   0.284
 4160WAT      O17345   6.144   4.237   1.047
 4160WAT     H117346   6.223   4.240   1.010
 4160WAT     H217347   6.089   4.250   0.980
 4160WAT    EPW17348   6.148   4.240   1.032
 4161WAT      O17349   6.462   4.508   0.901
 4161WAT     H117350   6.497   4.532   0.977
 4161WAT     H217351   6.509   4.552   0.842
 4161WAT    EPW17352   6.474   4.518   0.904
 4162WAT      O17353   5.542   3.755   0.363
 4162WAT     H117354   5.588   3.755   0.289
 4162WAT     H217355   5.584   3.698   0.414
 4162WAT    EPW17356   5.555   3.747   0.360
 4163WAT      O17357   6.225   3.660   0.864
 4163WAT     H117358   6.165   3.689   0.921
 4163WAT     H217359   6.287   3.625   0.916
 4163WAT    EPW17360   6.225   3.659   0.880
 4164WAT      O17361   6.260   3.721   0.503
 4164WAT     H117362   6.269   3.775   0.570
 4164WAT     H217363   6.236   3.646   0.540
 4164WAT    EPW17364   6.258   3.718   0.518
 4165WAT      O17365   5.947   4.804   0.915
 4165WAT     H117366   5.971   4.793   0.831
 4165WAT     H217367   5.913   4.727   0.936
 4165WAT    EPW17368   5.946   4.791   0.905
 4166WAT      O17369   5.780   3.168   0.388
 4166WAT     H117370   5.743   3.221   0.445
 4166WAT     H217371   5.713   3.133   0.345
 4166WAT    EPW17372   5.765   3.170   0.390
 4167WAT      O17373   5.967   4.251   0.834
 4167WAT     H117374   5.891   4.249   0.878
 4167WAT     H217375   5.969   4.332   0.801
 4167WAT    EPW17376   5.956   4.263   0.835
 4168WAT      O17377   5.002   3.231   0.887
 4168WAT     H117378   5.021   3.317   0.887
 4168WAT     H217379   4.942   3.224   0.950
 4168WAT    EPW17380   4.996   3.243   0.896
 4169WAT      O17381   5.525   4.883   0.338
 4169WAT     H117382   5.529   4.874   0.425
 4169WAT     H217383   5.502   4.804   0.310
 4169WAT    EPW17384   5.522   4.870   0.347
 4170WAT      O17385   5.965   4.509   0.739
 4170WAT     H117386   6.040   4.534   0.777
 4170WAT     H217387   5.986   4.506   0.654
 4170WAT    EPW17388   5.979   4.512   0.732
 4171WAT      O17389   6.836   3.754   0.903
 4171WAT     H117390   6.750   3.763   0.911
 4171WAT     H217391   6.850   3.768   0.818
 4171WAT    EPW17392   6.826   3.758   0.892
 4172WAT      O17393   6.274   3.896   0.722
 4172WAT     H117394   6.271   3.829   0.778
 4172WAT     H217395   6.352   3.932   0.738
 4172WAT    EPW17396   6.285   3.891   0.733
 4173WAT      O17397   5.190   4.889   0.915
 4173WAT     H117398   5.132   4.825   0.904
 4173WAT     H217399   5.142   4.956   0.944
 4173WAT    EPW17400   5.174   4.890   0.917
 4174WAT      O17401   6.077   3.999   1.169
 4174WAT     H117402   6.104   4.072   1.129
 4174WAT     H217403   5.997   4.020   1.197
 4174WAT    EPW17404   6.069   4.013   1.167
 4175WAT      O17405   6.385   4.793   0.313
 4175WAT     H117406   6.347   4.870   0.298
 4175WAT     H217407   6.460   4.815   0.353
 4175WAT    EPW17408   6.390   4.808   0.317
 4176WAT      O17409   6.001   4.491   0.463
 4176WAT     H117410   5.986   4.437   0.396
 4176WAT     H217411   6.088   4.498   0.464
 4176WAT    EPW17412   6.011   4.484   0.453
 4177WAT      O17413   6.599   4.586   1.129
 4177WAT     H117414   6.681   4.555   1.123
 4177WAT     H217415   6.569   4.552   1.203
 4177WAT    EPW17416   6.607   4.577   1.139
 4178WAT      O17417   5.395   3.770   0.774
 4178WAT     H117418   5.406   3.830   0.711
 4178WAT     H217419   5.473   3.731   0.778
 4178WAT    EPW17420   5.408   3.773   0.765
 4179WAT      O17421   5.234   3.589   0.644
 4179WAT     H117422   5.249   3.604   0.560
 4179WAT     H217423   5.290   3.642   0.685
 4179WAT    EPW17424   5.245   3.599   0.638
 4180WAT      O17425   5.343   3.272   0.897
 4180WAT     H117426   5.316   3.189   0.902
 4180WAT     H217427   5.339   3.289   0.812
 4180WAT    EPW17428   5.338   3.262   0.885
 4181WAT      O17429   6.584   3.764   0.674
 4181WAT     H117430   6.598   3.680   0.691
 4181WAT     H217431   6.569   3.799   0.753
 4181WAT    EPW17432   6.584   3.757   0.688
 4182WAT      O17433   5.124   4.054   0.648
 4182WAT     H117434   5.168   4.074   0.575
 4182WAT     H217435   5.103   3.970   0.638
 4182WAT    EPW17436   5.127   4.045   0.636
 4183WAT      O17437   6.117   3.293   0.996
 4183WAT     H117438   6.133   3.358   1.051
 4183WAT     H217439   6.042   3.260   1.025
 4183WAT    EPW17440   6.108   3.298   1.009
 4184WAT      O17441   6.511   3.365   0.372
 4184WAT     H117442   6.599   3.361   0.372
 4184WAT     H217443   6.494   3.450   0.375
 4184WAT    EPW17444   6.522   3.377   0.372
 4185WAT      O17445   5.649   4.040   0.732
 4185WAT     H117446   5.609   4.112   0.761
 4185WAT     H217447   5.588   4.002   0.682
 4185WAT    EPW17448   5.634   4.045   0.729
 4186WAT      O17449   5.631   3.314   0.575
 4186WAT     H117450   5.544   3.311   0.587
 4186WAT     H217451   5.663   3.280   0.648
 4186WAT    EPW17452   5.623   3.309   0.587
 4187WAT      O17453   6.774   3.182   0.649
 4187WAT     H117454   6.757   3.166   0.733
 4187WAT     H217455   6.852   3.145   0.638
 4187WAT    EPW17456   6.783   3.174   0.660
 4188WAT      O17457   6.014   3.341   0.342
 4188WAT     H117458   5.954   3.278   0.348
 4188WAT     H217459   6.089   3.297   0.335
 4188WAT    EPW17460   6.016   3.325   0.342
 4189WAT      O17461   6.273   4.510   0.492
 4189WAT     H117462   6.292   4.586   0.531
 4189WAT     H217463   6.301   4.522   0.410
 4189WAT    EPW17464   6.280   4.523   0.485
 4190WAT      O17465   6.215   4.892   0.966
 4190WAT     H117466   6.144   4.852   0.937
 4190WAT     H217467   6.189   4.975   0.976
 4190WAT    EPW17468   6.201   4.899   0.963
 4191WAT      O17469   5.786   3.841   0.902
 4191WAT     H117470   5.743   3.776   0.863
 4191WAT     H217471   5.758   3.913   0.860
 4191WAT    EPW17472   5.775   3.842   0.890
 4192WAT      O17473   6.787   4.292   0.470
 4192WAT     H117474   6.811   4.219   0.429
 4192WAT     H217475   6.714   4.316   0.429
 4192WAT    EPW17476   6.780   4.285   0.458
 4193WAT      O17477   5.636   4.831   0.874
 4193WAT     H117478   5.630   4.822   0.960
 4193WAT     H217479   5.677   4.758   0.848
 4193WAT    EPW17480   5.642   4.819   0.883
 4194WAT      O17481   6.591   4.603   0.491
 4194WAT     H117482   6.658   4.637   0.447
 4194WAT     H217483   6.577   4.526   0.451
 4194WAT    EPW17484   6.599   4.596   0.479
 4195WAT      O17485   5.355   3.335   0.629
 4195WAT     H117486   5.332   3.297   0.554
 4195WAT     H217487   5.315   3.413   0.625
 4195WAT    EPW17488   5.346   3.341   0.617
 4196WAT      O17489   6.277   3.229   0.278
 4196WAT     H117490   6.345   3.272   0.312
 4196WAT     H217491   6.277   3.253   0.194
 4196WAT    EPW17492   6.287   3.239   0.271
 4197WAT      O17493   5.347   4.696   1.051
 4197WAT     H117494   5.421   4.734   1.077
 4197WAT     H217495   5.305   4.761   1.010
 4197WAT    EPW17496   5.352   4.711   1.049
 4198WAT      O17497   5.185   4.474   0.767
 4198WAT     H117498   5.134   4.534   0.805
 4198WAT     H217499   5.266   4.506   0.778
 4198WAT    EPW17500   5.189   4.488   0.774
 4199WAT      O17501   6.674   4.096   0.995
 4199WAT     H117502   6.744   4.061   1.034
 4199WAT     H217503   6.706   4.137   0.926
 4199WAT    EPW17504   6.689   4.097   0.991
 4200WAT      O17505   6.660   3.547   1.080
 4200WAT     H117506   6.669   3.623   1.124
 4200WAT     H217507   6.573   3.537   1.075
 4200WAT    EPW17508   6.648   3.557   1.086
 4201WAT      O17509   6.760   3.639   0.438
 4201WAT     H117510   6.674   3.648   0.423
 4201WAT     H217511   6.772   3.553   0.437
 4201WAT    EPW17512   6.749   3.628   0.435
 4202WAT      O17513   5.587   3.403   0.923
 4202WAT     H117514   5.641   3.345   0.888
 4202WAT     H217515   5.509   3.364   0.920
 4202WAT    EPW17516   5.583   3.389   0.917
 4203WAT      O17517   6.460   4.160   1.226
 4203WAT     H117518   6.536   4.189   1.260
 4203WAT     H217519   6.469   4.177   1.141
 4203WAT    EPW17520   6.473   4.167   1.218
 4204WAT      O17521   5.442   4.616   0.257
 4204WAT     H117522   5.434   4.533   0.283
 4204WAT     H217523   5.406   4.617   0.177
 4204WAT    EPW17524   5.435   4.604   0.249
 4205WAT      O17525   5.132   4.908   0.631
 4205WAT     H117526   5.172   4.902   0.708
 4205WAT     H217527   5.176   4.853   0.580
 4205WAT    EPW17528   5.144   4.899   0.634
 4206WAT      O17529   6.124   1.294   7.405
 4206WAT     H117530   6.114   1.341   7.331
 4206WAT     H217531   6.210   1.285   7.411
 4206WAT    EPW17532   6.135   1.300   7.395
 4207WAT      O17533   5.068   2.405   7.389
 4207WAT     H117534   4.988   2.402   7.423
 4207WAT     H217535   5.075   2.330   7.345
 4207WAT    EPW17536   5.057   2.394   7.388
 4208WAT      O17537   6.705   2.801   7.184
 4208WAT     H117538   6.770   2.747   7.204
 4208WAT     H217539   6.650   2.751   7.137
 4208WAT    EPW17540   6.707   2.786   7.180
 4209WAT      O17541   5.057   1.765   7.017
 4209WAT     H117542   4.992   1.814   6.987
 4209WAT     H217543   5.025   1.684   7.013
 4209WAT    EPW17544   5.043   1.760   7.012
 4210WAT      O17545   5.370   2.349   6.988
 4210WAT     H117546   5.342   2.309   6.915
 4210WAT     H217547   5.387   2.283   7.042
 4210WAT    EPW17548   5.368   2.334   6.985
 4211WAT      O17549   6.329   2.140   7.514
 4211WAT     H117550   6.339   2.128   7.428
 4211WAT     H217551   6.284   2.070   7.540
 4211WAT    EPW17552   6.323   2.128   7.505
 4212WAT      O17553   5.330   2.524   7.380
 4212WAT     H117554   5.394   2.492   7.429
 4212WAT     H217555   5.261   2.475   7.403
 4212WAT    EPW17556   5.329   2.512   7.391
 4213WAT      O17557   5.737   1.416   7.308
 4213WAT     H117558   5.757   1.479   7.251
 4213WAT     H217559   5.797   1.354   7.294
 4213WAT    EPW17560   5.749   1.416   7.298
 4214WAT      O17561   5.203   2.795   6.967
 4214WAT     H117562   5.252   2.803   6.896
 4214WAT     H217563   5.243   2.734   7.014
 4214WAT    EPW17564   5.216   2.787   6.963
 4215WAT      O17565   5.284   2.184   7.513
 4215WAT     H117566   5.231   2.189   7.444
 4215WAT     H217567   5.337   2.117   7.494
 4215WAT    EPW17568   5.284   2.175   7.500
 4216WAT      O17569   5.446   1.983   7.421
 4216WAT     H117570   5.502   1.960   7.484
 4216WAT     H217571   5.381   1.926   7.429
 4216WAT    EPW17572   5.445   1.971   7.432
 4217WAT      O17573   5.782   2.576   7.634
 4217WAT     H117574   5.812   2.495   7.647
 4217WAT     H217575   5.854   2.625   7.639
 4217WAT    EPW17576   5.797   2.571   7.637
 4218WAT      O17577   5.868   2.501   7.308
 4218WAT     H117578   5.916   2.440   7.347
 4218WAT     H217579   5.888   2.491   7.223
 4218WAT    EPW17580   5.878   2.491   7.301
 4219WAT      O17581   5.499   1.509   7.431
 4219WAT     H117582   5.458   1.552   7.368
 4219WAT     H217583   5.574   1.485   7.395
 4219WAT    EPW17584   5.504   1.512   7.417
 4220WAT      O17585   5.841   1.477   7.567
 4220WAT     H117586   5.815   1.557   7.590
 4220WAT     H217587   5.806   1.465   7.488
 4220WAT    EPW17588   5.832   1.487   7.559
 4221WAT      O17589   6.254   1.624   6.829
 4221WAT     H117590   6.203   1.686   6.863
 4221WAT     H217591   6.271   1.572   6.897
 4221WAT    EPW17592   6.249   1.625   6.844
 4222WAT      O17593   5.087   1.925   7.708
 4222WAT     H117594   5.091   2.010   7.726
 4222WAT     H217595   5.081   1.887   7.786
 4222WAT    EPW17596   5.087   1.932   7.722
 4223WAT      O17597   5.084   2.878   7.621
 4223WAT     H117598   5.021   2.926   7.586
 4223WAT     H217599   5.124   2.842   7.551
 4223WAT    EPW17600   5.081   2.880   7.605
 4224WAT      O17601   5.683   2.711   7.296
 4224WAT     H117602   5.635   2.705   7.369
 4224WAT     H217603   5.743   2.649   7.306
 4224WAT    EPW17604   5.685   2.701   7.308
 4225WAT      O17605   6.283   2.896   7.080
 4225WAT     H117606   6.353   2.948   7.092
 4225WAT     H217607   6.308   2.820   7.115
 4225WAT    EPW17608   6.297   2.893   7.087
 4226WAT      O17609   6.066   2.912   7.247
 4226WAT     H117610   6.081   2.981   7.298
 4226WAT     H217611   6.134   2.913   7.192
 4226WAT    EPW17612   6.078   2.923   7.246
 4227WAT      O17613   5.223   2.781   7.397
 4227WAT     H117614   5.271   2.708   7.410
 4227WAT     H217615   5.280   2.836   7.361
 4227WAT    EPW17616   5.239   2.778   7.394
 4228WAT      O17617   6.824   1.584   7.542
 4228WAT     H117618   6.784   1.659   7.560
 4228WAT     H217619   6.759   1.530   7.520
 4228WAT    EPW17620   6.809   1.587   7.542
 4229WAT      O17621   5.404   2.569   7.743
 4229WAT     H117622   5.436   2.625   7.684
 4229WAT     H217623   5.440   2.493   7.721
 4229WAT    EPW17624   5.414   2.566   7.731
 4230WAT      O17625   5.673   2.950   7.533
 4230WAT     H117626   5.748   2.982   7.563
 4230WAT     H217627   5.615   3.013   7.554
 4230WAT    EPW17628   5.675   2.964   7.541
 4231WAT      O17629   5.996   1.857   7.446
 4231WAT     H117630   6.020   1.803   7.382
 4231WAT     H217631   6.069   1.865   7.494
 4231WAT    EPW17632   6.010   1.850   7.444
 4232WAT      O17633   6.077   1.804   6.962
 4232WAT     H117634   6.102   1.883   6.990
 4232WAT     H217635   6.001   1.819   6.922
 4232WAT    EPW17636   6.070   1.818   6.960
 4233WAT      O17637   6.488   3.090   7.078
 4233WAT     H117638   6.532   3.067   7.007
 4233WAT     H217639   6.544   3.139   7.123
 4233WAT    EPW17640   6.502   3.094   7.074
 4234WAT      O17641   5.943   2.730   6.899
 4234WAT     H117642   5.908   2.789   6.953
 4234WAT     H217643   6.021   2.764   6.879
 4234WAT    EPW17644   5.950   2.744   6.904
 4235WAT      O17645   6.301   1.455   7.046
 4235WAT     H117646   6.357   1.388   7.049
 4235WAT     H217647   6.325   1.504   7.114
 4235WAT    EPW17648   6.313   1.452   7.056
 4236WAT      O17649   5.115   1.555   7.301
 4236WAT     H117650   5.094   1.471   7.291
 4236WAT     H217651   5.064   1.582   7.366
 4236WAT    EPW17652   5.104   1.547   7.309
 4237WAT      O17653   6.071   1.701   7.225
 4237WAT     H117654   6.041   1.619   7.214
 4237WAT     H217655   6.068   1.735   7.145
 4237WAT    EPW17656   6.066   1.694   7.212
 4238WAT      O17657   6.053   1.421   7.167
 4238WAT     H117658   5.993   1.397   7.109
 4238WAT     H217659   6.126   1.426   7.120
 4238WAT    EPW17660   6.055   1.418   7.152
 4239WAT      O17661   6.756   3.020   7.471
 4239WAT     H117662   6.716   3.097   7.476
 4239WAT     H217663   6.691   2.964   7.452
 4239WAT    EPW17664   6.740   3.023   7.469
 4240WAT      O17665   5.815   1.750   7.626
 4240WAT     H117666   5.866   1.784   7.564
 4240WAT     H217667   5.861   1.764   7.700
 4240WAT    EPW17668   5.830   1.757   7.628
 4241WAT      O17669   6.482   2.601   7.488
 4241WAT     H117670   6.548   2.544   7.484
 4241WAT     H217671   6.411   2.551   7.495
 4241WAT    EPW17672   6.481   2.585   7.488
 4242WAT      O17673   5.445   1.250   7.530
 4242WAT     H117674   5.455   1.335   7.512
 4242WAT     H217675   5.421   1.215   7.454
 4242WAT    EPW17676   5.443   1.257   7.517
 4243WAT      O17677   6.389   1.252   7.461
 4243WAT     H117678   6.392   1.237   7.547
 4243WAT     H217679   6.425   1.180   7.426
 4243WAT    EPW17680   6.395   1.239   7.468
 4244WAT      O17681   5.403   1.664   7.644
 4244WAT     H117682   5.440   1.611   7.585
 4244WAT     H217683   5.333   1.619   7.670
 4244WAT    EPW17684   5.398   1.650   7.639
 4245WAT      O17685   6.670   2.395   7.052
 4245WAT     H117686   6.665   2.342   7.121
 4245WAT     H217687   6.756   2.401   7.037
 4245WAT    EPW17688   6.682   2.388   7.060
 4246WAT      O17689   5.495   2.335   7.612
 4246WAT     H117690   5.547   2.339   7.542
 4246WAT     H217691   5.426   2.289   7.584
 4246WAT    EPW17692   5.493   2.329   7.598
 4247WAT      O17693   5.314   2.971   7.749
 4247WAT     H117694   5.239   2.947   7.710
 4247WAT     H217695   5.356   3.015   7.686
 4247WAT    EPW17696   5.309   2.974   7.734
 4248WAT      O17697   6.468   2.059   6.972
 4248WAT     H117698   6.462   2.143   6.946
 4248WAT     H217699   6.438   2.061   7.053
 4248WAT    EPW17700   6.463   2.072   6.980
 4249WAT      O17701   5.637   2.347   7.375
 4249WAT     H117702   5.700   2.404   7.357
 4249WAT     H217703   5.655   2.279   7.324
 4249WAT    EPW17704   5.649   2.346   7.365
 4250WAT      O17705   6.806   1.526   6.947
 4250WAT     H117706   6.847   1.469   6.895
 4250WAT     H217707   6.769   1.582   6.891
 4250WAT    EPW17708   6.806   1.526   6.931
 4251WAT      O17709   5.146   2.470   7.802
 4251WAT     H117710   5.104   2.543   7.823
 4251WAT     H217711   5.225   2.498   7.780
 4251WAT    EPW17712   5.151   2.485   7.802
 4252WAT      O17713   5.141   2.165   7.273
 4252WAT     H117714   5.115   2.081   7.272
 4252WAT     H217715   5.217   2.162   7.230
 4252WAT    EPW17716   5.148   2.152   7.266
 4253WAT      O17717   6.685   1.423   7.177
 4253WAT     H117718   6.757   1.382   7.204
 4253WAT     H217719   6.710   1.466   7.106
 4253WAT    EPW17720   6.699   1.423   7.171
 4254WAT      O17721   6.015   2.736   7.639
 4254WAT     H117722   5.994   2.820   7.639
 4254WAT     H217723   6.042   2.721   7.558
 4254WAT    EPW17724   6.016   2.746   7.627
 4255WAT      O17725   5.055   2.630   7.233
 4255WAT     H117726   5.109   2.684   7.274
 4255WAT     H217727   5.051   2.560   7.284
 4255WAT    EPW17728   5.062   2.627   7.246
 4256WAT      O17729   6.340   1.666   7.663
 4256WAT     H117730   6.360   1.615   7.731
 4256WAT     H217731   6.277   1.621   7.622
 4256WAT    EPW17732   6.333   1.652   7.667
 4257WAT      O17733   5.069   2.453   7.008
 4257WAT     H117734   5.146   2.411   7.005
 4257WAT     H217735   5.081   2.511   7.072
 4257WAT    EPW17736   5.082   2.456   7.017
 4258WAT      O17737   5.107   2.206   7.726
 4258WAT     H117738   5.163   2.200   7.659
 4258WAT     H217739   5.122   2.286   7.758
 4258WAT    EPW17740   5.118   2.217   7.721
 4259WAT      O17741   5.775   1.609   7.118
 4259WAT     H117742   5.764   1.596   7.033
 4259WAT     H217743   5.760   1.695   7.128
 4259WAT    EPW17744   5.771   1.620   7.107
 4260WAT      O17745   5.555   2.699   7.546
 4260WAT     H117746   5.581   2.782   7.552
 4260WAT     H217747   5.623   2.654   7.576
 4260WAT    EPW17748   5.569   2.705   7.551
 4261WAT      O17749   5.416   1.869   7.063
 4261WAT     H117750   5.396   1.812   7.126
 4261WAT     H217751   5.376   1.837   6.993
 4261WAT    EPW17752   5.407   1.856   7.062
 4262WAT      O17753   5.671   2.155   7.743
 4262WAT     H117754   5.610   2.209   7.711
 4262WAT     H217755   5.641   2.076   7.722
 4262WAT    EPW17756   5.657   2.151   7.735
 4263WAT      O17757   6.334   1.611   7.268
 4263WAT     H117758   6.387   1.678   7.283
 4263WAT     H217759   6.255   1.648   7.266
 4263WAT    EPW17760   6.330   1.627   7.270
 4264WAT      O17761   6.145   2.049   7.080
 4264WAT     H117762   6.120   2.102   7.015
 4264WAT     H217763   6.085   2.063   7.141
 4264WAT    EPW17764   6.132   2.059   7.079
 4265WAT      O17765   6.681   2.400   7.472
 4265WAT     H117766   6.684   2.352   7.545
 4265WAT     H217767   6.654   2.343   7.412
 4265WAT    EPW17768   6.677   2.385   7.474
 4266WAT      O17769   6.131   2.507   7.765
 4266WAT     H117770   6.096   2.580   7.732
 4266WAT     H217771   6.171   2.535   7.838
 4266WAT    EPW17772   6.131   2.522   7.771
 4267WAT      O17773   5.674   3.023   7.266
 4267WAT     H117774   5.682   2.986   7.345
 4267WAT     H217775   5.724   2.973   7.215
 4267WAT    EPW17776   5.682   3.010   7.270
 4268WAT      O17777   5.584   1.311   7.078
 4268WAT     H117778   5.606   1.331   7.160
 4268WAT     H217779   5.540   1.381   7.051
 4268WAT    EPW17780   5.580   1.324   7.086
 4269WAT      O17781   5.852   2.920   7.078
 4269WAT     H117782   5.919   2.914   7.134
 4269WAT     H217783   5.863   2.998   7.041
 4269WAT    EPW17784   5.863   2.930   7.081
 4270WAT      O17785   5.394   2.130   7.165
 4270WAT     H117786   5.388   2.050   7.130
 4270WAT     H217787   5.443   2.118   7.236
 4270WAT    EPW17788   5.400   2.116   7.170
 4271WAT      O17789   5.028   1.285   7.267
 4271WAT     H117790   5.027   1.229   7.200
 4271WAT     H217791   4.993   1.240   7.332
 4271WAT    EPW17792   5.022   1.270   7.267
 4272WAT      O17793   5.978   2.089   7.295
 4272WAT     H117794   5.998   2.157   7.347
 4272WAT     H217795   5.979   2.021   7.350
 4272WAT    EPW17796   5.982   2.089   7.311
 4273WAT      O17797   5.450   1.529   6.981
 4273WAT     H117798   5.391   1.514   6.918
 4273WAT     H217799   5.517   1.566   6.938
 4273WAT    EPW17800   5.451   1.533   6.965
 4274WAT      O17801   5.889   2.322   7.684
 4274WAT     H117802   5.828   2.265   7.710
 4274WAT     H217803   5.936   2.336   7.757
 4274WAT    EPW17804   5.887   2.315   7.699
 4275WAT      O17805   5.560   2.933   6.869
 4275WAT     H117806   5.584   2.867   6.920
 4275WAT     H217807   5.573   3.004   6.919
 4275WAT    EPW17808   5.566   2.934   6.884
 4276WAT      O17809   5.578   1.893   7.652
 4276WAT     H117810   5.652   1.848   7.639
 4276WAT     H217811   5.519   1.831   7.668
 4276WAT    EPW17812   5.580   1.877   7.653
 4277WAT      O17813   6.863   2.975   7.043
 4277WAT     H117814   6.928   2.923   7.016
 4277WAT     H217815   6.811   2.921   7.088
 4277WAT    EPW17816   6.865   2.959   7.046
 4278WAT      O17817   5.089   1.892   7.267
 4278WAT     H117818   5.130   1.852   7.333
 4278WAT     H217819   5.096   1.835   7.201
 4278WAT    EPW17820   5.096   1.877   7.267
 4279WAT      O17821   5.568   2.051   6.874
 4279WAT     H117822   5.527   2.006   6.936
 4279WAT     H217823   5.523   2.032   6.802
 4279WAT    EPW17824   5.555   2.042   6.873
 4280WAT      O17825   6.706   2.257   7.710
 4280WAT     H117826   6.700   2.318   7.772
 4280WAT     H217827   6.790   2.232   7.714
 4280WAT    EPW17828   6.718   2.262   7.720
 4281WAT      O17829   5.692   1.878   7.113
 4281WAT     H117830   5.701   1.956   7.151
 4281WAT     H217831   5.605   1.869   7.106
 4281WAT    EPW17832   5.680   1.889   7.117
 4282WAT      O17833   5.156   1.537   7.681
 4282WAT     H117834   5.087   1.563   7.635
 4282WAT     H217835   5.147   1.450   7.686
 4282WAT    EPW17836   5.145   1.528   7.675
 4283WAT      O17837   6.919   2.717   7.833
 4283WAT     H117838   6.920   2.762   7.758
 4283WAT     H217839   6.992   2.742   7.873
 4283WAT    EPW17840   6.930   2.727   7.828
 4284WAT      O17841   6.534   2.635   7.053
 4284WAT     H117842   6.572   2.557   7.056
 4284WAT     H217843   6.461   2.624   7.099
 4284WAT    EPW17844   6.529   2.622   7.060
 4285WAT      O17845   6.589   1.774   7.574
 4285WAT     H117846   6.518   1.733   7.604
 4285WAT     H217847   6.584   1.853   7.611
 4285WAT    EPW17848   6.578   1.780   7.584
 4286WAT      O17849   6.214   2.458   6.976
 4286WAT     H117850   6.287   2.412   6.967
 4286WAT     H217851   6.183   2.464   6.895
 4286WAT    EPW17852   6.220   2.452   6.963
 4287WAT      O17853   5.935   3.041   7.597
 4287WAT     H117854   5.913   3.119   7.629
 4287WAT     H217855   5.994   3.059   7.535
 4287WAT    EPW17856   5.940   3.055   7.592
 4288WAT      O17857   6.720   1.949   6.942
 4288WAT     H117858   6.769   2.005   6.897
 4288WAT     H217859   6.640   1.985   6.941
 4288WAT    EPW17860   6.715   1.962   6.935
 4289WAT      O17861   5.776   2.220   6.946
 4289WAT     H117862   5.713   2.172   6.911
 4289WAT     H217863   5.746   2.302   6.937
 4289WAT    EPW17864   5.762   2.225   6.940
 4290WAT      O17865   6.490   1.838   7.324
 4290WAT     H117866   6.518   1.815   7.404
 4290WAT     H217867   6.562   1.868   7.285
 4290WAT    EPW17868   6.505   1.839   7.330
 4291WAT      O17869   6.614   1.421   7.448
 4291WAT     H117870   6.534   1.388   7.454
 4291WAT     H217871   6.622   1.441   7.363
 4291WAT    EPW17872   6.603   1.419   7.436
 4292WAT      O17873   6.612   2.225   7.267
 4292WAT     H117874   6.656   2.150   7.260
 4292WAT     H217875   6.528   2.201   7.260
 4292WAT    EPW17876   6.606   2.211   7.265
 4293WAT      O17877   5.368   1.643   7.224
 4293WAT     H117878   5.384   1.601   7.149
 4293WAT     H217879   5.286   1.619   7.244
 4293WAT    EPW17880   5.358   1.633   7.216
 4294WAT      O17881   6.268   2.416   7.535
 4294WAT     H117882   6.235   2.435   7.613
 4294WAT     H217883   6.294   2.333   7.544
 4294WAT    EPW17884   6.267   2.406   7.548
 4295WAT      O17885   6.023   2.319   7.443
 4295WAT     H117886   5.982   2.316   7.520
 4295WAT     H217887   6.101   2.354   7.462
 4295WAT    EPW17888   6.028   2.324   7.457
 4296WAT      O17889   6.436   3.022   7.731
 4296WAT     H117890   6.391   2.958   7.770
 4296WAT     H217891   6.519   3.001   7.746
 4296WAT    EPW17892   6.442   3.010   7.739
 4297WAT      O17893   6.708   1.970   7.219
 4297WAT     H117894   6.718   1.965   7.132
 4297WAT     H217895   6.785   1.943   7.250
 4297WAT    EPW17896   6.721   1.966   7.211
 4298WAT      O17897   6.080   2.672   7.377
 4298WAT     H117898   6.071   2.747   7.334
 4298WAT     H217899   6.011   2.625   7.352
 4298WAT    EPW17900   6.069   2.676   7.367
 4299WAT      O17901   5.271   1.773   6.843
 4299WAT     H117902   5.198   1.772   6.891
 4299WAT     H217903   5.274   1.692   6.810
 4299WAT    EPW17904   5.261   1.761   6.846
 4300WAT      O17905   6.119   1.529   7.561
 4300WAT     H117906   6.033   1.524   7.572
 4300WAT     H217907   6.138   1.459   7.513
 4300WAT    EPW17908   6.109   1.518   7.556
 4301WAT      O17909   5.590   2.707   7.034
 4301WAT     H117910   5.633   2.715   7.109
 4301WAT     H217911   5.511   2.680   7.058
 4301WAT    EPW17912   5.585   2.704   7.049
 4302WAT      O17913   6.540   2.034   7.666
 4302WAT     H117914   6.596   2.098   7.685
 4302WAT     H217915   6.480   2.073   7.616
 4302WAT    EPW17916   6.539   2.049   7.661
 4303WAT      O17917   6.538   2.860   7.395
 4303WAT     H117918   6.516   2.782   7.428
 4303WAT     H217919   6.584   2.840   7.324
 4303WAT    EPW17920   6.542   2.845   7.389
 4304WAT      O17921   5.348   2.598   7.108
 4304WAT     H117922   5.346   2.579   7.193
 4304WAT     H217923   5.355   2.520   7.070
 4304WAT    EPW17924   5.349   2.584   7.115
 4305WAT      O17925   5.628   2.457   6.902
 4305WAT     H117926   5.549   2.425   6.923
 4305WAT     H217927   5.630   2.534   6.943
 4305WAT    EPW17928   5.616   2.463   6.912
 4306WAT      O17929   5.853   1.320   6.997
 4306WAT     H117930   5.863   1.330   6.910
 4306WAT     H217931   5.767   1.326   7.009
 4306WAT    EPW17932   5.842   1.322   6.986
 4307WAT      O17933   6.209   1.910   7.622
 4307WAT     H117934   6.258   1.838   7.631
 4307WAT     H217935   6.198   1.937   7.704
 4307WAT    EPW17936   6.214   1.904   7.635
 4308WAT      O17937   5.231   1.823   7.494
 4308WAT     H117938   5.181   1.855   7.559
 4308WAT     H217939   5.280   1.763   7.535
 4308WAT    EPW17940   5.231   1.819   7.510
 4309WAT      O17941   6.369   2.076   7.241
 4309WAT     H117942   6.392   1.995   7.264
 4309WAT     H217943   6.294   2.064   7.198
 4309WAT    EPW17944   6.361   2.062   7.238
 4310WAT      O17945   5.397   2.960   7.272
 4310WAT     H117946   5.367   2.976   7.192
 4310WAT     H217947   5.484   2.960   7.262
 4310WAT    EPW17948   5.405   2.962   7.259
 4311WAT      O17949   5.724   2.140   7.207
 4311WAT     H117950   5.739   2.172   7.127
 4311WAT     H217951   5.804   2.125   7.238
 4311WAT    EPW17952   5.738   2.143   7.200
 4312WAT      O17953   6.651   3.021   6.867
 4312WAT     H117954   6.724   3.012   6.914
 4312WAT     H217955   6.631   2.939   6.844
 4312WAT    EPW17956   6.659   3.008   6.870
 4313WAT      O17957   6.289   2.634   7.181
 4313WAT     H117958   6.239   2.628   7.252
 4313WAT     H217959   6.251   2.580   7.124
 4313WAT    EPW17960   6.276   2.625   7.183
 4314WAT      O17961   5.335   2.767   7.944
 4314WAT     H117962   5.364   2.702   7.894
 4314WAT     H217963   5.341   2.837   7.893
 4314WAT    EPW17964   5.340   2.768   7.929
 4315WAT      O17965   5.945   2.492   7.047
 4315WAT     H117966   6.026   2.465   7.031
 4315WAT     H217967   5.937   2.563   6.997
 4315WAT    EPW17968   5.956   2.498   7.037
 4316WAT      O17969   6.170   1.364   5.532
 4316WAT     H117970   6.195   1.430   5.479
 4316WAT     H217971   6.246   1.332   5.561
 4316WAT    EPW17972   6.185   1.369   5.528
 4317WAT      O17973   6.091   1.954   5.978
 4317WAT     H117974   6.058   2.031   6.002
 4317WAT     H217975   6.147   1.935   6.041
 4317WAT    EPW17976   6.094   1.963   5.991
 4318WAT      O17977   5.071   2.462   5.564
 4318WAT     H117978   5.054   2.462   5.650
 4318WAT     H217979   5.079   2.377   5.545
 4318WAT    EPW17980   5.070   2.450   5.574
 4319WAT      O17981   6.696   2.796   5.326
 4319WAT     H117982   6.764   2.743   5.343
 4319WAT     H217983   6.645   2.747   5.275
 4319WAT    EPW17984   6.699   2.781   5.321
 4320WAT      O17985   5.046   1.825   5.164
 4320WAT     H117986   4.984   1.871   5.124
 4320WAT     H217987   5.012   1.745   5.170
 4320WAT    EPW17988   5.032   1.820   5.159
 4321WAT      O17989   5.421   2.323   4.970
 4321WAT     H117990   5.357   2.310   4.913
 4321WAT     H217991   5.383   2.371   5.032
 4321WAT    EPW17992   5.406   2.329   4.971
 4322WAT      O17993   6.333   2.137   5.631
 4322WAT     H117994   6.339   2.123   5.545
 4322WAT     H217995   6.279   2.074   5.658
 4322WAT    EPW17996   6.326   2.125   5.622
 4323WAT      O17997   5.312   2.600   5.604
 4323WAT     H117998   5.376   2.541   5.602
 4323WAT     H217999   5.241   2.555   5.581
 4323WAT    EPW18000   5.311   2.585   5.600
 4324WAT      O18001   5.756   1.437   5.401
 4324WAT     H118002   5.755   1.511   5.354
 4324WAT     H218003   5.834   1.403   5.383
 4324WAT    EPW18004   5.767   1.443   5.391
 4325WAT      O18005   5.199   2.852   5.042
 4325WAT     H118006   5.250   2.860   4.971
 4325WAT     H218007   5.223   2.775   5.076
 4325WAT    EPW18008   5.210   2.842   5.036
 4326WAT      O18009   5.072   2.661   6.198
 4326WAT     H118010   5.108   2.634   6.273
 4326WAT     H218011   5.009   2.603   6.184
 4326WAT    EPW18012   5.068   2.649   6.207
 4327WAT      O18013   5.728   2.478   6.639
 4327WAT     H118014   5.706   2.468   6.723
 4327WAT     H218015   5.658   2.450   6.595
 4327WAT    EPW18016   5.714   2.472   6.645
 4328WAT      O18017   5.251   2.185   5.652
 4328WAT     H118018   5.204   2.185   5.579
 4328WAT     H218019   5.308   2.120   5.640
 4328WAT    EPW18020   5.253   2.176   5.640
 4329WAT      O18021   5.708   1.781   6.203
 4329WAT     H118022   5.772   1.782   6.144
 4329WAT     H218023   5.677   1.700   6.199
 4329WAT    EPW18024   5.713   1.769   6.194
 4330WAT      O18025   5.702   2.725   6.368
 4330WAT     H118026   5.677   2.802   6.336
 4330WAT     H218027   5.787   2.735   6.382
 4330WAT    EPW18028   5.711   2.738   6.365
 4331WAT      O18029   5.427   1.972   5.645
 4331WAT     H118030   5.494   1.919   5.663
 4331WAT     H218031   5.359   1.918   5.640
 4331WAT    EPW18032   5.427   1.956   5.647
 4332WAT      O18033   5.852   2.605   5.827
 4332WAT     H118034   5.877   2.522   5.830
 4332WAT     H218035   5.926   2.648   5.809
 4332WAT    EPW18036   5.867   2.599   5.825
 4333WAT      O18037   5.928   2.525   5.421
 4333WAT     H118038   5.954   2.457   5.468
 4333WAT     H218039   5.940   2.499   5.338
 4333WAT    EPW18040   5.934   2.511   5.415
 4334WAT      O18041   6.038   2.000   6.655
 4334WAT     H118042   5.956   1.996   6.627
 4334WAT     H218043   6.035   2.059   6.719
 4334WAT    EPW18044   6.026   2.008   6.661
 4335WAT      O18045   5.504   1.498   5.525
 4335WAT     H118046   5.463   1.548   5.466
 4335WAT     H218047   5.585   1.491   5.492
 4335WAT    EPW18048   5.510   1.505   5.511
 4336WAT      O18049   6.482   1.232   6.463
 4336WAT     H118050   6.458   1.302   6.417
 4336WAT     H218051   6.409   1.210   6.506
 4336WAT    EPW18052   6.468   1.239   6.463
 4337WAT      O18053   5.812   1.397   5.689
 4337WAT     H118054   5.824   1.481   5.711
 4337WAT     H218055   5.783   1.402   5.607
 4337WAT    EPW18056   5.809   1.410   5.680
 4338WAT      O18057   6.250   1.634   4.936
 4338WAT     H118058   6.198   1.699   4.964
 4338WAT     H218059   6.257   1.582   5.006
 4338WAT    EPW18060   6.243   1.636   4.951
 4339WAT      O18061   5.087   1.927   5.902
 4339WAT     H118062   5.088   2.014   5.910
 4339WAT     H218063   5.018   1.903   5.949
 4339WAT    EPW18064   5.077   1.936   5.910
 4340WAT      O18065   5.030   2.900   5.717
 4340WAT     H118066   4.970   2.951   5.680
 4340WAT     H218067   5.078   2.872   5.650
 4340WAT    EPW18068   5.029   2.903   5.702
 4341WAT      O18069   5.661   2.585   5.389
 4341WAT     H118070   5.634   2.597   5.471
 4341WAT     H218071   5.745   2.564   5.397
 4341WAT    EPW18072   5.669   2.584   5.402
 4342WAT      O18073   6.258   2.909   5.228
 4342WAT     H118074   6.329   2.960   5.229
 4342WAT     H218075   6.288   2.830   5.250
 4342WAT    EPW18076   6.273   2.905   5.232
 4343WAT      O18077   6.057   2.949   5.413
 4343WAT     H118078   6.080   3.020   5.458
 4343WAT     H218079   6.119   2.943   5.352
 4343WAT    EPW18080   6.070   2.959   5.410
 4344WAT      O18081   5.395   1.447   5.952
 4344WAT     H118082   5.348   1.378   5.926
 4344WAT     H218083   5.443   1.415   6.017
 4344WAT    EPW18084   5.395   1.432   5.958
 4345WAT      O18085   5.684   1.611   6.844
 4345WAT     H118086   5.695   1.577   6.764
 4345WAT     H218087   5.724   1.688   6.838
 4345WAT    EPW18088   5.692   1.617   6.831
 4346WAT      O18089   5.207   2.841   5.511
 4346WAT     H118090   5.250   2.768   5.532
 4346WAT     H218091   5.248   2.868   5.438
 4346WAT    EPW18092   5.220   2.834   5.503
 4347WAT      O18093   6.831   1.603   5.664
 4347WAT     H118094   6.780   1.673   5.665
 4347WAT     H218095   6.776   1.536   5.653
 4347WAT    EPW18096   6.816   1.603   5.663
 4348WAT      O18097   6.308   2.939   6.210
 4348WAT     H118098   6.374   2.994   6.193
 4348WAT     H218099   6.292   2.903   6.132
 4348WAT    EPW18100   6.315   2.942   6.196
 4349WAT      O18101   5.274   1.500   6.763
 4349WAT     H118102   5.193   1.472   6.743
 4349WAT     H218103   5.323   1.465   6.700
 4349WAT    EPW18104   5.269   1.491   6.751
 4350WAT      O18105   5.314   2.617   5.881
 4350WAT     H118106   5.331   2.615   5.796
 4350WAT     H218107   5.369   2.559   5.915
 4350WAT    EPW18108   5.324   2.608   5.874
 4351WAT      O18109   5.630   2.923   5.749
 4351WAT     H118110   5.709   2.947   5.721
 4351WAT     H218111   5.576   2.969   5.697
 4351WAT    EPW18112   5.633   2.934   5.737
 4352WAT      O18113   5.883   1.344   6.723
 4352WAT     H118114   5.901   1.271   6.680
 4352WAT     H218115   5.819   1.381   6.676
 4352WAT    EPW18116   5.876   1.339   6.710
 4353WAT      O18117   5.978   1.863   5.558
 4353WAT     H118118   6.003   1.823   5.485
 4353WAT     H218119   6.053   1.874   5.601
 4353WAT    EPW18120   5.993   1.859   5.553
 4354WAT      O18121   6.069   1.825   5.051
 4354WAT     H118122   6.095   1.903   5.079
 4354WAT     H218123   5.992   1.841   5.014
 4354WAT    EPW18124   6.062   1.839   5.050
 4355WAT      O18125   6.468   3.093   5.197
 4355WAT     H118126   6.516   3.065   5.129
 4355WAT     H218127   6.525   3.141   5.243
 4355WAT    EPW18128   6.484   3.096   5.194
 4356WAT      O18129   5.542   2.959   6.327
 4356WAT     H118130   5.556   2.966   6.413
 4356WAT     H218131   5.462   2.923   6.323
 4356WAT    EPW18132   5.532   2.954   6.339
 4357WAT      O18133   6.726   1.544   6.081
 4357WAT     H118134   6.795   1.533   6.028
 4357WAT     H218135   6.739   1.485   6.144
 4357WAT    EPW18136   6.738   1.534   6.082
 4358WAT      O18137   4.992   1.648   6.500
 4358WAT     H118138   4.987   1.724   6.544
 4358WAT     H218139   5.053   1.664   6.439
 4358WAT    EPW18140   5.001   1.662   6.498
 4359WAT      O18141   6.190   2.707   6.570
 4359WAT     H118142   6.180   2.730   6.654
 4359WAT     H218143   6.276   2.697   6.561
 4359WAT    EPW18144   6.201   2.709   6.581
 4360WAT      O18145   5.940   2.723   5.029
 4360WAT     H118146   5.907   2.779   5.087
 4360WAT     H218147   6.017   2.758   5.009
 4360WAT    EPW18148   5.946   2.737   5.035
 4361WAT      O18149   6.266   1.462   5.158
 4361WAT     H118150   6.326   1.399   5.162
 4361WAT     H218151   6.281   1.508   5.230
 4361WAT    EPW18152   6.277   1.460   5.169
 4362WAT      O18153   5.126   1.559   5.431
 4362WAT     H118154   5.099   1.477   5.416
 4362WAT     H218155   5.076   1.585   5.498
 4362WAT    EPW18156   5.115   1.551   5.439
 4363WAT      O18157   5.272   2.875   6.228
 4363WAT     H118158   5.212   2.812   6.224
 4363WAT     H218159   5.308   2.875   6.149
 4363WAT    EPW18160   5.269   2.866   6.216
 4364WAT      O18161   6.037   1.731   5.314
 4364WAT     H118162   5.965   1.683   5.301
 4364WAT     H218163   6.053   1.766   5.236
 4364WAT    EPW18164   6.028   1.729   5.300
 4365WAT      O18165   6.057   2.984   6.307
 4365WAT     H118166   6.136   2.973   6.271
 4365WAT     H218167   6.004   2.990   6.238
 4365WAT    EPW18168   6.061   2.983   6.292
 4366WAT      O18169   6.009   1.402   5.264
 4366WAT     H118170   5.957   1.382   5.196
 4366WAT     H218171   6.086   1.417   5.227
 4366WAT    EPW18172   6.013   1.401   5.249
 4367WAT      O18173   6.765   3.017   5.593
 4367WAT     H118174   6.725   3.094   5.604
 4367WAT     H218175   6.699   2.961   5.585
 4367WAT    EPW18176   6.749   3.020   5.593
 4368WAT      O18177   5.863   1.674   5.732
 4368WAT     H118178   5.888   1.738   5.680
 4368WAT     H218179   5.871   1.708   5.812
 4368WAT    EPW18180   5.868   1.688   5.736
 4369WAT      O18181   6.512   2.593   5.674
 4369WAT     H118182   6.572   2.533   5.656
 4369WAT     H218183   6.436   2.550   5.668
 4369WAT    EPW18184   6.510   2.578   5.670
 4370WAT      O18185   5.452   2.683   6.505
 4370WAT     H118186   5.530   2.711   6.476
 4370WAT     H218187   5.440   2.729   6.578
 4370WAT    EPW18188   5.462   2.694   6.511
 4371WAT      O18189   5.470   1.240   5.626
 4371WAT     H118190   5.478   1.323   5.602
 4371WAT     H218191   5.450   1.199   5.552
 4371WAT    EPW18192   5.469   1.246   5.611
 4372WAT      O18193   5.664   2.260   5.912
 4372WAT     H118194   5.680   2.248   5.996
 4372WAT     H218195   5.598   2.205   5.895
 4372WAT    EPW18196   5.656   2.251   5.922
 4373WAT      O18197   6.214   1.645   6.311
 4373WAT     H118198   6.209   1.688   6.387
 4373WAT     H218199   6.151   1.585   6.317
 4373WAT    EPW18200   6.204   1.643   6.324
 4374WAT      O18201   5.747   2.273   6.176
 4374WAT     H118202   5.737   2.359   6.182
 4374WAT     H218203   5.721   2.244   6.254
 4374WAT    EPW18204   5.742   2.281   6.188
 4375WAT      O18205   6.358   2.373   6.204
 4375WAT     H118206   6.281   2.349   6.236
 4375WAT     H218207   6.359   2.459   6.213
 4375WAT    EPW18208   6.347   2.382   6.210
 4376WAT      O18209   6.408   1.262   5.626
 4376WAT     H118210   6.402   1.245   5.712
 4376WAT     H218211   6.435   1.186   5.592
 4376WAT    EPW18212   6.411   1.248   5.634
 4377WAT      O18213   5.004   2.662   6.823
 4377WAT     H118214   5.062   2.709   6.867
 4377WAT     H218215   5.014   2.581   6.854
 4377WAT    EPW18216   5.014   2.657   6.834
 4378WAT      O18217   6.598   1.697   6.408
 4378WAT     H118218   6.681   1.679   6.429
 4378WAT     H218219   6.556   1.690   6.484
 4378WAT    EPW18220   6.604   1.693   6.422
 4379WAT      O18221   5.371   1.621   5.740
 4379WAT     H118222   5.402   1.572   5.675
 4379WAT     H218223   5.375   1.569   5.810
 4379WAT    EPW18224   5.376   1.606   5.741
 4380WAT      O18225   6.666   2.380   5.181
 4380WAT     H118226   6.664   2.332   5.253
 4380WAT     H218227   6.752   2.391   5.166
 4380WAT    EPW18228   6.679   2.374   5.189
 4381WAT      O18229   5.461   2.368   5.631
 4381WAT     H118230   5.494   2.346   5.554
 4381WAT     H218231   5.395   2.312   5.642
 4381WAT    EPW18232   5.456   2.356   5.621
 4382WAT      O18233   5.265   3.031   5.793
 4382WAT     H118234   5.188   2.999   5.768
 4382WAT     H218235   5.311   3.034   5.719
 4382WAT    EPW18236   5.260   3.027   5.779
 4383WAT      O18237   5.252   1.754   6.045
 4383WAT     H118238   5.335   1.775   6.032
 4383WAT     H218239   5.208   1.815   6.000
 4383WAT    EPW18240   5.258   1.766   6.036
 4384WAT      O18241   6.861   2.804   6.559
 4384WAT     H118242   6.787   2.809   6.514
 4384WAT     H218243   6.841   2.756   6.628
 4384WAT    EPW18244   6.847   2.798   6.563
 4385WAT      O18245   6.477   2.052   5.089
 4385WAT     H118246   6.471   2.134   5.062
 4385WAT     H218247   6.446   2.055   5.171
 4385WAT    EPW18248   6.471   2.064   5.097
 4386WAT      O18249   5.545   2.319   5.370
 4386WAT     H118250   5.567   2.402   5.354
 4386WAT     H218251   5.616   2.274   5.346
 4386WAT    EPW18252   5.558   2.324   5.364
 4387WAT      O18253   6.803   1.527   5.085
 4387WAT     H118254   6.843   1.464   5.040
 4387WAT     H218255   6.771   1.580   5.022
 4387WAT    EPW18256   6.804   1.526   5.069
 4388WAT      O18257   5.069   2.491   5.849
 4388WAT     H118258   5.013   2.553   5.874
 4388WAT     H218259   5.147   2.528   5.861
 4388WAT    EPW18260   5.073   2.506   5.854
 4389WAT      O18261   5.816   1.855   6.857
 4389WAT     H118262   5.773   1.885   6.927
 4389WAT     H218263   5.793   1.910   6.794
 4389WAT    EPW18264   5.806   1.867   6.858
 4390WAT      O18265   6.909   1.940   6.298
 4390WAT     H118266   6.963   1.871   6.299
 4390WAT     H218267   6.848   1.917   6.240
 4390WAT    EPW18268   6.908   1.926   6.289
 4391WAT      O18269   5.083   2.197   5.435
 4391WAT     H118270   5.066   2.112   5.438
 4391WAT     H218271   5.150   2.203   5.379
 4391WAT    EPW18272   5.090   2.186   5.427
 4392WAT      O18273   6.668   1.418   5.308
 4392WAT     H118274   6.741   1.375   5.329
 4392WAT     H218275   6.693   1.468   5.241
 4392WAT    EPW18276   6.683   1.419   5.301
 4393WAT      O18277   6.065   2.773   5.769
 4393WAT     H118278   6.018   2.843   5.747
 4393WAT     H218279   6.096   2.744   5.693
 4393WAT    EPW18280   6.063   2.779   5.755
 4394WAT      O18281   5.000   2.589   5.326
 4394WAT     H118282   5.083   2.595   5.299
 4394WAT     H218283   5.007   2.554   5.406
 4394WAT    EPW18284   5.013   2.585   5.334
 4395WAT      O18285   5.476   2.437   6.019
 4395WAT     H118286   5.534   2.478   6.070
 4395WAT     H218287   5.525   2.390   5.965
 4395WAT    EPW18288   5.492   2.436   6.019
 4396WAT      O18289   6.359   1.681   5.751
 4396WAT     H118290   6.389   1.648   5.826
 4396WAT     H218291   6.288   1.632   5.735
 4396WAT    EPW18292   6.353   1.669   5.760
 4397WAT      O18293   4.958   2.479   5.071
 4397WAT     H118294   5.037   2.444   5.056
 4397WAT     H218295   4.967   2.513   5.151
 4397WAT    EPW18296   4.971   2.479   5.081
 4398WAT      O18297   5.109   2.218   5.889
 4398WAT     H118298   5.159   2.204   5.819
 4398WAT     H218299   5.099   2.305   5.890
 4398WAT    EPW18300   5.115   2.229   5.879
 4399WAT      O18301   5.770   1.650   5.229
 4399WAT     H118302   5.759   1.629   5.145
 4399WAT     H218303   5.743   1.733   5.233
 4399WAT    EPW18304   5.764   1.660   5.217
 4400WAT      O18305   6.624   2.838   6.404
 4400WAT     H118306   6.581   2.914   6.409
 4400WAT     H218307   6.626   2.822   6.318
 4400WAT    EPW18308   6.618   2.847   6.392
 4401WAT      O18309   5.633   2.661   5.653
 4401WAT     H118310   5.621   2.743   5.680
 4401WAT     H218311   5.697   2.631   5.704
 4401WAT    EPW18312   5.640   2.668   5.665
 4402WAT      O18313   5.370   1.979   6.686
 4402WAT     H118314   5.333   1.913   6.729
 4402WAT     H218315   5.377   1.949   6.604
 4402WAT    EPW18316   5.365   1.965   6.680
 4403WAT      O18317   5.405   1.907   5.216
 4403WAT     H118318   5.390   1.837   5.266
 4403WAT     H218319   5.369   1.887   5.139
 4403WAT    EPW18320   5.398   1.894   5.212
 4404WAT      O18321   5.446   2.094   5.894
 4404WAT     H118322   5.437   2.066   5.812
 4404WAT     H218323   5.466   2.021   5.938
 4404WAT    EPW18324   5.448   2.079   5.889
 4405WAT      O18325   5.449   2.057   6.236
 4405WAT     H118326   5.474   2.008   6.168
 4405WAT     H218327   5.397   2.117   6.200
 4405WAT    EPW18328   5.445   2.059   6.221
 4406WAT      O18329   6.497   1.863   6.019
 4406WAT     H118330   6.430   1.888   6.069
 4406WAT     H218331   6.492   1.916   5.950
 4406WAT    EPW18332   6.486   1.875   6.016
 4407WAT      O18333   5.844   2.993   6.133
 4407WAT     H118334   5.807   2.923   6.096
 4407WAT     H218335   5.832   3.057   6.075
 4407WAT    EPW18336   5.836   2.992   6.119
 4408WAT      O18337   6.061   1.416   6.385
 4408WAT     H118338   6.080   1.333   6.367
 4408WAT     H218339   6.087   1.425   6.468
 4408WAT    EPW18340   6.068   1.405   6.395
 4409WAT      O18341   6.270   1.602   5.396
 4409WAT     H118342   6.332   1.663   5.404
 4409WAT     H218343   6.198   1.648   5.375
 4409WAT    EPW18344   6.268   1.617   5.394
 4410WAT      O18345   5.261   2.220   6.769
 4410WAT     H118346   5.250   2.267   6.697
 4410WAT     H218347   5.302   2.148   6.741
 4410WAT    EPW18348   5.266   2.216   6.754
 4411WAT      O18349   6.392   2.416   6.643
 4411WAT     H118350   6.420   2.495   6.618
 4411WAT     H218351   6.422   2.363   6.580
 4411WAT    EPW18352   6.401   2.420   6.630
 4412WAT      O18353   5.828   2.742   6.649
 4412WAT     H118354   5.860   2.737   6.730
 4412WAT     H218355   5.794   2.663   6.636
 4412WAT    EPW18356   5.827   2.730   6.659
 4413WAT      O18357   5.890   1.762   5.993
 4413WAT     H118358   5.955   1.820   5.994
 4413WAT     H218359   5.926   1.690   6.026
 4413WAT    EPW18360   5.905   1.760   5.998
 4414WAT      O18361   6.149   2.058   5.187
 4414WAT     H118362   6.131   2.113   5.122
 4414WAT     H218363   6.092   2.080   5.249
 4414WAT    EPW18364   6.138   2.070   5.187
 4415WAT      O18365   6.686   2.378   5.629
 4415WAT     H118366   6.685   2.331   5.702
 4415WAT     H218367   6.658   2.323   5.568
 4415WAT    EPW18368   6.682   2.363   5.630
 4416WAT      O18369   6.261   2.811   5.968
 4416WAT     H118370   6.196   2.790   5.914
 4416WAT     H218371   6.301   2.878   5.928
 4416WAT    EPW18372   6.258   2.818   5.954
 4417WAT      O18373   6.248   2.459   5.960
 4417WAT     H118374   6.176   2.496   5.992
 4417WAT     H218375   6.279   2.413   6.027
 4417WAT    EPW18376   6.242   2.458   5.975
 4418WAT      O18377   5.626   2.861   5.357
 4418WAT     H118378   5.635   2.778   5.381
 4418WAT     H218379   5.699   2.877   5.311
 4418WAT    EPW18380   5.638   2.851   5.354
 4419WAT      O18381   5.566   1.312   5.204
 4419WAT     H118382   5.612   1.342   5.272
 4419WAT     H218383   5.524   1.383   5.175
 4419WAT    EPW18384   5.567   1.327   5.210
 4420WAT      O18385   5.860   2.913   5.219
 4420WAT     H118386   5.920   2.923   5.281
 4420WAT     H218387   5.851   2.993   5.185
 4420WAT    EPW18388   5.868   2.926   5.223
 4421WAT      O18389   6.476   2.262   6.428
 4421WAT     H118390   6.442   2.303   6.359
 4421WAT     H218391   6.561   2.280   6.422
 4421WAT    EPW18392   6.484   2.271   6.417
 4422WAT      O18393   6.190   2.843   6.824
 4422WAT     H118394   6.226   2.859   6.902
 4422WAT     H218395   6.220   2.907   6.774
 4422WAT    EPW18396   6.200   2.855   6.828
 4423WAT      O18397   6.603   1.370   6.671
 4423WAT     H118398   6.566   1.323   6.607
 4423WAT     H218399   6.608   1.314   6.737
 4423WAT    EPW18400   6.598   1.355   6.671
 4424WAT      O18401   5.316   2.169   5.294
 4424WAT     H118402   5.351   2.092   5.271
 4424WAT     H218403   5.386   2.220   5.308
 4424WAT    EPW18404   5.332   2.165   5.293
 4425WAT      O18405   6.123   2.279   6.310
 4425WAT     H118406   6.072   2.318   6.369
 4425WAT     H218407   6.151   2.208   6.352
 4425WAT    EPW18408   6.120   2.275   6.325
 4426WAT      O18409   5.029   1.294   5.378
 4426WAT     H118410   5.028   1.238   5.311
 4426WAT     H218411   5.003   1.245   5.445
 4426WAT    EPW18412   5.025   1.278   5.378
 4427WAT      O18413   5.998   2.110   5.417
 4427WAT     H118414   6.014   2.174   5.473
 4427WAT     H218415   5.980   2.041   5.468
 4427WAT    EPW18416   5.998   2.109   5.433
 4428WAT      O18417   6.518   2.572   5.961
 4428WAT     H118418   6.533   2.591   5.877
 4428WAT     H218419   6.433   2.551   5.962
 4428WAT    EPW18420   6.507   2.572   5.949
 4429WAT      O18421   5.445   1.536   5.092
 4429WAT     H118422   5.380   1.536   5.033
 4429WAT     H218423   5.511   1.574   5.050
 4429WAT    EPW18424   5.445   1.541   5.077
 4430WAT      O18425   5.919   2.334   5.834
 4430WAT     H118426   5.836   2.307   5.843
 4430WAT     H218427   5.959   2.300   5.903
 4430WAT    EPW18428   5.912   2.325   5.846
 4431WAT      O18429   5.595   2.924   4.957
 4431WAT     H118430   5.613   2.850   5.000
 4431WAT     H218431   5.581   2.982   5.021
 4431WAT    EPW18432   5.596   2.922   4.973
 4432WAT      O18433   5.284   2.253   6.119
 4432WAT     H118434   5.341   2.315   6.095
 4432WAT     H218435   5.247   2.228   6.044
 4432WAT    EPW18436   5.287   2.258   6.105
 4433WAT      O18437   5.594   1.781   5.771
 4433WAT     H118438   5.668   1.739   5.751
 4433WAT     H218439   5.533   1.720   5.759
 4433WAT    EPW18440   5.596   1.766   5.766
 4434WAT      O18441   6.858   2.962   5.176
 4434WAT     H118442   6.921   2.910   5.145
 4434WAT     H218443   6.809   2.908   5.224
 4434WAT    EPW18444   6.860   2.946   5.179
 4435WAT      O18445   5.039   1.922   5.434
 4435WAT     H118446   5.083   1.881   5.497
 4435WAT     H218447   5.065   1.883   5.361
 4435WAT    EPW18448   5.049   1.911   5.433
 4436WAT      O18449   6.592   2.211   6.126
 4436WAT     H118450   6.594   2.142   6.178
 4436WAT     H218451   6.514   2.247   6.142
 4436WAT    EPW18452   6.581   2.206   6.136
 4437WAT      O18453   5.570   2.088   4.955
 4437WAT     H118454   5.520   2.156   4.977
 4437WAT     H218455   5.525   2.050   4.891
 4437WAT    EPW18456   5.556   2.092   4.949
 4438WAT      O18457   5.226   2.352   6.530
 4438WAT     H118458   5.188   2.304   6.468
 4438WAT     H218459   5.203   2.433   6.510
 4438WAT    EPW18460   5.217   2.357   6.518
 4439WAT      O18461   6.696   2.217   5.862
 4439WAT     H118462   6.665   2.222   5.943
 4439WAT     H218463   6.783   2.213   5.874
 4439WAT    EPW18464   6.705   2.217   5.876
 4440WAT      O18465   5.683   1.913   5.207
 4440WAT     H118466   5.706   1.991   5.238
 4440WAT     H218467   5.596   1.917   5.205
 4440WAT    EPW18468   5.673   1.925   5.211
 4441WAT      O18469   6.480   1.627   6.659
 4441WAT     H118470   6.409   1.630   6.710
 4441WAT     H218471   6.507   1.545   6.665
 4441WAT    EPW18472   6.473   1.615   6.667
 4442WAT      O18473   5.062   1.557   5.909
 4442WAT     H118474   5.045   1.582   5.827
 4442WAT     H218475   5.137   1.598   5.927
 4442WAT    EPW18476   5.071   1.567   5.899
 4443WAT      O18477   6.836   2.736   5.946
 4443WAT     H118478   6.878   2.780   5.883
 4443WAT     H218479   6.897   2.726   6.008
 4443WAT    EPW18480   6.852   2.741   5.946
 4444WAT      O18481   6.343   1.965   6.740
 4444WAT     H118482   6.371   1.986   6.820
 4444WAT     H218483   6.263   1.999   6.738
 4444WAT    EPW18484   6.335   1.973   6.752
 4445WAT      O18485   6.578   2.017   6.597
 4445WAT     H118486   6.595   2.099   6.621
 4445WAT     H218487   6.504   1.998   6.639
 4445WAT    EPW18488   6.570   2.026   6.607
 4446WAT      O18489   6.546   2.628   5.173
 4446WAT     H118490   6.578   2.548   5.182
 4446WAT     H218491   6.468   2.623   5.212
 4446WAT    EPW18492   6.539   2.616   5.180
 4447WAT      O18493   6.605   1.777   5.660
 4447WAT     H118494   6.538   1.731   5.691
 4447WAT     H218495   6.595   1.855   5.698
 4447WAT    EPW18496   6.593   1.782   5.670
 4448WAT      O18497   6.882   2.101   6.779
 4448WAT     H118498   6.888   2.046   6.712
 4448WAT     H218499   6.961   2.137   6.785
 4448WAT    EPW18500   6.894   2.098   6.770
 4449WAT      O18501   6.742   2.351   6.412
 4449WAT     H118502   6.809   2.303   6.383
 4449WAT     H218503   6.731   2.411   6.350
 4449WAT    EPW18504   6.750   2.353   6.399
 4450WAT      O18505   6.222   2.455   5.078
 4450WAT     H118506   6.295   2.409   5.069
 4450WAT     H218507   6.191   2.460   4.996
 4450WAT    EPW18508   6.228   2.449   5.065
 4451WAT      O18509   5.702   2.555   6.150
 4451WAT     H118510   5.697   2.597   6.227
 4451WAT     H218511   5.701   2.619   6.091
 4451WAT    EPW18512   5.701   2.571   6.153
 4452WAT      O18513   5.497   2.407   6.495
 4452WAT     H118514   5.416   2.377   6.508
 4452WAT     H218515   5.486   2.494   6.488
 4452WAT    EPW18516   5.484   2.416   6.496
 4453WAT      O18517   6.440   1.480   6.324
 4453WAT     H118518   6.498   1.543   6.338
 4453WAT     H218519   6.365   1.523   6.316
 4453WAT    EPW18520   6.437   1.495   6.325
 4454WAT      O18521   5.995   2.201   6.074
 4454WAT     H118522   6.045   2.230   6.139
 4454WAT     H218523   5.914   2.212   6.103
 4454WAT    EPW18524   5.991   2.207   6.088
 4455WAT      O18525   5.654   1.766   6.477
 4455WAT     H118526   5.669   1.683   6.501
 4455WAT     H218527   5.683   1.769   6.395
 4455WAT    EPW18528   5.660   1.754   6.468
 4456WAT      O18529   5.895   2.981   5.668
 4456WAT     H118530   5.895   3.068   5.680
 4456WAT     H218531   5.913   2.971   5.584
 4456WAT    EPW18532   5.898   2.992   5.658
 4457WAT      O18533   6.514   1.283   6.138
 4457WAT     H118534   6.484   1.354   6.178
 4457WAT     H218535   6.597   1.279   6.164
 4457WAT    EPW18536   6.522   1.293   6.148
 4458WAT      O18537   5.787   1.373   6.343
 4458WAT     H118538   5.871   1.397   6.340
 4458WAT     H218539   5.787   1.291   6.316
 4458WAT    EPW18540   5.799   1.365   6.339
 4459WAT      O18541   5.718   2.784   5.989
 4459WAT     H118542   5.666   2.828   5.935
 4459WAT     H218543   5.767   2.735   5.934
 4459WAT    EPW18544   5.718   2.783   5.973
 4460WAT      O18545   6.126   2.409   6.715
 4460WAT     H118546   6.207   2.411   6.684
 4460WAT     H218547   6.077   2.427   6.646
 4460WAT    EPW18548   6.131   2.412   6.701
 4461WAT      O18549   6.469   2.676   6.574
 4461WAT     H118550   6.503   2.706   6.648
 4461WAT     H218551   6.515   2.718   6.512
 4461WAT    EPW18552   6.481   2.687   6.576
 4462WAT      O18553   6.730   1.946   5.061
 4462WAT     H118554   6.776   2.002   5.012
 4462WAT     H218555   6.649   1.979   5.061
 4462WAT    EPW18556   6.725   1.959   5.054
 4463WAT      O18557   5.816   2.208   5.012
 4463WAT     H118558   5.745   2.164   4.987
 4463WAT     H218559   5.793   2.291   5.002
 4463WAT    EPW18560   5.802   2.214   5.007
 4464WAT      O18561   5.516   1.861   6.025
 4464WAT     H118562   5.547   1.833   5.949
 4464WAT     H218563   5.577   1.835   6.083
 4464WAT    EPW18564   5.530   1.853   6.023
 4465WAT      O18565   6.211   1.816   6.534
 4465WAT     H118566   6.143   1.859   6.568
 4465WAT     H218567   6.270   1.816   6.599
 4465WAT    EPW18568   6.210   1.822   6.549
 4466WAT      O18569   6.269   1.887   6.175
 4466WAT     H118570   6.274   1.942   6.242
 4466WAT     H218571   6.252   1.810   6.213
 4466WAT    EPW18572   6.267   1.883   6.191
 4467WAT      O18573   5.986   2.966   6.575
 4467WAT     H118574   5.995   2.968   6.488
 4467WAT     H218575   5.947   2.890   6.590
 4467WAT    EPW18576   5.981   2.955   6.564
 4468WAT      O18577   6.472   1.814   5.417
 4468WAT     H118578   6.502   1.798   5.497
 4468WAT     H218579   6.542   1.843   5.374
 4468WAT    EPW18580   6.487   1.816   5.423
 4469WAT      O18581   5.784   1.327   5.989
 4469WAT     H118582   5.702   1.323   6.019
 4469WAT     H218583   5.774   1.330   5.902
 4469WAT    EPW18584   5.770   1.327   5.980
 4470WAT      O18585   6.636   1.417   5.587
 4470WAT     H118586   6.557   1.383   5.605
 4470WAT     H218587   6.632   1.435   5.502
 4470WAT    EPW18588   6.624   1.415   5.577
 4471WAT      O18589   6.615   2.216   5.406
 4471WAT     H118590   6.655   2.140   5.394
 4471WAT     H218591   6.531   2.197   5.396
 4471WAT    EPW18592   6.609   2.202   5.403
 4472WAT      O18593   5.964   2.441   6.487
 4472WAT     H118594   5.888   2.442   6.530
 4472WAT     H218595   5.967   2.520   6.450
 4472WAT    EPW18596   5.953   2.453   6.488
 4473WAT      O18597   5.007   1.426   6.671
 4473WAT     H118598   5.009   1.498   6.621
 4473WAT     H218599   4.923   1.405   6.674
 4473WAT    EPW18600   4.995   1.434   6.664
 4474WAT      O18601   5.533   3.088   6.073
 4474WAT     H118602   5.545   3.061   6.156
 4474WAT     H218603   5.504   3.017   6.033
 4474WAT    EPW18604   5.530   3.074   6.080
 4475WAT      O18605   5.370   1.653   5.337
 4475WAT     H118606   5.382   1.615   5.260
 4475WAT     H218607   5.290   1.629   5.360
 4475WAT    EPW18608   5.360   1.644   5.329
 4476WAT      O18609   6.290   2.411   5.686
 4476WAT     H118610   6.273   2.421   5.771
 4476WAT     H218611   6.313   2.327   5.680
 4476WAT    EPW18612   6.291   2.400   5.697
 4477WAT      O18613   6.040   2.329   5.584
 4477WAT     H118614   5.997   2.326   5.660
 4477WAT     H218615   6.118   2.361   5.607
 4477WAT    EPW18616   6.045   2.334   5.599
 4478WAT      O18617   6.002   2.709   6.366
 4478WAT     H118618   6.062   2.704   6.430
 4478WAT     H218619   6.018   2.786   6.329
 4478WAT    EPW18620   6.013   2.720   6.370
 4479WAT      O18621   6.841   1.926   6.567
 4479WAT     H118622   6.756   1.940   6.575
 4479WAT     H218623   6.857   1.940   6.482
 4479WAT    EPW18624   6.831   1.930   6.556
 4480WAT      O18625   6.272   2.057   6.395
 4480WAT     H118626   6.262   1.992   6.452
 4480WAT     H218627   6.347   2.095   6.419
 4480WAT    EPW18628   6.282   2.053   6.407
 4481WAT      O18629   5.190   3.035   6.604
 4481WAT     H118630   5.132   2.970   6.595
 4481WAT     H218631   5.142   3.100   6.638
 4481WAT    EPW18632   5.174   3.035   6.608
 4482WAT      O18633   6.040   2.185   6.861
 4482WAT     H118634   6.065   2.258   6.819
 4482WAT     H218635   5.958   2.203   6.885
 4482WAT    EPW18636   6.031   2.199   6.858
 4483WAT      O18637   6.367   3.061   5.892
 4483WAT     H118638   6.306   3.121   5.914
 4483WAT     H218639   6.429   3.074   5.952
 4483WAT    EPW18640   6.367   3.072   5.904
 4484WAT      O18641   6.026   2.561   6.109
 4484WAT     H118642   5.940   2.553   6.100
 4484WAT     H218643   6.036   2.598   6.187
 4484WAT    EPW18644   6.015   2.566   6.119
 4485WAT      O18645   6.595   2.756   6.810
 4485WAT     H118646   6.675   2.721   6.808
 4485WAT     H218647   6.558   2.719   6.881
 4485WAT    EPW18648   6.601   2.745   6.820
 4486WAT      O18649   5.397   1.866   6.432
 4486WAT     H118650   5.412   1.930   6.373
 4486WAT     H218651   5.475   1.831   6.445
 4486WAT    EPW18652   5.411   1.871   6.425
 4487WAT      O18653   5.195   1.720   6.311
 4487WAT     H118654   5.212   1.727   6.226
 4487WAT     H218655   5.262   1.763   6.348
 4487WAT    EPW18656   5.208   1.728   6.304
 4488WAT      O18657   6.701   1.960   5.338
 4488WAT     H118658   6.719   1.960   5.253
 4488WAT     H218659   6.776   1.935   5.375
 4488WAT    EPW18660   6.715   1.956   5.331
 4489WAT      O18661   5.434   1.397   6.559
 4489WAT     H118662   5.449   1.315   6.532
 4489WAT     H218663   5.403   1.436   6.487
 4489WAT    EPW18664   5.432   1.391   6.544
 4490WAT      O18665   6.126   2.697   5.506
 4490WAT     H118666   6.103   2.776   5.478
 4490WAT     H218667   6.058   2.646   5.483
 4490WAT    EPW18668   6.112   2.701   5.498
 4491WAT      O18669   6.590   1.983   6.315
 4491WAT     H118670   6.587   1.895   6.317
 4491WAT     H218671   6.582   2.006   6.398
 4491WAT    EPW18672   6.588   1.973   6.327
 4492WAT      O18673   5.097   2.216   6.325
 4492WAT     H118674   5.150   2.235   6.258
 4492WAT     H218675   5.080   2.131   6.314
 4492WAT    EPW18676   5.103   2.206   6.313
 4493WAT      O18677   5.262   1.820   4.984
 4493WAT     H118678   5.192   1.825   5.035
 4493WAT     H218679   5.257   1.739   4.951
 4493WAT    EPW18680   5.251   1.809   4.986
 4494WAT      O18681   6.135   1.442   6.653
 4494WAT     H118682   6.166   1.506   6.704
 4494WAT     H218683   6.057   1.425   6.689
 4494WAT    EPW18684   6.128   1.449   6.666
 4495WAT      O18685   6.119   1.540   5.740
 4495WAT     H118686   6.040   1.577   5.733
 4495WAT     H218687   6.120   1.482   5.674
 4495WAT    EPW18688   6.108   1.537   5.729
 4496WAT      O18689   5.606   2.671   5.105
 4496WAT     H118690   5.638   2.656   5.185
 4496WAT     H218691   5.523   2.646   5.111
 4496WAT    EPW18692   5.599   2.665   5.118
 4497WAT      O18693   6.456   1.590   5.996
 4497WAT     H118694   6.534   1.557   6.014
 4497WAT     H218695   6.464   1.675   6.016
 4497WAT    EPW18696   6.469   1.598   6.002
 4498WAT      O18697   5.634   2.174   6.413
 4498WAT     H118698   5.592   2.246   6.441
 4498WAT     H218699   5.576   2.135   6.361
 4498WAT    EPW18700   5.619   2.179   6.410
 4499WAT      O18701   6.530   2.014   5.784
 4499WAT     H118702   6.587   2.077   5.805
 4499WAT     H218703   6.471   2.056   5.736
 4499WAT    EPW18704   6.530   2.030   5.780
 4500WAT      O18705   6.543   2.851   5.553
 4500WAT     H118706   6.530   2.775   5.594
 4500WAT     H218707   6.580   2.828   5.478
 4500WAT    EPW18708   6.547   2.836   5.548
 4501WAT      O18709   5.671   2.445   4.952
 4501WAT     H118710   5.593   2.407   4.954
 4501WAT     H218711   5.662   2.516   5.000
 4501WAT    EPW18712   5.658   2.450   4.959
 4502WAT      O18713   5.596   1.537   6.215
 4502WAT     H118714   5.516   1.512   6.241
 4502WAT     H218715   5.648   1.475   6.247
 4502WAT    EPW18716   5.592   1.524   6.224
 4503WAT      O18717   6.756   1.339   6.273
 4503WAT     H118718   6.726   1.342   6.355
 4503WAT     H218719   6.838   1.310   6.283
 4503WAT    EPW18720   6.764   1.336   6.287
 4504WAT      O18721   5.970   1.516   6.084
 4504WAT     H118722   5.913   1.456   6.057
 4504WAT     H218723   6.047   1.482   6.065
 4504WAT    EPW18724   5.973   1.502   6.077
 4505WAT      O18725   6.330   2.650   6.203
 4505WAT     H118726   6.345   2.726   6.244
 4505WAT     H218727   6.301   2.675   6.125
 4505WAT    EPW18728   6.328   2.665   6.198
 4506WAT      O18729   6.264   3.029   6.620
 4506WAT     H118730   6.192   2.990   6.589
 4506WAT     H218731   6.237   3.110   6.638
 4506WAT    EPW18732   6.249   3.035   6.618
 4507WAT      O18733   5.762   1.991   6.600
 4507WAT     H118734   5.730   1.919   6.563
 4507WAT     H218735   5.729   2.055   6.552
 4507WAT    EPW18736   5.753   1.990   6.588
 4508WAT      O18737   5.824   1.311   5.082
 4508WAT     H118738   5.835   1.328   4.997
 4508WAT     H218739   5.739   1.321   5.094
 4508WAT    EPW18740   5.813   1.315   5.071
 4509WAT      O18741   6.714   2.469   6.152
 4509WAT     H118742   6.690   2.386   6.139
 4509WAT     H218743   6.661   2.513   6.099
 4509WAT    EPW18744   6.702   2.463   6.142
 4510WAT      O18745   5.628   2.935   6.597
 4510WAT     H118746   5.610   2.950   6.681
 4510WAT     H218747   5.692   2.876   6.600
 4510WAT    EPW18748   5.635   2.929   6.610
 4511WAT      O18749   6.619   2.789   6.125
 4511WAT     H118750   6.687   2.787   6.070
 4511WAT     H218751   6.562   2.733   6.088
 4511WAT    EPW18752   6.621   2.780   6.111
 4512WAT      O18753   5.339   1.482   6.317
 4512WAT     H118754   5.286   1.414   6.303
 4512WAT     H218755   5.287   1.551   6.309
 4512WAT    EPW18756   5.324   1.482   6.313
 4513WAT      O18757   6.217   1.435   5.978
 4513WAT     H118758   6.285   1.486   5.997
 4513WAT     H218759   6.186   1.469   5.904
 4513WAT    EPW18760   6.222   1.448   5.969
 4514WAT      O18761   5.345   2.832   6.731
 4514WAT     H118762   5.414   2.869   6.770
 4514WAT     H218763   5.305   2.899   6.693
 4514WAT    EPW18764   5.350   2.847   6.731
 4515WAT      O18765   6.198   1.911   5.723
 4515WAT     H118766   6.254   1.846   5.736
 4515WAT     H218767   6.164   1.926   5.802
 4515WAT    EPW18768   6.201   1.904   5.736
 4516WAT      O18769   5.192   1.828   5.657
 4516WAT     H118770   5.153   1.854   5.730
 4516WAT     H218771   5.229   1.752   5.679
 4516WAT    EPW18772   5.192   1.820   5.671
 4517WAT      O18773   5.186   2.616   6.448
 4517WAT     H118774   5.139   2.676   6.490
 4517WAT     H218775   5.268   2.644   6.456
 4517WAT    EPW18776   5.191   2.629   6.455
 4518WAT      O18777   6.371   2.069   5.357
 4518WAT     H118778   6.388   1.986   5.377
 4518WAT     H218779   6.296   2.063   5.312
 4518WAT    EPW18780   6.362   2.056   5.354
 4519WAT      O18781   5.372   2.944   5.299
 4519WAT     H118782   5.335   2.902   5.231
 4519WAT     H218783   5.447   2.902   5.311
 4519WAT    EPW18784   5.377   2.932   5.291
 4520WAT      O18785   5.762   2.169   5.283
 4520WAT     H118786   5.788   2.192   5.202
 4520WAT     H218787   5.837   2.158   5.326
 4520WAT    EPW18788   5.777   2.171   5.277
 4521WAT      O18789   6.645   3.004   5.004
 4521WAT     H118790   6.715   2.996   5.055
 4521WAT     H218791   6.627   2.922   4.981
 4521WAT    EPW18792   6.653   2.991   5.008
 4522WAT      O18793   6.679   2.265   6.679
 4522WAT     H118794   6.750   2.227   6.713
 4522WAT     H218795   6.710   2.305   6.608
 4522WAT    EPW18796   6.694   2.265   6.673
 4523WAT      O18797   6.297   2.639   5.287
 4523WAT     H118798   6.250   2.637   5.361
 4523WAT     H218799   6.253   2.584   5.234
 4523WAT    EPW18800   6.283   2.631   5.290
 4524WAT      O18801   6.710   1.719   6.780
 4524WAT     H118802   6.699   1.797   6.816
 4524WAT     H218803   6.632   1.702   6.743
 4524WAT    EPW18804   6.697   1.728   6.780
 4525WAT      O18805   6.763   1.824   6.085
 4525WAT     H118806   6.681   1.848   6.070
 4525WAT     H218807   6.759   1.737   6.090
 4525WAT    EPW18808   6.750   1.815   6.083
 4526WAT      O18809   5.691   1.495   6.575
 4526WAT     H118810   5.725   1.461   6.502
 4526WAT     H218811   5.610   1.465   6.576
 4526WAT    EPW18812   5.684   1.486   6.564
 4527WAT      O18813   6.447   2.323   6.903
 4527WAT     H118814   6.525   2.349   6.932
 4527WAT     H218815   6.448   2.346   6.819
 4527WAT    EPW18816   6.458   2.330   6.895
 4528WAT      O18817   5.385   2.867   5.977
 4528WAT     H118818   5.372   2.786   5.949
 4528WAT     H218819   5.347   2.916   5.915
 4528WAT    EPW18820   5.378   2.862   5.964
 4529WAT      O18821   5.955   2.471   5.154
 4529WAT     H118822   6.038   2.451   5.134
 4529WAT     H218823   5.940   2.544   5.110
 4529WAT    EPW18824   5.965   2.479   5.145
 4530WAT      O18825   5.172   3.113   6.334
 4530WAT     H118826   5.175   3.086   6.417
 4530WAT     H218827   5.198   3.043   6.289
 4530WAT    EPW18828   5.176   3.099   6.340
 4531WAT      O18829   6.124   1.326   3.641
 4531WAT     H118830   6.117   1.366   3.564
 4531WAT     H218831   6.210   1.316   3.651
 4531WAT    EPW18832   6.135   1.330   3.631
 4532WAT      O18833   6.076   1.966   4.086
 4532WAT     H118834   6.040   2.041   4.112
 4532WAT     H218835   6.132   1.947   4.149
 4532WAT    EPW18836   6.079   1.974   4.099
 4533WAT      O18837   6.694   2.785   3.416
 4533WAT     H118838   6.762   2.732   3.432
 4533WAT     H218839   6.644   2.738   3.363
 4533WAT    EPW18840   6.697   2.770   3.411
 4534WAT      O18841   5.079   1.839   3.216
 4534WAT     H118842   5.007   1.884   3.199
 4534WAT     H218843   5.057   1.756   3.198
 4534WAT    EPW18844   5.065   1.833   3.211
 4535WAT      O18845   5.414   2.264   3.139
 4535WAT     H118846   5.350   2.260   3.079
 4535WAT     H218847   5.373   2.247   3.214
 4535WAT    EPW18848   5.398   2.261   3.141
 4536WAT      O18849   6.335   2.133   3.726
 4536WAT     H118850   6.340   2.116   3.641
 4536WAT     H218851   6.280   2.072   3.756
 4536WAT    EPW18852   6.328   2.121   3.718
 4537WAT      O18853   5.342   2.474   3.410
 4537WAT     H118854   5.356   2.475   3.496
 4537WAT     H218855   5.255   2.478   3.404
 4537WAT    EPW18856   5.331   2.475   3.422
 4538WAT      O18857   5.765   1.448   3.500
 4538WAT     H118858   5.758   1.528   3.467
 4538WAT     H218859   5.845   1.423   3.474
 4538WAT    EPW18860   5.776   1.456   3.491
 4539WAT      O18861   4.876   2.888   4.131
 4539WAT     H118862   4.840   2.947   4.185
 4539WAT     H218863   4.868   2.925   4.053
 4539WAT    EPW18864   4.869   2.902   4.128
 4540WAT      O18865   5.728   2.505   4.689
 4540WAT     H118866   5.713   2.479   4.771
 4540WAT     H218867   5.650   2.496   4.650
 4540WAT    EPW18868   5.714   2.500   4.696
 4541WAT      O18869   5.268   2.193   3.749
 4541WAT     H118870   5.205   2.200   3.689
 4541WAT     H218871   5.321   2.132   3.715
 4541WAT    EPW18872   5.266   2.185   3.735
 4542WAT      O18873   5.670   1.787   4.288
 4542WAT     H118874   5.740   1.789   4.235
 4542WAT     H218875   5.647   1.703   4.287
 4542WAT    EPW18876   5.677   1.775   4.280
 4543WAT      O18877   5.717   2.814   4.488
 4543WAT     H118878   5.740   2.867   4.423
 4543WAT     H218879   5.793   2.779   4.514
 4543WAT    EPW18880   5.732   2.817   4.482
 4544WAT      O18881   5.433   1.968   3.682
 4544WAT     H118882   5.494   1.943   3.739
 4544WAT     H218883   5.362   1.924   3.708
 4544WAT    EPW18884   5.432   1.958   3.694
 4545WAT      O18885   5.838   2.624   3.916
 4545WAT     H118886   5.867   2.543   3.932
 4545WAT     H218887   5.912   2.669   3.902
 4545WAT    EPW18888   5.853   2.619   3.916
 4546WAT      O18889   5.870   2.524   3.545
 4546WAT     H118890   5.913   2.464   3.591
 4546WAT     H218891   5.896   2.508   3.463
 4546WAT    EPW18892   5.880   2.513   3.539
 4547WAT      O18893   6.007   2.007   4.700
 4547WAT     H118894   5.920   2.006   4.691
 4547WAT     H218895   6.019   2.058   4.770
 4547WAT    EPW18896   5.996   2.015   4.709
 4548WAT      O18897   5.509   1.510   3.646
 4548WAT     H118898   5.464   1.556   3.587
 4548WAT     H218899   5.588   1.504   3.611
 4548WAT    EPW18900   5.514   1.516   3.632
 4549WAT      O18901   6.477   1.241   4.570
 4549WAT     H118902   6.453   1.310   4.523
 4549WAT     H218903   6.406   1.220   4.615
 4549WAT    EPW18904   6.463   1.248   4.570
 4550WAT      O18905   5.809   1.409   3.778
 4550WAT     H118906   5.812   1.492   3.804
 4550WAT     H218907   5.795   1.414   3.692
 4550WAT    EPW18908   5.807   1.422   3.769
 4551WAT      O18909   6.236   1.630   3.053
 4551WAT     H118910   6.189   1.697   3.082
 4551WAT     H218911   6.246   1.579   3.123
 4551WAT    EPW18912   6.231   1.632   3.067
 4552WAT      O18913   5.084   1.969   4.010
 4552WAT     H118914   5.080   2.056   4.013
 4552WAT     H218915   5.012   1.944   4.051
 4552WAT    EPW18916   5.073   1.978   4.016
 4553WAT      O18917   5.655   2.710   3.537
 4553WAT     H118918   5.620   2.700   3.616
 4553WAT     H218919   5.725   2.658   3.540
 4553WAT    EPW18920   5.660   2.701   3.549
 4554WAT      O18921   6.280   2.929   3.325
 4554WAT     H118922   6.350   2.982   3.321
 4554WAT     H218923   6.313   2.854   3.353
 4554WAT    EPW18924   6.295   2.926   3.329
 4555WAT      O18925   6.070   2.935   3.502
 4555WAT     H118926   6.078   3.000   3.559
 4555WAT     H218927   6.140   2.943   3.451
 4555WAT    EPW18928   6.081   2.946   3.503
 4556WAT      O18929   5.388   1.455   4.069
 4556WAT     H118930   5.336   1.390   4.041
 4556WAT     H218931   5.446   1.413   4.119
 4556WAT    EPW18932   5.389   1.439   4.072
 4557WAT      O18933   5.678   1.621   4.953
 4557WAT     H118934   5.686   1.586   4.873
 4557WAT     H218935   5.713   1.701   4.944
 4557WAT    EPW18936   5.684   1.628   4.939
 4558WAT      O18937   6.824   1.600   3.764
 4558WAT     H118938   6.772   1.670   3.766
 4558WAT     H218939   6.769   1.533   3.752
 4558WAT    EPW18940   6.808   1.600   3.762
 4559WAT      O18941   6.285   2.933   4.316
 4559WAT     H118942   6.353   2.988   4.317
 4559WAT     H218943   6.275   2.916   4.231
 4559WAT    EPW18944   6.294   2.939   4.303
 4560WAT      O18945   5.250   1.552   4.885
 4560WAT     H118946   5.170   1.528   4.859
 4560WAT     H218947   5.302   1.521   4.823
 4560WAT    EPW18948   5.246   1.544   4.872
 4561WAT      O18949   5.291   2.567   3.914
 4561WAT     H118950   5.337   2.547   3.842
 4561WAT     H218951   5.339   2.534   3.979
 4561WAT    EPW18952   5.305   2.559   3.913
 4562WAT      O18953   5.618   2.956   3.916
 4562WAT     H118954   5.691   2.977   3.874
 4562WAT     H218955   5.569   3.027   3.910
 4562WAT    EPW18956   5.621   2.969   3.909
 4563WAT      O18957   5.871   1.362   4.816
 4563WAT     H118958   5.892   1.287   4.776
 4563WAT     H218959   5.807   1.395   4.767
 4563WAT    EPW18960   5.865   1.356   4.803
 4564WAT      O18961   5.971   1.874   3.676
 4564WAT     H118962   5.998   1.833   3.603
 4564WAT     H218963   6.045   1.885   3.721
 4564WAT    EPW18964   5.986   1.869   3.672
 4565WAT      O18965   6.070   1.833   3.169
 4565WAT     H118966   6.096   1.911   3.199
 4565WAT     H218967   5.996   1.851   3.127
 4565WAT    EPW18968   6.063   1.847   3.167
 4566WAT      O18969   6.469   3.131   3.272
 4566WAT     H118970   6.516   3.097   3.207
 4566WAT     H218971   6.530   3.170   3.322
 4566WAT    EPW18972   6.485   3.132   3.270
 4567WAT      O18973   6.720   1.546   4.183
 4567WAT     H118974   6.789   1.534   4.130
 4567WAT     H218975   6.732   1.486   4.245
 4567WAT    EPW18976   6.732   1.535   4.184
 4568WAT      O18977   4.962   1.670   4.579
 4568WAT     H118978   4.959   1.744   4.624
 4568WAT     H218979   5.025   1.684   4.521
 4568WAT    EPW18980   4.971   1.683   4.577
 4569WAT      O18981   6.193   2.725   4.711
 4569WAT     H118982   6.186   2.749   4.794
 4569WAT     H218983   6.279   2.713   4.700
 4569WAT    EPW18984   6.204   2.727   4.721
 4570WAT      O18985   5.963   2.724   3.125
 4570WAT     H118986   5.929   2.784   3.178
 4570WAT     H218987   6.044   2.754   3.109
 4570WAT    EPW18988   5.970   2.737   3.131
 4571WAT      O18989   6.268   1.464   3.274
 4571WAT     H118990   6.329   1.401   3.279
 4571WAT     H218991   6.283   1.513   3.344
 4571WAT    EPW18992   6.279   1.462   3.285
 4572WAT      O18993   5.103   1.571   3.542
 4572WAT     H118994   5.079   1.490   3.518
 4572WAT     H218995   5.051   1.588   3.610
 4572WAT    EPW18996   5.091   1.561   3.548
 4573WAT      O18997   5.095   2.768   4.254
 4573WAT     H118998   5.023   2.807   4.224
 4573WAT     H218999   5.149   2.767   4.185
 4573WAT    EPW19000   5.093   2.773   4.239
 4574WAT      O19001   6.023   1.748   3.431
 4574WAT     H119002   5.940   1.723   3.423
 4574WAT     H219003   6.044   1.774   3.350
 4574WAT    EPW19004   6.013   1.748   3.418
 4575WAT      O19005   6.049   3.007   4.434
 4575WAT     H119006   6.124   2.992   4.393
 4575WAT     H219007   5.990   3.004   4.371
 4575WAT    EPW19008   6.052   3.004   4.419
 4576WAT      O19009   6.019   1.394   3.379
 4576WAT     H119010   5.971   1.362   3.314
 4576WAT     H219011   6.093   1.419   3.340
 4576WAT    EPW19012   6.023   1.393   3.364
 4577WAT      O19013   6.738   3.002   3.720
 4577WAT     H119014   6.707   3.036   3.794
 4577WAT     H219015   6.675   2.947   3.695
 4577WAT    EPW19016   6.724   2.999   3.727
 4578WAT      O19017   5.850   1.682   3.840
 4578WAT     H119018   5.882   1.746   3.790
 4578WAT     H219019   5.860   1.712   3.921
 4578WAT    EPW19020   5.856   1.696   3.844
 4579WAT      O19021   6.503   2.579   3.756
 4579WAT     H119022   6.565   2.519   3.744
 4579WAT     H219023   6.429   2.534   3.747
 4579WAT    EPW19024   6.501   2.563   3.753
 4580WAT      O19025   5.436   2.770   4.561
 4580WAT     H119026   5.520   2.793   4.548
 4580WAT     H219027   5.423   2.789   4.645
 4580WAT    EPW19028   5.447   2.776   4.571
 4581WAT      O19029   5.471   1.253   3.751
 4581WAT     H119030   5.483   1.336   3.726
 4581WAT     H219031   5.462   1.211   3.675
 4581WAT    EPW19032   5.471   1.259   3.736
 4582WAT      O19033   5.644   2.314   4.032
 4582WAT     H119034   5.665   2.299   4.115
 4582WAT     H219035   5.586   2.251   4.014
 4582WAT    EPW19036   5.638   2.303   4.041
 4583WAT      O19037   6.212   1.655   4.424
 4583WAT     H119038   6.209   1.698   4.500
 4583WAT     H219039   6.147   1.597   4.432
 4583WAT    EPW19040   6.202   1.653   4.437
 4584WAT      O19041   5.732   2.319   4.296
 4584WAT     H119042   5.710   2.403   4.306
 4584WAT     H219043   5.701   2.281   4.368
 4584WAT    EPW19044   5.724   2.326   4.308
 4585WAT      O19045   6.355   2.371   4.295
 4585WAT     H119046   6.279   2.345   4.328
 4585WAT     H219047   6.350   2.458   4.298
 4585WAT    EPW19048   6.343   2.380   4.300
 4586WAT      O19049   6.391   1.264   3.710
 4586WAT     H119050   6.387   1.250   3.796
 4586WAT     H219051   6.422   1.189   3.678
 4586WAT    EPW19052   6.395   1.251   3.718
 4587WAT      O19053   4.989   2.715   4.907
 4587WAT     H119054   5.052   2.754   4.952
 4587WAT     H219055   4.979   2.639   4.948
 4587WAT    EPW19056   4.997   2.709   4.920
 4588WAT      O19057   6.593   1.699   4.517
 4588WAT     H119058   6.676   1.680   4.538
 4588WAT     H219059   6.551   1.693   4.594
 4588WAT    EPW19060   6.599   1.695   4.532
 4589WAT      O19061   5.383   1.637   3.863
 4589WAT     H119062   5.413   1.586   3.799
 4589WAT     H219063   5.381   1.585   3.933
 4589WAT    EPW19064   5.387   1.622   3.864
 4590WAT      O19065   6.660   2.384   3.274
 4590WAT     H119066   6.659   2.336   3.347
 4590WAT     H219067   6.745   2.394   3.257
 4590WAT    EPW19068   6.672   2.378   3.282
 4591WAT      O19069   5.391   2.436   3.681
 4591WAT     H119070   5.474   2.416   3.663
 4591WAT     H219071   5.357   2.360   3.708
 4591WAT    EPW19072   5.399   2.422   3.682
 4592WAT      O19073   5.139   2.990   3.867
 4592WAT     H119074   5.055   2.968   3.864
 4592WAT     H219075   5.149   3.044   3.799
 4592WAT    EPW19076   5.128   2.995   3.856
 4593WAT      O19077   5.224   1.764   4.135
 4593WAT     H119078   5.308   1.784   4.126
 4593WAT     H219079   5.183   1.835   4.106
 4593WAT    EPW19080   5.230   1.777   4.129
 4594WAT      O19081   6.867   2.807   4.668
 4594WAT     H119082   6.788   2.823   4.633
 4594WAT     H219083   6.849   2.758   4.738
 4594WAT    EPW19084   6.853   2.802   4.673
 4595WAT      O19085   6.464   2.058   3.180
 4595WAT     H119086   6.456   2.140   3.152
 4595WAT     H219087   6.435   2.061   3.262
 4595WAT    EPW19088   6.459   2.070   3.188
 4596WAT      O19089   5.637   2.359   3.573
 4596WAT     H119090   5.703   2.415   3.566
 4596WAT     H219091   5.660   2.292   3.523
 4596WAT    EPW19092   5.650   2.357   3.565
 4597WAT      O19093   6.798   1.528   3.171
 4597WAT     H119094   6.837   1.469   3.121
 4597WAT     H219095   6.761   1.583   3.114
 4597WAT    EPW19096   6.798   1.528   3.156
 4598WAT      O19097   5.014   2.516   3.919
 4598WAT     H119098   4.977   2.541   3.844
 4598WAT     H219099   5.098   2.539   3.909
 4598WAT    EPW19100   5.021   2.523   3.906
 4599WAT      O19101   5.800   1.873   4.952
 4599WAT     H119102   5.755   1.904   5.020
 4599WAT     H219103   5.772   1.922   4.885
 4599WAT    EPW19104   5.789   1.885   4.952
 4600WAT      O19105   6.901   1.946   4.405
 4600WAT     H119106   6.954   1.877   4.405
 4600WAT     H219107   6.838   1.923   4.348
 4600WAT    EPW19108   6.899   1.932   4.396
 4601WAT      O19109   5.086   2.235   3.529
 4601WAT     H119110   5.019   2.183   3.510
 4601WAT     H219111   5.059   2.314   3.502
 4601WAT    EPW19112   5.072   2.239   3.522
 4602WAT      O19113   6.677   1.425   3.405
 4602WAT     H119114   6.749   1.382   3.427
 4602WAT     H219115   6.701   1.470   3.334
 4602WAT    EPW19116   6.691   1.425   3.398
 4603WAT      O19117   6.050   2.795   3.860
 4603WAT     H119118   5.999   2.862   3.836
 4603WAT     H219119   6.075   2.760   3.784
 4603WAT    EPW19120   6.046   2.800   3.845
 4604WAT      O19121   5.444   2.476   4.133
 4604WAT     H119122   5.490   2.522   4.191
 4604WAT     H219123   5.504   2.430   4.091
 4604WAT    EPW19124   5.460   2.476   4.135
 4605WAT      O19125   6.348   1.685   3.851
 4605WAT     H119126   6.378   1.649   3.924
 4605WAT     H219127   6.282   1.632   3.828
 4605WAT    EPW19128   6.342   1.672   3.858
 4606WAT      O19129   5.061   2.501   3.389
 4606WAT     H119130   5.074   2.583   3.360
 4606WAT     H219131   4.984   2.506   3.431
 4606WAT    EPW19132   5.052   2.514   3.391
 4607WAT      O19133   5.116   2.253   3.994
 4607WAT     H119134   5.162   2.246   3.920
 4607WAT     H219135   5.068   2.325   3.981
 4607WAT    EPW19136   5.116   2.263   3.981
 4608WAT      O19137   5.746   1.697   3.387
 4608WAT     H119138   5.733   1.686   3.302
 4608WAT     H219139   5.695   1.765   3.408
 4608WAT    EPW19140   5.737   1.706   3.378
 4609WAT      O19141   6.616   2.860   4.533
 4609WAT     H119142   6.568   2.929   4.555
 4609WAT     H219143   6.614   2.861   4.445
 4609WAT    EPW19144   6.608   2.870   4.523
 4610WAT      O19145   5.587   2.697   3.803
 4610WAT     H119146   5.580   2.776   3.839
 4610WAT     H219147   5.660   2.664   3.838
 4610WAT    EPW19148   5.597   2.704   3.813
 4611WAT      O19149   5.357   1.997   4.783
 4611WAT     H119150   5.323   1.942   4.841
 4611WAT     H219151   5.354   1.953   4.708
 4611WAT    EPW19152   5.352   1.982   4.780
 4612WAT      O19153   5.439   2.137   3.991
 4612WAT     H119154   5.375   2.137   3.931
 4612WAT     H219155   5.438   2.056   4.022
 4612WAT    EPW19156   5.429   2.125   3.986
 4613WAT      O19157   5.421   2.076   4.340
 4613WAT     H119158   5.446   2.033   4.269
 4613WAT     H219159   5.367   2.138   4.310
 4613WAT    EPW19160   5.417   2.079   4.325
 4614WAT      O19161   6.489   1.863   4.126
 4614WAT     H119162   6.421   1.888   4.174
 4614WAT     H219163   6.484   1.915   4.056
 4614WAT    EPW19164   6.478   1.875   4.123
 4615WAT      O19165   5.824   2.978   4.276
 4615WAT     H119166   5.804   2.915   4.219
 4615WAT     H219167   5.802   3.051   4.234
 4615WAT    EPW19168   5.818   2.980   4.261
 4616WAT      O19169   6.053   1.426   4.493
 4616WAT     H119170   6.074   1.344   4.475
 4616WAT     H219171   6.079   1.436   4.576
 4616WAT    EPW19172   6.060   1.416   4.503
 4617WAT      O19173   6.271   1.623   3.496
 4617WAT     H119174   6.331   1.687   3.502
 4617WAT     H219175   6.196   1.667   3.485
 4617WAT    EPW19176   6.269   1.639   3.495
 4618WAT      O19177   5.225   2.243   4.780
 4618WAT     H119178   5.225   2.275   4.699
 4618WAT     H219179   5.268   2.167   4.772
 4618WAT    EPW19180   5.232   2.236   4.767
 4619WAT      O19181   6.401   2.419   4.752
 4619WAT     H119182   6.427   2.499   4.729
 4619WAT     H219183   6.429   2.369   4.686
 4619WAT    EPW19184   6.409   2.423   4.739
 4620WAT      O19185   5.828   2.755   4.775
 4620WAT     H119186   5.854   2.739   4.857
 4620WAT     H219187   5.797   2.678   4.748
 4620WAT    EPW19188   5.827   2.741   4.783
 4621WAT      O19189   5.877   1.772   4.099
 4621WAT     H119190   5.941   1.831   4.101
 4621WAT     H219191   5.914   1.700   4.132
 4621WAT    EPW19192   5.892   1.770   4.104
 4622WAT      O19193   6.138   2.069   3.304
 4622WAT     H119194   6.121   2.127   3.240
 4622WAT     H219195   6.079   2.088   3.365
 4622WAT    EPW19196   6.127   2.080   3.303
 4623WAT      O19197   6.687   2.373   3.733
 4623WAT     H119198   6.685   2.321   3.803
 4623WAT     H219199   6.666   2.319   3.667
 4623WAT    EPW19200   6.684   2.357   3.733
 4624WAT      O19201   6.255   2.818   4.054
 4624WAT     H119202   6.187   2.808   4.001
 4624WAT     H219203   6.307   2.873   4.011
 4624WAT    EPW19204   6.253   2.825   4.040
 4625WAT      O19205   6.251   2.432   4.040
 4625WAT     H119206   6.177   2.469   4.069
 4625WAT     H219207   6.281   2.388   4.109
 4625WAT    EPW19208   6.245   2.431   4.054
 4626WAT      O19209   5.732   2.978   3.527
 4626WAT     H119210   5.693   2.902   3.542
 4626WAT     H219211   5.775   2.965   3.452
 4626WAT    EPW19212   5.733   2.965   3.518
 4627WAT      O19213   5.585   1.306   3.326
 4627WAT     H119214   5.637   1.342   3.386
 4627WAT     H219215   5.540   1.373   3.295
 4627WAT    EPW19216   5.586   1.321   3.330
 4628WAT      O19217   5.884   2.921   3.301
 4628WAT     H119218   5.947   2.923   3.362
 4628WAT     H219219   5.881   3.003   3.272
 4628WAT    EPW19220   5.893   2.934   3.306
 4629WAT      O19221   6.475   2.274   4.527
 4629WAT     H119222   6.441   2.313   4.456
 4629WAT     H219223   6.561   2.291   4.520
 4629WAT    EPW19224   6.483   2.283   4.515
 4630WAT      O19225   6.183   2.850   4.968
 4630WAT     H119226   6.209   2.868   5.049
 4630WAT     H219227   6.204   2.921   4.923
 4630WAT    EPW19228   6.190   2.863   4.973
 4631WAT      O19229   6.602   1.373   4.781
 4631WAT     H119230   6.565   1.329   4.715
 4631WAT     H219231   6.600   1.316   4.847
 4631WAT    EPW19232   6.596   1.358   4.781
 4632WAT      O19233   5.319   2.183   3.392
 4632WAT     H119234   5.240   2.196   3.426
 4632WAT     H219235   5.364   2.254   3.414
 4632WAT    EPW19236   5.314   2.195   3.400
 4633WAT      O19237   6.121   2.282   4.406
 4633WAT     H119238   6.076   2.326   4.467
 4633WAT     H219239   6.150   2.212   4.449
 4633WAT    EPW19240   6.118   2.278   4.422
 4634WAT      O19241   5.015   1.310   3.472
 4634WAT     H119242   5.015   1.251   3.408
 4634WAT     H219243   4.970   1.271   3.536
 4634WAT    EPW19244   5.009   1.295   3.472
 4635WAT      O19245   5.977   2.114   3.530
 4635WAT     H119246   5.992   2.181   3.583
 4635WAT     H219247   5.969   2.046   3.584
 4635WAT    EPW19248   5.978   2.113   3.546
 4636WAT      O19249   6.503   2.566   4.039
 4636WAT     H119250   6.517   2.574   3.953
 4636WAT     H219251   6.422   2.534   4.043
 4636WAT    EPW19252   6.493   2.563   4.027
 4637WAT      O19253   5.462   1.534   3.233
 4637WAT     H119254   5.402   1.534   3.169
 4637WAT     H219255   5.528   1.579   3.198
 4637WAT    EPW19256   5.463   1.541   3.218
 4638WAT      O19257   5.904   2.350   3.943
 4638WAT     H119258   5.819   2.334   3.955
 4638WAT     H219259   5.942   2.315   4.013
 4638WAT    EPW19260   5.897   2.342   3.955
 4639WAT      O19261   5.520   2.896   3.125
 4639WAT     H119262   5.517   2.825   3.176
 4639WAT     H219263   5.539   2.960   3.181
 4639WAT    EPW19264   5.522   2.895   3.141
 4640WAT      O19265   5.264   2.290   4.246
 4640WAT     H119266   5.320   2.349   4.213
 4640WAT     H219267   5.212   2.272   4.179
 4640WAT    EPW19268   5.265   2.296   4.231
 4641WAT      O19269   5.590   1.817   3.864
 4641WAT     H119270   5.667   1.776   3.855
 4641WAT     H219271   5.532   1.752   3.861
 4641WAT    EPW19272   5.593   1.801   3.862
 4642WAT      O19273   6.847   2.971   3.286
 4642WAT     H119274   6.913   2.924   3.252
 4642WAT     H219275   6.800   2.911   3.327
 4642WAT    EPW19276   6.850   2.955   3.287
 4643WAT      O19277   5.106   1.858   3.529
 4643WAT     H119278   5.126   1.858   3.614
 4643WAT     H219279   5.087   1.774   3.513
 4643WAT    EPW19280   5.106   1.846   3.539
 4644WAT      O19281   6.592   2.209   4.229
 4644WAT     H119282   6.595   2.140   4.283
 4644WAT     H219283   6.512   2.242   4.243
 4644WAT    EPW19284   6.581   2.204   4.239
 4645WAT      O19285   5.602   2.081   3.051
 4645WAT     H119286   5.544   2.133   3.089
 4645WAT     H219287   5.557   2.047   2.984
 4645WAT    EPW19288   5.587   2.084   3.046
 4646WAT      O19289   5.226   2.370   4.520
 4646WAT     H119290   5.226   2.338   4.439
 4646WAT     H219291   5.172   2.439   4.514
 4646WAT    EPW19292   5.218   2.376   4.507
 4647WAT      O19293   6.699   2.209   3.967
 4647WAT     H119294   6.668   2.214   4.049
 4647WAT     H219295   6.785   2.206   3.977
 4647WAT    EPW19296   6.707   2.210   3.980
 4648WAT      O19297   5.580   1.919   3.445
 4648WAT     H119298   5.625   1.992   3.429
 4648WAT     H219299   5.546   1.933   3.524
 4648WAT    EPW19300   5.581   1.932   3.454
 4649WAT      O19301   6.486   1.633   4.775
 4649WAT     H119302   6.412   1.637   4.821
 4649WAT     H219303   6.510   1.549   4.780
 4649WAT    EPW19304   6.479   1.621   4.782
 4650WAT      O19305   5.042   1.572   3.992
 4650WAT     H119306   5.020   1.603   3.913
 4650WAT     H219307   5.111   1.621   4.015
 4650WAT    EPW19308   5.049   1.584   3.983
 4651WAT      O19309   6.844   2.722   4.010
 4651WAT     H119310   6.895   2.765   3.954
 4651WAT     H219311   6.892   2.716   4.082
 4651WAT    EPW19312   6.858   2.727   4.012
 4652WAT      O19313   6.324   1.990   4.862
 4652WAT     H119314   6.364   1.994   4.939
 4652WAT     H219315   6.252   2.037   4.874
 4652WAT    EPW19316   6.319   1.997   4.875
 4653WAT      O19317   6.557   2.025   4.702
 4653WAT     H119318   6.580   2.106   4.724
 4653WAT     H219319   6.484   2.011   4.748
 4653WAT    EPW19320   6.549   2.035   4.712
 4654WAT      O19321   6.534   2.630   3.261
 4654WAT     H119322   6.567   2.550   3.269
 4654WAT     H219323   6.461   2.627   3.309
 4654WAT    EPW19324   6.528   2.618   3.269
 4655WAT      O19325   6.598   1.775   3.763
 4655WAT     H119326   6.529   1.729   3.791
 4655WAT     H219327   6.589   1.852   3.803
 4655WAT    EPW19328   6.586   1.780   3.773
 4656WAT      O19329   6.874   2.102   4.885
 4656WAT     H119330   6.876   2.048   4.817
 4656WAT     H219331   6.954   2.138   4.886
 4656WAT    EPW19332   6.886   2.099   4.875
 4657WAT      O19333   6.741   2.361   4.508
 4657WAT     H119334   6.807   2.313   4.476
 4657WAT     H219335   6.728   2.421   4.446
 4657WAT    EPW19336   6.749   2.363   4.494
 4658WAT      O19337   6.227   2.472   3.205
 4658WAT     H119338   6.294   2.420   3.187
 4658WAT     H219339   6.197   2.494   3.126
 4658WAT    EPW19340   6.232   2.468   3.191
 4659WAT      O19341   5.650   2.592   4.298
 4659WAT     H119342   5.655   2.639   4.371
 4659WAT     H219343   5.674   2.648   4.235
 4659WAT    EPW19344   5.654   2.607   4.299
 4660WAT      O19345   5.476   2.483   4.564
 4660WAT     H119346   5.398   2.446   4.554
 4660WAT     H219347   5.459   2.569   4.560
 4660WAT    EPW19348   5.462   2.491   4.562
 4661WAT      O19349   6.434   1.484   4.426
 4661WAT     H119350   6.494   1.546   4.443
 4661WAT     H219351   6.359   1.528   4.421
 4661WAT    EPW19352   6.432   1.500   4.428
 4662WAT      O19353   5.970   2.211   4.185
 4662WAT     H119354   6.024   2.231   4.250
 4662WAT     H219355   5.891   2.230   4.217
 4662WAT    EPW19356   5.966   2.217   4.199
 4663WAT      O19357   5.624   1.771   4.565
 4663WAT     H119358   5.640   1.689   4.590
 4663WAT     H219359   5.651   1.773   4.482
 4663WAT    EPW19360   5.630   1.759   4.557
 4664WAT      O19361   5.861   2.997   3.779
 4664WAT     H119362   5.871   3.082   3.792
 4664WAT     H219363   5.830   2.992   3.697
 4664WAT    EPW19364   5.858   3.009   3.769
 4665WAT      O19365   6.504   1.288   4.235
 4665WAT     H119366   6.474   1.359   4.276
 4665WAT     H219367   6.587   1.283   4.261
 4665WAT    EPW19368   6.512   1.298   4.245
 4666WAT      O19369   5.779   1.369   4.448
 4666WAT     H119370   5.862   1.398   4.448
 4666WAT     H219371   5.785   1.292   4.407
 4666WAT    EPW19372   5.792   1.362   4.442
 4667WAT      O19373   5.725   2.782   4.111
 4667WAT     H119374   5.677   2.834   4.060
 4667WAT     H219375   5.767   2.731   4.054
 4667WAT    EPW19376   5.724   2.782   4.095
 4668WAT      O19377   6.135   2.403   4.815
 4668WAT     H119378   6.217   2.410   4.785
 4668WAT     H219379   6.086   2.429   4.747
 4668WAT    EPW19380   6.140   2.408   4.800
 4669WAT      O19381   6.469   2.683   4.694
 4669WAT     H119382   6.506   2.705   4.769
 4669WAT     H219383   6.513   2.731   4.635
 4669WAT    EPW19384   6.481   2.693   4.696
 4670WAT      O19385   6.715   1.942   3.159
 4670WAT     H119386   6.762   1.995   3.108
 4670WAT     H219387   6.636   1.980   3.159
 4670WAT    EPW19388   6.710   1.956   3.152
 4671WAT      O19389   5.804   2.241   3.156
 4671WAT     H119390   5.747   2.193   3.110
 4671WAT     H219391   5.767   2.320   3.158
 4671WAT    EPW19392   5.790   2.245   3.149
 4672WAT      O19393   5.484   1.886   4.113
 4672WAT     H119394   5.522   1.865   4.037
 4672WAT     H219395   5.539   1.855   4.173
 4672WAT    EPW19396   5.498   1.878   4.110
 4673WAT      O19397   6.213   1.835   4.644
 4673WAT     H119398   6.138   1.876   4.659
 4673WAT     H219399   6.258   1.848   4.718
 4673WAT    EPW19400   6.209   1.843   4.657
 4674WAT      O19401   6.259   1.893   4.279
 4674WAT     H119402   6.269   1.949   4.345
 4674WAT     H219403   6.243   1.817   4.318
 4674WAT    EPW19404   6.258   1.890   4.294
 4675WAT      O19405   5.979   2.980   4.705
 4675WAT     H119406   5.994   2.977   4.619
 4675WAT     H219407   5.938   2.904   4.721
 4675WAT    EPW19408   5.975   2.968   4.695
 4676WAT      O19409   6.473   1.827   3.520
 4676WAT     H119410   6.501   1.806   3.600
 4676WAT     H219411   6.545   1.856   3.480
 4676WAT    EPW19412   6.488   1.828   3.526
 4677WAT      O19413   5.794   1.340   4.063
 4677WAT     H119414   5.713   1.322   4.088
 4677WAT     H219415   5.788   1.345   3.976
 4677WAT    EPW19416   5.781   1.338   4.054
 4678WAT      O19417   6.626   1.415   3.683
 4678WAT     H119418   6.546   1.384   3.696
 4678WAT     H219419   6.627   1.436   3.598
 4678WAT    EPW19420   6.614   1.414   3.672
 4679WAT      O19421   6.617   2.221   3.501
 4679WAT     H119422   6.658   2.145   3.489
 4679WAT     H219423   6.533   2.201   3.492
 4679WAT    EPW19424   6.611   2.207   3.498
 4680WAT      O19425   5.982   2.457   4.580
 4680WAT     H119426   5.901   2.456   4.610
 4680WAT     H219427   5.993   2.539   4.553
 4680WAT    EPW19428   5.972   2.469   4.580
 4681WAT      O19429   5.014   1.454   4.751
 4681WAT     H119430   5.006   1.524   4.699
 4681WAT     H219431   4.932   1.431   4.768
 4681WAT    EPW19432   5.001   1.461   4.746
 4682WAT      O19433   5.382   3.002   4.210
 4682WAT     H119434   5.353   3.075   4.171
 4682WAT     H219435   5.366   2.940   4.151
 4682WAT    EPW19436   5.375   3.004   4.195
 4683WAT      O19437   5.358   1.651   3.461
 4683WAT     H119438   5.379   1.606   3.389
 4683WAT     H219439   5.279   1.619   3.482
 4683WAT    EPW19440   5.349   1.640   3.453
 4684WAT      O19441   6.280   2.402   3.765
 4684WAT     H119442   6.267   2.411   3.851
 4684WAT     H219443   6.304   2.319   3.756
 4684WAT    EPW19444   6.282   2.391   3.776
 4685WAT      O19445   6.017   2.340   3.690
 4685WAT     H119446   5.980   2.337   3.769
 4685WAT     H219447   6.099   2.367   3.706
 4685WAT    EPW19448   6.024   2.343   3.704
 4686WAT      O19449   6.005   2.731   4.508
 4686WAT     H119450   6.059   2.731   4.576
 4686WAT     H219451   6.028   2.801   4.463
 4686WAT    EPW19452   6.016   2.741   4.512
 4687WAT      O19453   6.822   1.930   4.672
 4687WAT     H119454   6.737   1.945   4.679
 4687WAT     H219455   6.839   1.944   4.588
 4687WAT    EPW19456   6.812   1.934   4.661
 4688WAT      O19457   6.276   2.067   4.495
 4688WAT     H119458   6.263   2.005   4.554
 4688WAT     H219459   6.349   2.107   4.522
 4688WAT    EPW19460   6.285   2.064   4.508
 4689WAT      O19461   5.197   3.054   4.671
 4689WAT     H119462   5.146   2.984   4.682
 4689WAT     H219463   5.142   3.121   4.678
 4689WAT    EPW19464   5.181   3.054   4.674
 4690WAT      O19465   6.075   2.158   4.929
 4690WAT     H119466   6.097   2.235   4.894
 4690WAT     H219467   5.992   2.171   4.955
 4690WAT    EPW19468   6.066   2.171   4.928
 4691WAT      O19469   6.428   3.024   3.966
 4691WAT     H119470   6.391   3.077   4.025
 4691WAT     H219471   6.487   2.980   4.013
 4691WAT    EPW19472   6.431   3.025   3.982
 4692WAT      O19473   6.043   2.545   4.190
 4692WAT     H119474   5.988   2.510   4.248
 4692WAT     H219475   6.102   2.586   4.239
 4692WAT    EPW19476   6.044   2.546   4.206
 4693WAT      O19477   6.601   2.743   4.929
 4693WAT     H119478   6.682   2.711   4.923
 4693WAT     H219479   6.570   2.705   5.002
 4693WAT    EPW19480   6.608   2.733   4.939
 4694WAT      O19481   5.365   1.874   4.530
 4694WAT     H119482   5.379   1.940   4.474
 4694WAT     H219483   5.445   1.839   4.539
 4694WAT    EPW19484   5.379   1.879   4.523
 4695WAT      O19485   5.182   1.703   4.407
 4695WAT     H119486   5.187   1.721   4.321
 4695WAT     H219487   5.235   1.762   4.443
 4695WAT    EPW19488   5.190   1.714   4.399
 4696WAT      O19489   6.703   1.965   3.436
 4696WAT     H119490   6.717   1.961   3.350
 4696WAT     H219491   6.778   1.938   3.471
 4696WAT    EPW19492   6.716   1.960   3.429
 4697WAT      O19493   5.397   1.414   4.690
 4697WAT     H119494   5.352   1.340   4.698
 4697WAT     H219495   5.380   1.440   4.609
 4697WAT    EPW19496   5.388   1.407   4.679
 4698WAT      O19497   6.096   2.684   3.606
 4698WAT     H119498   6.081   2.762   3.571
 4698WAT     H219499   6.023   2.639   3.589
 4698WAT    EPW19500   6.083   2.689   3.598
 4699WAT      O19501   6.588   1.984   4.421
 4699WAT     H119502   6.583   1.897   4.424
 4699WAT     H219503   6.572   2.008   4.503
 4699WAT    EPW19504   6.585   1.974   4.434
 4700WAT      O19505   5.315   1.843   3.076
 4700WAT     H119506   5.232   1.851   3.099
 4700WAT     H219507   5.322   1.759   3.053
 4700WAT    EPW19508   5.304   1.832   3.076
 4701WAT      O19509   6.129   1.454   4.760
 4701WAT     H119510   6.161   1.518   4.810
 4701WAT     H219511   6.050   1.439   4.794
 4701WAT    EPW19512   6.122   1.461   4.773
 4702WAT      O19513   6.111   1.534   3.831
 4702WAT     H119514   6.031   1.569   3.831
 4702WAT     H219515   6.104   1.469   3.772
 4702WAT    EPW19516   6.098   1.529   3.822
 4703WAT      O19517   5.522   2.660   3.294
 4703WAT     H119518   5.566   2.680   3.367
 4703WAT     H219519   5.458   2.608   3.323
 4703WAT    EPW19520   5.519   2.656   3.309
 4704WAT      O19521   6.450   1.591   4.092
 4704WAT     H119522   6.528   1.557   4.111
 4704WAT     H219523   6.459   1.675   4.114
 4704WAT    EPW19524   6.463   1.599   4.098
 4705WAT      O19525   5.603   2.203   4.517
 4705WAT     H119526   5.562   2.275   4.545
 4705WAT     H219527   5.544   2.164   4.467
 4705WAT    EPW19528   5.588   2.208   4.514
 4706WAT      O19529   6.525   2.011   3.889
 4706WAT     H119530   6.584   2.073   3.910
 4706WAT     H219531   6.468   2.054   3.839
 4706WAT    EPW19532   6.526   2.027   3.885
 4707WAT      O19533   6.534   2.833   3.635
 4707WAT     H119534   6.519   2.757   3.676
 4707WAT     H219535   6.578   2.810   3.563
 4707WAT    EPW19536   6.538   2.819   3.631
 4708WAT      O19537   5.620   2.455   3.125
 4708WAT     H119538   5.550   2.404   3.132
 4708WAT     H219539   5.602   2.522   3.176
 4708WAT    EPW19540   5.607   2.457   3.134
 4709WAT      O19541   5.591   1.530   4.316
 4709WAT     H119542   5.513   1.505   4.346
 4709WAT     H219543   5.646   1.471   4.349
 4709WAT    EPW19544   5.587   1.518   4.325
 4710WAT      O19545   6.747   1.337   4.372
 4710WAT     H119546   6.716   1.334   4.454
 4710WAT     H219547   6.829   1.310   4.381
 4710WAT    EPW19548   6.754   1.332   4.385
 4711WAT      O19549   5.967   1.527   4.180
 4711WAT     H119550   5.912   1.468   4.148
 4711WAT     H219551   6.046   1.492   4.162
 4711WAT    EPW19552   5.971   1.513   4.173
 4712WAT      O19553   6.293   2.647   4.280
 4712WAT     H119554   6.301   2.716   4.334
 4712WAT     H219555   6.294   2.683   4.201
 4712WAT    EPW19556   6.294   2.663   4.276
 4713WAT      O19557   6.231   3.059   4.788
 4713WAT     H119558   6.160   3.022   4.753
 4713WAT     H219559   6.208   3.143   4.797
 4713WAT    EPW19560   6.217   3.066   4.784
 4714WAT      O19561   5.728   1.998   4.692
 4714WAT     H119562   5.696   1.928   4.652
 4714WAT     H219563   5.692   2.065   4.650
 4714WAT    EPW19564   5.718   1.997   4.680
 4715WAT      O19565   5.840   1.291   3.195
 4715WAT     H119566   5.852   1.310   3.110
 4715WAT     H219567   5.755   1.303   3.207
 4715WAT    EPW19568   5.829   1.296   3.184
 4716WAT      O19569   6.692   2.477   4.244
 4716WAT     H119570   6.675   2.392   4.236
 4716WAT     H219571   6.640   2.514   4.185
 4716WAT    EPW19572   6.682   2.470   4.234
 4717WAT      O19573   5.665   3.016   4.689
 4717WAT     H119574   5.658   2.984   4.770
 4717WAT     H219575   5.691   2.948   4.641
 4717WAT    EPW19576   5.668   3.002   4.694
 4718WAT      O19577   6.594   2.830   4.080
 4718WAT     H119578   6.676   2.806   4.059
 4718WAT     H219579   6.550   2.754   4.077
 4718WAT    EPW19580   6.600   2.815   4.076
 4719WAT      O19581   5.340   1.476   4.430
 4719WAT     H119582   5.288   1.409   4.407
 4719WAT     H219583   5.290   1.546   4.416
 4719WAT    EPW19584   5.325   1.476   4.424
 4720WAT      O19585   6.211   1.438   4.073
 4720WAT     H119586   6.280   1.489   4.090
 4720WAT     H219587   6.181   1.470   3.998
 4720WAT    EPW19588   6.217   1.450   4.064
 4721WAT      O19589   5.364   2.872   4.816
 4721WAT     H119590   5.438   2.892   4.858
 4721WAT     H219591   5.337   2.949   4.786
 4721WAT    EPW19592   5.371   2.887   4.818
 4722WAT      O19593   6.192   1.920   3.834
 4722WAT     H119594   6.245   1.851   3.846
 4722WAT     H219595   6.159   1.935   3.913
 4722WAT    EPW19596   6.195   1.912   3.847
 4723WAT      O19597   5.209   1.847   3.788
 4723WAT     H119598   5.166   1.881   3.856
 4723WAT     H219599   5.246   1.775   3.821
 4723WAT    EPW19600   5.208   1.841   3.803
 4724WAT      O19601   5.060   2.600   4.485
 4724WAT     H119602   5.048   2.668   4.539
 4724WAT     H219603   5.063   2.636   4.406
 4724WAT    EPW19604   5.059   2.615   4.482
 4725WAT      O19605   6.371   2.077   3.453
 4725WAT     H119606   6.389   1.994   3.472
 4725WAT     H219607   6.293   2.072   3.413
 4725WAT    EPW19608   6.362   2.064   3.449
 4726WAT      O19609   5.732   2.151   3.409
 4726WAT     H119610   5.754   2.180   3.330
 4726WAT     H219611   5.808   2.137   3.449
 4726WAT    EPW19612   5.746   2.153   3.404
 4727WAT      O19613   6.646   3.010   3.097
 4727WAT     H119614   6.713   2.999   3.152
 4727WAT     H219615   6.624   2.928   3.075
 4727WAT    EPW19616   6.653   2.996   3.102
 4728WAT      O19617   6.677   2.266   4.775
 4728WAT     H119618   6.746   2.228   4.813
 4728WAT     H219619   6.712   2.308   4.707
 4728WAT    EPW19620   6.693   2.267   4.771
 4729WAT      O19621   6.297   2.656   3.404
 4729WAT     H119622   6.248   2.649   3.476
 4729WAT     H219623   6.260   2.600   3.348
 4729WAT    EPW19624   6.285   2.647   3.406
 4730WAT      O19625   6.719   1.712   4.902
 4730WAT     H119626   6.710   1.791   4.937
 4730WAT     H219627   6.643   1.699   4.862
 4730WAT    EPW19628   6.707   1.722   4.901
 4731WAT      O19629   6.757   1.826   4.189
 4731WAT     H119630   6.674   1.850   4.175
 4731WAT     H219631   6.754   1.739   4.194
 4731WAT    EPW19632   6.745   1.817   4.187
 4732WAT      O19633   5.666   1.496   4.673
 4732WAT     H119634   5.696   1.457   4.601
 4732WAT     H219635   5.586   1.464   4.682
 4732WAT    EPW19636   5.659   1.485   4.664
 4733WAT      O19637   6.454   2.314   5.012
 4733WAT     H119638   6.529   2.340   5.048
 4733WAT     H219639   6.461   2.339   4.929
 4733WAT    EPW19640   6.466   2.321   5.005
 4734WAT      O19641   5.269   2.813   4.037
 4734WAT     H119642   5.286   2.740   3.993
 4734WAT     H219643   5.231   2.865   3.977
 4734WAT    EPW19644   5.266   2.810   4.022
 4735WAT      O19645   5.959   2.495   3.287
 4735WAT     H119646   6.040   2.467   3.272
 4735WAT     H219647   5.951   2.564   3.235
 4735WAT    EPW19648   5.970   2.501   3.277
 4736WAT      O19649   5.103   3.130   4.303
 4736WAT     H119650   5.016   3.131   4.310
 4736WAT     H219651   5.117   3.145   4.219
 4736WAT    EPW19652   5.092   3.133   4.292
 4737WAT      O19653   6.210   1.383   1.735
 4737WAT     H119654   6.246   1.445   1.686
 4737WAT     H219655   6.278   1.341   1.769
 4737WAT    EPW19656   6.225   1.386   1.733
 4738WAT      O19657   6.070   2.009   2.191
 4738WAT     H119658   6.039   2.083   2.225
 4738WAT     H219659   6.133   1.986   2.248
 4738WAT    EPW19660   6.075   2.016   2.204
 4739WAT      O19661   5.056   2.437   1.716
 4739WAT     H119662   4.989   2.429   1.772
 4739WAT     H219663   5.068   2.356   1.686
 4739WAT    EPW19664   5.048   2.424   1.720
 4740WAT      O19665   6.716   2.796   1.503
 4740WAT     H119666   6.785   2.747   1.523
 4740WAT     H219667   6.664   2.740   1.459
 4740WAT    EPW19668   6.718   2.780   1.499
 4741WAT      O19669   5.037   1.782   1.361
 4741WAT     H119670   4.969   1.829   1.332
 4741WAT     H219671   5.012   1.699   1.350
 4741WAT    EPW19672   5.023   1.777   1.355
 4742WAT      O19673   5.303   2.390   1.310
 4742WAT     H119674   5.283   2.345   1.238
 4742WAT     H219675   5.322   2.328   1.369
 4742WAT    EPW19676   5.303   2.374   1.308
 4743WAT      O19677   6.344   2.139   1.833
 4743WAT     H119678   6.353   2.116   1.749
 4743WAT     H219679   6.287   2.081   1.865
 4743WAT    EPW19680   6.337   2.127   1.825
 4744WAT      O19681   5.304   2.573   1.700
 4744WAT     H119682   5.359   2.531   1.753
 4744WAT     H219683   5.229   2.528   1.709
 4744WAT    EPW19684   5.301   2.560   1.709
 4745WAT      O19685   5.801   1.523   1.645
 4745WAT     H119686   5.787   1.584   1.584
 4745WAT     H219687   5.869   1.478   1.614
 4745WAT    EPW19688   5.809   1.526   1.632
 4746WAT      O19689   5.178   2.841   1.284
 4746WAT     H119690   5.231   2.849   1.216
 4746WAT     H219691   5.218   2.783   1.335
 4746WAT    EPW19692   5.191   2.834   1.282
 4747WAT      O19693   5.072   2.753   2.430
 4747WAT     H119694   5.089   2.732   2.513
 4747WAT     H219695   5.023   2.687   2.402
 4747WAT    EPW19696   5.067   2.740   2.438
 4748WAT      O19697   5.717   2.457   2.862
 4748WAT     H119698   5.692   2.452   2.945
 4748WAT     H219699   5.642   2.469   2.819
 4748WAT    EPW19700   5.702   2.458   2.868
 4749WAT      O19701   5.249   2.208   1.891
 4749WAT     H119702   5.203   2.200   1.817
 4749WAT     H219703   5.304   2.140   1.888
 4749WAT    EPW19704   5.250   2.197   1.879
 4750WAT      O19705   5.704   1.649   2.312
 4750WAT     H119706   5.776   1.693   2.286
 4750WAT     H219707   5.707   1.655   2.399
 4750WAT    EPW19708   5.715   1.657   2.321
 4751WAT      O19709   5.424   1.992   1.874
 4751WAT     H119710   5.493   1.939   1.880
 4751WAT     H219711   5.357   1.937   1.865
 4751WAT    EPW19712   5.424   1.976   1.874
 4752WAT      O19713   5.855   2.610   2.025
 4752WAT     H119714   5.886   2.529   2.035
 4752WAT     H219715   5.926   2.657   2.006
 4752WAT    EPW19716   5.870   2.605   2.023
 4753WAT      O19717   5.927   2.532   1.628
 4753WAT     H119718   5.951   2.463   1.676
 4753WAT     H219719   5.940   2.505   1.546
 4753WAT    EPW19720   5.932   2.518   1.623
 4754WAT      O19721   6.102   2.015   2.878
 4754WAT     H119722   6.025   2.009   2.838
 4754WAT     H219723   6.089   2.077   2.938
 4754WAT    EPW19724   6.089   2.023   2.881
 4755WAT      O19725   5.534   1.502   1.716
 4755WAT     H119726   5.493   1.554   1.660
 4755WAT     H219727   5.618   1.508   1.692
 4755WAT    EPW19728   5.540   1.511   1.704
 4756WAT      O19729   6.475   1.191   2.700
 4756WAT     H119730   6.452   1.251   2.641
 4756WAT     H219731   6.402   1.178   2.746
 4756WAT    EPW19732   6.461   1.198   2.698
 4757WAT      O19733   5.786   1.402   1.940
 4757WAT     H119734   5.808   1.484   1.918
 4757WAT     H219735   5.706   1.393   1.906
 4757WAT    EPW19736   5.778   1.413   1.932
 4758WAT      O19737   6.230   1.629   1.149
 4758WAT     H119738   6.185   1.693   1.187
 4758WAT     H219739   6.246   1.573   1.213
 4758WAT    EPW19740   6.226   1.630   1.164
 4759WAT      O19741   5.090   1.896   2.107
 4759WAT     H119742   5.084   1.980   2.129
 4759WAT     H219743   5.026   1.858   2.152
 4759WAT    EPW19744   5.080   1.903   2.117
 4760WAT      O19745   5.072   3.029   1.955
 4760WAT     H119746   4.996   3.053   1.919
 4760WAT     H219747   5.111   2.983   1.892
 4760WAT    EPW19748   5.067   3.026   1.940
 4761WAT      O19749   5.666   2.614   1.613
 4761WAT     H119750   5.642   2.624   1.696
 4761WAT     H219751   5.749   2.587   1.619
 4761WAT    EPW19752   5.675   2.611   1.626
 4762WAT      O19753   6.316   2.858   1.382
 4762WAT     H119754   6.378   2.918   1.395
 4762WAT     H219755   6.343   2.790   1.430
 4762WAT    EPW19756   6.329   2.857   1.391
 4763WAT      O19757   6.116   2.928   1.556
 4763WAT     H119758   6.148   2.996   1.600
 4763WAT     H219759   6.177   2.911   1.497
 4763WAT    EPW19760   6.130   2.935   1.554
 4764WAT      O19761   5.322   1.444   2.113
 4764WAT     H119762   5.294   1.376   2.067
 4764WAT     H219763   5.392   1.413   2.156
 4764WAT    EPW19764   5.328   1.429   2.113
 4765WAT      O19765   5.686   1.655   3.114
 4765WAT     H119766   5.676   1.604   3.044
 4765WAT     H219767   5.725   1.726   3.082
 4765WAT    EPW19768   5.690   1.658   3.099
 4766WAT      O19769   5.219   2.842   1.724
 4766WAT     H119770   5.259   2.766   1.742
 4766WAT     H219771   5.282   2.888   1.684
 4766WAT    EPW19772   5.234   2.837   1.721
 4767WAT      O19773   6.823   1.614   1.856
 4767WAT     H119774   6.767   1.680   1.870
 4767WAT     H219775   6.771   1.546   1.839
 4767WAT    EPW19776   6.807   1.614   1.855
 4768WAT      O19777   6.345   2.925   2.422
 4768WAT     H119778   6.407   2.985   2.411
 4768WAT     H219779   6.322   2.904   2.341
 4768WAT    EPW19780   6.351   2.931   2.409
 4769WAT      O19781   5.279   1.569   3.031
 4769WAT     H119782   5.193   1.558   3.045
 4769WAT     H219783   5.294   1.519   2.961
 4769WAT    EPW19784   5.268   1.560   3.023
 4770WAT      O19785   5.356   2.640   2.057
 4770WAT     H119786   5.392   2.594   1.992
 4770WAT     H219787   5.403   2.615   2.127
 4770WAT    EPW19788   5.369   2.629   2.058
 4771WAT      O19789   5.644   2.921   2.000
 4771WAT     H119790   5.719   2.943   1.962
 4771WAT     H219791   5.587   2.980   1.969
 4771WAT    EPW19792   5.646   2.933   1.990
 4772WAT      O19793   5.873   1.356   2.930
 4772WAT     H119794   5.883   1.282   2.884
 4772WAT     H219795   5.797   1.387   2.902
 4772WAT    EPW19796   5.864   1.349   2.919
 4773WAT      O19797   5.986   1.863   1.764
 4773WAT     H119798   6.017   1.815   1.699
 4773WAT     H219799   6.056   1.879   1.814
 4773WAT    EPW19800   6.001   1.859   1.762
 4774WAT      O19801   6.073   1.819   1.283
 4774WAT     H119802   6.102   1.897   1.310
 4774WAT     H219803   5.998   1.838   1.243
 4774WAT    EPW19804   6.066   1.834   1.281
 4775WAT      O19805   6.488   3.080   1.381
 4775WAT     H119806   6.534   3.065   1.308
 4775WAT     H219807   6.542   3.128   1.430
 4775WAT    EPW19808   6.503   3.085   1.377
 4776WAT      O19809   5.519   2.943   2.556
 4776WAT     H119810   5.504   3.016   2.602
 4776WAT     H219811   5.446   2.933   2.509
 4776WAT    EPW19812   5.506   2.952   2.556
 4777WAT      O19813   6.701   1.571   2.284
 4777WAT     H119814   6.765   1.558   2.226
 4777WAT     H219815   6.717   1.511   2.346
 4777WAT    EPW19816   6.713   1.560   2.285
 4778WAT      O19817   4.985   1.666   2.698
 4778WAT     H119818   4.984   1.746   2.733
 4778WAT     H219819   5.052   1.668   2.643
 4778WAT    EPW19820   4.995   1.678   2.695
 4779WAT      O19821   6.172   2.751   2.768
 4779WAT     H119822   6.150   2.708   2.840
 4779WAT     H219823   6.258   2.737   2.761
 4779WAT    EPW19824   6.182   2.742   2.777
 4780WAT      O19825   5.940   2.725   1.239
 4780WAT     H119826   5.916   2.786   1.297
 4780WAT     H219827   6.017   2.754   1.209
 4780WAT    EPW19828   5.948   2.738   1.243
 4781WAT      O19829   6.277   1.450   1.358
 4781WAT     H119830   6.336   1.386   1.352
 4781WAT     H219831   6.305   1.496   1.426
 4781WAT    EPW19832   6.290   1.447   1.367
 4782WAT      O19833   5.122   1.571   1.640
 4782WAT     H119834   5.098   1.489   1.620
 4782WAT     H219835   5.071   1.590   1.709
 4782WAT    EPW19836   5.111   1.562   1.647
 4783WAT      O19837   5.305   2.900   2.393
 4783WAT     H119838   5.232   2.854   2.403
 4783WAT     H219839   5.311   2.910   2.306
 4783WAT    EPW19840   5.295   2.895   2.381
 4784WAT      O19841   6.076   1.715   1.544
 4784WAT     H119842   6.038   1.636   1.533
 4784WAT     H219843   6.068   1.751   1.465
 4784WAT    EPW19844   6.069   1.708   1.530
 4785WAT      O19845   6.108   3.028   2.507
 4785WAT     H119846   6.184   2.996   2.480
 4785WAT     H219847   6.051   2.996   2.449
 4785WAT    EPW19848   6.111   3.019   2.494
 4786WAT      O19849   6.019   1.445   1.478
 4786WAT     H119850   5.959   1.412   1.423
 4786WAT     H219851   6.094   1.432   1.436
 4786WAT    EPW19852   6.021   1.438   1.464
 4787WAT      O19853   6.791   3.010   1.779
 4787WAT     H119854   6.749   3.085   1.794
 4787WAT     H219855   6.727   2.952   1.769
 4787WAT    EPW19856   6.776   3.013   1.780
 4788WAT      O19857   5.871   1.674   1.935
 4788WAT     H119858   5.898   1.735   1.878
 4788WAT     H219859   5.889   1.709   2.013
 4788WAT    EPW19860   5.878   1.689   1.938
 4789WAT      O19861   6.510   2.580   1.845
 4789WAT     H119862   6.572   2.520   1.831
 4789WAT     H219863   6.436   2.536   1.834
 4789WAT    EPW19864   6.508   2.565   1.841
 4790WAT      O19865   5.388   2.780   2.747
 4790WAT     H119866   5.427   2.827   2.685
 4790WAT     H219867   5.376   2.837   2.811
 4790WAT    EPW19868   5.392   2.795   2.747
 4791WAT      O19869   5.421   1.251   1.743
 4791WAT     H119870   5.457   1.329   1.729
 4791WAT     H219871   5.414   1.217   1.663
 4791WAT    EPW19872   5.425   1.258   1.729
 4792WAT      O19873   5.669   2.335   2.175
 4792WAT     H119874   5.691   2.317   2.258
 4792WAT     H219875   5.621   2.266   2.151
 4792WAT    EPW19876   5.665   2.322   2.184
 4793WAT      O19877   6.256   1.671   2.471
 4793WAT     H119878   6.249   1.696   2.554
 4793WAT     H219879   6.187   1.618   2.460
 4793WAT    EPW19880   6.245   1.667   2.482
 4794WAT      O19881   5.759   2.329   2.439
 4794WAT     H119882   5.739   2.408   2.469
 4794WAT     H219883   5.733   2.276   2.503
 4794WAT    EPW19884   5.753   2.333   2.453
 4795WAT      O19885   6.357   2.369   2.377
 4795WAT     H119886   6.294   2.340   2.430
 4795WAT     H219887   6.357   2.455   2.391
 4795WAT    EPW19888   6.347   2.377   2.387
 4796WAT      O19889   6.430   1.251   1.833
 4796WAT     H119890   6.427   1.231   1.918
 4796WAT     H219891   6.454   1.177   1.795
 4796WAT    EPW19892   6.433   1.237   1.840
 4797WAT      O19893   6.607   1.567   2.647
 4797WAT     H119894   6.686   1.602   2.663
 4797WAT     H219895   6.562   1.584   2.720
 4797WAT    EPW19896   6.612   1.574   2.660
 4798WAT      O19897   5.397   1.627   1.924
 4798WAT     H119898   5.430   1.576   1.861
 4798WAT     H219899   5.375   1.570   1.986
 4798WAT    EPW19900   5.399   1.611   1.924
 4799WAT      O19901   6.686   2.360   1.372
 4799WAT     H119902   6.684   2.312   1.445
 4799WAT     H219903   6.771   2.375   1.360
 4799WAT    EPW19904   6.698   2.355   1.381
 4800WAT      O19905   5.437   2.413   1.878
 4800WAT     H119906   5.493   2.380   1.820
 4800WAT     H219907   5.379   2.349   1.888
 4800WAT    EPW19908   5.437   2.398   1.871
 4801WAT      O19909   5.276   1.795   2.293
 4801WAT     H119910   5.357   1.803   2.260
 4801WAT     H219911   5.225   1.813   2.225
 4801WAT    EPW19912   5.281   1.799   2.278
 4802WAT      O19913   6.868   2.796   2.758
 4802WAT     H119914   6.793   2.804   2.713
 4802WAT     H219915   6.844   2.752   2.830
 4802WAT    EPW19916   6.853   2.791   2.762
 4803WAT      O19917   6.485   2.050   1.300
 4803WAT     H119918   6.479   2.132   1.272
 4803WAT     H219919   6.457   2.054   1.382
 4803WAT    EPW19920   6.480   2.063   1.308
 4804WAT      O19921   5.568   2.343   1.633
 4804WAT     H119922   5.592   2.424   1.611
 4804WAT     H219923   5.633   2.293   1.603
 4804WAT    EPW19924   5.581   2.348   1.625
 4805WAT      O19925   6.808   1.515   1.262
 4805WAT     H119926   6.849   1.459   1.209
 4805WAT     H219927   6.767   1.568   1.207
 4805WAT    EPW19928   6.808   1.515   1.246
 4806WAT      O19929   5.086   2.576   2.110
 4806WAT     H119930   5.044   2.652   2.106
 4806WAT     H219931   5.169   2.599   2.092
 4806WAT    EPW19932   5.092   2.591   2.107
 4807WAT      O19933   5.816   1.894   3.041
 4807WAT     H119934   5.753   1.949   3.063
 4807WAT     H219935   5.829   1.910   2.956
 4807WAT    EPW19936   5.809   1.904   3.031
 4808WAT      O19937   6.918   1.941   2.502
 4808WAT     H119938   6.968   1.869   2.504
 4808WAT     H219939   6.860   1.923   2.439
 4808WAT    EPW19940   6.917   1.927   2.493
 4809WAT      O19941   5.125   2.177   1.643
 4809WAT     H119942   5.104   2.092   1.637
 4809WAT     H219943   5.197   2.183   1.594
 4809WAT    EPW19944   5.132   2.165   1.635
 4810WAT      O19945   6.678   1.413   1.491
 4810WAT     H119946   6.750   1.374   1.519
 4810WAT     H219947   6.704   1.456   1.420
 4810WAT    EPW19948   6.692   1.413   1.485
 4811WAT      O19949   6.063   2.782   1.964
 4811WAT     H119950   6.014   2.850   1.939
 4811WAT     H219951   6.099   2.754   1.889
 4811WAT    EPW19952   6.061   2.788   1.949
 4812WAT      O19953   5.052   2.668   1.566
 4812WAT     H119954   5.106   2.722   1.609
 4812WAT     H219955   5.045   2.600   1.620
 4812WAT    EPW19956   5.059   2.666   1.581
 4813WAT      O19957   5.530   2.558   2.258
 4813WAT     H119958   5.584   2.625   2.242
 4813WAT     H219959   5.570   2.490   2.221
 4813WAT    EPW19960   5.544   2.558   2.250
 4814WAT      O19961   6.344   1.723   2.010
 4814WAT     H119962   6.369   1.695   2.089
 4814WAT     H219963   6.283   1.666   1.986
 4814WAT    EPW19964   6.338   1.710   2.018
 4815WAT      O19965   5.039   2.499   1.340
 4815WAT     H119966   5.115   2.458   1.329
 4815WAT     H219967   5.055   2.555   1.405
 4815WAT    EPW19968   5.052   2.501   1.348
 4816WAT      O19969   5.111   2.292   2.117
 4816WAT     H119970   5.151   2.266   2.044
 4816WAT     H219971   5.102   2.378   2.105
 4816WAT    EPW19972   5.116   2.301   2.105
 4817WAT      O19973   5.753   1.696   1.438
 4817WAT     H119974   5.737   1.664   1.359
 4817WAT     H219975   5.729   1.780   1.432
 4817WAT    EPW19976   5.747   1.704   1.426
 4818WAT      O19977   6.625   2.833   2.599
 4818WAT     H119978   6.588   2.911   2.609
 4818WAT     H219979   6.623   2.819   2.513
 4818WAT    EPW19980   6.620   2.843   2.588
 4819WAT      O19981   5.626   2.673   1.876
 4819WAT     H119982   5.617   2.752   1.911
 4819WAT     H219983   5.694   2.639   1.919
 4819WAT    EPW19984   5.635   2.680   1.888
 4820WAT      O19985   5.404   2.004   2.868
 4820WAT     H119986   5.375   1.948   2.928
 4820WAT     H219987   5.403   1.957   2.794
 4820WAT    EPW19988   5.399   1.989   2.866
 4821WAT      O19989   5.397   1.919   1.443
 4821WAT     H119990   5.388   1.850   1.495
 4821WAT     H219991   5.357   1.895   1.369
 4821WAT    EPW19992   5.389   1.905   1.440
 4822WAT      O19993   5.525   2.112   2.109
 4822WAT     H119994   5.491   2.087   2.032
 4822WAT     H219995   5.541   2.036   2.150
 4822WAT    EPW19996   5.522   2.097   2.104
 4823WAT      O19997   5.477   2.054   2.431
 4823WAT     H119998   5.498   1.998   2.368
 4823WAT     H219999   5.428   2.114   2.391
 4823WAT    EPW20000   5.473   2.054   2.416
 4824WAT      O20001   6.519   1.954   2.261
 4824WAT     H120002   6.436   1.937   2.283
 4824WAT     H220003   6.514   1.979   2.178
 4824WAT    EPW20004   6.506   1.955   2.252
 4825WAT      O20005   5.873   2.924   2.377
 4825WAT     H120006   5.838   2.861   2.328
 4825WAT     H220007   5.866   2.995   2.327
 4825WAT    EPW20008   5.867   2.925   2.362
 4826WAT      O20009   6.141   1.414   2.595
 4826WAT     H120010   6.118   1.330   2.587
 4826WAT     H220011   6.133   1.429   2.680
 4826WAT    EPW20012   6.137   1.404   2.606
 4827WAT      O20013   6.321   1.597   1.588
 4827WAT     H120014   6.384   1.656   1.600
 4827WAT     H220015   6.249   1.646   1.578
 4827WAT    EPW20016   6.320   1.613   1.588
 4828WAT      O20017   5.236   2.216   2.931
 4828WAT     H120018   5.235   2.275   2.867
 4828WAT     H220019   5.286   2.152   2.899
 4828WAT    EPW20020   5.243   2.215   2.917
 4829WAT      O20021   6.393   2.441   2.847
 4829WAT     H120022   6.418   2.521   2.825
 4829WAT     H220023   6.421   2.391   2.782
 4829WAT    EPW20024   6.401   2.445   2.834
 4830WAT      O20025   5.848   2.702   2.877
 4830WAT     H120026   5.885   2.703   2.955
 4830WAT     H220027   5.810   2.624   2.873
 4830WAT    EPW20028   5.848   2.691   2.888
 4831WAT      O20029   5.928   1.766   2.188
 4831WAT     H120030   5.969   1.843   2.197
 4831WAT     H220031   5.983   1.710   2.225
 4831WAT    EPW20032   5.943   1.769   2.195
 4832WAT      O20033   6.159   2.055   1.407
 4832WAT     H120034   6.142   2.108   1.340
 4832WAT     H220035   6.100   2.078   1.467
 4832WAT    EPW20036   6.148   2.066   1.406
 4833WAT      O20037   6.699   2.382   1.806
 4833WAT     H120038   6.705   2.339   1.881
 4833WAT     H220039   6.675   2.321   1.749
 4833WAT    EPW20040   6.696   2.367   1.809
 4834WAT      O20041   6.253   2.802   2.175
 4834WAT     H120042   6.188   2.797   2.116
 4834WAT     H220043   6.310   2.856   2.137
 4834WAT    EPW20044   6.252   2.809   2.161
 4835WAT      O20045   6.239   2.454   2.131
 4835WAT     H120046   6.171   2.495   2.166
 4835WAT     H220047   6.272   2.408   2.197
 4835WAT    EPW20048   6.234   2.454   2.146
 4836WAT      O20049   5.716   2.893   1.643
 4836WAT     H120050   5.706   2.807   1.645
 4836WAT     H220051   5.762   2.906   1.570
 4836WAT    EPW20052   5.721   2.882   1.632
 4837WAT      O20053   5.547   1.287   1.328
 4837WAT     H120054   5.501   1.245   1.389
 4837WAT     H220055   5.510   1.366   1.326
 4837WAT    EPW20056   5.534   1.293   1.337
 4838WAT      O20057   5.878   2.922   1.424
 4838WAT     H120058   5.954   2.927   1.467
 4838WAT     H220059   5.870   3.001   1.388
 4838WAT    EPW20060   5.888   2.934   1.425
 4839WAT      O20061   6.485   2.309   2.623
 4839WAT     H120062   6.461   2.324   2.540
 4839WAT     H220063   6.572   2.317   2.621
 4839WAT    EPW20064   6.494   2.312   2.610
 4840WAT      O20065   6.211   2.836   3.071
 4840WAT     H120066   6.235   2.869   3.148
 4840WAT     H220067   6.244   2.893   3.014
 4840WAT    EPW20068   6.219   2.850   3.074
 4841WAT      O20069   6.601   1.348   2.895
 4841WAT     H120070   6.568   1.301   2.829
 4841WAT     H220071   6.602   1.292   2.962
 4841WAT    EPW20072   6.596   1.333   2.895
 4842WAT      O20073   5.360   2.198   1.502
 4842WAT     H120074   5.381   2.114   1.491
 4842WAT     H220075   5.427   2.230   1.548
 4842WAT    EPW20076   5.373   2.191   1.507
 4843WAT      O20077   6.152   2.280   2.547
 4843WAT     H120078   6.099   2.308   2.611
 4843WAT     H220079   6.191   2.211   2.582
 4843WAT    EPW20080   6.150   2.274   2.562
 4844WAT      O20081   5.022   1.310   1.576
 4844WAT     H120082   5.024   1.254   1.509
 4844WAT     H220083   4.985   1.264   1.640
 4844WAT    EPW20084   5.017   1.295   1.576
 4845WAT      O20085   5.995   2.106   1.627
 4845WAT     H120086   6.009   2.169   1.685
 4845WAT     H220087   5.985   2.034   1.676
 4845WAT    EPW20088   5.995   2.105   1.642
 4846WAT      O20089   6.488   2.596   2.126
 4846WAT     H120090   6.509   2.600   2.042
 4846WAT     H220091   6.405   2.568   2.125
 4846WAT    EPW20092   6.479   2.593   2.113
 4847WAT      O20093   5.443   1.544   1.309
 4847WAT     H120094   5.382   1.546   1.246
 4847WAT     H220095   5.511   1.586   1.273
 4847WAT    EPW20096   5.444   1.550   1.294
 4848WAT      O20097   5.919   2.340   2.052
 4848WAT     H120098   5.836   2.330   2.077
 4848WAT     H220099   5.965   2.315   2.122
 4848WAT    EPW20100   5.914   2.335   2.066
 4849WAT      O20101   5.573   2.962   1.207
 4849WAT     H120102   5.593   2.887   1.246
 4849WAT     H220103   5.568   3.019   1.273
 4849WAT    EPW20104   5.575   2.959   1.223
 4850WAT      O20105   5.313   2.275   2.319
 4850WAT     H120106   5.358   2.349   2.306
 4850WAT     H220107   5.257   2.274   2.252
 4850WAT    EPW20108   5.311   2.286   2.307
 4851WAT      O20109   5.610   1.797   1.957
 4851WAT     H120110   5.686   1.755   1.943
 4851WAT     H220111   5.550   1.734   1.945
 4851WAT    EPW20112   5.612   1.781   1.953
 4852WAT      O20113   6.866   2.977   1.359
 4852WAT     H120114   6.932   2.927   1.333
 4852WAT     H220115   6.816   2.922   1.405
 4852WAT    EPW20116   6.868   2.962   1.362
 4853WAT      O20117   5.074   1.901   1.626
 4853WAT     H120118   5.112   1.863   1.695
 4853WAT     H220119   5.085   1.842   1.563
 4853WAT    EPW20120   5.082   1.887   1.627
 4854WAT      O20121   6.624   2.303   2.296
 4854WAT     H120122   6.639   2.238   2.352
 4854WAT     H220123   6.539   2.319   2.304
 4854WAT    EPW20124   6.614   2.296   2.305
 4855WAT      O20125   5.578   2.156   1.194
 4855WAT     H120126   5.594   2.092   1.251
 4855WAT     H220127   5.525   2.119   1.136
 4855WAT    EPW20128   5.572   2.141   1.194
 4856WAT      O20129   5.233   2.394   2.716
 4856WAT     H120130   5.200   2.340   2.656
 4856WAT     H220131   5.185   2.467   2.706
 4856WAT    EPW20132   5.221   2.397   2.706
 4857WAT      O20133   6.721   2.239   2.043
 4857WAT     H120134   6.692   2.268   2.120
 4857WAT     H220135   6.806   2.227   2.056
 4857WAT    EPW20136   6.729   2.241   2.056
 4858WAT      O20137   5.659   1.957   1.379
 4858WAT     H120138   5.687   2.019   1.434
 4858WAT     H220139   5.578   1.941   1.405
 4858WAT    EPW20140   5.651   1.964   1.391
 4859WAT      O20141   6.467   1.599   2.891
 4859WAT     H120142   6.396   1.608   2.941
 4859WAT     H220143   6.492   1.517   2.907
 4859WAT    EPW20144   6.460   1.588   2.901
 4860WAT      O20145   5.058   1.565   2.120
 4860WAT     H120146   5.035   1.569   2.036
 4860WAT     H220147   5.138   1.530   2.117
 4860WAT    EPW20148   5.066   1.560   2.107
 4861WAT      O20149   6.863   2.736   2.158
 4861WAT     H120150   6.898   2.775   2.088
 4861WAT     H220151   6.930   2.729   2.213
 4861WAT    EPW20152   6.878   2.740   2.156
 4862WAT      O20153   6.374   1.947   2.937
 4862WAT     H120154   6.392   1.972   3.018
 4862WAT     H220155   6.291   1.972   2.926
 4862WAT    EPW20156   6.365   1.955   2.947
 4863WAT      O20157   6.560   2.035   2.750
 4863WAT     H120158   6.583   2.111   2.787
 4863WAT     H220159   6.506   2.000   2.808
 4863WAT    EPW20160   6.556   2.041   2.764
 4864WAT      O20161   6.562   2.606   1.382
 4864WAT     H120162   6.599   2.527   1.384
 4864WAT     H220163   6.491   2.596   1.431
 4864WAT    EPW20164   6.557   2.593   1.390
 4865WAT      O20165   6.592   1.783   1.892
 4865WAT     H120166   6.523   1.746   1.931
 4865WAT     H220167   6.593   1.864   1.924
 4865WAT    EPW20168   6.582   1.789   1.903
 4866WAT      O20169   6.864   2.090   2.982
 4866WAT     H120170   6.868   2.037   2.912
 4866WAT     H220171   6.944   2.125   2.985
 4866WAT    EPW20172   6.877   2.087   2.972
 4867WAT      O20173   6.760   2.359   2.635
 4867WAT     H120174   6.819   2.305   2.599
 4867WAT     H220175   6.758   2.426   2.580
 4867WAT    EPW20176   6.769   2.361   2.621
 4868WAT      O20177   6.234   2.452   1.300
 4868WAT     H120178   6.308   2.406   1.291
 4868WAT     H220179   6.205   2.461   1.218
 4868WAT    EPW20180   6.241   2.447   1.286
 4869WAT      O20181   5.646   2.578   2.513
 4869WAT     H120182   5.588   2.552   2.573
 4869WAT     H220183   5.600   2.577   2.439
 4869WAT    EPW20184   5.630   2.574   2.511
 4870WAT      O20185   5.481   2.517   2.725
 4870WAT     H120186   5.408   2.469   2.721
 4870WAT     H220187   5.452   2.597   2.745
 4870WAT    EPW20188   5.466   2.522   2.728
 4871WAT      O20189   6.411   1.399   2.526
 4871WAT     H120190   6.455   1.467   2.557
 4871WAT     H220191   6.328   1.420   2.544
 4871WAT    EPW20192   6.405   1.412   2.533
 4872WAT      O20193   6.001   2.261   2.319
 4872WAT     H120194   6.051   2.249   2.389
 4872WAT     H220195   5.922   2.274   2.353
 4872WAT    EPW20196   5.997   2.261   2.335
 4873WAT      O20197   5.875   2.972   1.863
 4873WAT     H120198   5.873   3.059   1.869
 4873WAT     H220199   5.835   2.956   1.787
 4873WAT    EPW20200   5.869   2.983   1.853
 4874WAT      O20201   6.539   1.239   2.343
 4874WAT     H120202   6.491   1.298   2.387
 4874WAT     H220203   6.621   1.256   2.368
 4874WAT    EPW20204   6.544   1.250   2.354
 4875WAT      O20205   5.814   1.327   2.580
 4875WAT     H120206   5.846   1.408   2.580
 4875WAT     H220207   5.850   1.291   2.510
 4875WAT    EPW20208   5.824   1.334   2.570
 4876WAT      O20209   5.718   2.755   2.215
 4876WAT     H120210   5.687   2.816   2.161
 4876WAT     H220211   5.769   2.706   2.165
 4876WAT    EPW20212   5.721   2.757   2.200
 4877WAT      O20213   6.135   2.464   2.939
 4877WAT     H120214   6.214   2.451   2.905
 4877WAT     H220215   6.081   2.447   2.872
 4877WAT    EPW20216   6.138   2.459   2.924
 4878WAT      O20217   6.449   2.707   2.777
 4878WAT     H120218   6.486   2.729   2.853
 4878WAT     H220219   6.504   2.738   2.717
 4878WAT    EPW20220   6.462   2.715   2.779
 4879WAT      O20221   6.729   1.929   1.262
 4879WAT     H120222   6.778   1.988   1.220
 4879WAT     H220223   6.650   1.967   1.267
 4879WAT    EPW20224   6.724   1.943   1.257
 4880WAT      O20225   5.845   2.238   1.257
 4880WAT     H120226   5.766   2.239   1.220
 4880WAT     H220227   5.860   2.323   1.275
 4880WAT    EPW20228   5.836   2.251   1.254
 4881WAT      O20229   5.544   1.854   2.221
 4881WAT     H120230   5.564   1.836   2.137
 4881WAT     H220231   5.587   1.792   2.265
 4881WAT    EPW20232   5.553   1.842   2.215
 4882WAT      O20233   6.243   1.801   2.720
 4882WAT     H120234   6.173   1.827   2.765
 4882WAT     H220235   6.303   1.789   2.782
 4882WAT    EPW20236   6.242   1.803   2.736
 4883WAT      O20237   6.265   1.925   2.364
 4883WAT     H120238   6.277   1.970   2.438
 4883WAT     H220239   6.257   1.842   2.392
 4883WAT    EPW20240   6.265   1.919   2.379
 4884WAT      O20241   5.961   2.959   2.724
 4884WAT     H120242   6.016   2.975   2.658
 4884WAT     H220243   5.998   2.892   2.765
 4884WAT    EPW20244   5.975   2.952   2.720
 4885WAT      O20245   6.498   1.813   1.635
 4885WAT     H120246   6.521   1.800   1.718
 4885WAT     H220247   6.572   1.840   1.597
 4885WAT    EPW20248   6.512   1.815   1.641
 4886WAT      O20249   5.822   1.412   2.220
 4886WAT     H120250   5.766   1.472   2.250
 4886WAT     H220251   5.802   1.407   2.135
 4886WAT    EPW20252   5.811   1.420   2.212
 4887WAT      O20253   6.644   1.417   1.773
 4887WAT     H120254   6.569   1.379   1.795
 4887WAT     H220255   6.635   1.430   1.687
 4887WAT    EPW20256   6.632   1.414   1.764
 4888WAT      O20257   6.633   2.203   1.600
 4888WAT     H120258   6.675   2.128   1.590
 4888WAT     H220259   6.549   2.181   1.595
 4888WAT    EPW20260   6.627   2.189   1.598
 4889WAT      O20261   5.966   2.411   2.724
 4889WAT     H120262   5.888   2.404   2.762
 4889WAT     H220263   5.961   2.487   2.680
 4889WAT    EPW20264   5.954   2.421   2.723
 4890WAT      O20265   4.953   1.400   2.774
 4890WAT     H120266   4.968   1.485   2.762
 4890WAT     H220267   4.885   1.398   2.829
 4890WAT    EPW20268   4.945   1.412   2.780
 4891WAT      O20269   5.573   3.052   2.286
 4891WAT     H120270   5.563   3.004   2.359
 4891WAT     H220271   5.514   3.019   2.232
 4891WAT    EPW20272   5.563   3.040   2.289
 4892WAT      O20273   5.373   1.661   1.554
 4892WAT     H120274   5.385   1.621   1.477
 4892WAT     H220275   5.294   1.634   1.579
 4892WAT    EPW20276   5.363   1.651   1.546
 4893WAT      O20277   6.283   2.408   1.859
 4893WAT     H120278   6.269   2.422   1.944
 4893WAT     H220279   6.311   2.326   1.856
 4893WAT    EPW20280   6.285   2.398   1.871
 4894WAT      O20281   6.025   2.329   1.792
 4894WAT     H120282   5.988   2.326   1.871
 4894WAT     H220283   6.106   2.358   1.807
 4894WAT    EPW20284   6.031   2.333   1.806
 4895WAT      O20285   5.975   2.651   2.582
 4895WAT     H120286   6.048   2.682   2.617
 4895WAT     H220287   5.997   2.632   2.500
 4895WAT    EPW20288   5.989   2.653   2.575
 4896WAT      O20289   6.820   1.926   2.760
 4896WAT     H120290   6.735   1.947   2.756
 4896WAT     H220291   6.848   1.939   2.679
 4896WAT    EPW20292   6.812   1.931   2.748
 4897WAT      O20293   6.304   2.055   2.607
 4897WAT     H120294   6.283   1.984   2.653
 4897WAT     H220295   6.379   2.081   2.642
 4897WAT    EPW20296   6.312   2.048   2.619
 4898WAT      O20297   6.066   2.214   3.073
 4898WAT     H120298   6.091   2.292   3.042
 4898WAT     H220299   5.983   2.228   3.096
 4898WAT    EPW20300   6.057   2.228   3.072
 4899WAT      O20301   6.416   3.020   2.115
 4899WAT     H120302   6.357   3.081   2.133
 4899WAT     H220303   6.479   3.034   2.174
 4899WAT    EPW20304   6.416   3.031   2.126
 4900WAT      O20305   6.054   2.546   2.333
 4900WAT     H120306   6.044   2.460   2.346
 4900WAT     H220307   6.134   2.562   2.364
 4900WAT    EPW20308   6.064   2.535   2.340
 4901WAT      O20309   6.586   2.751   3.017
 4901WAT     H120310   6.667   2.719   3.013
 4901WAT     H220311   6.552   2.712   3.087
 4901WAT    EPW20312   6.593   2.741   3.027
 4902WAT      O20313   5.408   1.866   2.629
 4902WAT     H120314   5.423   1.924   2.566
 4902WAT     H220315   5.482   1.820   2.634
 4902WAT    EPW20316   5.421   1.868   2.620
 4903WAT      O20317   5.220   1.682   2.538
 4903WAT     H120318   5.232   1.698   2.453
 4903WAT     H220319   5.278   1.735   2.577
 4903WAT    EPW20320   5.230   1.692   2.531
 4904WAT      O20321   6.723   1.947   1.541
 4904WAT     H120322   6.734   1.943   1.455
 4904WAT     H220323   6.801   1.923   1.572
 4904WAT    EPW20324   6.736   1.943   1.533
 4905WAT      O20325   5.362   1.403   2.822
 4905WAT     H120326   5.316   1.329   2.823
 4905WAT     H220327   5.367   1.423   2.737
 4905WAT    EPW20328   5.356   1.395   2.809
 4906WAT      O20329   6.135   2.697   1.707
 4906WAT     H120330   6.125   2.773   1.665
 4906WAT     H220331   6.065   2.651   1.684
 4906WAT    EPW20332   6.123   2.702   1.698
 4907WAT      O20333   6.642   2.089   2.472
 4907WAT     H120334   6.597   2.037   2.418
 4907WAT     H220335   6.609   2.069   2.550
 4907WAT    EPW20336   6.630   2.078   2.475
 4908WAT      O20337   5.133   2.220   2.523
 4908WAT     H120338   5.187   2.240   2.458
 4908WAT     H220339   5.116   2.135   2.509
 4908WAT    EPW20340   5.138   2.211   2.511
 4909WAT      O20341   5.265   1.822   1.210
 4909WAT     H120342   5.191   1.815   1.255
 4909WAT     H220343   5.271   1.746   1.168
 4909WAT    EPW20344   5.255   1.810   1.210
 4910WAT      O20345   6.130   1.445   2.872
 4910WAT     H120346   6.154   1.509   2.926
 4910WAT     H220347   6.048   1.428   2.895
 4910WAT    EPW20348   6.121   1.452   2.883
 4911WAT      O20349   6.135   1.550   1.944
 4911WAT     H120350   6.052   1.575   1.937
 4911WAT     H220351   6.146   1.497   1.875
 4911WAT    EPW20352   6.125   1.546   1.932
 4912WAT      O20353   5.586   2.715   1.355
 4912WAT     H120354   5.626   2.694   1.430
 4912WAT     H220355   5.501   2.703   1.373
 4912WAT    EPW20356   5.579   2.710   1.369
 4913WAT      O20357   6.423   1.604   2.248
 4913WAT     H120358   6.508   1.593   2.263
 4913WAT     H220359   6.391   1.621   2.328
 4913WAT    EPW20360   6.431   1.605   2.262
 4914WAT      O20361   5.656   2.153   2.631
 4914WAT     H120362   5.602   2.173   2.697
 4914WAT     H220363   5.605   2.113   2.574
 4914WAT    EPW20364   5.641   2.150   2.632
 4915WAT      O20365   6.545   2.036   1.995
 4915WAT     H120366   6.604   2.098   2.007
 4915WAT     H220367   6.484   2.074   1.945
 4915WAT    EPW20368   6.544   2.050   1.990
 4916WAT      O20369   6.582   2.830   1.742
 4916WAT     H120370   6.558   2.752   1.774
 4916WAT     H220371   6.613   2.811   1.663
 4916WAT    EPW20372   6.583   2.816   1.735
 4917WAT      O20373   5.329   2.644   1.422
 4917WAT     H120374   5.324   2.625   1.508
 4917WAT     H220375   5.323   2.565   1.384
 4917WAT    EPW20376   5.327   2.629   1.429
 4918WAT      O20377   5.636   2.463   1.237
 4918WAT     H120378   5.564   2.417   1.250
 4918WAT     H220379   5.617   2.541   1.270
 4918WAT    EPW20380   5.623   2.468   1.244
 4919WAT      O20381   5.567   1.288   2.460
 4919WAT     H120382   5.508   1.345   2.489
 4919WAT     H220383   5.638   1.306   2.507
 4919WAT    EPW20384   5.568   1.299   2.471
 4920WAT      O20385   6.750   1.373   2.475
 4920WAT     H120386   6.718   1.411   2.547
 4920WAT     H220387   6.828   1.343   2.500
 4920WAT    EPW20388   6.757   1.374   2.489
 4921WAT      O20389   6.054   1.544   2.296
 4921WAT     H120390   5.982   1.497   2.283
 4921WAT     H220391   6.118   1.493   2.264
 4921WAT    EPW20392   6.053   1.530   2.289
 4922WAT      O20393   6.307   2.640   2.397
 4922WAT     H120394   6.338   2.702   2.450
 4922WAT     H220395   6.299   2.680   2.320
 4922WAT    EPW20396   6.311   2.655   2.393
 4923WAT      O20397   6.279   3.007   2.855
 4923WAT     H120398   6.234   2.947   2.811
 4923WAT     H220399   6.223   3.073   2.863
 4923WAT    EPW20400   6.264   3.008   2.850
 4924WAT      O20401   5.845   1.979   2.769
 4924WAT     H120402   5.819   1.905   2.732
 4924WAT     H220403   5.797   2.040   2.729
 4924WAT    EPW20404   5.834   1.977   2.757
 4925WAT      O20405   5.824   1.322   1.325
 4925WAT     H120406   5.836   1.334   1.239
 4925WAT     H220407   5.737   1.319   1.333
 4925WAT    EPW20408   5.813   1.323   1.313
 4926WAT      O20409   6.741   2.526   2.413
 4926WAT     H120410   6.710   2.461   2.365
 4926WAT     H220411   6.696   2.596   2.384
 4926WAT    EPW20412   6.729   2.527   2.402
 4927WAT      O20413   5.691   2.927   2.903
 4927WAT     H120414   5.637   2.916   2.970
 4927WAT     H220415   5.742   2.856   2.906
 4927WAT    EPW20416   5.691   2.915   2.913
 4928WAT      O20417   6.626   2.755   2.311
 4928WAT     H120418   6.698   2.768   2.263
 4928WAT     H220419   6.572   2.714   2.257
 4928WAT    EPW20420   6.629   2.751   2.296
 4929WAT      O20421   5.348   1.438   2.548
 4929WAT     H120422   5.287   1.381   2.525
 4929WAT     H220423   5.308   1.515   2.539
 4929WAT    EPW20424   5.333   1.441   2.543
 4930WAT      O20425   6.250   1.408   2.156
 4930WAT     H120426   6.311   1.464   2.183
 4930WAT     H220427   6.213   1.448   2.088
 4930WAT    EPW20428   6.254   1.422   2.150
 4931WAT      O20429   5.343   2.986   2.928
 4931WAT     H120430   5.389   2.966   2.999
 4931WAT     H220431   5.264   3.003   2.959
 4931WAT    EPW20432   5.338   2.986   2.943
 4932WAT      O20433   6.185   1.941   1.943
 4932WAT     H120434   6.239   1.878   1.968
 4932WAT     H220435   6.146   1.966   2.017
 4932WAT    EPW20436   6.188   1.936   1.957
 4933WAT      O20437   5.206   1.822   1.861
 4933WAT     H120438   5.162   1.836   1.936
 4933WAT     H220439   5.252   1.750   1.877
 4933WAT    EPW20440   5.207   1.813   1.875
 4934WAT      O20441   5.139   2.665   2.690
 4934WAT     H120442   5.082   2.697   2.748
 4934WAT     H220443   5.213   2.706   2.710
 4934WAT    EPW20444   5.141   2.676   2.701
 4935WAT      O20445   6.386   2.059   1.566
 4935WAT     H120446   6.407   1.977   1.586
 4935WAT     H220447   6.310   2.052   1.524
 4935WAT    EPW20448   6.378   2.046   1.563
 4936WAT      O20449   5.451   2.982   1.624
 4936WAT     H120450   5.457   3.038   1.558
 4936WAT     H220451   5.531   2.948   1.631
 4936WAT    EPW20452   5.464   2.985   1.616
 4937WAT      O20453   5.756   2.178   1.512
 4937WAT     H120454   5.785   2.205   1.435
 4937WAT     H220455   5.829   2.155   1.555
 4937WAT    EPW20456   5.771   2.178   1.507
 4938WAT      O20457   6.662   3.012   1.173
 4938WAT     H120458   6.731   3.009   1.227
 4938WAT     H220459   6.640   2.929   1.163
 4938WAT    EPW20460   6.669   3.000   1.180
 4939WAT      O20461   6.666   2.258   2.882
 4939WAT     H120462   6.733   2.216   2.920
 4939WAT     H220463   6.704   2.302   2.817
 4939WAT    EPW20464   6.682   2.258   2.878
 4940WAT      O20465   6.326   2.612   1.519
 4940WAT     H120466   6.273   2.624   1.588
 4940WAT     H220467   6.277   2.563   1.465
 4940WAT    EPW20468   6.311   2.606   1.521
 4941WAT      O20469   6.698   1.712   2.995
 4941WAT     H120470   6.686   1.789   3.034
 4941WAT     H220471   6.619   1.692   2.965
 4941WAT    EPW20472   6.685   1.720   2.997
 4942WAT      O20473   6.771   1.842   2.282
 4942WAT     H120474   6.690   1.875   2.273
 4942WAT     H220475   6.757   1.756   2.288
 4942WAT    EPW20476   6.757   1.834   2.282
 4943WAT      O20477   5.630   1.492   2.892
 4943WAT     H120478   5.646   1.542   2.823
 4943WAT     H220479   5.556   1.451   2.872
 4943WAT    EPW20480   5.621   1.494   2.879
 4944WAT      O20481   6.443   2.323   3.108
 4944WAT     H120482   6.520   2.344   3.144
 4944WAT     H220483   6.453   2.347   3.025
 4944WAT    EPW20484   6.456   2.329   3.101
 4945WAT      O20485   5.359   2.924   2.120
 4945WAT     H120486   5.360   2.843   2.088
 4945WAT     H220487   5.360   2.974   2.048
 4945WAT    EPW20488   5.359   2.920   2.104
 4946WAT      O20489   5.962   2.474   1.361
 4946WAT     H120490   6.047   2.460   1.347
 4946WAT     H220491   5.947   2.549   1.319
 4946WAT    EPW20492   5.973   2.483   1.353
 4947WAT      O20493   6.072   1.956   0.330
 4947WAT     H120494   6.041   2.033   0.355
 4947WAT     H220495   6.138   1.941   0.385
 4947WAT    EPW20496   6.077   1.965   0.342
 4948WAT      O20497   5.125   2.643   0.513
 4948WAT     H120498   5.141   2.634   0.599
 4948WAT     H220499   5.068   2.578   0.497
 4948WAT    EPW20500   5.119   2.632   0.524
 4949WAT      O20501   5.731   2.467   0.978
 4949WAT     H120502   5.707   2.461   1.062
 4949WAT     H220503   5.658   2.449   0.934
 4949WAT    EPW20504   5.717   2.464   0.984
 4950WAT      O20505   5.682   1.744   0.541
 4950WAT     H120506   5.758   1.748   0.499
 4950WAT     H220507   5.659   1.660   0.533
 4950WAT    EPW20508   5.690   1.732   0.534
 4951WAT      O20509   5.704   2.753   0.709
 4951WAT     H120510   5.723   2.816   0.651
 4951WAT     H220511   5.782   2.726   0.737
 4951WAT    EPW20512   5.718   2.758   0.705
 4952WAT      O20513   6.022   2.036   0.907
 4952WAT     H120514   5.935   2.028   0.902
 4952WAT     H220515   6.034   2.079   0.982
 4952WAT    EPW20516   6.011   2.041   0.917
 4953WAT      O20517   6.437   1.213   0.808
 4953WAT     H120518   6.430   1.292   0.771
 4953WAT     H220519   6.372   1.212   0.866
 4953WAT    EPW20520   6.426   1.225   0.811
 4954WAT      O20521   5.068   1.998   0.325
 4954WAT     H120522   5.020   2.071   0.326
 4954WAT     H220523   5.012   1.935   0.348
 4954WAT    EPW20524   5.053   1.999   0.329
 4955WAT      O20525   5.338   1.382   0.363
 4955WAT     H120526   5.338   1.435   0.294
 4955WAT     H220527   5.397   1.321   0.342
 4955WAT    EPW20528   5.347   1.380   0.349
 4956WAT      O20529   5.668   1.648   1.172
 4956WAT     H120530   5.669   1.606   1.096
 4956WAT     H220531   5.716   1.719   1.156
 4956WAT    EPW20532   5.675   1.652   1.158
 4957WAT      O20533   6.296   2.942   0.576
 4957WAT     H120534   6.361   2.979   0.620
 4957WAT     H220535   6.322   2.949   0.493
 4957WAT    EPW20536   6.309   2.949   0.570
 4958WAT      O20537   5.267   1.563   1.094
 4958WAT     H120538   5.187   1.529   1.088
 4958WAT     H220539   5.309   1.527   1.026
 4958WAT    EPW20540   5.261   1.553   1.083
 4959WAT      O20541   5.860   1.362   1.055
 4959WAT     H120542   5.877   1.288   1.011
 4959WAT     H220543   5.787   1.392   1.017
 4959WAT    EPW20544   5.852   1.355   1.042
 4960WAT      O20545   5.515   2.989   0.636
 4960WAT     H120546   5.539   2.974   0.719
 4960WAT     H220547   5.459   2.925   0.619
 4960WAT    EPW20548   5.510   2.977   0.646
 4961WAT      O20549   6.791   1.522   0.441
 4961WAT     H120550   6.855   1.485   0.394
 4961WAT     H220551   6.789   1.473   0.513
 4961WAT    EPW20552   6.800   1.509   0.445
 4962WAT      O20553   5.002   1.669   0.855
 4962WAT     H120554   4.989   1.746   0.894
 4962WAT     H220555   5.064   1.686   0.796
 4962WAT    EPW20556   5.009   1.683   0.852
 4963WAT      O20557   6.218   2.697   0.886
 4963WAT     H120558   6.193   2.722   0.966
 4963WAT     H220559   6.304   2.683   0.895
 4963WAT    EPW20560   6.227   2.699   0.899
 4964WAT      O20561   5.332   2.824   0.489
 4964WAT     H120562   5.271   2.762   0.497
 4964WAT     H220563   5.363   2.811   0.409
 4964WAT    EPW20564   5.328   2.813   0.479
 4965WAT      O20565   6.041   3.008   0.658
 4965WAT     H120566   6.119   2.984   0.626
 4965WAT     H220567   5.984   2.973   0.603
 4965WAT    EPW20568   6.044   3.000   0.645
 4966WAT      O20569   5.455   2.708   0.838
 4966WAT     H120570   5.532   2.734   0.807
 4966WAT     H220571   5.445   2.753   0.912
 4966WAT    EPW20572   5.465   2.718   0.845
 4967WAT      O20573   5.668   2.344   0.239
 4967WAT     H120574   5.679   2.309   0.318
 4967WAT     H220575   5.670   2.276   0.185
 4967WAT    EPW20576   5.670   2.329   0.242
 4968WAT      O20577   6.228   1.659   0.654
 4968WAT     H120578   6.218   1.709   0.725
 4968WAT     H220579   6.159   1.607   0.656
 4968WAT    EPW20580   6.217   1.659   0.665
 4969WAT      O20581   5.724   2.288   0.507
 4969WAT     H120582   5.715   2.374   0.520
 4969WAT     H220583   5.701   2.253   0.583
 4969WAT    EPW20584   5.719   2.296   0.520
 4970WAT      O20585   6.300   2.433   0.476
 4970WAT     H120586   6.254   2.377   0.524
 4970WAT     H220587   6.296   2.507   0.521
 4970WAT    EPW20588   6.293   2.435   0.490
 4971WAT      O20589   4.958   2.714   1.169
 4971WAT     H120590   5.021   2.762   1.205
 4971WAT     H220591   4.972   2.634   1.202
 4971WAT    EPW20592   4.969   2.709   1.180
 4972WAT      O20593   6.638   1.675   0.754
 4972WAT     H120594   6.720   1.657   0.776
 4972WAT     H220595   6.599   1.687   0.832
 4972WAT    EPW20596   6.644   1.674   0.769
 4973WAT      O20597   5.264   1.813   0.408
 4973WAT     H120598   5.345   1.840   0.389
 4973WAT     H220599   5.213   1.875   0.374
 4973WAT    EPW20600   5.268   1.826   0.400
 4974WAT      O20601   6.883   2.807   0.889
 4974WAT     H120602   6.804   2.817   0.852
 4974WAT     H220603   6.867   2.759   0.960
 4974WAT    EPW20604   6.869   2.801   0.894
 4975WAT      O20605   5.822   1.882   1.162
 4975WAT     H120606   5.774   1.919   1.226
 4975WAT     H220607   5.801   1.928   1.092
 4975WAT    EPW20608   5.812   1.894   1.161
 4976WAT      O20609   6.906   1.929   0.639
 4976WAT     H120610   6.969   1.868   0.635
 4976WAT     H220611   6.847   1.901   0.581
 4976WAT    EPW20612   6.907   1.916   0.630
 4977WAT      O20613   5.450   2.492   0.341
 4977WAT     H120614   5.497   2.516   0.411
 4977WAT     H220615   5.506   2.447   0.292
 4977WAT    EPW20616   5.465   2.489   0.344
 4978WAT      O20617   6.630   2.840   0.768
 4978WAT     H120618   6.580   2.911   0.776
 4978WAT     H220619   6.620   2.818   0.684
 4978WAT    EPW20620   6.621   2.847   0.756
 4979WAT      O20621   5.378   2.018   1.046
 4979WAT     H120622   5.342   1.955   1.095
 4979WAT     H220623   5.378   1.984   0.966
 4979WAT    EPW20624   5.373   2.004   1.041
 4980WAT      O20625   5.435   2.078   0.578
 4980WAT     H120626   5.467   2.031   0.513
 4980WAT     H220627   5.386   2.138   0.537
 4980WAT    EPW20628   5.432   2.080   0.562
 4981WAT      O20629   6.494   1.802   0.352
 4981WAT     H120630   6.431   1.831   0.404
 4981WAT     H220631   6.461   1.813   0.272
 4981WAT    EPW20632   6.480   1.808   0.348
 4982WAT      O20633   5.822   2.921   0.513
 4982WAT     H120634   5.820   2.862   0.448
 4982WAT     H220635   5.806   2.996   0.472
 4982WAT    EPW20636   5.819   2.923   0.497
 4983WAT      O20637   6.037   1.445   0.687
 4983WAT     H120638   6.060   1.361   0.676
 4983WAT     H220639   6.056   1.459   0.771
 4983WAT    EPW20640   6.044   1.434   0.698
 4984WAT      O20641   5.218   2.237   1.096
 4984WAT     H120642   5.220   2.281   1.020
 4984WAT     H220643   5.271   2.169   1.082
 4984WAT    EPW20644   5.226   2.233   1.083
 4985WAT      O20645   6.402   2.390   0.933
 4985WAT     H120646   6.437   2.469   0.924
 4985WAT     H220647   6.431   2.347   0.862
 4985WAT    EPW20648   6.412   2.395   0.921
 4986WAT      O20649   5.792   2.742   1.006
 4986WAT     H120650   5.830   2.737   1.085
 4986WAT     H220651   5.774   2.658   0.987
 4986WAT    EPW20652   5.795   2.729   1.015
 4987WAT      O20653   5.906   1.740   0.385
 4987WAT     H120654   5.960   1.804   0.360
 4987WAT     H220655   5.954   1.668   0.376
 4987WAT    EPW20656   5.921   1.739   0.380
 4988WAT      O20657   6.418   2.708   0.198
 4988WAT     H120658   6.338   2.672   0.201
 4988WAT     H220659   6.405   2.788   0.230
 4988WAT    EPW20660   6.404   2.714   0.203
 4989WAT      O20661   6.192   2.545   0.243
 4989WAT     H120662   6.110   2.516   0.237
 4989WAT     H220663   6.226   2.498   0.309
 4989WAT    EPW20664   6.185   2.534   0.252
 4990WAT      O20665   6.512   2.255   0.711
 4990WAT     H120666   6.513   2.235   0.626
 4990WAT     H220667   6.594   2.280   0.727
 4990WAT    EPW20668   6.524   2.256   0.700
 4991WAT      O20669   6.186   2.818   1.142
 4991WAT     H120670   6.233   2.822   1.215
 4991WAT     H220671   6.206   2.891   1.100
 4991WAT    EPW20672   6.195   2.829   1.147
 4992WAT      O20673   6.684   1.283   0.920
 4992WAT     H120674   6.605   1.273   0.884
 4992WAT     H220675   6.677   1.246   0.998
 4992WAT    EPW20676   6.671   1.276   0.926
 4993WAT      O20677   6.128   2.280   0.639
 4993WAT     H120678   6.078   2.309   0.704
 4993WAT     H220679   6.170   2.212   0.674
 4993WAT    EPW20680   6.127   2.274   0.654
 4994WAT      O20681   6.543   2.531   0.371
 4994WAT     H120682   6.511   2.581   0.306
 4994WAT     H220683   6.472   2.490   0.401
 4994WAT    EPW20684   6.528   2.533   0.365
 4995WAT      O20685   5.932   2.446   0.288
 4995WAT     H120686   5.851   2.430   0.258
 4995WAT     H220687   5.955   2.371   0.325
 4995WAT    EPW20688   5.924   2.433   0.289
 4996WAT      O20689   5.282   2.268   0.434
 4996WAT     H120690   5.322   2.343   0.411
 4996WAT     H220691   5.248   2.240   0.359
 4996WAT    EPW20692   5.283   2.275   0.419
 4997WAT      O20693   6.553   2.125   0.462
 4997WAT     H120694   6.568   2.059   0.517
 4997WAT     H220695   6.478   2.103   0.424
 4997WAT    EPW20696   6.544   2.112   0.464
 4998WAT      O20697   5.232   2.360   0.851
 4998WAT     H120698   5.197   2.310   0.789
 4998WAT     H220699   5.206   2.440   0.830
 4998WAT    EPW20700   5.223   2.364   0.839
 4999WAT      O20701   6.785   2.215   0.334
 4999WAT     H120702   6.713   2.185   0.375
 4999WAT     H220703   6.754   2.244   0.258
 4999WAT    EPW20704   6.770   2.215   0.329
 5000WAT      O20705   6.449   1.649   0.976
 5000WAT     H120706   6.381   1.647   1.031
 5000WAT     H220707   6.429   1.587   0.917
 5000WAT    EPW20708   6.436   1.639   0.976
 5001WAT      O20709   6.820   2.844   0.378
 5001WAT     H120710   6.845   2.843   0.294
 5001WAT     H220711   6.874   2.788   0.416
 5001WAT    EPW20712   6.832   2.836   0.371
 5002WAT      O20713   6.324   1.986   1.082
 5002WAT     H120714   6.367   1.991   1.158
 5002WAT     H220715   6.253   2.036   1.096
 5002WAT    EPW20716   6.320   1.994   1.095
 5003WAT      O20717   6.561   2.012   0.926
 5003WAT     H120718   6.586   2.093   0.946
 5003WAT     H220719   6.488   2.001   0.972
 5003WAT    EPW20720   6.554   2.022   0.935
 5004WAT      O20721   6.882   2.100   1.110
 5004WAT     H120722   6.886   2.046   1.042
 5004WAT     H220723   6.960   2.139   1.110
 5004WAT    EPW20724   6.894   2.098   1.100
 5005WAT      O20725   6.770   2.348   0.746
 5005WAT     H120726   6.835   2.293   0.725
 5005WAT     H220727   6.767   2.403   0.679
 5005WAT    EPW20728   6.779   2.348   0.733
 5006WAT      O20729   5.664   2.562   0.511
 5006WAT     H120730   5.670   2.612   0.581
 5006WAT     H220731   5.701   2.610   0.448
 5006WAT    EPW20732   5.670   2.576   0.512
 5007WAT      O20733   5.499   2.429   0.829
 5007WAT     H120734   5.418   2.399   0.841
 5007WAT     H220735   5.488   2.516   0.825
 5007WAT    EPW20736   5.486   2.438   0.830
 5008WAT      O20737   6.428   1.487   0.744
 5008WAT     H120738   6.502   1.528   0.722
 5008WAT     H220739   6.366   1.534   0.705
 5008WAT    EPW20740   6.430   1.500   0.735
 5009WAT      O20741   5.976   2.207   0.423
 5009WAT     H120742   6.028   2.226   0.490
 5009WAT     H220743   5.896   2.217   0.455
 5009WAT    EPW20744   5.972   2.211   0.437
 5010WAT      O20745   5.628   1.774   0.810
 5010WAT     H120746   5.634   1.693   0.844
 5010WAT     H220747   5.654   1.763   0.727
 5010WAT    EPW20748   5.633   1.760   0.803
 5011WAT      O20749   6.537   1.266   0.512
 5011WAT     H120750   6.516   1.347   0.488
 5011WAT     H220751   6.615   1.276   0.550
 5011WAT    EPW20752   6.546   1.279   0.514
 5012WAT      O20753   5.767   1.360   0.737
 5012WAT     H120754   5.852   1.369   0.721
 5012WAT     H220755   5.758   1.275   0.756
 5012WAT    EPW20756   5.778   1.349   0.737
 5013WAT      O20757   5.736   2.737   0.303
 5013WAT     H120758   5.657   2.749   0.267
 5013WAT     H220759   5.787   2.718   0.236
 5013WAT    EPW20760   5.732   2.736   0.288
 5014WAT      O20761   6.150   2.404   1.039
 5014WAT     H120762   6.227   2.402   0.999
 5014WAT     H220763   6.092   2.413   0.974
 5014WAT    EPW20764   6.153   2.405   1.024
 5015WAT      O20765   6.489   2.654   0.916
 5015WAT     H120766   6.520   2.679   0.993
 5015WAT     H220767   6.533   2.703   0.859
 5015WAT    EPW20768   6.500   2.665   0.919
 5016WAT      O20769   5.529   1.904   0.379
 5016WAT     H120770   5.569   1.901   0.302
 5016WAT     H220771   5.578   1.852   0.429
 5016WAT    EPW20772   5.542   1.896   0.375
 5017WAT      O20773   6.211   1.844   0.861
 5017WAT     H120774   6.140   1.893   0.873
 5017WAT     H220775   6.256   1.853   0.935
 5017WAT    EPW20776   6.207   1.852   0.874
 5018WAT      O20777   6.281   1.888   0.502
 5018WAT     H120778   6.290   1.946   0.567
 5018WAT     H220779   6.260   1.814   0.543
 5018WAT    EPW20780   6.279   1.886   0.517
 5019WAT      O20781   5.975   2.940   0.917
 5019WAT     H120782   5.986   2.943   0.830
 5019WAT     H220783   5.931   2.866   0.929
 5019WAT    EPW20784   5.970   2.930   0.906
 5020WAT      O20785   5.775   1.338   0.357
 5020WAT     H120786   5.725   1.387   0.409
 5020WAT     H220787   5.718   1.299   0.304
 5020WAT    EPW20788   5.759   1.339   0.357
 5021WAT      O20789   5.965   2.410   0.833
 5021WAT     H120790   5.891   2.407   0.879
 5021WAT     H220791   5.966   2.491   0.802
 5021WAT    EPW20792   5.954   2.422   0.835
 5022WAT      O20793   5.021   1.436   1.006
 5022WAT     H120794   5.015   1.509   0.958
 5022WAT     H220795   4.948   1.393   0.988
 5022WAT    EPW20796   5.010   1.441   0.996
 5023WAT      O20797   5.531   3.037   0.354
 5023WAT     H120798   5.533   3.022   0.440
 5023WAT     H220799   5.514   2.959   0.319
 5023WAT    EPW20800   5.529   3.023   0.361
 5024WAT      O20801   5.969   2.673   0.751
 5024WAT     H120802   6.047   2.689   0.785
 5024WAT     H220803   5.984   2.669   0.665
 5024WAT    EPW20804   5.982   2.675   0.743
 5025WAT      O20805   6.833   1.921   0.905
 5025WAT     H120806   6.746   1.932   0.911
 5025WAT     H220807   6.849   1.933   0.820
 5025WAT    EPW20808   6.822   1.925   0.893
 5026WAT      O20809   6.294   2.069   0.710
 5026WAT     H120810   6.279   2.010   0.772
 5026WAT     H220811   6.368   2.108   0.737
 5026WAT    EPW20812   6.303   2.066   0.723
 5027WAT      O20813   5.191   3.029   0.896
 5027WAT     H120814   5.143   2.956   0.900
 5027WAT     H220815   5.133   3.093   0.897
 5027WAT    EPW20816   5.176   3.027   0.897
 5028WAT      O20817   6.088   2.160   1.151
 5028WAT     H120818   6.115   2.236   1.119
 5028WAT     H220819   6.008   2.176   1.180
 5028WAT    EPW20820   6.080   2.173   1.150
 5029WAT      O20821   6.385   2.967   0.314
 5029WAT     H120822   6.344   3.042   0.296
 5029WAT     H220823   6.456   2.993   0.358
 5029WAT    EPW20824   6.389   2.982   0.318
 5030WAT      O20825   5.998   2.651   0.478
 5030WAT     H120826   5.978   2.588   0.421
 5030WAT     H220827   6.085   2.654   0.475
 5030WAT    EPW20828   6.008   2.642   0.469
 5031WAT      O20829   6.609   2.742   1.148
 5031WAT     H120830   6.691   2.713   1.141
 5031WAT     H220831   6.579   2.702   1.219
 5031WAT    EPW20832   6.617   2.732   1.157
 5032WAT      O20833   5.383   1.902   0.790
 5032WAT     H120834   5.396   1.960   0.727
 5032WAT     H220835   5.460   1.861   0.797
 5032WAT    EPW20836   5.396   1.904   0.782
 5033WAT      O20837   5.207   1.733   0.662
 5033WAT     H120838   5.224   1.752   0.579
 5033WAT     H220839   5.265   1.780   0.707
 5033WAT    EPW20840   5.218   1.743   0.656
 5034WAT      O20841   5.384   1.414   0.887
 5034WAT     H120842   5.338   1.340   0.895
 5034WAT     H220843   5.373   1.436   0.804
 5034WAT    EPW20844   5.376   1.406   0.876
 5035WAT      O20845   6.586   1.933   0.657
 5035WAT     H120846   6.602   1.848   0.671
 5035WAT     H220847   6.573   1.964   0.738
 5035WAT    EPW20848   6.587   1.925   0.671
 5036WAT      O20849   5.111   2.207   0.654
 5036WAT     H120850   5.155   2.226   0.581
 5036WAT     H220851   5.089   2.123   0.644
 5036WAT    EPW20852   5.115   2.198   0.642
 5037WAT      O20853   6.093   1.480   0.958
 5037WAT     H120854   6.131   1.536   1.013
 5037WAT     H220855   6.020   1.456   1.000
 5037WAT    EPW20856   6.088   1.485   0.972
 5038WAT      O20857   6.510   1.526   0.399
 5038WAT     H120858   6.597   1.519   0.398
 5038WAT     H220859   6.496   1.611   0.390
 5038WAT    EPW20860   6.521   1.537   0.397
 5039WAT      O20861   5.623   2.190   0.747
 5039WAT     H120862   5.588   2.265   0.775
 5039WAT     H220863   5.560   2.155   0.699
 5039WAT    EPW20864   5.609   2.196   0.744
 5040WAT      O20865   5.618   1.479   0.537
 5040WAT     H120866   5.532   1.471   0.554
 5040WAT     H220867   5.655   1.434   0.601
 5040WAT    EPW20868   5.611   1.471   0.549
 5041WAT      O20869   6.777   1.334   0.649
 5041WAT     H120870   6.758   1.319   0.733
 5041WAT     H220871   6.856   1.298   0.640
 5041WAT    EPW20872   6.786   1.326   0.660
 5042WAT      O20873   6.024   1.481   0.400
 5042WAT     H120874   5.955   1.434   0.373
 5042WAT     H220875   6.021   1.473   0.486
 5042WAT    EPW20876   6.013   1.473   0.408
 5043WAT      O20877   6.262   2.670   0.606
 5043WAT     H120878   6.252   2.668   0.693
 5043WAT     H220879   6.286   2.752   0.590
 5043WAT    EPW20880   6.264   2.682   0.616
 5044WAT      O20881   6.232   3.037   0.972
 5044WAT     H120882   6.158   3.003   0.941
 5044WAT     H220883   6.211   3.120   0.990
 5044WAT    EPW20884   6.218   3.044   0.970
 5045WAT      O20885   5.746   2.002   0.918
 5045WAT     H120886   5.712   1.930   0.882
 5045WAT     H220887   5.709   2.067   0.874
 5045WAT    EPW20888   5.736   2.001   0.906
 5046WAT      O20889   6.783   2.452   0.482
 5046WAT     H120890   6.796   2.377   0.440
 5046WAT     H220891   6.709   2.482   0.448
 5046WAT    EPW20892   6.774   2.445   0.471
 5047WAT      O20893   5.641   2.970   0.918
 5047WAT     H120894   5.623   2.987   1.002
 5047WAT     H220895   5.688   2.897   0.921
 5047WAT    EPW20896   5.645   2.962   0.931
 5048WAT      O20897   6.586   2.775   0.507
 5048WAT     H120898   6.653   2.805   0.460
 5048WAT     H220899   6.566   2.699   0.468
 5048WAT    EPW20900   6.593   2.768   0.494
 5049WAT      O20901   5.349   1.488   0.625
 5049WAT     H120902   5.323   1.445   0.553
 5049WAT     H220903   5.298   1.558   0.627
 5049WAT    EPW20904   5.338   1.492   0.614
 5050WAT      O20905   6.277   1.368   0.319
 5050WAT     H120906   6.339   1.427   0.339
 5050WAT     H220907   6.203   1.409   0.338
 5050WAT    EPW20908   6.275   1.383   0.325
 5051WAT      O20909   5.354   2.863   1.064
 5051WAT     H120910   5.421   2.902   1.106
 5051WAT     H220911   5.319   2.928   1.017
 5051WAT    EPW20912   5.359   2.879   1.063
 5052WAT      O20913   5.193   2.625   0.779
 5052WAT     H120914   5.141   2.680   0.822
 5052WAT     H220915   5.273   2.658   0.793
 5052WAT    EPW20916   5.198   2.638   0.788
 5053WAT      O20917   6.679   2.254   1.000
 5053WAT     H120918   6.748   2.219   1.041
 5053WAT     H220919   6.714   2.298   0.933
 5053WAT    EPW20920   6.694   2.255   0.996
 5054WAT      O20921   6.693   1.699   1.097
 5054WAT     H120922   6.690   1.777   1.136
 5054WAT     H220923   6.612   1.687   1.069
 5054WAT    EPW20924   6.681   1.709   1.099
 5055WAT      O20925   6.767   1.802   0.426
 5055WAT     H120926   6.682   1.810   0.407
 5055WAT     H220927   6.779   1.716   0.433
 5055WAT    EPW20928   6.756   1.791   0.424
 5056WAT      O20929   5.643   1.511   0.925
 5056WAT     H120930   5.684   1.471   0.859
 5056WAT     H220931   5.563   1.477   0.923
 5056WAT    EPW20932   5.637   1.500   0.915
 5057WAT      O20933   6.461   2.310   1.213
 5057WAT     H120934   6.539   2.331   1.245
 5057WAT     H220935   6.470   2.322   1.127
 5057WAT    EPW20936   6.474   2.315   1.205
 5058WAT      O20937   5.457   2.759   0.237
 5058WAT     H120938   5.443   2.675   0.258
 5058WAT     H220939   5.423   2.765   0.157
 5058WAT    EPW20940   5.450   2.747   0.228
 5059WAT      O20941   5.155   3.017   0.609
 5059WAT     H120942   5.189   3.017   0.690
 5059WAT     H220943   5.211   2.969   0.563
 5059WAT    EPW20944   5.168   3.010   0.615
 5060WAT      O20945   5.129   0.585   7.436
 5060WAT     H120946   5.118   0.608   7.519
 5060WAT     H220947   5.100   0.503   7.432
 5060WAT    EPW20948   5.123   0.577   7.448
 5061WAT      O20949   6.704   0.946   7.189
 5061WAT     H120950   6.767   0.893   7.219
 5061WAT     H220951   6.658   0.895   7.135
 5061WAT    EPW20952   6.706   0.931   7.186
 5062WAT      O20953   5.327   0.533   7.000
 5062WAT     H120954   5.295   0.483   6.936
 5062WAT     H220955   5.334   0.479   7.068
 5062WAT    EPW20956   5.323   0.518   7.000
 5063WAT      O20957   6.427   0.208   7.492
 5063WAT     H120958   6.445   0.222   7.408
 5063WAT     H220959   6.433   0.122   7.500
 5063WAT    EPW20960   6.431   0.198   7.481
 5064WAT      O20961   5.353   0.747   7.381
 5064WAT     H120962   5.413   0.749   7.444
 5064WAT     H220963   5.299   0.683   7.406
 5064WAT    EPW20964   5.354   0.737   7.394
 5065WAT      O20965   5.171   0.948   6.938
 5065WAT     H120966   5.224   0.963   6.870
 5065WAT     H220967   5.220   0.900   6.992
 5065WAT    EPW20968   5.186   0.943   6.936
 5066WAT      O20969   5.247   0.286   7.576
 5066WAT     H120970   5.202   0.275   7.502
 5066WAT     H220971   5.261   0.205   7.603
 5066WAT    EPW20972   5.242   0.272   7.569
 5067WAT      O20973   5.803   0.722   7.654
 5067WAT     H120974   5.843   0.652   7.687
 5067WAT     H220975   5.861   0.786   7.667
 5067WAT    EPW20976   5.818   0.721   7.661
 5068WAT      O20977   5.928   0.670   7.323
 5068WAT     H120978   5.959   0.605   7.372
 5068WAT     H220979   5.957   0.651   7.242
 5068WAT    EPW20980   5.937   0.658   7.318
 5069WAT      O20981   5.080   1.065   7.616
 5069WAT     H120982   5.010   1.106   7.586
 5069WAT     H220983   5.117   1.031   7.545
 5069WAT    EPW20984   5.075   1.066   7.601
 5070WAT      O20985   5.672   0.769   7.301
 5070WAT     H120986   5.644   0.782   7.383
 5070WAT     H220987   5.753   0.740   7.312
 5070WAT    EPW20988   5.680   0.766   7.315
 5071WAT      O20989   6.291   1.053   7.086
 5071WAT     H120990   6.361   1.104   7.098
 5071WAT     H220991   6.317   0.976   7.118
 5071WAT    EPW20992   6.305   1.049   7.093
 5072WAT      O20993   6.077   1.068   7.255
 5072WAT     H120994   6.091   1.138   7.304
 5072WAT     H220995   6.146   1.065   7.201
 5072WAT    EPW20996   6.089   1.078   7.254
 5073WAT      O20997   5.200   0.974   7.381
 5073WAT     H120998   5.254   0.906   7.392
 5073WAT     H220999   5.251   1.034   7.342
 5073WAT    EPW21000   5.216   0.973   7.377
 5074WAT      O21001   5.409   0.724   7.764
 5074WAT     H121002   5.455   0.775   7.711
 5074WAT     H221003   5.426   0.644   7.735
 5074WAT    EPW21004   5.418   0.720   7.752
 5075WAT      O21005   5.660   1.076   7.587
 5075WAT     H121006   5.738   1.115   7.579
 5075WAT     H221007   5.603   1.141   7.571
 5075WAT    EPW21008   5.663   1.092   7.584
 5076WAT      O21009   6.490   1.251   7.079
 5076WAT     H121010   6.533   1.228   7.007
 5076WAT     H221011   6.547   1.301   7.122
 5076WAT    EPW21012   6.504   1.255   7.075
 5077WAT      O21013   5.972   0.869   6.911
 5077WAT     H121014   5.935   0.927   6.964
 5077WAT     H221015   6.046   0.908   6.886
 5077WAT    EPW21016   5.978   0.883   6.915
 5078WAT      O21017   6.745   1.177   7.463
 5078WAT     H121018   6.706   1.254   7.470
 5078WAT     H221019   6.680   1.122   7.445
 5078WAT    EPW21020   6.730   1.180   7.462
 5079WAT      O21021   6.426   0.759   7.431
 5079WAT     H121022   6.499   0.712   7.442
 5079WAT     H221023   6.371   0.723   7.489
 5079WAT    EPW21024   6.429   0.746   7.441
 5080WAT      O21025   6.672   0.538   7.041
 5080WAT     H121026   6.685   0.500   7.118
 5080WAT     H221027   6.753   0.559   7.015
 5080WAT    EPW21028   6.686   0.535   7.048
 5081WAT      O21029   5.434   0.499   7.595
 5081WAT     H121030   5.481   0.494   7.522
 5081WAT     H221031   5.380   0.430   7.589
 5081WAT    EPW21032   5.433   0.488   7.583
 5082WAT      O21033   5.315   1.125   7.755
 5082WAT     H121034   5.240   1.114   7.712
 5082WAT     H221035   5.365   1.166   7.696
 5082WAT    EPW21036   5.311   1.129   7.740
 5083WAT      O21037   6.420   0.133   6.964
 5083WAT     H121038   6.444   0.208   6.926
 5083WAT     H221039   6.345   0.153   7.004
 5083WAT    EPW21040   6.413   0.147   6.965
 5084WAT      O21041   5.562   0.501   7.338
 5084WAT     H121042   5.587   0.582   7.316
 5084WAT     H221043   5.629   0.452   7.311
 5084WAT    EPW21044   5.576   0.506   7.331
 5085WAT      O21045   5.143   0.671   7.703
 5085WAT     H121046   5.101   0.736   7.744
 5085WAT     H221047   5.227   0.688   7.719
 5085WAT    EPW21048   5.149   0.683   7.711
 5086WAT      O21049   5.103   0.296   7.329
 5086WAT     H121050   5.095   0.213   7.303
 5086WAT     H221051   5.174   0.324   7.287
 5086WAT    EPW21052   5.112   0.288   7.319
 5087WAT      O21053   5.999   0.926   7.685
 5087WAT     H121054   5.968   1.006   7.675
 5087WAT     H221055   6.035   0.907   7.608
 5087WAT    EPW21056   6.000   0.935   7.672
 5088WAT      O21057   5.038   0.783   7.255
 5088WAT     H121058   5.088   0.848   7.287
 5088WAT     H221059   5.045   0.720   7.315
 5088WAT    EPW21060   5.046   0.784   7.269
 5089WAT      O21061   5.052   0.645   7.009
 5089WAT     H121062   5.131   0.609   7.007
 5089WAT     H221063   5.054   0.692   7.083
 5089WAT    EPW21064   5.064   0.647   7.020
 5090WAT      O21065   5.070   0.408   7.754
 5090WAT     H121066   5.125   0.362   7.705
 5090WAT     H221067   5.101   0.490   7.749
 5090WAT    EPW21068   5.082   0.414   7.746
 5091WAT      O21069   5.570   0.820   7.554
 5091WAT     H121070   5.591   0.904   7.565
 5091WAT     H221071   5.638   0.778   7.591
 5091WAT    EPW21072   5.583   0.826   7.561
 5092WAT      O21073   5.280   0.033   7.692
 5092WAT     H121074   5.290   0.040   7.778
 5092WAT     H221075   5.291  -0.052   7.676
 5092WAT    EPW21076   5.283   0.022   7.702
 5093WAT      O21077   6.210   0.265   7.110
 5093WAT     H121078   6.166   0.288   7.038
 5093WAT     H221079   6.149   0.266   7.172
 5093WAT    EPW21080   6.195   0.269   7.109
 5094WAT      O21081   6.659   0.612   7.465
 5094WAT     H121082   6.668   0.575   7.544
 5094WAT     H221083   6.675   0.547   7.409
 5094WAT    EPW21084   6.662   0.597   7.469
 5095WAT      O21085   6.124   0.721   7.838
 5095WAT     H121086   6.088   0.793   7.806
 5095WAT     H221087   6.122   0.733   7.925
 5095WAT    EPW21088   6.118   0.733   7.846
 5096WAT      O21089   5.653   1.048   7.254
 5096WAT     H121090   5.663   0.967   7.286
 5096WAT     H221091   5.717   1.055   7.195
 5096WAT    EPW21092   5.664   1.037   7.250
 5097WAT      O21093   5.867   1.058   7.081
 5097WAT     H121094   5.932   1.059   7.139
 5097WAT     H221095   5.869   1.138   7.046
 5097WAT    EPW21096   5.877   1.070   7.084
 5098WAT      O21097   5.355   0.360   7.215
 5098WAT     H121098   5.401   0.290   7.191
 5098WAT     H221099   5.412   0.407   7.262
 5098WAT    EPW21100   5.370   0.357   7.219
 5099WAT      O21101   6.019   0.272   7.318
 5099WAT     H121102   6.035   0.339   7.373
 5099WAT     H221103   6.024   0.202   7.370
 5099WAT    EPW21104   6.022   0.272   7.334
 5100WAT      O21105   5.955   0.512   7.761
 5100WAT     H121106   5.936   0.464   7.831
 5100WAT     H221107   6.015   0.569   7.790
 5100WAT    EPW21108   5.961   0.513   7.775
 5101WAT      O21109   5.548   1.100   6.892
 5101WAT     H121110   5.573   1.026   6.931
 5101WAT     H221111   5.559   1.160   6.954
 5101WAT    EPW21112   5.553   1.098   6.907
 5102WAT      O21113   6.853   1.124   7.045
 5102WAT     H121114   6.917   1.073   7.014
 5102WAT     H221115   6.804   1.069   7.091
 5102WAT    EPW21116   6.855   1.108   7.047
 5103WAT      O21117   5.377   0.137   6.793
 5103WAT     H121118   5.363   0.054   6.819
 5103WAT     H221119   5.458   0.133   6.760
 5103WAT    EPW21120   5.387   0.124   6.792
 5104WAT      O21121   6.686   0.501   7.722
 5104WAT     H121122   6.696   0.569   7.776
 5104WAT     H221123   6.759   0.455   7.733
 5104WAT    EPW21124   6.698   0.505   7.732
 5105WAT      O21125   6.903   0.881   7.814
 5105WAT     H121126   6.907   0.933   7.745
 5105WAT     H221127   6.973   0.903   7.861
 5105WAT    EPW21128   6.914   0.892   7.811
 5106WAT      O21129   6.553   0.786   7.028
 5106WAT     H121130   6.586   0.705   7.031
 5106WAT     H221131   6.478   0.779   7.072
 5106WAT    EPW21132   6.547   0.773   7.035
 5107WAT      O21133   6.268   0.578   6.986
 5107WAT     H121134   6.328   0.515   6.982
 5107WAT     H221135   6.239   0.584   6.904
 5107WAT    EPW21136   6.273   0.569   6.974
 5108WAT      O21137   5.919   1.200   7.588
 5108WAT     H121138   5.892   1.280   7.609
 5108WAT     H221139   5.986   1.215   7.533
 5108WAT    EPW21140   5.925   1.214   7.583
 5109WAT      O21141   5.822   0.444   6.973
 5109WAT     H121142   5.750   0.486   6.946
 5109WAT     H221143   5.875   0.507   6.999
 5109WAT    EPW21144   5.819   0.459   6.973
 5110WAT      O21145   6.713   0.406   7.284
 5110WAT     H121146   6.782   0.354   7.292
 5110WAT     H221147   6.647   0.350   7.272
 5110WAT    EPW21148   6.713   0.390   7.284
 5111WAT      O21149   6.270   0.612   7.615
 5111WAT     H121150   6.237   0.648   7.687
 5111WAT     H221151   6.318   0.546   7.645
 5111WAT    EPW21152   6.272   0.608   7.630
 5112WAT      O21153   6.051   0.485   7.494
 5112WAT     H121154   6.008   0.480   7.570
 5112WAT     H221155   6.126   0.523   7.516
 5112WAT    EPW21156   6.055   0.490   7.509
 5113WAT      O21157   6.412   1.191   7.730
 5113WAT     H121158   6.353   1.142   7.772
 5113WAT     H221159   6.488   1.160   7.759
 5113WAT    EPW21160   6.415   1.179   7.740
 5114WAT      O21161   6.094   0.860   7.437
 5114WAT     H121162   6.095   0.923   7.377
 5114WAT     H221163   6.042   0.799   7.402
 5114WAT    EPW21164   6.086   0.861   7.423
 5115WAT      O21165   5.594   0.849   7.019
 5115WAT     H121166   5.639   0.843   7.093
 5115WAT     H221167   5.511   0.841   7.045
 5115WAT    EPW21168   5.588   0.847   7.033
 5116WAT      O21169   6.423   0.400   7.698
 5116WAT     H121170   6.507   0.422   7.708
 5116WAT     H221171   6.426   0.339   7.636
 5116WAT    EPW21172   6.436   0.394   7.691
 5117WAT      O21173   6.524   1.019   7.384
 5117WAT     H121174   6.489   0.943   7.410
 5117WAT     H221175   6.575   0.996   7.317
 5117WAT    EPW21176   6.526   1.004   7.378
 5118WAT      O21177   5.340   0.792   7.102
 5118WAT     H121178   5.343   0.781   7.189
 5118WAT     H221179   5.333   0.711   7.071
 5118WAT    EPW21180   5.339   0.778   7.110
 5119WAT      O21181   5.599   0.598   6.901
 5119WAT     H121182   5.519   0.572   6.921
 5119WAT     H221183   5.603   0.679   6.934
 5119WAT    EPW21184   5.588   0.606   6.909
 5120WAT      O21185   6.480   0.255   7.219
 5120WAT     H121186   6.496   0.200   7.153
 5120WAT     H221187   6.402   0.288   7.200
 5120WAT    EPW21188   6.471   0.251   7.207
 5121WAT      O21189   5.396   1.145   7.274
 5121WAT     H121190   5.386   1.194   7.203
 5121WAT     H221191   5.476   1.111   7.265
 5121WAT    EPW21192   5.406   1.148   7.263
 5122WAT      O21193   5.760   0.342   7.224
 5122WAT     H121194   5.777   0.367   7.142
 5122WAT     H221195   5.837   0.316   7.254
 5122WAT    EPW21196   5.774   0.342   7.216
 5123WAT      O21197   6.647   1.179   6.865
 5123WAT     H121198   6.718   1.165   6.914
 5123WAT     H221199   6.624   1.099   6.839
 5123WAT    EPW21200   6.654   1.165   6.868
 5124WAT      O21201   6.323   0.791   7.173
 5124WAT     H121202   6.341   0.770   7.256
 5124WAT     H221203   6.292   0.717   7.139
 5124WAT    EPW21204   6.321   0.777   7.180
 5125WAT      O21205   5.318   0.929   7.959
 5125WAT     H121206   5.352   0.862   7.915
 5125WAT     H221207   5.330   0.997   7.905
 5125WAT    EPW21208   5.325   0.929   7.945
 5126WAT      O21209   6.003   0.633   7.058
 5126WAT     H121210   6.084   0.606   7.041
 5126WAT     H221211   5.995   0.706   7.011
 5126WAT    EPW21212   6.014   0.640   7.048
 5127WAT      O21213   5.109   0.555   5.527
 5127WAT     H121214   5.108   0.585   5.609
 5127WAT     H221215   5.129   0.471   5.536
 5127WAT    EPW21216   5.112   0.547   5.541
 5128WAT      O21217   6.682   0.974   5.302
 5128WAT     H121218   6.755   0.933   5.326
 5128WAT     H221219   6.642   0.916   5.251
 5128WAT    EPW21220   6.686   0.960   5.298
 5129WAT      O21221   5.333   0.529   5.103
 5129WAT     H121222   5.297   0.479   5.041
 5129WAT     H221223   5.351   0.473   5.167
 5129WAT    EPW21224   5.330   0.514   5.103
 5130WAT      O21225   6.383   0.280   5.626
 5130WAT     H121226   6.421   0.263   5.549
 5130WAT     H221227   6.325   0.215   5.634
 5130WAT    EPW21228   6.380   0.268   5.615
 5131WAT      O21229   5.335   0.704   5.477
 5131WAT     H121230   5.384   0.670   5.541
 5131WAT     H221231   5.261   0.658   5.481
 5131WAT    EPW21232   5.331   0.692   5.487
 5132WAT      O21233   5.160   0.945   5.057
 5132WAT     H121234   5.215   0.966   4.992
 5132WAT     H221235   5.208   0.896   5.110
 5132WAT    EPW21236   5.175   0.941   5.055
 5133WAT      O21237   5.123   0.786   6.195
 5133WAT     H121238   5.146   0.771   6.278
 5133WAT     H221239   5.052   0.735   6.185
 5133WAT    EPW21240   5.116   0.776   6.206
 5134WAT      O21241   5.728   0.640   6.651
 5134WAT     H121242   5.697   0.622   6.731
 5134WAT     H221243   5.659   0.625   6.599
 5134WAT    EPW21244   5.713   0.635   6.655
 5135WAT      O21245   5.265   0.344   5.735
 5135WAT     H121246   5.253   0.301   5.660
 5135WAT     H221247   5.317   0.291   5.781
 5135WAT    EPW21248   5.271   0.330   5.731
 5136WAT      O21249   5.716   0.923   6.370
 5136WAT     H121250   5.731   0.988   6.315
 5136WAT     H221251   5.796   0.898   6.395
 5136WAT    EPW21252   5.730   0.929   6.366
 5137WAT      O21253   5.854   0.751   5.789
 5137WAT     H121254   5.877   0.670   5.812
 5137WAT     H221255   5.930   0.794   5.787
 5137WAT    EPW21256   5.868   0.746   5.792
 5138WAT      O21257   5.943   0.694   5.432
 5138WAT     H121258   5.964   0.624   5.480
 5138WAT     H221259   5.965   0.671   5.351
 5138WAT    EPW21260   5.949   0.680   5.427
 5139WAT      O21261   5.094   1.048   5.739
 5139WAT     H121262   5.028   1.091   5.701
 5139WAT     H221263   5.136   1.012   5.671
 5139WAT    EPW21264   5.090   1.049   5.723
 5140WAT      O21265   5.679   0.759   5.405
 5140WAT     H121266   5.649   0.773   5.485
 5140WAT     H221267   5.763   0.740   5.417
 5140WAT    EPW21268   5.687   0.758   5.418
 5141WAT      O21269   6.265   1.069   5.210
 5141WAT     H121270   6.335   1.121   5.215
 5141WAT     H221271   6.297   0.991   5.232
 5141WAT    EPW21272   6.280   1.065   5.214
 5142WAT      O21273   6.084   1.126   5.409
 5142WAT     H121274   6.103   1.205   5.439
 5142WAT     H221275   6.143   1.114   5.345
 5142WAT    EPW21276   6.096   1.136   5.404
 5143WAT      O21277   5.223   0.956   5.506
 5143WAT     H121278   5.270   0.882   5.512
 5143WAT     H221279   5.276   1.009   5.462
 5143WAT    EPW21280   5.238   0.953   5.501
 5144WAT      O21281   6.306   1.105   6.204
 5144WAT     H121282   6.375   1.158   6.194
 5144WAT     H221283   6.293   1.073   6.124
 5144WAT    EPW21284   6.314   1.108   6.191
 5145WAT      O21285   5.390   0.806   5.837
 5145WAT     H121286   5.452   0.800   5.775
 5145WAT     H221287   5.406   0.738   5.889
 5145WAT    EPW21288   5.401   0.795   5.835
 5146WAT      O21289   5.662   1.080   5.758
 5146WAT     H121290   5.739   1.099   5.721
 5146WAT     H221291   5.607   1.136   5.721
 5146WAT    EPW21292   5.665   1.091   5.747
 5147WAT      O21293   6.464   1.266   5.191
 5147WAT     H121294   6.509   1.241   5.121
 5147WAT     H221295   6.523   1.309   5.239
 5147WAT    EPW21296   6.479   1.268   5.188
 5148WAT      O21297   5.498   1.170   6.390
 5148WAT     H121298   5.547   1.139   6.455
 5148WAT     H221299   5.440   1.107   6.376
 5148WAT    EPW21300   5.496   1.156   6.398
 5149WAT      O21301   6.204   0.853   6.588
 5149WAT     H121302   6.203   0.887   6.668
 5149WAT     H221303   6.288   0.832   6.576
 5149WAT    EPW21304   6.216   0.855   6.598
 5150WAT      O21305   5.969   0.887   5.032
 5150WAT     H121306   5.939   0.944   5.090
 5150WAT     H221307   6.042   0.924   5.002
 5150WAT    EPW21308   5.975   0.901   5.036
 5151WAT      O21309   5.278   1.025   6.235
 5151WAT     H121310   5.227   0.955   6.228
 5151WAT     H221311   5.323   1.026   6.160
 5151WAT    EPW21312   5.277   1.015   6.223
 5152WAT      O21313   6.060   1.137   6.317
 5152WAT     H121314   6.137   1.130   6.278
 5152WAT     H221315   6.003   1.132   6.251
 5152WAT    EPW21316   6.063   1.135   6.302
 5153WAT      O21317   6.761   1.170   5.582
 5153WAT     H121318   6.726   1.248   5.597
 5153WAT     H221319   6.691   1.118   5.569
 5153WAT    EPW21320   6.745   1.174   5.582
 5154WAT      O21321   6.469   0.771   5.623
 5154WAT     H121322   6.531   0.720   5.590
 5154WAT     H221323   6.397   0.721   5.621
 5154WAT    EPW21324   6.467   0.756   5.618
 5155WAT      O21325   5.455   0.883   6.498
 5155WAT     H121326   5.535   0.909   6.475
 5155WAT     H221327   5.441   0.926   6.572
 5155WAT    EPW21328   5.465   0.893   6.506
 5156WAT      O21329   5.648   0.416   5.922
 5156WAT     H121330   5.666   0.419   6.007
 5156WAT     H221331   5.589   0.352   5.916
 5156WAT    EPW21332   5.642   0.407   5.934
 5157WAT      O21333   5.704   0.466   6.187
 5157WAT     H121334   5.687   0.551   6.192
 5157WAT     H221335   5.642   0.430   6.237
 5157WAT    EPW21336   5.692   0.473   6.195
 5158WAT      O21337   6.311   0.542   6.192
 5158WAT     H121338   6.255   0.507   6.249
 5158WAT     H221339   6.304   0.628   6.207
 5158WAT    EPW21340   6.302   0.549   6.202
 5159WAT      O21341   4.965   0.843   6.766
 5159WAT     H121342   5.023   0.846   6.831
 5159WAT     H221343   4.954   0.757   6.752
 5159WAT    EPW21344   4.972   0.830   6.774
 5160WAT      O21345   6.667   0.533   5.155
 5160WAT     H121346   6.681   0.485   5.226
 5160WAT     H221347   6.746   0.564   5.135
 5160WAT    EPW21348   6.681   0.531   5.162
 5161WAT      O21349   5.450   0.548   5.678
 5161WAT     H121350   5.506   0.512   5.622
 5161WAT     H221351   5.394   0.484   5.696
 5161WAT    EPW21352   5.450   0.534   5.672
 5162WAT      O21353   5.291   1.216   5.834
 5162WAT     H121354   5.221   1.174   5.804
 5162WAT     H221355   5.342   1.224   5.764
 5162WAT    EPW21356   5.288   1.211   5.820
 5163WAT      O21357   6.861   0.977   6.530
 5163WAT     H121358   6.784   0.974   6.489
 5163WAT     H221359   6.845   0.936   6.605
 5163WAT    EPW21360   6.847   0.971   6.535
 5164WAT      O21361   6.407   0.125   5.055
 5164WAT     H121362   6.436   0.202   5.025
 5164WAT     H221363   6.338   0.147   5.103
 5164WAT    EPW21364   6.401   0.140   5.057
 5165WAT      O21365   5.598   0.489   5.446
 5165WAT     H121366   5.621   0.570   5.421
 5165WAT     H221367   5.661   0.439   5.413
 5165WAT    EPW21368   5.611   0.494   5.438
 5166WAT      O21369   5.136   0.711   5.769
 5166WAT     H121370   5.084   0.768   5.810
 5166WAT     H221371   5.216   0.743   5.782
 5166WAT    EPW21372   5.140   0.724   5.777
 5167WAT      O21373   5.200   0.274   5.475
 5167WAT     H121374   5.175   0.196   5.445
 5167WAT     H221375   5.261   0.299   5.417
 5167WAT    EPW21376   5.205   0.266   5.462
 5168WAT      O21377   6.076   0.922   5.764
 5168WAT     H121378   6.029   0.993   5.744
 5168WAT     H221379   6.111   0.898   5.688
 5168WAT    EPW21380   6.074   0.929   5.750
 5169WAT      O21381   5.030   0.796   5.372
 5169WAT     H121382   5.086   0.849   5.414
 5169WAT     H221383   5.008   0.737   5.432
 5169WAT    EPW21384   5.035   0.795   5.387
 5170WAT      O21385   5.452   0.601   6.010
 5170WAT     H121386   5.500   0.644   6.068
 5170WAT     H221387   5.510   0.557   5.963
 5170WAT    EPW21388   5.468   0.601   6.012
 5171WAT      O21389   5.048   0.636   5.136
 5171WAT     H121390   5.128   0.601   5.132
 5171WAT     H221391   5.051   0.688   5.205
 5171WAT    EPW21392   5.060   0.638   5.145
 5172WAT      O21393   5.078   0.476   5.895
 5172WAT     H121394   5.122   0.422   5.842
 5172WAT     H221395   5.102   0.555   5.869
 5172WAT    EPW21396   5.088   0.480   5.884
 5173WAT      O21397   6.610   0.975   6.391
 5173WAT     H121398   6.569   1.052   6.396
 5173WAT     H221399   6.610   0.957   6.306
 5173WAT    EPW21400   6.604   0.984   6.379
 5174WAT      O21401   5.615   0.826   5.663
 5174WAT     H121402   5.623   0.910   5.683
 5174WAT     H221403   5.683   0.788   5.703
 5174WAT    EPW21404   5.626   0.833   5.672
 5175WAT      O21405   5.429   0.237   5.938
 5175WAT     H121406   5.379   0.282   5.994
 5175WAT     H221407   5.445   0.162   5.979
 5175WAT    EPW21408   5.424   0.233   5.952
 5176WAT      O21409   5.835   1.108   6.158
 5176WAT     H121410   5.816   1.040   6.107
 5176WAT     H221411   5.822   1.177   6.106
 5176WAT    EPW21412   5.831   1.108   6.143
 5177WAT      O21413   5.221   0.367   6.810
 5177WAT     H121414   5.230   0.410   6.735
 5177WAT     H221415   5.269   0.295   6.798
 5177WAT    EPW21416   5.229   0.363   6.797
 5178WAT      O21417   6.434   0.523   6.631
 5178WAT     H121418   6.456   0.605   6.609
 5178WAT     H221419   6.469   0.476   6.566
 5178WAT    EPW21420   6.443   0.529   6.618
 5179WAT      O21421   5.827   0.901   6.678
 5179WAT     H121422   5.869   0.890   6.753
 5179WAT     H221423   5.793   0.822   6.661
 5179WAT    EPW21424   5.828   0.888   6.686
 5180WAT      O21425   6.218   0.256   5.226
 5180WAT     H121426   6.175   0.285   5.156
 5180WAT     H221427   6.156   0.250   5.287
 5180WAT    EPW21428   6.202   0.259   5.225
 5181WAT      O21429   6.664   0.588   5.550
 5181WAT     H121430   6.666   0.554   5.630
 5181WAT     H221431   6.671   0.518   5.498
 5181WAT    EPW21432   6.665   0.573   5.554
 5182WAT      O21433   6.270   0.973   5.959
 5182WAT     H121434   6.206   0.952   5.903
 5182WAT     H221435   6.308   1.041   5.921
 5182WAT    EPW21436   6.266   0.980   5.945
 5183WAT      O21437   6.258   0.611   5.925
 5183WAT     H121438   6.187   0.658   5.944
 5183WAT     H221439   6.273   0.565   5.997
 5183WAT    EPW21440   6.250   0.611   5.938
 5184WAT      O21441   5.690   1.039   5.404
 5184WAT     H121442   5.692   0.953   5.413
 5184WAT     H221443   5.748   1.055   5.341
 5184WAT    EPW21444   5.699   1.029   5.396
 5185WAT      O21445   5.887   1.078   5.215
 5185WAT     H121446   5.949   1.103   5.271
 5185WAT     H221447   5.871   1.150   5.168
 5185WAT    EPW21448   5.894   1.092   5.217
 5186WAT      O21449   6.562   0.386   6.423
 5186WAT     H121450   6.549   0.383   6.337
 5186WAT     H221451   6.645   0.411   6.430
 5186WAT    EPW21452   6.572   0.389   6.411
 5187WAT      O21453   6.205   1.001   6.829
 5187WAT     H121454   6.239   1.018   6.907
 5187WAT     H221455   6.230   1.069   6.780
 5187WAT    EPW21456   6.214   1.013   6.833
 5188WAT      O21457   5.408   0.351   5.303
 5188WAT     H121458   5.459   0.289   5.270
 5188WAT     H221459   5.462   0.399   5.351
 5188WAT    EPW21460   5.423   0.349   5.305
 5189WAT      O21461   6.118   0.428   6.360
 5189WAT     H121462   6.072   0.480   6.412
 5189WAT     H221463   6.145   0.364   6.412
 5189WAT    EPW21464   6.115   0.426   6.375
 5190WAT      O21465   6.016   0.253   5.428
 5190WAT     H121466   6.022   0.324   5.477
 5190WAT     H221467   5.997   0.189   5.485
 5190WAT    EPW21468   6.014   0.254   5.443
 5191WAT      O21469   6.512   0.734   5.902
 5191WAT     H121470   6.506   0.765   5.821
 5191WAT     H221471   6.433   0.700   5.917
 5191WAT    EPW21472   6.499   0.734   5.892
 5192WAT      O21473   5.908   0.480   5.840
 5192WAT     H121474   5.825   0.454   5.852
 5192WAT     H221475   5.944   0.467   5.918
 5192WAT    EPW21476   5.901   0.474   5.853
 5193WAT      O21477   5.547   1.107   5.006
 5193WAT     H121478   5.573   1.033   5.045
 5193WAT     H221479   5.550   1.166   5.070
 5193WAT    EPW21480   5.552   1.105   5.021
 5194WAT      O21481   5.265   0.411   6.088
 5194WAT     H121482   5.322   0.476   6.076
 5194WAT     H221483   5.198   0.432   6.035
 5194WAT    EPW21484   5.264   0.424   6.078
 5195WAT      O21485   6.840   1.139   5.149
 5195WAT     H121486   6.900   1.084   5.118
 5195WAT     H221487   6.787   1.087   5.195
 5195WAT    EPW21488   6.841   1.123   5.151
 5196WAT      O21489   6.555   0.430   6.139
 5196WAT     H121490   6.541   0.379   6.070
 5196WAT     H221491   6.477   0.467   6.153
 5196WAT    EPW21492   6.541   0.428   6.131
 5197WAT      O21493   5.377   0.131   4.901
 5197WAT     H121494   5.363   0.049   4.929
 5197WAT     H221495   5.451   0.125   4.855
 5197WAT    EPW21496   5.386   0.118   4.899
 5198WAT      O21497   5.244   0.521   6.578
 5198WAT     H121498   5.224   0.474   6.508
 5198WAT     H221499   5.208   0.599   6.561
 5198WAT    EPW21500   5.235   0.525   6.565
 5199WAT      O21501   6.676   0.518   5.815
 5199WAT     H121502   6.644   0.585   5.860
 5199WAT     H221503   6.755   0.506   5.850
 5199WAT    EPW21504   6.683   0.526   5.827
 5200WAT      O21505   6.866   0.935   5.969
 5200WAT     H121506   6.898   0.989   5.909
 5200WAT     H221507   6.930   0.930   6.028
 5200WAT    EPW21508   6.880   0.942   5.969
 5201WAT      O21509   6.555   0.787   5.149
 5201WAT     H121510   6.586   0.706   5.153
 5201WAT     H221511   6.479   0.782   5.192
 5201WAT    EPW21512   6.548   0.774   5.156
 5202WAT      O21513   6.818   0.352   6.811
 5202WAT     H121514   6.789   0.270   6.811
 5202WAT     H221515   6.903   0.343   6.828
 5202WAT    EPW21516   6.826   0.338   6.813
 5203WAT      O21517   6.818   0.496   6.403
 5203WAT     H121518   6.889   0.454   6.374
 5203WAT     H221519   6.798   0.549   6.337
 5203WAT    EPW21520   6.826   0.497   6.389
 5204WAT      O21521   6.265   0.591   5.089
 5204WAT     H121522   6.324   0.526   5.090
 5204WAT     H221523   6.239   0.593   5.006
 5204WAT    EPW21524   6.270   0.582   5.077
 5205WAT      O21525   5.637   0.737   6.171
 5205WAT     H121526   5.649   0.784   6.244
 5205WAT     H221527   5.667   0.789   6.108
 5205WAT    EPW21528   5.643   0.752   6.173
 5206WAT      O21529   5.495   0.609   6.506
 5206WAT     H121530   5.421   0.582   6.544
 5206WAT     H221531   5.482   0.695   6.495
 5206WAT    EPW21532   5.482   0.618   6.510
 5207WAT      O21533   5.973   0.466   6.120
 5207WAT     H121534   6.021   0.440   6.187
 5207WAT     H221535   5.891   0.458   6.149
 5207WAT    EPW21536   5.968   0.461   6.134
 5208WAT      O21537   5.922   1.136   5.663
 5208WAT     H121538   5.910   1.221   5.677
 5208WAT     H221539   5.945   1.132   5.579
 5208WAT    EPW21540   5.923   1.148   5.652
 5209WAT      O21541   5.737   0.915   5.983
 5209WAT     H121542   5.698   0.968   5.926
 5209WAT     H221543   5.785   0.863   5.932
 5209WAT    EPW21544   5.738   0.915   5.967
 5210WAT      O21545   6.170   0.538   6.726
 5210WAT     H121546   6.248   0.533   6.685
 5210WAT     H221547   6.118   0.574   6.666
 5210WAT    EPW21548   6.174   0.543   6.711
 5211WAT      O21549   6.477   0.798   6.569
 5211WAT     H121550   6.506   0.836   6.642
 5211WAT     H221551   6.517   0.843   6.505
 5211WAT    EPW21552   6.488   0.810   6.570
 5212WAT      O21553   5.827   0.455   5.079
 5212WAT     H121554   5.754   0.497   5.053
 5212WAT     H221555   5.879   0.519   5.106
 5212WAT    EPW21556   5.824   0.470   5.079
 5213WAT      O21557   5.981   1.121   6.585
 5213WAT     H121558   5.992   1.117   6.499
 5213WAT     H221559   5.943   1.045   6.604
 5213WAT    EPW21560   5.977   1.109   6.575
 5214WAT      O21561   6.714   0.374   5.382
 5214WAT     H121562   6.786   0.329   5.400
 5214WAT     H221563   6.652   0.313   5.378
 5214WAT    EPW21564   6.715   0.358   5.384
 5215WAT      O21565   5.978   0.603   6.523
 5215WAT     H121566   5.901   0.603   6.564
 5215WAT     H221567   5.980   0.681   6.484
 5215WAT    EPW21568   5.967   0.615   6.523
 5216WAT      O21569   5.544   1.249   6.118
 5216WAT     H121570   5.529   1.233   6.203
 5216WAT     H221571   5.514   1.177   6.078
 5216WAT    EPW21572   5.537   1.236   6.125
 5217WAT      O21573   6.287   0.548   5.656
 5217WAT     H121574   6.280   0.560   5.742
 5217WAT     H221575   6.327   0.470   5.649
 5217WAT    EPW21576   6.292   0.538   5.667
 5218WAT      O21577   6.029   0.479   5.587
 5218WAT     H121578   5.989   0.476   5.665
 5218WAT     H221579   6.110   0.503   5.606
 5218WAT    EPW21580   6.035   0.482   5.602
 5219WAT      O21581   5.998   0.864   6.407
 5219WAT     H121582   6.061   0.863   6.467
 5219WAT     H221583   6.024   0.926   6.351
 5219WAT    EPW21584   6.011   0.873   6.407
 5220WAT      O21585   5.156   1.193   6.594
 5220WAT     H121586   5.100   1.129   6.576
 5220WAT     H221587   5.105   1.257   6.623
 5220WAT    EPW21588   5.140   1.193   6.595
 5221WAT      O21589   6.064   0.327   6.881
 5221WAT     H121590   6.095   0.388   6.828
 5221WAT     H221591   5.982   0.353   6.897
 5221WAT    EPW21592   6.056   0.340   6.876
 5222WAT      O21593   6.378   1.223   5.899
 5222WAT     H121594   6.317   1.282   5.920
 5222WAT     H221595   6.441   1.236   5.959
 5222WAT    EPW21596   6.379   1.234   5.911
 5223WAT      O21597   6.038   0.728   6.053
 5223WAT     H121598   6.011   0.651   6.082
 5223WAT     H221599   6.089   0.758   6.118
 5223WAT    EPW21600   6.041   0.721   6.067
 5224WAT      O21601   6.585   0.920   6.792
 5224WAT     H121602   6.668   0.894   6.783
 5224WAT     H221603   6.559   0.879   6.864
 5224WAT    EPW21604   6.593   0.910   6.802
 5225WAT      O21605   6.148   0.864   5.501
 5225WAT     H121606   6.126   0.944   5.474
 5225WAT     H221607   6.078   0.816   5.482
 5225WAT    EPW21608   6.135   0.869   5.494
 5226WAT      O21609   5.189   0.369   6.347
 5226WAT     H121610   5.204   0.388   6.264
 5226WAT     H221611   5.166   0.284   6.345
 5226WAT    EPW21612   5.188   0.359   6.335
 5227WAT      O21613   5.590   0.859   5.144
 5227WAT     H121614   5.632   0.838   5.217
 5227WAT     H221615   5.506   0.847   5.164
 5227WAT    EPW21616   5.584   0.854   5.157
 5228WAT      O21617   5.486   0.387   6.341
 5228WAT     H121618   5.495   0.457   6.393
 5228WAT     H221619   5.400   0.373   6.339
 5228WAT    EPW21620   5.475   0.396   6.348
 5229WAT      O21621   6.507   0.315   5.884
 5229WAT     H121622   6.564   0.375   5.858
 5229WAT     H221623   6.467   0.291   5.810
 5229WAT    EPW21624   6.509   0.320   5.869
 5230WAT      O21625   6.524   1.028   5.525
 5230WAT     H121626   6.500   0.951   5.556
 5230WAT     H221627   6.561   1.009   5.448
 5230WAT    EPW21628   6.526   1.014   5.518
 5231WAT      O21629   5.335   0.785   5.208
 5231WAT     H121630   5.336   0.768   5.294
 5231WAT     H221631   5.332   0.706   5.171
 5231WAT    EPW21632   5.334   0.771   5.215
 5232WAT      O21633   5.603   0.611   5.015
 5232WAT     H121634   5.521   0.582   5.029
 5232WAT     H221635   5.603   0.691   5.050
 5232WAT    EPW21636   5.591   0.618   5.023
 5233WAT      O21637   6.271   0.817   6.193
 5233WAT     H121638   6.297   0.880   6.247
 5233WAT     H221639   6.282   0.851   6.113
 5233WAT    EPW21640   6.277   0.831   6.189
 5234WAT      O21641   6.252   1.193   6.626
 5234WAT     H121642   6.177   1.155   6.602
 5234WAT     H221643   6.229   1.275   6.644
 5234WAT    EPW21644   6.238   1.199   6.625
 5235WAT      O21645   6.748   0.634   6.170
 5235WAT     H121646   6.691   0.571   6.151
 5235WAT     H221647   6.703   0.707   6.160
 5235WAT    EPW21648   6.733   0.635   6.166
 5236WAT      O21649   5.638   1.104   6.625
 5236WAT     H121650   5.614   1.115   6.708
 5236WAT     H221651   5.700   1.043   6.630
 5236WAT    EPW21652   5.644   1.097   6.638
 5237WAT      O21653   6.629   0.882   6.115
 5237WAT     H121654   6.699   0.911   6.071
 5237WAT     H221655   6.579   0.848   6.052
 5237WAT    EPW21656   6.632   0.881   6.099
 5238WAT      O21657   5.338   1.017   6.723
 5238WAT     H121658   5.397   1.057   6.773
 5238WAT     H221659   5.292   1.083   6.689
 5238WAT    EPW21660   5.340   1.032   6.726
 5239WAT      O21661   5.192   0.779   6.464
 5239WAT     H121662   5.133   0.840   6.487
 5239WAT     H221663   5.268   0.821   6.470
 5239WAT    EPW21664   5.194   0.794   6.468
 5240WAT      O21665   6.473   0.219   5.360
 5240WAT     H121666   6.490   0.143   5.320
 5240WAT     H221667   6.404   0.250   5.317
 5240WAT    EPW21668   6.465   0.212   5.348
 5241WAT      O21669   5.426   1.116   5.382
 5241WAT     H121670   5.430   1.178   5.321
 5241WAT     H221671   5.508   1.085   5.386
 5241WAT    EPW21672   5.439   1.120   5.373
 5242WAT      O21673   5.768   0.319   5.312
 5242WAT     H121674   5.787   0.354   5.234
 5242WAT     H221675   5.846   0.293   5.342
 5242WAT    EPW21676   5.782   0.321   5.305
 5243WAT      O21677   6.622   1.183   4.980
 5243WAT     H121678   6.696   1.173   5.025
 5243WAT     H221679   6.603   1.102   4.954
 5243WAT    EPW21680   6.630   1.169   4.983
 5244WAT      O21681   6.844   0.588   6.666
 5244WAT     H121682   6.824   0.517   6.713
 5244WAT     H221683   6.822   0.565   6.585
 5244WAT    EPW21684   6.838   0.574   6.661
 5245WAT      O21685   6.314   0.803   5.279
 5245WAT     H121686   6.271   0.802   5.355
 5245WAT     H221687   6.279   0.736   5.235
 5245WAT    EPW21688   6.302   0.793   5.284
 5246WAT      O21689   6.477   0.402   6.889
 5246WAT     H121690   6.547   0.439   6.925
 5246WAT     H221691   6.474   0.436   6.809
 5246WAT    EPW21692   6.487   0.412   6.882
 5247WAT      O21693   5.413   1.034   5.995
 5247WAT     H121694   5.414   0.960   5.948
 5247WAT     H221695   5.372   1.091   5.943
 5247WAT    EPW21696   5.407   1.031   5.980
 5248WAT      O21697   6.003   0.646   5.168
 5248WAT     H121698   6.083   0.618   5.145
 5248WAT     H221699   5.994   0.719   5.122
 5248WAT    EPW21700   6.014   0.653   5.158
 5249WAT      O21701   5.164   1.264   6.324
 5249WAT     H121702   5.168   1.244   6.409
 5249WAT     H221703   5.196   1.192   6.285
 5249WAT    EPW21704   5.169   1.250   6.331
 5250WAT      O21705   5.050   0.665   3.663
 5250WAT     H121706   5.059   0.692   3.745
 5250WAT     H221707   4.970   0.631   3.661
 5250WAT    EPW21708   5.040   0.664   3.675
 5251WAT      O21709   6.677   0.957   3.401
 5251WAT     H121710   6.751   0.921   3.430
 5251WAT     H221711   6.641   0.894   3.353
 5251WAT    EPW21712   6.683   0.942   3.398
 5252WAT      O21713   5.321   0.527   3.222
 5252WAT     H121714   5.289   0.474   3.160
 5252WAT     H221715   5.330   0.475   3.291
 5252WAT    EPW21716   5.318   0.512   3.223
 5253WAT      O21717   6.385   0.276   3.727
 5253WAT     H121718   6.420   0.259   3.649
 5253WAT     H221719   6.322   0.216   3.734
 5253WAT    EPW21720   6.381   0.264   3.717
 5254WAT      O21721   5.313   0.720   3.594
 5254WAT     H121722   5.361   0.675   3.651
 5254WAT     H221723   5.232   0.690   3.608
 5254WAT    EPW21724   5.308   0.709   3.605
 5255WAT      O21725   5.154   0.946   3.162
 5255WAT     H121726   5.210   0.971   3.100
 5255WAT     H221727   5.204   0.900   3.217
 5255WAT    EPW21728   5.170   0.943   3.161
 5256WAT      O21729   5.124   0.806   4.316
 5256WAT     H121730   5.138   0.784   4.399
 5256WAT     H221731   5.056   0.756   4.292
 5256WAT    EPW21732   5.116   0.795   4.325
 5257WAT      O21733   5.732   0.649   4.765
 5257WAT     H121734   5.700   0.634   4.845
 5257WAT     H221735   5.665   0.631   4.713
 5257WAT    EPW21736   5.717   0.644   4.769
 5258WAT      O21737   5.223   0.358   3.796
 5258WAT     H121738   5.188   0.315   3.728
 5258WAT     H221739   5.272   0.298   3.835
 5258WAT    EPW21740   5.225   0.342   3.792
 5259WAT      O21741   5.696   0.882   4.502
 5259WAT     H121742   5.677   0.961   4.470
 5259WAT     H221743   5.783   0.885   4.512
 5259WAT    EPW21744   5.706   0.894   4.498
 5260WAT      O21745   5.847   0.763   3.906
 5260WAT     H121746   5.871   0.682   3.927
 5260WAT     H221747   5.923   0.805   3.896
 5260WAT    EPW21748   5.862   0.757   3.907
 5261WAT      O21749   5.934   0.676   3.543
 5261WAT     H121750   5.958   0.607   3.590
 5261WAT     H221751   5.956   0.653   3.461
 5261WAT    EPW21752   5.940   0.662   3.538
 5262WAT      O21753   5.067   1.084   3.826
 5262WAT     H121754   5.001   1.122   3.784
 5262WAT     H221755   5.116   1.051   3.761
 5262WAT    EPW21756   5.064   1.085   3.810
 5263WAT      O21757   5.669   0.747   3.526
 5263WAT     H121758   5.642   0.763   3.607
 5263WAT     H221759   5.752   0.723   3.537
 5263WAT    EPW21760   5.678   0.746   3.539
 5264WAT      O21761   6.285   1.059   3.314
 5264WAT     H121762   6.352   1.114   3.322
 5264WAT     H221763   6.319   0.982   3.339
 5264WAT    EPW21764   6.300   1.056   3.319
 5265WAT      O21765   6.085   1.085   3.499
 5265WAT     H121766   6.093   1.156   3.549
 5265WAT     H221767   6.151   1.092   3.443
 5265WAT    EPW21768   6.096   1.097   3.498
 5266WAT      O21769   5.237   0.989   3.616
 5266WAT     H121770   5.273   0.910   3.625
 5266WAT     H221771   5.299   1.035   3.576
 5266WAT    EPW21772   5.252   0.984   3.611
 5267WAT      O21773   6.303   1.105   4.303
 5267WAT     H121774   6.369   1.160   4.290
 5267WAT     H221775   6.284   1.075   4.223
 5267WAT    EPW21776   6.310   1.109   4.290
 5268WAT      O21777   5.378   0.811   3.938
 5268WAT     H121778   5.441   0.807   3.878
 5268WAT     H221779   5.396   0.744   3.991
 5268WAT    EPW21780   5.390   0.801   3.937
 5269WAT      O21781   5.645   1.085   3.892
 5269WAT     H121782   5.723   1.104   3.857
 5269WAT     H221783   5.592   1.144   3.856
 5269WAT    EPW21784   5.649   1.096   3.882
 5270WAT      O21785   6.469   1.270   3.303
 5270WAT     H121786   6.512   1.239   3.233
 5270WAT     H221787   6.530   1.315   3.346
 5270WAT    EPW21788   6.485   1.272   3.299
 5271WAT      O21789   5.558   1.123   4.447
 5271WAT     H121790   5.566   1.138   4.533
 5271WAT     H221791   5.478   1.089   4.439
 5271WAT    EPW21792   5.547   1.120   4.459
 5272WAT      O21793   6.196   0.866   4.702
 5272WAT     H121794   6.197   0.901   4.782
 5272WAT     H221795   6.279   0.844   4.689
 5272WAT    EPW21796   6.208   0.868   4.712
 5273WAT      O21797   5.971   0.861   3.136
 5273WAT     H121798   5.937   0.919   3.192
 5273WAT     H221799   6.044   0.900   3.108
 5273WAT    EPW21800   5.977   0.875   3.140
 5274WAT      O21801   5.300   1.029   4.349
 5274WAT     H121802   5.249   0.958   4.348
 5274WAT     H221803   5.331   1.032   4.268
 5274WAT    EPW21804   5.297   1.019   4.337
 5275WAT      O21805   6.064   1.146   4.431
 5275WAT     H121806   6.141   1.137   4.391
 5275WAT     H221807   6.007   1.149   4.365
 5275WAT    EPW21808   6.067   1.145   4.415
 5276WAT      O21809   6.755   1.170   3.681
 5276WAT     H121810   6.719   1.248   3.696
 5276WAT     H221811   6.686   1.118   3.668
 5276WAT    EPW21812   6.739   1.174   3.681
 5277WAT      O21813   6.468   0.773   3.724
 5277WAT     H121814   6.529   0.720   3.690
 5277WAT     H221815   6.396   0.725   3.721
 5277WAT    EPW21816   6.467   0.758   3.719
 5278WAT      O21817   5.437   0.872   4.637
 5278WAT     H121818   5.517   0.898   4.613
 5278WAT     H221819   5.420   0.922   4.707
 5278WAT    EPW21820   5.446   0.883   4.644
 5279WAT      O21821   5.637   0.418   4.008
 5279WAT     H121822   5.650   0.411   4.094
 5279WAT     H221823   5.574   0.361   3.992
 5279WAT    EPW21824   5.630   0.409   4.018
 5280WAT      O21825   5.692   0.455   4.278
 5280WAT     H121826   5.680   0.541   4.282
 5280WAT     H221827   5.633   0.423   4.332
 5280WAT    EPW21828   5.682   0.463   4.286
 5281WAT      O21829   6.310   0.543   4.294
 5281WAT     H121830   6.252   0.510   4.352
 5281WAT     H221831   6.304   0.629   4.306
 5281WAT    EPW21832   6.301   0.551   4.304
 5282WAT      O21833   4.966   0.856   4.869
 5282WAT     H121834   5.022   0.859   4.936
 5282WAT     H221835   4.961   0.771   4.850
 5282WAT    EPW21836   4.973   0.844   4.876
 5283WAT      O21837   6.693   0.499   3.238
 5283WAT     H121838   6.698   0.457   3.314
 5283WAT     H221839   6.764   0.550   3.238
 5283WAT    EPW21840   6.704   0.500   3.249
 5284WAT      O21841   5.432   0.544   3.771
 5284WAT     H121842   5.483   0.507   3.711
 5284WAT     H221843   5.366   0.487   3.779
 5284WAT    EPW21844   5.429   0.530   3.763
 5285WAT      O21845   5.269   1.236   3.939
 5285WAT     H121846   5.197   1.204   3.902
 5285WAT     H221847   5.325   1.243   3.872
 5285WAT    EPW21848   5.267   1.232   3.924
 5286WAT      O21849   6.852   0.988   4.630
 5286WAT     H121850   6.776   0.984   4.589
 5286WAT     H221851   6.839   0.945   4.704
 5286WAT    EPW21852   6.839   0.981   4.635
 5287WAT      O21853   6.394   0.111   3.169
 5287WAT     H121854   6.426   0.184   3.134
 5287WAT     H221855   6.325   0.139   3.215
 5287WAT    EPW21856   6.389   0.126   3.171
 5288WAT      O21857   5.565   0.479   3.532
 5288WAT     H121858   5.594   0.561   3.518
 5288WAT     H221859   5.632   0.429   3.506
 5288WAT    EPW21860   5.579   0.484   3.526
 5289WAT      O21861   5.109   0.747   3.919
 5289WAT     H121862   5.068   0.809   3.965
 5289WAT     H221863   5.193   0.772   3.921
 5289WAT    EPW21864   5.115   0.760   3.926
 5290WAT      O21865   5.111   0.246   3.554
 5290WAT     H121866   5.124   0.161   3.539
 5290WAT     H221867   5.175   0.285   3.508
 5290WAT    EPW21868   5.122   0.239   3.545
 5291WAT      O21869   6.069   0.927   3.854
 5291WAT     H121870   6.019   0.993   3.827
 5291WAT     H221871   6.105   0.897   3.780
 5291WAT    EPW21872   6.067   0.932   3.839
 5292WAT      O21873   5.046   0.849   3.462
 5292WAT     H121874   5.102   0.908   3.493
 5292WAT     H221875   5.039   0.791   3.527
 5292WAT    EPW21876   5.053   0.849   3.476
 5293WAT      O21877   5.449   0.606   4.107
 5293WAT     H121878   5.499   0.646   4.165
 5293WAT     H221879   5.506   0.562   4.057
 5293WAT    EPW21880   5.465   0.605   4.108
 5294WAT      O21881   5.050   0.635   3.266
 5294WAT     H121882   5.132   0.609   3.252
 5294WAT     H221883   5.059   0.708   3.313
 5294WAT    EPW21884   5.064   0.642   3.270
 5295WAT      O21885   5.069   0.486   3.990
 5295WAT     H121886   5.108   0.445   3.924
 5295WAT     H221887   5.086   0.570   3.976
 5295WAT    EPW21888   5.078   0.492   3.978
 5296WAT      O21889   6.600   0.979   4.496
 5296WAT     H121890   6.559   1.056   4.500
 5296WAT     H221891   6.601   0.960   4.411
 5296WAT    EPW21892   6.594   0.988   4.484
 5297WAT      O21893   5.611   0.834   3.780
 5297WAT     H121894   5.613   0.918   3.806
 5297WAT     H221895   5.679   0.798   3.821
 5297WAT    EPW21896   5.621   0.841   3.790
 5298WAT      O21897   5.404   0.251   3.995
 5298WAT     H121898   5.359   0.294   4.056
 5298WAT     H221899   5.417   0.172   4.031
 5298WAT    EPW21900   5.399   0.245   4.009
 5299WAT      O21901   5.857   1.145   4.254
 5299WAT     H121902   5.824   1.072   4.219
 5299WAT     H221903   5.848   1.204   4.190
 5299WAT    EPW21904   5.851   1.143   4.239
 5300WAT      O21905   5.220   0.362   4.917
 5300WAT     H121906   5.228   0.403   4.840
 5300WAT     H221907   5.267   0.289   4.907
 5300WAT    EPW21908   5.228   0.357   4.904
 5301WAT      O21909   6.435   0.529   4.739
 5301WAT     H121910   6.453   0.612   4.717
 5301WAT     H221911   6.471   0.483   4.673
 5301WAT    EPW21912   6.443   0.534   4.726
 5302WAT      O21913   5.822   0.916   4.796
 5302WAT     H121914   5.862   0.905   4.873
 5302WAT     H221915   5.793   0.837   4.777
 5302WAT    EPW21916   5.824   0.903   4.805
 5303WAT      O21917   6.210   0.256   3.333
 5303WAT     H121918   6.168   0.284   3.262
 5303WAT     H221919   6.148   0.249   3.393
 5303WAT    EPW21920   6.195   0.259   3.331
 5304WAT      O21921   6.662   0.587   3.647
 5304WAT     H121922   6.663   0.554   3.728
 5304WAT     H221923   6.669   0.516   3.597
 5304WAT    EPW21924   6.664   0.571   3.652
 5305WAT      O21925   6.261   0.981   4.053
 5305WAT     H121926   6.197   0.961   3.998
 5305WAT     H221927   6.300   1.049   4.016
 5305WAT    EPW21928   6.257   0.988   4.040
 5306WAT      O21929   6.260   0.607   4.026
 5306WAT     H121930   6.188   0.653   4.044
 5306WAT     H221931   6.274   0.562   4.099
 5306WAT    EPW21932   6.251   0.607   4.039
 5307WAT      O21933   5.726   1.028   3.542
 5307WAT     H121934   5.714   0.942   3.549
 5307WAT     H221935   5.770   1.036   3.466
 5307WAT    EPW21936   5.731   1.016   3.532
 5308WAT      O21937   5.882   1.048   3.317
 5308WAT     H121938   5.950   1.065   3.369
 5308WAT     H221939   5.872   1.122   3.272
 5308WAT    EPW21940   5.891   1.062   3.318
 5309WAT      O21941   6.565   0.397   4.528
 5309WAT     H121942   6.551   0.390   4.442
 5309WAT     H221943   6.648   0.423   4.534
 5309WAT    EPW21944   6.575   0.400   4.516
 5310WAT      O21945   6.202   1.015   4.944
 5310WAT     H121946   6.228   1.037   5.024
 5310WAT     H221947   6.226   1.083   4.895
 5310WAT    EPW21948   6.209   1.028   4.949
 5311WAT      O21949   5.349   0.339   3.424
 5311WAT     H121950   5.391   0.276   3.381
 5311WAT     H221951   5.413   0.381   3.466
 5311WAT    EPW21952   5.365   0.336   3.424
 5312WAT      O21953   6.112   0.438   4.463
 5312WAT     H121954   6.068   0.491   4.516
 5312WAT     H221955   6.137   0.373   4.516
 5312WAT    EPW21956   6.109   0.436   4.479
 5313WAT      O21957   6.011   0.247   3.536
 5313WAT     H121958   6.019   0.317   3.588
 5313WAT     H221959   5.989   0.183   3.591
 5313WAT    EPW21960   6.009   0.248   3.552
 5314WAT      O21961   6.510   0.735   4.004
 5314WAT     H121962   6.503   0.766   3.923
 5314WAT     H221963   6.432   0.699   4.018
 5314WAT    EPW21964   6.497   0.734   3.994
 5315WAT      O21965   5.901   0.489   3.946
 5315WAT     H121966   5.818   0.462   3.953
 5315WAT     H221967   5.935   0.474   4.025
 5315WAT    EPW21968   5.894   0.482   3.958
 5316WAT      O21969   5.540   1.090   3.141
 5316WAT     H121970   5.565   1.017   3.181
 5316WAT     H221971   5.551   1.151   3.202
 5316WAT    EPW21972   5.545   1.088   3.156
 5317WAT      O21973   5.261   0.413   4.174
 5317WAT     H121974   5.318   0.479   4.163
 5317WAT     H221975   5.194   0.436   4.123
 5317WAT    EPW21976   5.260   0.426   4.165
 5318WAT      O21977   6.842   1.126   3.259
 5318WAT     H121978   6.903   1.072   3.226
 5318WAT     H221979   6.789   1.073   3.303
 5318WAT    EPW21980   6.844   1.110   3.261
 5319WAT      O21981   6.554   0.430   4.242
 5319WAT     H121982   6.541   0.379   4.172
 5319WAT     H221983   6.476   0.466   4.256
 5319WAT    EPW21984   6.540   0.428   4.234
 5320WAT      O21985   5.396   0.119   3.087
 5320WAT     H121986   5.378   0.034   3.091
 5320WAT     H221987   5.474   0.122   3.049
 5320WAT    EPW21988   5.405   0.107   3.082
 5321WAT      O21989   5.239   0.511   4.682
 5321WAT     H121990   5.221   0.469   4.607
 5321WAT     H221991   5.198   0.587   4.673
 5321WAT    EPW21992   5.230   0.516   4.669
 5322WAT      O21993   6.674   0.520   3.914
 5322WAT     H121994   6.641   0.587   3.958
 5322WAT     H221995   6.753   0.509   3.949
 5322WAT    EPW21996   6.681   0.528   3.926
 5323WAT      O21997   6.858   0.937   4.067
 5323WAT     H121998   6.894   0.992   4.009
 5323WAT     H221999   6.922   0.924   4.125
 5323WAT    EPW22000   6.873   0.943   4.067
 5324WAT      O22001   6.566   0.753   3.256
 5324WAT     H122002   6.593   0.670   3.254
 5324WAT     H222003   6.489   0.748   3.298
 5324WAT    EPW22004   6.558   0.740   3.262
 5325WAT      O22005   6.809   0.360   4.903
 5325WAT     H122006   6.761   0.293   4.932
 5325WAT     H222007   6.890   0.339   4.928
 5325WAT    EPW22008   6.814   0.347   4.911
 5326WAT      O22009   6.821   0.509   4.504
 5326WAT     H122010   6.891   0.466   4.476
 5326WAT     H222011   6.799   0.559   4.436
 5326WAT    EPW22012   6.828   0.510   4.490
 5327WAT      O22013   6.261   0.585   3.187
 5327WAT     H122014   6.317   0.518   3.185
 5327WAT     H222015   6.231   0.590   3.105
 5327WAT    EPW22016   6.265   0.576   3.175
 5328WAT      O22017   5.638   0.729   4.274
 5328WAT     H122018   5.647   0.766   4.353
 5328WAT     H222019   5.670   0.790   4.220
 5328WAT    EPW22020   5.644   0.744   4.278
 5329WAT      O22021   5.494   0.601   4.627
 5329WAT     H122022   5.419   0.570   4.660
 5329WAT     H222023   5.480   0.687   4.620
 5329WAT    EPW22024   5.481   0.609   4.631
 5330WAT      O22025   5.964   0.469   4.224
 5330WAT     H122026   6.012   0.445   4.293
 5330WAT     H222027   5.882   0.456   4.250
 5330WAT    EPW22028   5.959   0.463   4.238
 5331WAT      O22029   5.885   1.120   3.760
 5331WAT     H122030   5.895   1.207   3.755
 5331WAT     H222031   5.847   1.099   3.685
 5331WAT    EPW22032   5.881   1.130   3.749
 5332WAT      O22033   5.743   0.929   4.111
 5332WAT     H122034   5.699   0.978   4.054
 5332WAT     H222035   5.792   0.878   4.060
 5332WAT    EPW22036   5.744   0.929   4.095
 5333WAT      O22037   6.171   0.540   4.830
 5333WAT     H122038   6.248   0.536   4.790
 5333WAT     H222039   6.119   0.578   4.771
 5333WAT    EPW22040   6.174   0.545   4.816
 5334WAT      O22041   6.469   0.806   4.680
 5334WAT     H122042   6.498   0.842   4.753
 5334WAT     H222043   6.509   0.850   4.616
 5334WAT    EPW22044   6.479   0.818   4.681
 5335WAT      O22045   5.821   0.442   3.185
 5335WAT     H122046   5.750   0.486   3.159
 5335WAT     H222047   5.874   0.505   3.213
 5335WAT    EPW22048   5.818   0.458   3.185
 5336WAT      O22049   5.977   1.133   4.697
 5336WAT     H122050   5.989   1.127   4.611
 5336WAT     H222051   5.938   1.058   4.718
 5336WAT    EPW22052   5.973   1.121   4.688
 5337WAT      O22053   6.713   0.368   3.482
 5337WAT     H122054   6.784   0.323   3.505
 5337WAT     H222055   6.649   0.309   3.482
 5337WAT    EPW22056   6.714   0.353   3.486
 5338WAT      O22057   5.978   0.614   4.631
 5338WAT     H122058   5.902   0.614   4.674
 5338WAT     H222059   5.979   0.692   4.592
 5338WAT    EPW22060   5.967   0.625   4.632
 5339WAT      O22061   5.558   1.243   4.184
 5339WAT     H122062   5.567   1.216   4.266
 5339WAT     H222063   5.517   1.177   4.145
 5339WAT    EPW22064   5.553   1.229   4.190
 5340WAT      O22065   6.290   0.544   3.757
 5340WAT     H122066   6.284   0.556   3.843
 5340WAT     H222067   6.330   0.466   3.750
 5340WAT    EPW22068   6.295   0.534   3.769
 5341WAT      O22069   6.030   0.469   3.699
 5341WAT     H122070   5.991   0.472   3.777
 5341WAT     H222071   6.111   0.496   3.716
 5341WAT    EPW22072   6.036   0.473   3.713
 5342WAT      O22073   5.989   0.878   4.519
 5342WAT     H122074   6.052   0.878   4.580
 5342WAT     H222075   6.014   0.942   4.465
 5342WAT    EPW22076   6.002   0.888   4.520
 5343WAT      O22077   5.172   1.220   4.703
 5343WAT     H122078   5.117   1.154   4.688
 5343WAT     H222079   5.119   1.286   4.725
 5343WAT    EPW22080   5.156   1.220   4.704
 5344WAT      O22081   6.072   0.336   5.001
 5344WAT     H122082   6.104   0.392   4.942
 5344WAT     H222083   5.989   0.361   5.011
 5344WAT    EPW22084   6.065   0.348   4.994
 5345WAT      O22085   6.373   1.229   3.988
 5345WAT     H122086   6.312   1.287   4.012
 5345WAT     H222087   6.436   1.241   4.048
 5345WAT    EPW22088   6.374   1.239   4.001
 5346WAT      O22089   6.040   0.727   4.150
 5346WAT     H122090   6.010   0.652   4.183
 5346WAT     H222091   6.090   0.759   4.214
 5346WAT    EPW22092   6.043   0.721   4.164
 5347WAT      O22093   6.577   0.919   4.908
 5347WAT     H122094   6.660   0.895   4.894
 5347WAT     H222095   6.556   0.876   4.981
 5347WAT    EPW22096   6.586   0.909   4.917
 5348WAT      O22097   6.149   0.838   3.601
 5348WAT     H122098   6.127   0.916   3.570
 5348WAT     H222099   6.079   0.789   3.586
 5348WAT    EPW22100   6.136   0.842   3.594
 5349WAT      O22101   5.192   0.373   4.437
 5349WAT     H122102   5.207   0.392   4.353
 5349WAT     H222103   5.173   0.288   4.436
 5349WAT    EPW22104   5.192   0.364   4.424
 5350WAT      O22105   5.588   0.843   3.270
 5350WAT     H122106   5.626   0.819   3.345
 5350WAT     H222107   5.503   0.836   3.286
 5350WAT    EPW22108   5.581   0.838   3.284
 5351WAT      O22109   5.485   0.388   4.449
 5351WAT     H122110   5.496   0.455   4.503
 5351WAT     H222111   5.399   0.380   4.442
 5351WAT    EPW22112   5.474   0.397   4.456
 5352WAT      O22113   6.508   0.315   3.986
 5352WAT     H122114   6.564   0.376   3.959
 5352WAT     H222115   6.469   0.289   3.912
 5352WAT    EPW22116   6.511   0.320   3.971
 5353WAT      O22117   6.519   1.029   3.619
 5353WAT     H122118   6.496   0.953   3.655
 5353WAT     H222119   6.557   1.006   3.544
 5353WAT    EPW22120   6.521   1.014   3.614
 5354WAT      O22121   5.327   0.786   3.321
 5354WAT     H122122   5.322   0.770   3.407
 5354WAT     H222123   5.328   0.706   3.286
 5354WAT    EPW22124   5.326   0.771   3.329
 5355WAT      O22125   5.598   0.602   3.125
 5355WAT     H122126   5.517   0.575   3.141
 5355WAT     H222127   5.601   0.681   3.162
 5355WAT    EPW22128   5.586   0.610   3.133
 5356WAT      O22129   6.275   0.818   4.284
 5356WAT     H122130   6.297   0.884   4.337
 5356WAT     H222131   6.282   0.853   4.205
 5356WAT    EPW22132   6.279   0.833   4.281
 5357WAT      O22133   6.250   1.204   4.738
 5357WAT     H122134   6.175   1.166   4.713
 5357WAT     H222135   6.226   1.286   4.754
 5357WAT    EPW22136   6.235   1.211   4.737
 5358WAT      O22137   6.747   0.635   4.266
 5358WAT     H122138   6.689   0.572   4.249
 5358WAT     H222139   6.700   0.708   4.258
 5358WAT    EPW22140   6.732   0.636   4.262
 5359WAT      O22141   5.626   1.108   4.729
 5359WAT     H122142   5.603   1.126   4.811
 5359WAT     H222143   5.689   1.049   4.738
 5359WAT    EPW22144   5.632   1.102   4.742
 5360WAT      O22145   6.625   0.884   4.218
 5360WAT     H122146   6.693   0.913   4.173
 5360WAT     H222147   6.573   0.850   4.157
 5360WAT    EPW22148   6.627   0.883   4.203
 5361WAT      O22149   5.329   1.026   4.851
 5361WAT     H122150   5.393   1.062   4.898
 5361WAT     H222151   5.290   1.095   4.814
 5361WAT    EPW22152   5.333   1.042   4.853
 5362WAT      O22153   5.178   0.778   4.586
 5362WAT     H122154   5.124   0.844   4.608
 5362WAT     H222155   5.257   0.812   4.597
 5362WAT    EPW22156   5.182   0.793   4.591
 5363WAT      O22157   6.469   0.219   3.458
 5363WAT     H122158   6.484   0.146   3.412
 5363WAT     H222159   6.398   0.252   3.420
 5363WAT    EPW22160   6.461   0.213   3.445
 5364WAT      O22161   5.466   1.120   3.509
 5364WAT     H122162   5.478   1.179   3.446
 5364WAT     H222163   5.545   1.084   3.519
 5364WAT    EPW22164   5.479   1.124   3.501
 5365WAT      O22165   5.763   0.320   3.426
 5365WAT     H122166   5.780   0.351   3.346
 5365WAT     H222167   5.841   0.295   3.455
 5365WAT    EPW22168   5.777   0.321   3.418
 5366WAT      O22169   6.620   1.164   3.097
 5366WAT     H122170   6.696   1.154   3.139
 5366WAT     H222171   6.600   1.083   3.071
 5366WAT    EPW22172   6.628   1.151   3.100
 5367WAT      O22173   6.867   0.594   4.767
 5367WAT     H122174   6.836   0.525   4.811
 5367WAT     H222175   6.840   0.579   4.685
 5367WAT    EPW22176   6.858   0.581   4.761
 5368WAT      O22177   6.323   0.787   3.382
 5368WAT     H122178   6.276   0.786   3.456
 5368WAT     H222179   6.283   0.728   3.331
 5368WAT    EPW22180   6.310   0.778   3.385
 5369WAT      O22181   6.473   0.403   4.997
 5369WAT     H122182   6.541   0.442   5.035
 5369WAT     H222183   6.471   0.439   4.918
 5369WAT    EPW22184   6.483   0.414   4.991
 5370WAT      O22185   5.386   1.042   4.090
 5370WAT     H122186   5.390   0.970   4.041
 5370WAT     H222187   5.345   1.100   4.039
 5370WAT    EPW22188   5.381   1.040   4.075
 5371WAT      O22189   6.001   0.627   3.279
 5371WAT     H122190   6.080   0.599   3.256
 5371WAT     H222191   5.991   0.700   3.232
 5371WAT    EPW22192   6.011   0.634   3.269
 5372WAT      O22193   5.163   1.259   4.424
 5372WAT     H122194   5.166   1.245   4.510
 5372WAT     H222195   5.200   1.187   4.390
 5372WAT    EPW22196   5.169   1.246   4.432
 5373WAT      O22197   5.121   0.554   1.710
 5373WAT     H122198   5.111   0.581   1.793
 5373WAT     H222199   5.139   0.469   1.719
 5373WAT    EPW22200   5.122   0.545   1.724
 5374WAT      O22201   6.693   0.973   1.501
 5374WAT     H122202   6.766   0.933   1.528
 5374WAT     H222203   6.651   0.912   1.456
 5374WAT    EPW22204   6.698   0.958   1.498
 5375WAT      O22205   5.335   0.519   1.294
 5375WAT     H122206   5.300   0.470   1.231
 5375WAT     H222207   5.353   0.461   1.357
 5375WAT    EPW22208   5.333   0.503   1.294
 5376WAT      O22209   6.383   0.281   1.833
 5376WAT     H122210   6.423   0.263   1.758
 5376WAT     H222211   6.318   0.223   1.838
 5376WAT    EPW22212   6.379   0.270   1.823
 5377WAT      O22213   5.346   0.712   1.676
 5377WAT     H122214   5.399   0.681   1.738
 5377WAT     H222215   5.276   0.660   1.681
 5377WAT    EPW22216   5.343   0.700   1.686
 5378WAT      O22217   5.227   1.000   1.314
 5378WAT     H122218   5.251   1.004   1.231
 5378WAT     H222219   5.249   0.918   1.338
 5378WAT    EPW22220   5.234   0.988   1.305
 5379WAT      O22221   5.046   0.810   2.330
 5379WAT     H122222   5.061   0.799   2.415
 5379WAT     H222223   4.977   0.759   2.315
 5379WAT    EPW22224   5.038   0.801   2.340
 5380WAT      O22225   5.729   0.638   2.872
 5380WAT     H122226   5.693   0.622   2.950
 5380WAT     H222227   5.660   0.639   2.818
 5380WAT    EPW22228   5.714   0.636   2.876
 5381WAT      O22229   5.315   0.342   1.920
 5381WAT     H122230   5.291   0.298   1.849
 5381WAT     H222231   5.358   0.283   1.968
 5381WAT    EPW22232   5.318   0.327   1.917
 5382WAT      O22233   5.702   0.839   2.617
 5382WAT     H122234   5.656   0.911   2.605
 5382WAT     H222235   5.784   0.867   2.623
 5382WAT    EPW22236   5.708   0.854   2.616
 5383WAT      O22237   5.851   0.746   1.981
 5383WAT     H122238   5.876   0.668   2.009
 5383WAT     H222239   5.923   0.795   1.990
 5383WAT    EPW22240   5.865   0.742   1.986
 5384WAT      O22241   5.953   0.712   1.646
 5384WAT     H122242   5.972   0.640   1.692
 5384WAT     H222243   5.968   0.687   1.564
 5384WAT    EPW22244   5.958   0.698   1.641
 5385WAT      O22245   5.067   1.049   1.886
 5385WAT     H122246   5.000   1.092   1.851
 5385WAT     H222247   5.110   1.017   1.817
 5385WAT    EPW22248   5.064   1.050   1.871
 5386WAT      O22249   5.681   0.752   1.648
 5386WAT     H122250   5.656   0.782   1.726
 5386WAT     H222251   5.768   0.744   1.657
 5386WAT    EPW22252   5.690   0.755   1.661
 5387WAT      O22253   6.278   1.073   1.430
 5387WAT     H122254   6.351   1.120   1.423
 5387WAT     H222255   6.307   0.994   1.453
 5387WAT    EPW22256   6.293   1.068   1.433
 5388WAT      O22257   6.101   1.149   1.627
 5388WAT     H122258   6.126   1.228   1.655
 5388WAT     H222259   6.158   1.130   1.564
 5388WAT    EPW22260   6.113   1.158   1.622
 5389WAT      O22261   5.221   0.960   1.672
 5389WAT     H122262   5.275   0.894   1.690
 5389WAT     H222263   5.273   1.018   1.632
 5389WAT    EPW22264   5.237   0.959   1.669
 5390WAT      O22265   6.323   1.075   2.418
 5390WAT     H122266   6.398   1.118   2.405
 5390WAT     H222267   6.300   1.048   2.338
 5390WAT    EPW22268   6.330   1.077   2.404
 5391WAT      O22269   5.370   0.806   2.027
 5391WAT     H122270   5.439   0.811   1.974
 5391WAT     H222271   5.393   0.745   2.085
 5391WAT    EPW22272   5.384   0.798   2.027
 5392WAT      O22273   5.713   1.080   2.032
 5392WAT     H122274   5.777   1.117   1.987
 5392WAT     H222275   5.673   1.147   2.071
 5392WAT    EPW22276   5.716   1.095   2.031
 5393WAT      O22277   6.481   1.256   1.369
 5393WAT     H122278   6.527   1.231   1.299
 5393WAT     H222279   6.540   1.300   1.417
 5393WAT    EPW22280   6.496   1.259   1.366
 5394WAT      O22281   5.498   1.025   2.535
 5394WAT     H122282   5.523   1.108   2.522
 5394WAT     H222283   5.430   1.015   2.481
 5394WAT    EPW22284   5.492   1.036   2.525
 5395WAT      O22285   6.204   0.844   2.813
 5395WAT     H122286   6.203   0.880   2.892
 5395WAT     H222287   6.288   0.823   2.800
 5395WAT    EPW22288   6.216   0.846   2.823
 5396WAT      O22289   5.966   0.898   1.252
 5396WAT     H122290   5.941   0.954   1.314
 5396WAT     H222291   6.040   0.933   1.222
 5396WAT    EPW22292   5.973   0.912   1.257
 5397WAT      O22293   5.258   1.007   2.384
 5397WAT     H122294   5.198   0.946   2.368
 5397WAT     H222295   5.290   1.025   2.305
 5397WAT    EPW22296   5.254   1.001   2.370
 5398WAT      O22297   6.086   1.136   2.544
 5398WAT     H122298   6.164   1.121   2.509
 5398WAT     H222299   6.034   1.150   2.475
 5398WAT    EPW22300   6.090   1.136   2.529
 5399WAT      O22301   6.771   1.170   1.779
 5399WAT     H122302   6.735   1.248   1.792
 5399WAT     H222303   6.702   1.117   1.768
 5399WAT    EPW22304   6.755   1.174   1.779
 5400WAT      O22305   6.476   0.765   1.825
 5400WAT     H122306   6.538   0.712   1.793
 5400WAT     H222307   6.404   0.716   1.824
 5400WAT    EPW22308   6.475   0.750   1.820
 5401WAT      O22309   5.358   0.868   2.719
 5401WAT     H122310   5.408   0.921   2.672
 5401WAT     H222311   5.350   0.910   2.795
 5401WAT    EPW22312   5.364   0.882   2.723
 5402WAT      O22313   5.652   0.411   2.122
 5402WAT     H122314   5.667   0.417   2.208
 5402WAT     H222315   5.596   0.345   2.115
 5402WAT    EPW22316   5.646   0.402   2.134
 5403WAT      O22317   5.700   0.463   2.388
 5403WAT     H122318   5.688   0.550   2.389
 5403WAT     H222319   5.644   0.434   2.448
 5403WAT    EPW22320   5.690   0.472   2.397
 5404WAT      O22321   6.302   0.520   2.391
 5404WAT     H122322   6.247   0.487   2.451
 5404WAT     H222323   6.298   0.606   2.406
 5404WAT    EPW22324   6.293   0.528   2.402
 5405WAT      O22325   4.967   0.854   2.974
 5405WAT     H122326   5.024   0.872   3.037
 5405WAT     H222327   4.980   0.770   2.957
 5405WAT    EPW22328   4.977   0.844   2.981
 5406WAT      O22329   6.678   0.526   1.363
 5406WAT     H122330   6.697   0.476   1.433
 5406WAT     H222331   6.755   0.561   1.342
 5406WAT    EPW22332   6.692   0.524   1.371
 5407WAT      O22333   5.482   0.559   1.866
 5407WAT     H122334   5.531   0.524   1.803
 5407WAT     H222335   5.429   0.494   1.890
 5407WAT    EPW22336   5.481   0.544   1.860
 5408WAT      O22337   5.255   1.229   1.960
 5408WAT     H122338   5.188   1.179   1.935
 5408WAT     H222339   5.305   1.233   1.888
 5408WAT    EPW22340   5.253   1.223   1.946
 5409WAT      O22341   6.856   0.980   2.734
 5409WAT     H122342   6.779   0.974   2.693
 5409WAT     H222343   6.843   0.937   2.809
 5409WAT    EPW22344   6.843   0.973   2.739
 5410WAT      O22345   6.404   0.119   1.268
 5410WAT     H122346   6.435   0.195   1.238
 5410WAT     H222347   6.337   0.142   1.318
 5410WAT    EPW22348   6.398   0.133   1.271
 5411WAT      O22349   5.599   0.486   1.625
 5411WAT     H122350   5.628   0.568   1.619
 5411WAT     H222351   5.666   0.438   1.598
 5411WAT    EPW22352   5.613   0.491   1.620
 5412WAT      O22353   5.125   0.693   1.955
 5412WAT     H122354   5.064   0.747   1.985
 5412WAT     H222355   5.200   0.735   1.973
 5412WAT    EPW22356   5.127   0.707   1.962
 5413WAT      O22357   5.203   0.272   1.673
 5413WAT     H122358   5.180   0.190   1.652
 5413WAT     H222359   5.263   0.293   1.613
 5413WAT    EPW22360   5.208   0.263   1.661
 5414WAT      O22361   6.066   0.933   1.981
 5414WAT     H122362   6.027   1.009   1.964
 5414WAT     H222363   6.104   0.912   1.906
 5414WAT    EPW22364   6.066   0.941   1.968
 5415WAT      O22365   5.041   0.779   1.557
 5415WAT     H122366   5.098   0.835   1.592
 5415WAT     H222367   5.040   0.713   1.614
 5415WAT    EPW22368   5.049   0.778   1.571
 5416WAT      O22369   5.464   0.612   2.202
 5416WAT     H122370   5.515   0.656   2.257
 5416WAT     H222371   5.520   0.568   2.152
 5416WAT    EPW22372   5.480   0.612   2.203
 5417WAT      O22373   5.061   0.653   1.309
 5417WAT     H122374   5.135   0.607   1.313
 5417WAT     H222375   5.058   0.692   1.387
 5417WAT    EPW22376   5.072   0.652   1.321
 5418WAT      O22377   5.123   0.449   2.083
 5418WAT     H122378   5.179   0.409   2.029
 5418WAT     H222379   5.128   0.533   2.059
 5418WAT    EPW22380   5.132   0.456   2.072
 5419WAT      O22381   6.605   0.953   2.606
 5419WAT     H122382   6.562   1.027   2.621
 5419WAT     H222383   6.599   0.942   2.520
 5419WAT    EPW22384   6.598   0.963   2.596
 5420WAT      O22385   5.613   0.857   1.896
 5420WAT     H122386   5.629   0.937   1.927
 5420WAT     H222387   5.678   0.809   1.929
 5420WAT    EPW22388   5.625   0.862   1.905
 5421WAT      O22389   5.445   0.221   2.140
 5421WAT     H122390   5.400   0.269   2.198
 5421WAT     H222391   5.466   0.149   2.185
 5421WAT    EPW22392   5.441   0.218   2.155
 5422WAT      O22393   5.898   1.180   2.352
 5422WAT     H122394   5.864   1.106   2.320
 5422WAT     H222395   5.869   1.241   2.297
 5422WAT    EPW22396   5.889   1.178   2.339
 5423WAT      O22397   5.220   0.333   3.055
 5423WAT     H122398   5.239   0.363   2.975
 5423WAT     H222399   5.270   0.261   3.062
 5423WAT    EPW22400   5.230   0.327   3.044
 5424WAT      O22401   6.432   0.507   2.840
 5424WAT     H122402   6.452   0.590   2.823
 5424WAT     H222403   6.470   0.463   2.775
 5424WAT    EPW22404   6.441   0.513   2.828
 5425WAT      O22405   5.826   0.901   2.902
 5425WAT     H122406   5.868   0.884   2.977
 5425WAT     H222407   5.792   0.824   2.879
 5425WAT    EPW22408   5.827   0.887   2.909
 5426WAT      O22409   6.223   0.254   1.442
 5426WAT     H122410   6.180   0.281   1.372
 5426WAT     H222411   6.162   0.249   1.504
 5426WAT    EPW22412   6.208   0.257   1.441
 5427WAT      O22413   6.669   0.578   1.754
 5427WAT     H122414   6.670   0.545   1.835
 5427WAT     H222415   6.678   0.507   1.703
 5427WAT    EPW22416   6.670   0.562   1.758
 5428WAT      O22417   6.273   0.955   2.168
 5428WAT     H122418   6.205   0.947   2.115
 5428WAT     H222419   6.319   1.019   2.131
 5428WAT    EPW22420   6.270   0.963   2.154
 5429WAT      O22421   6.249   0.606   2.129
 5429WAT     H122422   6.180   0.656   2.149
 5429WAT     H222423   6.261   0.558   2.201
 5429WAT    EPW22424   6.240   0.606   2.142
 5430WAT      O22425   5.644   0.980   1.501
 5430WAT     H122426   5.655   0.910   1.551
 5430WAT     H222427   5.724   1.016   1.498
 5430WAT    EPW22428   5.657   0.975   1.508
 5431WAT      O22429   5.895   1.085   1.448
 5431WAT     H122430   5.954   1.108   1.507
 5431WAT     H222431   5.877   1.160   1.407
 5431WAT    EPW22432   5.901   1.100   1.451
 5432WAT      O22433   6.571   0.385   2.626
 5432WAT     H122434   6.556   0.383   2.540
 5432WAT     H222435   6.652   0.415   2.633
 5432WAT    EPW22436   6.580   0.389   2.614
 5433WAT      O22437   6.204   0.992   3.056
 5433WAT     H122438   6.235   1.016   3.134
 5433WAT     H222439   6.220   1.061   3.005
 5433WAT    EPW22440   6.211   1.006   3.060
 5434WAT      O22441   5.406   0.339   1.494
 5434WAT     H122442   5.456   0.275   1.461
 5434WAT     H222443   5.463   0.388   1.539
 5434WAT    EPW22444   5.422   0.337   1.496
 5435WAT      O22445   6.105   0.426   2.566
 5435WAT     H122446   6.061   0.483   2.616
 5435WAT     H222447   6.122   0.360   2.621
 5435WAT    EPW22448   6.101   0.424   2.582
 5436WAT      O22449   6.022   0.254   1.642
 5436WAT     H122450   6.026   0.328   1.688
 5436WAT     H222451   5.995   0.195   1.701
 5436WAT    EPW22452   6.019   0.256   1.658
 5437WAT      O22453   6.507   0.722   2.105
 5437WAT     H122454   6.503   0.754   2.024
 5437WAT     H222455   6.427   0.692   2.119
 5437WAT    EPW22456   6.495   0.722   2.095
 5438WAT      O22457   5.912   0.478   2.043
 5438WAT     H122458   5.829   0.453   2.054
 5438WAT     H222459   5.947   0.467   2.122
 5438WAT    EPW22460   5.905   0.473   2.056
 5439WAT      O22461   5.584   1.113   1.110
 5439WAT     H122462   5.600   1.037   1.150
 5439WAT     H222463   5.579   1.170   1.177
 5439WAT    EPW22464   5.586   1.110   1.126
 5440WAT      O22465   5.297   0.407   2.293
 5440WAT     H122466   5.351   0.474   2.280
 5440WAT     H222467   5.232   0.421   2.236
 5440WAT    EPW22468   5.295   0.419   2.283
 5441WAT      O22469   6.852   1.144   1.354
 5441WAT     H122470   6.919   1.093   1.329
 5441WAT     H222471   6.801   1.089   1.399
 5441WAT    EPW22472   6.855   1.128   1.357
 5442WAT      O22473   6.552   0.420   2.342
 5442WAT     H122474   6.542   0.369   2.272
 5442WAT     H222475   6.472   0.452   2.355
 5442WAT    EPW22476   6.539   0.417   2.334
 5443WAT      O22477   5.382   0.134   1.116
 5443WAT     H122478   5.365   0.054   1.145
 5443WAT     H222479   5.457   0.124   1.072
 5443WAT    EPW22480   5.391   0.121   1.114
 5444WAT      O22481   5.252   0.478   2.821
 5444WAT     H122482   5.235   0.450   2.741
 5444WAT     H222483   5.181   0.525   2.842
 5444WAT    EPW22484   5.239   0.481   2.812
 5445WAT      O22485   6.678   0.510   2.020
 5445WAT     H122486   6.642   0.576   2.064
 5445WAT     H222487   6.757   0.502   2.055
 5445WAT    EPW22488   6.685   0.518   2.032
 5446WAT      O22489   6.850   0.935   2.164
 5446WAT     H122490   6.890   0.990   2.109
 5446WAT     H222491   6.911   0.918   2.223
 5446WAT    EPW22492   6.865   0.941   2.164
 5447WAT      O22493   6.558   0.775   1.374
 5447WAT     H122494   6.586   0.693   1.376
 5447WAT     H222495   6.482   0.771   1.417
 5447WAT    EPW22496   6.551   0.762   1.381
 5448WAT      O22497   6.810   0.368   3.016
 5448WAT     H122498   6.776   0.396   3.091
 5448WAT     H222499   6.891   0.344   3.038
 5448WAT    EPW22500   6.817   0.369   3.030
 5449WAT      O22501   6.823   0.507   2.602
 5449WAT     H122502   6.896   0.468   2.576
 5449WAT     H222503   6.800   0.556   2.534
 5449WAT    EPW22504   6.831   0.508   2.588
 5450WAT      O22505   6.264   0.589   1.313
 5450WAT     H122506   6.322   0.524   1.318
 5450WAT     H222507   6.241   0.589   1.228
 5450WAT    EPW22508   6.269   0.579   1.301
 5451WAT      O22509   5.655   0.735   2.367
 5451WAT     H122510   5.659   0.761   2.450
 5451WAT     H222511   5.701   0.796   2.324
 5451WAT    EPW22512   5.662   0.748   2.372
 5452WAT      O22513   5.480   0.619   2.745
 5452WAT     H122514   5.412   0.582   2.785
 5452WAT     H222515   5.454   0.700   2.730
 5452WAT    EPW22516   5.466   0.625   2.748
 5453WAT      O22517   5.968   0.472   2.323
 5453WAT     H122518   6.016   0.447   2.392
 5453WAT     H222519   5.886   0.462   2.350
 5453WAT    EPW22520   5.963   0.467   2.337
 5454WAT      O22521   5.939   1.171   1.885
 5454WAT     H122522   5.909   1.252   1.896
 5454WAT     H222523   5.970   1.172   1.803
 5454WAT    EPW22524   5.939   1.183   1.874
 5455WAT      O22525   5.817   0.930   2.250
 5455WAT     H122526   5.789   0.955   2.171
 5455WAT     H222527   5.883   0.876   2.231
 5455WAT    EPW22528   5.823   0.926   2.235
 5456WAT      O22529   6.165   0.529   2.928
 5456WAT     H122530   6.242   0.522   2.888
 5456WAT     H222531   6.114   0.570   2.871
 5456WAT    EPW22532   6.169   0.534   2.914
 5457WAT      O22533   6.476   0.783   2.792
 5457WAT     H122534   6.505   0.822   2.865
 5457WAT     H222535   6.516   0.827   2.728
 5457WAT    EPW22536   6.486   0.795   2.793
 5458WAT      O22537   5.837   0.456   1.283
 5458WAT     H122538   5.763   0.494   1.257
 5458WAT     H222539   5.885   0.522   1.313
 5458WAT    EPW22540   5.833   0.471   1.283
 5459WAT      O22541   5.973   1.123   2.810
 5459WAT     H122542   5.973   1.127   2.723
 5459WAT     H222543   5.930   1.050   2.828
 5459WAT    EPW22544   5.967   1.113   2.800
 5460WAT      O22545   6.727   0.364   1.587
 5460WAT     H122546   6.798   0.318   1.608
 5460WAT     H222547   6.663   0.304   1.586
 5460WAT    EPW22548   6.728   0.349   1.590
 5461WAT      O22549   5.972   0.608   2.729
 5461WAT     H122550   5.896   0.608   2.771
 5461WAT     H222551   5.974   0.687   2.692
 5461WAT    EPW22552   5.961   0.620   2.730
 5462WAT      O22553   5.548   1.264   2.180
 5462WAT     H122554   5.564   1.273   2.265
 5462WAT     H222555   5.494   1.196   2.176
 5462WAT    EPW22556   5.542   1.256   2.192
 5463WAT      O22557   6.290   0.550   1.860
 5463WAT     H122558   6.279   0.561   1.946
 5463WAT     H222559   6.329   0.472   1.854
 5463WAT    EPW22560   6.294   0.540   1.872
 5464WAT      O22561   6.031   0.487   1.790
 5464WAT     H122562   5.991   0.483   1.868
 5464WAT     H222563   6.112   0.510   1.810
 5464WAT    EPW22564   6.037   0.489   1.805
 5465WAT      O22565   6.003   0.874   2.624
 5465WAT     H122566   6.063   0.868   2.687
 5465WAT     H222567   6.025   0.948   2.582
 5465WAT    EPW22568   6.015   0.884   2.627
 5466WAT      O22569   5.151   1.202   2.793
 5466WAT     H122570   5.099   1.133   2.780
 5466WAT     H222571   5.095   1.269   2.799
 5466WAT    EPW22572   5.135   1.202   2.792
 5467WAT      O22573   6.067   0.329   3.104
 5467WAT     H122574   6.098   0.384   3.044
 5467WAT     H222575   5.984   0.353   3.114
 5467WAT    EPW22576   6.059   0.340   3.097
 5468WAT      O22577   6.407   1.190   2.102
 5468WAT     H122578   6.349   1.252   2.120
 5468WAT     H222579   6.467   1.198   2.165
 5468WAT    EPW22580   6.407   1.200   2.114
 5469WAT      O22581   6.029   0.736   2.255
 5469WAT     H122582   6.001   0.658   2.283
 5469WAT     H222583   6.083   0.762   2.318
 5469WAT    EPW22584   6.033   0.728   2.269
 5470WAT      O22585   6.580   0.900   3.022
 5470WAT     H122586   6.663   0.880   3.005
 5470WAT     H222587   6.561   0.852   3.092
 5470WAT    EPW22588   6.589   0.890   3.030
 5471WAT      O22589   6.154   0.884   1.722
 5471WAT     H122590   6.135   0.964   1.695
 5471WAT     H222591   6.084   0.837   1.699
 5471WAT    EPW22592   6.141   0.888   1.714
 5472WAT      O22593   5.208   0.380   2.553
 5472WAT     H122594   5.229   0.396   2.470
 5472WAT     H222595   5.183   0.296   2.552
 5472WAT    EPW22596   5.208   0.370   2.541
 5473WAT      O22597   5.575   0.871   1.260
 5473WAT     H122598   5.617   0.901   1.330
 5473WAT     H222599   5.497   0.847   1.291
 5473WAT    EPW22600   5.570   0.872   1.275
 5474WAT      O22601   5.501   0.403   2.571
 5474WAT     H122602   5.506   0.472   2.624
 5474WAT     H222603   5.415   0.389   2.565
 5474WAT    EPW22604   5.489   0.411   2.578
 5475WAT      O22605   6.519   0.298   2.087
 5475WAT     H122606   6.574   0.361   2.062
 5475WAT     H222607   6.473   0.281   2.015
 5475WAT    EPW22608   6.521   0.304   2.073
 5476WAT      O22609   6.537   1.021   1.724
 5476WAT     H122610   6.513   0.943   1.756
 5476WAT     H222611   6.575   1.001   1.648
 5476WAT    EPW22612   6.539   1.006   1.718
 5477WAT      O22613   5.358   0.771   1.402
 5477WAT     H122614   5.365   0.756   1.487
 5477WAT     H222615   5.347   0.691   1.368
 5477WAT    EPW22616   5.357   0.757   1.409
 5478WAT      O22617   5.609   0.598   1.205
 5478WAT     H122618   5.529   0.569   1.224
 5478WAT     H222619   5.605   0.683   1.224
 5478WAT    EPW22620   5.596   0.606   1.211
 5479WAT      O22621   6.270   0.793   2.396
 5479WAT     H122622   6.289   0.855   2.455
 5479WAT     H222623   6.285   0.832   2.320
 5479WAT    EPW22624   6.275   0.808   2.393
 5480WAT      O22625   6.240   1.188   2.858
 5480WAT     H122626   6.165   1.154   2.831
 5480WAT     H222627   6.221   1.272   2.873
 5480WAT    EPW22628   6.226   1.196   2.857
 5481WAT      O22629   6.743   0.628   2.363
 5481WAT     H122630   6.685   0.564   2.348
 5481WAT     H222631   6.696   0.701   2.357
 5481WAT    EPW22632   6.727   0.629   2.360
 5482WAT      O22633   5.621   1.093   2.877
 5482WAT     H122634   5.607   1.103   2.963
 5482WAT     H222635   5.683   1.031   2.874
 5482WAT    EPW22636   5.628   1.085   2.889
 5483WAT      O22637   6.618   0.874   2.318
 5483WAT     H122638   6.684   0.909   2.273
 5483WAT     H222639   6.568   0.839   2.256
 5483WAT    EPW22640   6.620   0.874   2.302
 5484WAT      O22641   5.314   1.021   2.951
 5484WAT     H122642   5.391   1.052   2.979
 5484WAT     H222643   5.278   1.090   2.910
 5484WAT    EPW22644   5.320   1.036   2.949
 5485WAT      O22645   5.111   0.798   2.601
 5485WAT     H122646   5.064   0.861   2.639
 5485WAT     H222647   5.192   0.812   2.630
 5485WAT    EPW22648   5.116   0.810   2.611
 5486WAT      O22649   6.480   0.215   1.572
 5486WAT     H122650   6.494   0.137   1.535
 5486WAT     H222651   6.412   0.246   1.528
 5486WAT    EPW22652   6.472   0.208   1.560
 5487WAT      O22653   5.401   1.115   1.499
 5487WAT     H122654   5.351   1.081   1.437
 5487WAT     H222655   5.471   1.064   1.500
 5487WAT    EPW22656   5.404   1.103   1.490
 5488WAT      O22657   5.780   0.312   1.511
 5488WAT     H122658   5.800   0.350   1.435
 5488WAT     H222659   5.857   0.291   1.545
 5488WAT    EPW22660   5.794   0.315   1.505
 5489WAT      O22661   6.651   1.169   1.167
 5489WAT     H122662   6.721   1.165   1.220
 5489WAT     H222663   6.629   1.086   1.155
 5489WAT    EPW22664   6.658   1.156   1.173
 5490WAT      O22665   6.875   0.588   2.865
 5490WAT     H122666   6.843   0.520   2.909
 5490WAT     H222667   6.846   0.575   2.783
 5490WAT    EPW22668   6.866   0.576   2.859
 5491WAT      O22669   6.316   0.805   1.501
 5491WAT     H122670   6.275   0.809   1.578
 5491WAT     H222671   6.278   0.738   1.461
 5491WAT    EPW22672   6.305   0.796   1.507
 5492WAT      O22673   6.458   0.393   3.104
 5492WAT     H122674   6.534   0.423   3.135
 5492WAT     H222675   6.457   0.421   3.022
 5492WAT    EPW22676   6.469   0.402   3.097
 5493WAT      O22677   5.369   1.057   2.140
 5493WAT     H122678   5.374   0.978   2.103
 5493WAT     H222679   5.329   1.106   2.080
 5493WAT    EPW22680   5.364   1.053   2.126
 5494WAT      O22681   6.002   0.653   1.380
 5494WAT     H122682   6.082   0.626   1.360
 5494WAT     H222683   5.993   0.728   1.336
 5494WAT    EPW22684   6.012   0.660   1.371
 5495WAT      O22685   5.163   1.235   2.512
 5495WAT     H122686   5.165   1.213   2.596
 5495WAT     H222687   5.191   1.163   2.471
 5495WAT    EPW22688   5.168   1.221   2.519
 5496WAT      O22689   5.143   0.813   0.532
 5496WAT     H122690   5.162   0.802   0.616
 5496WAT     H222691   5.083   0.752   0.516
 5496WAT    EPW22692   5.137   0.802   0.542
 5497WAT      O22693   5.746   0.642   0.961
 5497WAT     H122694   5.713   0.619   1.039
 5497WAT     H222695   5.679   0.634   0.907
 5497WAT    EPW22696   5.732   0.637   0.965
 5498WAT      O22697   5.779   0.925   0.679
 5498WAT     H122698   5.795   0.981   0.615
 5498WAT     H222699   5.857   0.892   0.699
 5498WAT    EPW22700   5.793   0.928   0.673
 5499WAT      O22701   6.299   1.082   0.598
 5499WAT     H122702   6.353   1.116   0.657
 5499WAT     H222703   6.334   1.106   0.522
 5499WAT    EPW22704   6.312   1.091   0.595
 5500WAT      O22705   5.532   1.147   0.570
 5500WAT     H122706   5.554   1.138   0.654
 5500WAT     H222707   5.456   1.106   0.563
 5500WAT    EPW22708   5.524   1.140   0.581
 5501WAT      O22709   6.215   0.888   0.922
 5501WAT     H122710   6.212   0.920   1.003
 5501WAT     H222711   6.295   0.855   0.916
 5501WAT    EPW22712   6.226   0.888   0.933
 5502WAT      O22713   5.293   1.036   0.471
 5502WAT     H122714   5.254   0.961   0.492
 5502WAT     H222715   5.313   1.027   0.387
 5502WAT    EPW22716   5.290   1.024   0.461
 5503WAT      O22717   6.047   1.172   0.651
 5503WAT     H122718   6.126   1.141   0.631
 5503WAT     H222719   5.997   1.143   0.585
 5503WAT    EPW22720   6.051   1.163   0.638
 5504WAT      O22721   5.442   0.899   0.843
 5504WAT     H122722   5.506   0.956   0.824
 5504WAT     H222723   5.409   0.930   0.918
 5504WAT    EPW22724   5.447   0.912   0.851
 5505WAT      O22725   5.643   0.520   0.208
 5505WAT     H122726   5.662   0.503   0.291
 5505WAT     H222727   5.606   0.446   0.180
 5505WAT    EPW22728   5.641   0.507   0.216
 5506WAT      O22729   5.712   0.497   0.474
 5506WAT     H122730   5.694   0.581   0.490
 5506WAT     H222731   5.654   0.454   0.524
 5506WAT    EPW22732   5.700   0.503   0.484
 5507WAT      O22733   6.338   0.580   0.538
 5507WAT     H122734   6.280   0.534   0.585
 5507WAT     H222735   6.305   0.661   0.538
 5507WAT    EPW22736   6.325   0.585   0.545
 5508WAT      O22737   4.978   0.803   1.087
 5508WAT     H122738   5.012   0.770   1.160
 5508WAT     H222739   4.952   0.732   1.042
 5508WAT    EPW22740   4.979   0.787   1.091
 5509WAT      O22741   6.876   0.974   0.875
 5509WAT     H122742   6.796   0.981   0.841
 5509WAT     H222743   6.863   0.931   0.950
 5509WAT    EPW22744   6.862   0.969   0.881
 5510WAT      O22745   5.440   0.701   0.305
 5510WAT     H122746   5.486   0.722   0.376
 5510WAT     H222747   5.496   0.651   0.259
 5510WAT    EPW22748   5.455   0.697   0.309
 5511WAT      O22749   6.615   0.988   0.766
 5511WAT     H122750   6.565   1.058   0.782
 5511WAT     H222751   6.611   0.978   0.680
 5511WAT    EPW22752   6.607   0.997   0.756
 5512WAT      O22753   5.853   1.094   0.470
 5512WAT     H122754   5.834   1.038   0.405
 5512WAT     H222755   5.824   1.171   0.439
 5512WAT    EPW22756   5.846   1.097   0.456
 5513WAT      O22757   5.219   0.361   1.103
 5513WAT     H122758   5.235   0.401   1.027
 5513WAT     H222759   5.268   0.289   1.099
 5513WAT    EPW22760   5.229   0.356   1.091
 5514WAT      O22761   6.438   0.511   0.953
 5514WAT     H122762   6.463   0.593   0.936
 5514WAT     H222763   6.475   0.466   0.888
 5514WAT    EPW22764   6.447   0.517   0.941
 5515WAT      O22765   5.834   0.908   1.004
 5515WAT     H122766   5.868   0.901   1.084
 5515WAT     H222767   5.806   0.828   0.986
 5515WAT    EPW22768   5.835   0.895   1.013
 5516WAT      O22769   6.346   0.842   0.250
 5516WAT     H122770   6.307   0.832   0.173
 5516WAT     H222771   6.360   0.928   0.254
 5516WAT    EPW22772   6.342   0.853   0.239
 5517WAT      O22773   6.093   0.717   0.070
 5517WAT     H122774   6.078   0.746   0.151
 5517WAT     H222775   6.048   0.642   0.067
 5517WAT    EPW22776   6.084   0.710   0.081
 5518WAT      O22777   6.558   0.375   0.738
 5518WAT     H122778   6.535   0.355   0.656
 5518WAT     H222779   6.640   0.404   0.730
 5518WAT    EPW22780   6.567   0.376   0.725
 5519WAT      O22781   6.199   1.024   1.169
 5519WAT     H122782   6.229   1.042   1.249
 5519WAT     H222783   6.213   1.098   1.125
 5519WAT    EPW22784   6.206   1.037   1.175
 5520WAT      O22785   6.131   0.433   0.658
 5520WAT     H122786   6.085   0.479   0.716
 5520WAT     H222787   6.157   0.363   0.704
 5520WAT    EPW22788   6.128   0.429   0.673
 5521WAT      O22789   6.549   0.703   0.388
 5521WAT     H122790   6.496   0.737   0.327
 5521WAT     H222791   6.494   0.660   0.441
 5521WAT    EPW22792   6.533   0.701   0.387
 5522WAT      O22793   5.921   0.500   0.130
 5522WAT     H122794   5.835   0.513   0.142
 5522WAT     H222795   5.949   0.477   0.209
 5522WAT    EPW22796   5.912   0.498   0.144
 5523WAT      O22797   5.228   0.526   0.385
 5523WAT     H122798   5.288   0.586   0.363
 5523WAT     H222799   5.164   0.539   0.327
 5523WAT    EPW22800   5.228   0.537   0.373
 5524WAT      O22801   6.482   0.351   0.464
 5524WAT     H122802   6.420   0.298   0.430
 5524WAT     H222803   6.439   0.426   0.477
 5524WAT    EPW22804   6.466   0.354   0.461
 5525WAT      O22805   5.261   0.517   0.874
 5525WAT     H122806   5.246   0.476   0.798
 5525WAT     H222807   5.221   0.594   0.863
 5525WAT    EPW22808   5.253   0.523   0.861
 5526WAT      O22809   6.745   0.355   0.363
 5526WAT     H122810   6.664   0.347   0.394
 5526WAT     H222811   6.738   0.328   0.280
 5526WAT    EPW22812   6.732   0.350   0.355
 5527WAT      O22813   6.848   1.021   0.392
 5527WAT     H122814   6.906   1.075   0.355
 5527WAT     H222815   6.898   0.963   0.434
 5527WAT    EPW22816   6.864   1.021   0.393
 5528WAT      O22817   6.808   0.350   1.096
 5528WAT     H122818   6.775   0.276   1.128
 5528WAT     H222819   6.893   0.344   1.114
 5528WAT    EPW22820   6.815   0.338   1.103
 5529WAT      O22821   6.813   0.486   0.687
 5529WAT     H122822   6.886   0.441   0.673
 5529WAT     H222823   6.806   0.537   0.616
 5529WAT    EPW22824   6.823   0.487   0.674
 5530WAT      O22825   5.642   0.765   0.492
 5530WAT     H122826   5.670   0.806   0.564
 5530WAT     H222827   5.683   0.807   0.427
 5530WAT    EPW22828   5.652   0.777   0.493
 5531WAT      O22829   5.510   0.627   0.816
 5531WAT     H122830   5.437   0.593   0.850
 5531WAT     H222831   5.494   0.713   0.815
 5531WAT    EPW22832   5.497   0.635   0.821
 5532WAT      O22833   5.984   0.485   0.416
 5532WAT     H122834   6.031   0.459   0.484
 5532WAT     H222835   5.901   0.479   0.444
 5532WAT    EPW22836   5.978   0.480   0.430
 5533WAT      O22837   5.786   0.890   0.291
 5533WAT     H122838   5.768   0.890   0.206
 5533WAT     H222839   5.860   0.844   0.297
 5533WAT    EPW22840   5.794   0.883   0.279
 5534WAT      O22841   6.179   0.533   1.052
 5534WAT     H122842   6.256   0.525   1.012
 5534WAT     H222843   6.126   0.559   0.989
 5534WAT    EPW22844   6.183   0.535   1.037
 5535WAT      O22845   6.474   0.791   0.911
 5535WAT     H122846   6.506   0.821   0.987
 5535WAT     H222847   6.517   0.838   0.852
 5535WAT    EPW22848   6.485   0.803   0.914
 5536WAT      O22849   5.954   1.141   0.909
 5536WAT     H122850   5.978   1.130   0.826
 5536WAT     H222851   5.923   1.063   0.932
 5536WAT    EPW22852   5.953   1.128   0.900
 5537WAT      O22853   5.998   0.590   0.845
 5537WAT     H122854   5.919   0.594   0.882
 5537WAT     H222855   6.008   0.669   0.809
 5537WAT    EPW22856   5.987   0.602   0.845
 5538WAT      O22857   5.537   1.190   0.295
 5538WAT     H122858   5.545   1.169   0.379
 5538WAT     H222859   5.501   1.119   0.259
 5538WAT    EPW22860   5.533   1.176   0.302
 5539WAT      O22861   6.039   0.834   0.720
 5539WAT     H122862   6.091   0.859   0.785
 5539WAT     H222863   6.093   0.831   0.651
 5539WAT    EPW22864   6.055   0.837   0.719
 5540WAT      O22865   5.175   1.214   0.906
 5540WAT     H122866   5.119   1.148   0.897
 5540WAT     H222867   5.126   1.279   0.937
 5540WAT    EPW22868   5.160   1.214   0.910
 5541WAT      O22869   6.078   0.326   1.215
 5541WAT     H122870   6.114   0.383   1.160
 5541WAT     H222871   5.997   0.356   1.226
 5541WAT    EPW22872   6.071   0.339   1.209
 5542WAT      O22873   6.383   1.109   0.326
 5542WAT     H122874   6.346   1.187   0.313
 5542WAT     H222875   6.458   1.129   0.366
 5542WAT    EPW22876   6.388   1.123   0.330
 5543WAT      O22877   6.017   0.752   0.340
 5543WAT     H122878   6.010   0.668   0.363
 5543WAT     H222879   6.077   0.783   0.396
 5543WAT    EPW22880   6.025   0.744   0.352
 5544WAT      O22881   6.592   0.902   1.135
 5544WAT     H122882   6.672   0.872   1.120
 5544WAT     H222883   6.568   0.862   1.208
 5544WAT    EPW22884   6.601   0.892   1.143
 5545WAT      O22885   5.219   0.389   0.623
 5545WAT     H122886   5.218   0.437   0.550
 5545WAT     H222887   5.210   0.307   0.595
 5545WAT    EPW22888   5.218   0.384   0.608
 5546WAT      O22889   5.507   0.410   0.638
 5546WAT     H122890   5.515   0.478   0.693
 5546WAT     H222891   5.421   0.401   0.628
 5546WAT    EPW22892   5.496   0.419   0.645
 5547WAT      O22893   6.231   0.834   0.502
 5547WAT     H122894   6.259   0.907   0.541
 5547WAT     H222895   6.268   0.837   0.423
 5547WAT    EPW22896   6.241   0.846   0.496
 5548WAT      O22897   6.213   1.229   0.978
 5548WAT     H122898   6.140   1.189   0.952
 5548WAT     H222899   6.191   1.313   0.981
 5548WAT    EPW22900   6.199   1.235   0.975
 5549WAT      O22901   6.811   0.611   0.431
 5549WAT     H122902   6.796   0.529   0.404
 5549WAT     H222903   6.736   0.652   0.412
 5549WAT    EPW22904   6.797   0.605   0.424
 5550WAT      O22905   5.639   1.109   0.832
 5550WAT     H122906   5.638   1.110   0.920
 5550WAT     H222907   5.697   1.047   0.813
 5550WAT    EPW22908   5.647   1.100   0.842
 5551WAT      O22909   6.600   0.954   0.495
 5551WAT     H122910   6.673   0.983   0.456
 5551WAT     H222911   6.588   0.875   0.459
 5551WAT    EPW22912   6.609   0.947   0.484
 5552WAT      O22913   5.327   1.032   1.058
 5552WAT     H122914   5.404   1.069   1.076
 5552WAT     H222915   5.284   1.094   1.015
 5552WAT    EPW22916   5.332   1.047   1.054
 5553WAT      O22917   5.193   0.783   0.800
 5553WAT     H122918   5.135   0.842   0.828
 5553WAT     H222919   5.270   0.824   0.808
 5553WAT    EPW22920   5.196   0.798   0.805
 5554WAT      O22921   6.781   0.583   0.949
 5554WAT     H122922   6.780   0.508   0.993
 5554WAT     H222923   6.790   0.557   0.866
 5554WAT    EPW22924   6.782   0.568   0.943
 5555WAT      O22925   6.474   0.396   1.215
 5555WAT     H122926   6.545   0.433   1.250
 5555WAT     H222927   6.472   0.428   1.134
 5555WAT    EPW22928   6.484   0.407   1.208
 5556WAT      O22929   5.384   0.962   0.204
 5556WAT     H122930   5.399   0.879   0.226
 5556WAT     H222931   5.362   0.958   0.120
 5556WAT    EPW22932   5.383   0.949   0.195
 5557WAT      O22933   5.137   1.231   0.617
 5557WAT     H122934   5.174   1.220   0.695
 5557WAT     H222935   5.183   1.179   0.564
 5557WAT    EPW22936   5.149   1.222   0.620
 5558WAT      O22937   4.252   6.862   7.411
 5558WAT     H122938   4.245   6.900   7.333
 5558WAT     H222939   4.337   6.844   7.418
 5558WAT    EPW22940   4.264   6.865   7.401
 5559WAT      O22941   3.183   7.303   7.011
 5559WAT     H122942   3.112   7.334   6.971
 5559WAT     H222943   3.160   7.222   7.033
 5559WAT    EPW22944   3.169   7.296   7.008
 5560WAT      O22945   3.472   7.905   6.854
 5560WAT     H122946   3.429   7.858   6.795
 5560WAT     H222947   3.487   7.848   6.918
 5560WAT    EPW22948   3.468   7.890   6.855
 5561WAT      O22949   4.495   7.655   7.480
 5561WAT     H122950   4.486   7.646   7.394
 5561WAT     H222951   4.425   7.614   7.512
 5561WAT    EPW22952   4.483   7.648   7.472
 5562WAT      O22953   3.838   6.943   7.284
 5562WAT     H122954   3.854   7.014   7.237
 5562WAT     H222955   3.907   6.891   7.266
 5562WAT    EPW22956   3.851   6.946   7.274
 5563WAT      O22957   3.532   7.757   7.431
 5563WAT     H122958   3.469   7.758   7.371
 5563WAT     H222959   3.578   7.686   7.412
 5563WAT    EPW22960   3.529   7.747   7.420
 5564WAT      O22961   3.641   7.508   7.369
 5564WAT     H122962   3.691   7.470   7.430
 5564WAT     H222963   3.561   7.476   7.385
 5564WAT    EPW22964   3.636   7.498   7.380
 5565WAT      O22965   3.599   7.037   7.421
 5565WAT     H122966   3.558   7.081   7.358
 5565WAT     H222967   3.675   7.015   7.385
 5565WAT    EPW22968   3.604   7.040   7.406
 5566WAT      O22969   3.927   6.917   7.550
 5566WAT     H122970   3.928   6.998   7.584
 5566WAT     H222971   3.892   6.928   7.471
 5566WAT    EPW22972   3.922   6.931   7.543
 5567WAT      O22973   4.372   7.153   6.829
 5567WAT     H122974   4.325   7.216   6.867
 5567WAT     H222975   4.387   7.097   6.894
 5567WAT    EPW22976   4.367   7.154   6.844
 5568WAT      O22977   3.254   7.535   7.659
 5568WAT     H122978   3.177   7.572   7.642
 5568WAT     H222979   3.233   7.454   7.683
 5568WAT    EPW22980   3.240   7.529   7.660
 5569WAT      O22981   4.884   7.173   7.506
 5569WAT     H122982   4.819   7.230   7.521
 5569WAT     H222983   4.842   7.097   7.496
 5569WAT    EPW22984   4.868   7.170   7.507
 5570WAT      O22985   4.088   7.346   7.415
 5570WAT     H122986   4.123   7.300   7.350
 5570WAT     H222987   4.156   7.389   7.448
 5570WAT    EPW22988   4.103   7.346   7.410
 5571WAT      O22989   4.197   7.331   6.961
 5571WAT     H122990   4.210   7.408   7.000
 5571WAT     H222991   4.120   7.342   6.921
 5571WAT    EPW22992   4.187   7.344   6.961
 5572WAT      O22993   4.414   6.970   7.033
 5572WAT     H122994   4.470   6.903   7.035
 5572WAT     H222995   4.439   7.020   7.100
 5572WAT    EPW22996   4.426   6.968   7.043
 5573WAT      O22997   3.207   7.104   7.279
 5573WAT     H122998   3.191   7.018   7.278
 5573WAT     H222999   3.153   7.134   7.341
 5573WAT    EPW23000   3.197   7.096   7.288
 5574WAT      O23001   4.198   7.207   7.208
 5574WAT     H123002   4.167   7.127   7.193
 5574WAT     H223003   4.193   7.246   7.130
 5574WAT    EPW23004   4.193   7.201   7.194
 5575WAT      O23005   4.164   6.936   7.151
 5575WAT     H123006   4.101   6.915   7.093
 5575WAT     H223007   4.237   6.936   7.102
 5575WAT    EPW23008   4.165   6.933   7.135
 5576WAT      O23009   3.973   7.191   7.610
 5576WAT     H123010   4.011   7.238   7.546
 5576WAT     H223011   3.997   7.233   7.682
 5576WAT    EPW23012   3.982   7.204   7.611
 5577WAT      O23013   3.544   6.783   7.532
 5577WAT     H123014   3.554   6.865   7.507
 5577WAT     H223015   3.525   6.740   7.459
 5577WAT    EPW23016   3.543   6.789   7.518
 5578WAT      O23017   4.510   6.774   7.464
 5578WAT     H123018   4.512   6.757   7.549
 5578WAT     H223019   4.547   6.703   7.428
 5578WAT    EPW23020   4.516   6.761   7.471
 5579WAT      O23021   3.523   7.229   7.614
 5579WAT     H123022   3.545   7.160   7.565
 5579WAT     H223023   3.452   7.202   7.657
 5579WAT    EPW23024   3.516   7.215   7.613
 5580WAT      O23025   4.591   7.646   6.963
 5580WAT     H123026   4.579   7.729   6.941
 5580WAT     H223027   4.560   7.641   7.044
 5580WAT    EPW23028   4.584   7.657   6.972
 5581WAT      O23029   4.933   7.074   6.962
 5581WAT     H123030   4.973   7.024   6.902
 5581WAT     H223031   4.892   7.134   6.914
 5581WAT    EPW23032   4.933   7.075   6.946
 5582WAT      O23033   3.343   7.732   7.230
 5582WAT     H123034   3.301   7.656   7.230
 5582WAT     H223035   3.403   7.722   7.167
 5582WAT    EPW23036   3.345   7.719   7.221
 5583WAT      O23037   4.797   6.944   7.173
 5583WAT     H123038   4.869   6.908   7.207
 5583WAT     H223039   4.828   6.995   7.109
 5583WAT    EPW23040   4.813   6.946   7.169
 5584WAT      O23041   4.393   7.274   7.681
 5584WAT     H123042   4.412   7.252   7.764
 5584WAT     H223043   4.349   7.204   7.651
 5584WAT    EPW23044   4.389   7.260   7.689
 5585WAT      O23045   3.878   7.152   7.114
 5585WAT     H123046   3.868   7.135   7.029
 5585WAT     H223047   3.863   7.237   7.120
 5585WAT    EPW23048   3.875   7.162   7.102
 5586WAT      O23049   3.527   7.403   7.062
 5586WAT     H123050   3.506   7.345   7.125
 5586WAT     H223051   3.492   7.368   6.990
 5586WAT    EPW23052   3.518   7.389   7.061
 5587WAT      O23053   3.386   7.790   7.663
 5587WAT     H123054   3.437   7.781   7.593
 5587WAT     H223055   3.353   7.710   7.675
 5587WAT    EPW23056   3.388   7.777   7.654
 5588WAT      O23057   4.462   7.127   7.251
 5588WAT     H123058   4.517   7.195   7.261
 5588WAT     H223059   4.383   7.165   7.251
 5588WAT    EPW23060   4.459   7.143   7.253
 5589WAT      O23061   4.225   7.565   7.111
 5589WAT     H123062   4.216   7.627   7.050
 5589WAT     H223063   4.166   7.587   7.171
 5589WAT    EPW23064   4.215   7.578   7.111
 5590WAT      O23065   3.679   6.829   7.076
 5590WAT     H123066   3.712   6.854   7.153
 5590WAT     H223067   3.638   6.900   7.048
 5590WAT    EPW23068   3.678   6.843   7.083
 5591WAT      O23069   3.557   7.682   7.054
 5591WAT     H123070   3.541   7.596   7.063
 5591WAT     H223071   3.626   7.695   7.105
 5591WAT    EPW23072   3.564   7.671   7.063
 5592WAT      O23073   3.150   6.821   7.259
 5592WAT     H123074   3.154   6.764   7.193
 5592WAT     H223075   3.118   6.773   7.325
 5592WAT    EPW23076   3.146   6.806   7.259
 5593WAT      O23077   4.030   7.602   7.317
 5593WAT     H123078   4.030   7.637   7.397
 5593WAT     H223079   4.029   7.516   7.332
 5593WAT    EPW23080   4.030   7.595   7.331
 5594WAT      O23081   3.561   7.056   6.978
 5594WAT     H123082   3.504   7.043   6.914
 5594WAT     H223083   3.629   7.092   6.938
 5594WAT    EPW23084   3.563   7.059   6.963
 5595WAT      O23085   3.986   7.580   7.616
 5595WAT     H123086   3.919   7.525   7.603
 5595WAT     H223087   3.951   7.645   7.662
 5595WAT    EPW23088   3.971   7.581   7.621
 5596WAT      O23089   3.768   7.384   7.590
 5596WAT     H123090   3.819   7.313   7.584
 5596WAT     H223091   3.691   7.351   7.615
 5596WAT    EPW23092   3.764   7.368   7.593
 5597WAT      O23093   3.232   7.472   7.234
 5597WAT     H123094   3.281   7.438   7.297
 5597WAT     H223095   3.236   7.412   7.170
 5597WAT    EPW23096   3.240   7.458   7.233
 5598WAT      O23097   3.716   7.640   6.827
 5598WAT     H123098   3.667   7.655   6.898
 5598WAT     H223099   3.663   7.595   6.774
 5598WAT    EPW23100   3.701   7.636   6.830
 5599WAT      O23101   4.923   7.682   7.643
 5599WAT     H123102   4.955   7.762   7.661
 5599WAT     H223103   4.888   7.692   7.564
 5599WAT    EPW23104   4.923   7.695   7.634
 5600WAT      O23105   3.802   7.423   7.087
 5600WAT     H123106   3.811   7.503   7.119
 5600WAT     H223107   3.715   7.412   7.084
 5600WAT    EPW23108   3.791   7.433   7.091
 5601WAT      O23109   3.210   7.256   7.694
 5601WAT     H123110   3.157   7.230   7.630
 5601WAT     H223111   3.171   7.225   7.766
 5601WAT    EPW23112   3.196   7.248   7.695
 5602WAT      O23113   4.650   7.326   7.569
 5602WAT     H123114   4.573   7.298   7.599
 5602WAT     H223115   4.662   7.401   7.612
 5602WAT    EPW23116   4.640   7.333   7.580
 5603WAT      O23117   4.838   7.520   6.950
 5603WAT     H123118   4.888   7.571   6.900
 5603WAT     H223119   4.761   7.562   6.951
 5603WAT    EPW23120   4.834   7.534   6.943
 5604WAT      O23121   3.929   7.802   6.907
 5604WAT     H123122   3.871   7.749   6.869
 5604WAT     H223123   3.896   7.882   6.893
 5604WAT    EPW23124   3.916   7.806   6.899
 5605WAT      O23125   4.613   7.360   7.296
 5605WAT     H123126   4.621   7.352   7.383
 5605WAT     H223127   4.690   7.392   7.272
 5605WAT    EPW23128   4.625   7.364   7.306
 5606WAT      O23129   4.732   6.945   7.445
 5606WAT     H123130   4.652   6.911   7.454
 5606WAT     H223131   4.738   6.960   7.359
 5606WAT    EPW23132   4.721   6.942   7.434
 5607WAT      O23133   4.774   7.707   7.415
 5607WAT     H123134   4.791   7.651   7.351
 5607WAT     H223135   4.687   7.700   7.425
 5607WAT    EPW23136   4.763   7.698   7.407
 5608WAT      O23137   3.470   7.173   7.217
 5608WAT     H123138   3.487   7.131   7.142
 5608WAT     H223139   3.386   7.155   7.232
 5608WAT    EPW23140   3.460   7.164   7.208
 5609WAT      O23141   4.841   7.506   7.231
 5609WAT     H123142   4.843   7.520   7.145
 5609WAT     H223143   4.925   7.496   7.252
 5609WAT    EPW23144   4.854   7.507   7.221
 5610WAT      O23145   3.394   7.307   6.833
 5610WAT     H123146   3.322   7.308   6.881
 5610WAT     H223147   3.396   7.225   6.801
 5610WAT    EPW23148   3.384   7.295   6.835
 5611WAT      O23149   4.231   7.066   7.601
 5611WAT     H123150   4.145   7.078   7.602
 5611WAT     H223151   4.241   6.998   7.547
 5611WAT    EPW23152   4.220   7.057   7.593
 5612WAT      O23153   4.667   7.569   7.696
 5612WAT     H123154   4.745   7.607   7.692
 5612WAT     H223155   4.620   7.613   7.637
 5612WAT    EPW23156   4.671   7.581   7.687
 5613WAT      O23157   3.951   6.844   6.991
 5613WAT     H123158   3.964   6.854   6.906
 5613WAT     H223159   3.865   6.849   7.000
 5613WAT    EPW23160   3.941   6.846   6.980
 5614WAT      O23161   4.272   7.498   7.560
 5614WAT     H123162   4.307   7.435   7.609
 5614WAT     H223163   4.203   7.524   7.607
 5614WAT    EPW23164   4.267   7.493   7.574
 5615WAT      O23165   3.393   7.413   7.451
 5615WAT     H123166   3.354   7.462   7.511
 5615WAT     H223167   3.428   7.347   7.498
 5615WAT    EPW23168   3.393   7.410   7.467
 5616WAT      O23169   4.483   7.591   7.212
 5616WAT     H123170   4.514   7.512   7.233
 5616WAT     H223171   4.401   7.575   7.186
 5616WAT    EPW23172   4.475   7.577   7.211
 5617WAT      O23173   3.825   7.695   7.148
 5617WAT     H123174   3.872   7.734   7.085
 5617WAT     H223175   3.885   7.680   7.210
 5617WAT    EPW23176   3.841   7.699   7.148
 5618WAT      O23177   4.289   6.926   5.520
 5618WAT     H123178   4.234   6.913   5.454
 5618WAT     H223179   4.348   6.981   5.488
 5618WAT    EPW23180   4.289   6.932   5.505
 5619WAT      O23181   4.225   7.436   5.998
 5619WAT     H123182   4.181   7.507   6.022
 5619WAT     H223183   4.286   7.428   6.060
 5619WAT    EPW23184   4.227   7.445   6.011
 5620WAT      O23185   3.194   7.347   5.167
 5620WAT     H123186   3.126   7.391   5.133
 5620WAT     H223187   3.161   7.268   5.181
 5620WAT    EPW23188   3.179   7.342   5.164
 5621WAT      O23189   3.466   7.920   4.943
 5621WAT     H123190   3.425   7.871   4.883
 5621WAT     H223191   3.464   7.871   5.015
 5621WAT    EPW23192   3.459   7.906   4.945
 5622WAT      O23193   4.491   7.612   5.705
 5622WAT     H123194   4.488   7.616   5.618
 5622WAT     H223195   4.434   7.549   5.725
 5622WAT    EPW23196   4.482   7.603   5.695
 5623WAT      O23197   3.823   6.957   5.424
 5623WAT     H123198   3.865   7.016   5.376
 5623WAT     H223199   3.779   6.910   5.366
 5623WAT    EPW23200   3.822   6.959   5.409
 5624WAT      O23201   3.447   7.796   5.634
 5624WAT     H123202   3.413   7.791   5.553
 5624WAT     H223203   3.483   7.718   5.646
 5624WAT    EPW23204   3.447   7.784   5.624
 5625WAT      O23205   3.813   7.275   6.195
 5625WAT     H123206   3.881   7.267   6.141
 5625WAT     H223207   3.767   7.203   6.180
 5625WAT    EPW23208   3.816   7.263   6.185
 5626WAT      O23209   3.522   7.536   5.723
 5626WAT     H123210   3.590   7.482   5.726
 5626WAT     H223211   3.455   7.484   5.701
 5626WAT    EPW23212   3.522   7.520   5.720
 5627WAT      O23213   4.197   7.535   6.695
 5627WAT     H123214   4.116   7.530   6.663
 5627WAT     H223215   4.192   7.601   6.752
 5627WAT    EPW23216   4.185   7.544   6.699
 5628WAT      O23217   3.579   7.023   5.535
 5628WAT     H123218   3.533   7.059   5.471
 5628WAT     H223219   3.659   7.016   5.501
 5628WAT    EPW23220   3.584   7.027   5.520
 5629WAT      O23221   4.613   6.773   6.502
 5629WAT     H123222   4.588   6.836   6.447
 5629WAT     H223223   4.539   6.750   6.542
 5629WAT    EPW23224   4.599   6.778   6.500
 5630WAT      O23225   3.906   6.928   5.692
 5630WAT     H123226   3.928   7.010   5.711
 5630WAT     H223227   3.877   6.933   5.610
 5630WAT    EPW23228   3.905   6.941   5.683
 5631WAT      O23229   4.374   7.129   4.948
 5631WAT     H123230   4.338   7.200   4.984
 5631WAT     H223231   4.383   7.074   5.015
 5631WAT    EPW23232   4.370   7.132   4.963
 5632WAT      O23233   3.169   7.415   5.915
 5632WAT     H123234   3.130   7.493   5.919
 5632WAT     H223235   3.118   7.365   5.966
 5632WAT    EPW23236   3.155   7.419   5.923
 5633WAT      O23237   3.454   7.003   5.955
 5633WAT     H123238   3.445   6.918   5.938
 5633WAT     H223239   3.517   7.005   6.015
 5633WAT    EPW23240   3.462   6.991   5.962
 5634WAT      O23241   3.796   7.132   6.838
 5634WAT     H123242   3.808   7.096   6.759
 5634WAT     H223243   3.838   7.208   6.832
 5634WAT    EPW23244   3.804   7.138   6.825
 5635WAT      O23245   4.971   7.081   5.660
 5635WAT     H123246   4.907   7.140   5.660
 5635WAT     H223247   4.929   7.005   5.651
 5635WAT    EPW23248   4.955   7.078   5.659
 5636WAT      O23249   3.394   7.031   6.758
 5636WAT     H123250   3.314   7.000   6.744
 5636WAT     H223251   3.442   6.991   6.696
 5636WAT    EPW23252   3.389   7.020   6.747
 5637WAT      O23253   3.998   6.871   6.721
 5637WAT     H123254   4.023   6.800   6.678
 5637WAT     H223255   3.938   6.907   6.669
 5637WAT    EPW23256   3.993   6.866   6.707
 5638WAT      O23257   4.119   7.367   5.568
 5638WAT     H123258   4.146   7.325   5.497
 5638WAT     H223259   4.192   7.377   5.615
 5638WAT    EPW23260   4.134   7.362   5.564
 5639WAT      O23261   4.241   7.347   5.075
 5639WAT     H123262   4.251   7.421   5.121
 5639WAT     H223263   4.163   7.357   5.038
 5639WAT    EPW23264   4.231   7.360   5.076
 5640WAT      O23265   4.852   7.012   6.087
 5640WAT     H123266   4.921   7.012   6.033
 5640WAT     H223267   4.867   6.943   6.139
 5640WAT    EPW23268   4.865   7.002   6.087
 5641WAT      O23269   3.114   7.187   6.533
 5641WAT     H123270   3.095   7.264   6.570
 5641WAT     H223271   3.176   7.207   6.475
 5641WAT    EPW23272   3.120   7.201   6.530
 5642WAT      O23273   4.402   6.961   5.168
 5642WAT     H123274   4.463   6.899   5.172
 5642WAT     H223275   4.423   7.014   5.233
 5642WAT    EPW23276   4.414   6.959   5.178
 5643WAT      O23277   3.224   7.068   5.490
 5643WAT     H123278   3.198   6.988   5.468
 5643WAT     H223279   3.170   7.089   5.556
 5643WAT    EPW23280   3.212   7.059   5.496
 5644WAT      O23281   4.189   7.234   5.327
 5644WAT     H123282   4.116   7.190   5.312
 5644WAT     H223283   4.207   7.272   5.250
 5644WAT    EPW23284   4.181   7.233   5.314
 5645WAT      O23285   4.160   6.867   5.280
 5645WAT     H123286   4.096   6.852   5.223
 5645WAT     H223287   4.227   6.894   5.231
 5645WAT    EPW23288   4.160   6.869   5.265
 5646WAT      O23289   3.982   7.194   5.745
 5646WAT     H123290   4.017   7.257   5.695
 5646WAT     H223291   3.992   7.224   5.826
 5646WAT    EPW23292   3.988   7.208   5.750
 5647WAT      O23293   3.572   6.758   5.628
 5647WAT     H123294   3.580   6.842   5.608
 5647WAT     H223295   3.525   6.725   5.562
 5647WAT    EPW23296   3.566   6.765   5.615
 5648WAT      O23297   3.682   7.812   6.066
 5648WAT     H123298   3.684   7.744   6.120
 5648WAT     H223299   3.625   7.788   6.005
 5648WAT    EPW23300   3.674   7.799   6.065
 5649WAT      O23301   4.345   7.165   6.331
 5649WAT     H123302   4.338   7.208   6.406
 5649WAT     H223303   4.276   7.111   6.331
 5649WAT    EPW23304   4.334   7.164   6.342
 5650WAT      O23305   4.738   7.190   6.432
 5650WAT     H123306   4.822   7.184   6.454
 5650WAT     H223307   4.697   7.188   6.509
 5650WAT    EPW23308   4.744   7.189   6.447
 5651WAT      O23309   3.493   7.178   5.746
 5651WAT     H123310   3.516   7.124   5.680
 5651WAT     H223311   3.479   7.124   5.813
 5651WAT    EPW23312   3.494   7.162   5.746
 5652WAT      O23313   3.379   7.364   6.098
 5652WAT     H123314   3.457   7.377   6.062
 5652WAT     H223315   3.323   7.381   6.034
 5652WAT    EPW23316   3.382   7.368   6.083
 5653WAT      O23317   4.609   7.664   5.074
 5653WAT     H123318   4.587   7.738   5.033
 5653WAT     H223319   4.623   7.689   5.156
 5653WAT    EPW23320   4.608   7.679   5.080
 5654WAT      O23321   4.891   7.084   5.175
 5654WAT     H123322   4.948   7.029   5.138
 5654WAT     H223323   4.859   7.130   5.108
 5654WAT    EPW23324   4.895   7.083   5.160
 5655WAT      O23325   3.939   7.368   6.852
 5655WAT     H123326   3.892   7.404   6.916
 5655WAT     H223327   3.927   7.422   6.785
 5655WAT    EPW23328   3.930   7.381   6.851
 5656WAT      O23329   5.036   7.460   6.314
 5656WAT     H123330   5.102   7.402   6.319
 5656WAT     H223331   4.983   7.424   6.254
 5656WAT    EPW23332   5.038   7.446   6.306
 5657WAT      O23333   3.355   7.733   5.377
 5657WAT     H123334   3.311   7.659   5.387
 5657WAT     H223335   3.418   7.711   5.320
 5657WAT    EPW23336   3.358   7.719   5.370
 5658WAT      O23337   4.766   6.928   5.375
 5658WAT     H123338   4.840   6.885   5.393
 5658WAT     H223339   4.791   6.992   5.322
 5658WAT    EPW23340   4.780   6.931   5.370
 5659WAT      O23341   4.500   7.138   5.747
 5659WAT     H123342   4.528   7.113   5.826
 5659WAT     H223343   4.416   7.112   5.746
 5659WAT    EPW23344   4.492   7.130   5.758
 5660WAT      O23345   3.938   7.139   5.251
 5660WAT     H123346   3.932   7.108   5.170
 5660WAT     H223347   3.897   7.216   5.247
 5660WAT    EPW23348   3.931   7.146   5.239
 5661WAT      O23349   3.507   7.515   6.684
 5661WAT     H123350   3.470   7.452   6.732
 5661WAT     H223351   3.523   7.476   6.608
 5661WAT    EPW23352   3.504   7.500   6.680
 5662WAT      O23353   3.537   7.375   5.198
 5662WAT     H123354   3.505   7.316   5.253
 5662WAT     H223355   3.498   7.358   5.122
 5662WAT    EPW23356   3.527   7.364   5.195
 5663WAT      O23357   3.457   7.735   5.911
 5663WAT     H123358   3.441   7.786   5.842
 5663WAT     H223359   3.477   7.657   5.875
 5663WAT    EPW23360   3.458   7.731   5.895
 5664WAT      O23361   3.603   7.599   6.253
 5664WAT     H123362   3.613   7.546   6.185
 5664WAT     H223363   3.529   7.642   6.236
 5664WAT    EPW23364   3.594   7.598   6.241
 5665WAT      O23365   4.641   7.333   6.036
 5665WAT     H123366   4.578   7.369   6.084
 5665WAT     H223367   4.651   7.389   5.970
 5665WAT    EPW23368   4.633   7.347   6.033
 5666WAT      O23369   4.150   6.975   6.393
 5666WAT     H123370   4.170   6.895   6.365
 5666WAT     H223371   4.181   6.977   6.475
 5666WAT    EPW23372   4.158   6.963   6.401
 5667WAT      O23373   4.439   7.127   5.388
 5667WAT     H123374   4.500   7.189   5.392
 5667WAT     H223375   4.365   7.171   5.374
 5667WAT    EPW23376   4.437   7.142   5.387
 5668WAT      O23377   3.342   7.737   6.663
 5668WAT     H123378   3.315   7.737   6.580
 5668WAT     H223379   3.391   7.665   6.668
 5668WAT    EPW23380   3.345   7.727   6.652
 5669WAT      O23381   4.021   7.250   6.013
 5669WAT     H123382   4.088   7.305   6.016
 5669WAT     H223383   4.056   7.174   6.039
 5669WAT    EPW23384   4.036   7.247   6.017
 5670WAT      O23385   4.261   7.568   5.241
 5670WAT     H123386   4.251   7.625   5.176
 5670WAT     H223387   4.197   7.588   5.296
 5670WAT    EPW23388   4.250   7.579   5.239
 5671WAT      O23389   4.862   7.795   6.407
 5671WAT     H123390   4.837   7.765   6.329
 5671WAT     H223391   4.948   7.780   6.408
 5671WAT    EPW23392   4.871   7.788   6.396
 5672WAT      O23393   4.745   6.908   6.703
 5672WAT     H123394   4.704   6.865   6.639
 5672WAT     H223395   4.751   6.849   6.767
 5672WAT    EPW23396   4.740   6.893   6.703
 5673WAT      O23397   3.567   7.653   5.202
 5673WAT     H123398   3.551   7.568   5.208
 5673WAT     H223399   3.643   7.663   5.244
 5673WAT    EPW23400   3.576   7.642   5.209
 5674WAT      O23401   4.274   7.750   6.280
 5674WAT     H123402   4.291   7.826   6.319
 5674WAT     H223403   4.319   7.692   6.328
 5674WAT    EPW23404   4.283   7.752   6.293
 5675WAT      O23405   3.161   6.792   5.396
 5675WAT     H123406   3.152   6.743   5.324
 5675WAT     H223407   3.124   6.744   5.459
 5675WAT    EPW23408   3.154   6.778   5.395
 5676WAT      O23409   4.066   7.613   5.443
 5676WAT     H123410   4.075   7.672   5.507
 5676WAT     H223411   4.073   7.536   5.484
 5676WAT    EPW23412   4.069   7.610   5.458
 5677WAT      O23413   3.364   6.984   5.127
 5677WAT     H123414   3.375   7.008   5.044
 5677WAT     H223415   3.427   6.926   5.141
 5677WAT    EPW23416   3.375   6.979   5.117
 5678WAT      O23417   3.928   7.791   5.919
 5678WAT     H123418   3.855   7.807   5.964
 5678WAT     H223419   3.979   7.750   5.976
 5678WAT    EPW23420   3.925   7.787   5.934
 5679WAT      O23421   3.407   7.785   6.182
 5679WAT     H123422   3.471   7.844   6.180
 5679WAT     H223423   3.397   7.762   6.099
 5679WAT    EPW23424   3.415   7.790   6.170
 5680WAT      O23425   3.716   7.336   5.781
 5680WAT     H123426   3.789   7.292   5.759
 5680WAT     H223427   3.653   7.277   5.770
 5680WAT    EPW23428   3.718   7.321   5.776
 5681WAT      O23429   3.221   7.486   5.416
 5681WAT     H123430   3.244   7.443   5.488
 5681WAT     H223431   3.235   7.428   5.353
 5681WAT    EPW23432   3.227   7.471   5.418
 5682WAT      O23433   4.776   7.669   6.166
 5682WAT     H123434   4.761   7.595   6.210
 5682WAT     H223435   4.696   7.697   6.145
 5682WAT    EPW23436   4.762   7.662   6.170
 5683WAT      O23437   3.707   7.634   4.957
 5683WAT     H123438   3.658   7.644   5.029
 5683WAT     H223439   3.654   7.593   4.902
 5683WAT    EPW23440   3.692   7.630   4.960
 5684WAT      O23441   4.925   7.626   5.931
 5684WAT     H123442   4.888   7.642   6.009
 5684WAT     H223443   4.965   7.702   5.912
 5684WAT    EPW23444   4.925   7.640   5.940
 5685WAT      O23445   3.814   7.385   5.205
 5685WAT     H123446   3.824   7.467   5.233
 5685WAT     H223447   3.727   7.376   5.201
 5685WAT    EPW23448   3.803   7.396   5.209
 5686WAT      O23449   4.609   7.155   6.681
 5686WAT     H123450   4.537   7.156   6.730
 5686WAT     H223451   4.643   7.076   6.696
 5686WAT    EPW23452   4.603   7.143   6.690
 5687WAT      O23453   3.173   7.067   5.952
 5687WAT     H123454   3.152   7.084   5.870
 5687WAT     H223455   3.260   7.054   5.949
 5687WAT    EPW23456   3.183   7.068   5.940
 5688WAT      O23457   4.476   7.481   6.771
 5688WAT     H123458   4.502   7.529   6.838
 5688WAT     H223459   4.392   7.503   6.761
 5688WAT    EPW23460   4.467   7.491   6.779
 5689WAT      O23461   4.659   7.557   6.580
 5689WAT     H123462   4.682   7.637   6.606
 5689WAT     H223463   4.606   7.529   6.644
 5689WAT    EPW23464   4.654   7.564   6.593
 5690WAT      O23465   4.742   7.252   5.663
 5690WAT     H123466   4.668   7.216   5.693
 5690WAT     H223467   4.748   7.326   5.707
 5690WAT    EPW23468   4.732   7.258   5.674
 5691WAT      O23469   4.976   7.661   6.755
 5691WAT     H123470   4.972   7.596   6.696
 5691WAT     H223471   5.055   7.695   6.742
 5691WAT    EPW23472   4.987   7.656   6.744
 5692WAT      O23473   4.568   6.992   6.333
 5692WAT     H123474   4.629   7.052   6.350
 5692WAT     H223475   4.494   7.039   6.328
 5692WAT    EPW23476   4.566   7.008   6.335
 5693WAT      O23477   4.079   7.645   6.114
 5693WAT     H123478   4.140   7.687   6.159
 5693WAT     H223479   4.024   7.617   6.176
 5693WAT    EPW23480   4.080   7.647   6.130
 5694WAT      O23481   3.807   7.283   6.473
 5694WAT     H123482   3.812   7.200   6.500
 5694WAT     H223483   3.822   7.277   6.387
 5694WAT    EPW23484   3.810   7.270   6.464
 5695WAT      O23485   4.602   6.781   6.150
 5695WAT     H123486   4.589   6.854   6.196
 5695WAT     H223487   4.687   6.765   6.160
 5695WAT    EPW23488   4.612   6.789   6.158
 5696WAT      O23489   3.880   6.924   6.310
 5696WAT     H123490   3.963   6.951   6.309
 5696WAT     H223491   3.886   6.839   6.293
 5696WAT    EPW23492   3.893   6.916   6.308
 5697WAT      O23493   4.846   7.512   5.062
 5697WAT     H123494   4.897   7.559   5.009
 5697WAT     H223495   4.771   7.556   5.062
 5697WAT    EPW23496   4.843   7.526   5.054
 5698WAT      O23497   3.941   7.768   5.031
 5698WAT     H123498   3.877   7.722   4.993
 5698WAT     H223499   3.914   7.851   5.023
 5698WAT    EPW23500   3.927   7.774   5.024
 5699WAT      O23501   3.648   7.430   6.038
 5699WAT     H123502   3.672   7.415   5.955
 5699WAT     H223503   3.701   7.380   6.085
 5699WAT    EPW23504   3.659   7.420   6.033
 5700WAT      O23505   4.333   7.330   6.557
 5700WAT     H123506   4.273   7.377   6.600
 5700WAT     H223507   4.393   7.313   6.618
 5700WAT    EPW23508   4.333   7.334   6.572
 5701WAT      O23509   4.418   7.396   6.190
 5701WAT     H123510   4.431   7.450   6.257
 5701WAT     H223511   4.397   7.321   6.228
 5701WAT    EPW23512   4.417   7.393   6.205
 5702WAT      O23513   4.632   7.335   5.421
 5702WAT     H123514   4.667   7.309   5.497
 5702WAT     H223515   4.697   7.381   5.384
 5702WAT    EPW23516   4.647   7.338   5.427
 5703WAT      O23517   3.893   6.841   5.972
 5703WAT     H123518   3.812   6.830   6.003
 5703WAT     H223519   3.881   6.861   5.888
 5703WAT    EPW23520   3.879   6.842   5.964
 5704WAT      O23521   4.595   6.907   5.598
 5704WAT     H123522   4.573   6.985   5.633
 5704WAT     H223523   4.640   6.929   5.527
 5704WAT    EPW23524   4.598   6.922   5.593
 5705WAT      O23525   4.669   7.728   5.334
 5705WAT     H123526   4.736   7.676   5.352
 5705WAT     H223527   4.602   7.690   5.373
 5705WAT    EPW23528   4.669   7.715   5.342
 5706WAT      O23529   3.124   6.954   6.689
 5706WAT     H123530   3.125   7.027   6.640
 5706WAT     H223531   3.040   6.930   6.687
 5706WAT    EPW23532   3.111   6.962   6.681
 5707WAT      O23533   3.432   7.156   5.337
 5707WAT     H123534   3.417   7.104   5.269
 5707WAT     H223535   3.362   7.144   5.387
 5707WAT    EPW23536   3.420   7.146   5.334
 5708WAT      O23537   4.929   7.459   6.571
 5708WAT     H123538   4.843   7.475   6.572
 5708WAT     H223539   4.951   7.469   6.487
 5708WAT    EPW23540   4.920   7.463   6.558
 5709WAT      O23541   4.422   7.559   6.421
 5709WAT     H123542   4.385   7.494   6.466
 5709WAT     H223543   4.495   7.576   6.465
 5709WAT    EPW23544   4.428   7.552   6.434
 5710WAT      O23545   4.200   7.736   6.892
 5710WAT     H123546   4.250   7.806   6.880
 5710WAT     H223547   4.119   7.768   6.893
 5710WAT    EPW23548   4.196   7.751   6.890
 5711WAT      O23549   3.552   7.392   6.441
 5711WAT     H123550   3.568   7.454   6.382
 5711WAT     H223551   3.630   7.355   6.453
 5711WAT    EPW23552   3.566   7.396   6.434
 5712WAT      O23553   3.323   7.265   6.347
 5712WAT     H123554   3.336   7.283   6.263
 5712WAT     H223555   3.393   7.300   6.386
 5712WAT    EPW23556   3.335   7.273   6.340
 5713WAT      O23557   4.843   7.507   5.343
 5713WAT     H123558   4.857   7.513   5.257
 5713WAT     H223559   4.923   7.501   5.377
 5713WAT    EPW23560   4.857   7.507   5.336
 5714WAT      O23561   3.552   6.917   6.555
 5714WAT     H123562   3.569   6.837   6.525
 5714WAT     H223563   3.517   6.957   6.487
 5714WAT    EPW23564   3.549   6.911   6.541
 5715WAT      O23565   4.715   7.452   6.326
 5715WAT     H123566   4.722   7.367   6.341
 5715WAT     H223567   4.692   7.484   6.404
 5715WAT    EPW23568   4.712   7.444   6.340
 5716WAT      O23569   3.238   7.717   6.398
 5716WAT     H123570   3.285   7.746   6.331
 5716WAT     H223571   3.208   7.640   6.371
 5716WAT    EPW23572   3.241   7.710   6.384
 5717WAT      O23573   3.388   7.327   4.967
 5717WAT     H123574   3.320   7.334   5.020
 5717WAT     H223575   3.379   7.248   4.932
 5717WAT    EPW23576   3.377   7.316   4.969
 5718WAT      O23577   4.247   6.977   6.655
 5718WAT     H123578   4.279   7.040   6.706
 5718WAT     H223579   4.170   6.957   6.692
 5718WAT    EPW23580   4.240   6.983   6.668
 5719WAT      O23581   4.237   7.050   5.759
 5719WAT     H123582   4.161   7.093   5.760
 5719WAT     H223583   4.236   7.008   5.683
 5719WAT    EPW23584   4.226   7.050   5.748
 5720WAT      O23585   4.586   7.066   5.997
 5720WAT     H123586   4.661   7.028   6.019
 5720WAT     H223587   4.599   7.150   6.020
 5720WAT    EPW23588   4.599   7.073   6.004
 5721WAT      O23589   3.747   7.674   6.492
 5721WAT     H123590   3.687   7.715   6.541
 5721WAT     H223591   3.705   7.659   6.417
 5721WAT    EPW23592   3.732   7.678   6.488
 5722WAT      O23593   4.710   7.485   5.815
 5722WAT     H123594   4.775   7.539   5.837
 5722WAT     H223595   4.651   7.538   5.779
 5722WAT    EPW23596   4.711   7.501   5.813
 5723WAT      O23597   3.657   7.052   6.162
 5723WAT     H123598   3.589   7.041   6.216
 5723WAT     H223599   3.714   6.992   6.188
 5723WAT    EPW23600   3.655   7.041   6.174
 5724WAT      O23601   4.875   6.795   6.265
 5724WAT     H123602   4.850   6.825   6.344
 5724WAT     H223603   4.961   6.785   6.274
 5724WAT    EPW23604   4.884   6.798   6.278
 5725WAT      O23605   4.103   6.996   6.078
 5725WAT     H123606   4.042   6.943   6.043
 5725WAT     H223607   4.178   6.955   6.060
 5725WAT    EPW23608   4.105   6.982   6.070
 5726WAT      O23609   3.933   7.498   6.603
 5726WAT     H123610   3.903   7.428   6.561
 5726WAT     H223611   3.881   7.562   6.576
 5726WAT    EPW23612   3.921   7.497   6.593
 5727WAT      O23613   3.968   6.789   5.094
 5727WAT     H123614   3.978   6.812   5.010
 5727WAT     H223615   3.885   6.809   5.111
 5727WAT    EPW23616   3.957   6.795   5.084
 5728WAT      O23617   3.438   7.013   6.327
 5728WAT     H123618   3.379   6.950   6.317
 5728WAT     H223619   3.389   7.086   6.329
 5728WAT    EPW23620   3.422   7.015   6.326
 5729WAT      O23621   4.351   6.906   5.974
 5729WAT     H123622   4.420   6.953   5.998
 5729WAT     H223623   4.318   6.951   5.907
 5729WAT    EPW23624   4.356   6.919   5.967
 5730WAT      O23625   4.334   7.385   5.748
 5730WAT     H123626   4.392   7.321   5.760
 5730WAT     H223627   4.301   7.398   5.827
 5730WAT    EPW23628   4.337   7.377   5.761
 5731WAT      O23629   3.303   7.371   5.667
 5731WAT     H123630   3.253   7.381   5.738
 5731WAT     H223631   3.350   7.299   5.685
 5731WAT    EPW23632   3.303   7.361   5.680
 5732WAT      O23633   4.469   7.565   5.430
 5732WAT     H123634   4.509   7.488   5.424
 5732WAT     H223635   4.408   7.561   5.368
 5732WAT    EPW23636   4.466   7.553   5.420
 5733WAT      O23637   3.845   7.653   5.273
 5733WAT     H123638   3.884   7.693   5.206
 5733WAT     H223639   3.908   7.648   5.333
 5733WAT    EPW23640   3.860   7.658   5.272
 5734WAT      O23641   4.751   7.805   6.664
 5734WAT     H123642   4.822   7.775   6.705
 5734WAT     H223643   4.779   7.823   6.584
 5734WAT    EPW23644   4.765   7.803   6.659
 5735WAT      O23645   4.820   7.273   6.816
 5735WAT     H123646   4.806   7.354   6.846
 5735WAT     H223647   4.744   7.254   6.776
 5735WAT    EPW23648   4.806   7.282   6.814
 5736WAT      O23649   4.903   7.292   6.120
 5736WAT     H123650   4.821   7.315   6.100
 5736WAT     H223651   4.900   7.205   6.122
 5736WAT    EPW23652   4.890   7.283   6.117
 5737WAT      O23653   3.810   7.013   6.565
 5737WAT     H123654   3.838   6.985   6.487
 5737WAT     H223655   3.728   6.984   6.568
 5737WAT    EPW23656   3.802   7.005   6.554
 5738WAT      O23657   4.552   7.904   6.862
 5738WAT     H123658   4.610   7.899   6.797
 5738WAT     H223659   4.558   7.987   6.888
 5738WAT    EPW23660   4.562   7.915   6.857
 5739WAT      O23661   4.240   6.816   3.658
 5739WAT     H123662   4.243   6.863   3.585
 5739WAT     H223663   4.324   6.798   3.674
 5739WAT    EPW23664   4.253   6.820   3.649
 5740WAT      O23665   4.210   7.461   4.111
 5740WAT     H123666   4.170   7.533   4.140
 5740WAT     H223667   4.270   7.446   4.171
 5740WAT    EPW23668   4.213   7.470   4.124
 5741WAT      O23669   3.170   7.325   3.252
 5741WAT     H123670   3.104   7.372   3.218
 5741WAT     H223671   3.139   7.243   3.253
 5741WAT    EPW23672   3.156   7.320   3.247
 5742WAT      O23673   3.457   7.917   3.063
 5742WAT     H123674   3.421   7.865   3.003
 5742WAT     H223675   3.472   7.864   3.130
 5742WAT    EPW23676   3.454   7.901   3.064
 5743WAT      O23677   4.468   7.622   3.794
 5743WAT     H123678   4.464   7.619   3.707
 5743WAT     H223679   4.412   7.559   3.819
 5743WAT    EPW23680   4.459   7.612   3.785
 5744WAT      O23681   3.909   6.959   3.528
 5744WAT     H123682   3.902   7.027   3.474
 5744WAT     H223683   3.987   6.925   3.508
 5744WAT    EPW23684   3.920   6.964   3.517
 5745WAT      O23685   3.445   7.729   3.746
 5745WAT     H123686   3.402   7.750   3.673
 5745WAT     H223687   3.489   7.657   3.724
 5745WAT    EPW23688   3.445   7.722   3.732
 5746WAT      O23689   3.811   7.286   4.308
 5746WAT     H123690   3.877   7.284   4.252
 5746WAT     H223691   3.773   7.208   4.297
 5746WAT    EPW23692   3.815   7.274   4.298
 5747WAT      O23693   3.550   7.483   3.685
 5747WAT     H123694   3.605   7.443   3.740
 5747WAT     H223695   3.475   7.440   3.696
 5747WAT    EPW23696   3.547   7.470   3.695
 5748WAT      O23697   4.195   7.508   4.795
 5748WAT     H123698   4.111   7.505   4.770
 5748WAT     H223699   4.197   7.573   4.853
 5748WAT    EPW23700   4.183   7.517   4.800
 5749WAT      O23701   3.631   6.994   3.610
 5749WAT     H123702   3.594   7.052   3.556
 5749WAT     H223703   3.717   7.008   3.598
 5749WAT    EPW23704   3.639   7.005   3.600
 5750WAT      O23705   4.598   6.764   4.614
 5750WAT     H123706   4.577   6.828   4.558
 5750WAT     H223707   4.521   6.743   4.650
 5750WAT    EPW23708   4.584   6.771   4.611
 5751WAT      O23709   3.947   6.949   3.812
 5751WAT     H123710   3.944   7.035   3.828
 5751WAT     H223711   3.935   6.944   3.726
 5751WAT    EPW23712   3.945   6.961   3.802
 5752WAT      O23713   4.377   7.138   3.048
 5752WAT     H123714   4.333   7.206   3.082
 5752WAT     H223715   4.387   7.084   3.116
 5752WAT    EPW23716   4.372   7.140   3.063
 5753WAT      O23717   3.187   7.401   4.000
 5753WAT     H123718   3.151   7.480   4.002
 5753WAT     H223719   3.135   7.353   4.051
 5753WAT    EPW23720   3.174   7.405   4.008
 5754WAT      O23721   3.456   6.947   4.024
 5754WAT     H123722   3.439   6.870   3.987
 5754WAT     H223723   3.517   6.929   4.083
 5754WAT    EPW23724   3.463   6.933   4.027
 5755WAT      O23725   3.913   7.097   4.972
 5755WAT     H123726   3.874   7.076   4.897
 5755WAT     H223727   3.935   7.180   4.962
 5755WAT    EPW23728   3.910   7.106   4.960
 5756WAT      O23729   4.934   7.098   3.763
 5756WAT     H123730   4.883   7.168   3.763
 5756WAT     H223731   4.878   7.032   3.755
 5756WAT    EPW23732   4.918   7.098   3.762
 5757WAT      O23733   3.366   7.064   4.862
 5757WAT     H123734   3.290   7.034   4.832
 5757WAT     H223735   3.425   7.024   4.811
 5757WAT    EPW23736   3.364   7.054   4.850
 5758WAT      O23737   3.997   6.834   4.820
 5758WAT     H123738   4.017   6.763   4.773
 5758WAT     H223739   3.931   6.870   4.777
 5758WAT    EPW23740   3.990   6.829   4.807
 5759WAT      O23741   4.100   7.377   3.667
 5759WAT     H123742   4.129   7.331   3.599
 5759WAT     H223743   4.170   7.385   3.719
 5759WAT    EPW23744   4.114   7.371   3.665
 5760WAT      O23745   4.208   7.328   3.172
 5760WAT     H123746   4.228   7.406   3.206
 5760WAT     H223747   4.132   7.343   3.132
 5760WAT    EPW23748   4.200   7.342   3.171
 5761WAT      O23749   4.863   7.043   4.196
 5761WAT     H123750   4.928   7.050   4.138
 5761WAT     H223751   4.885   6.973   4.243
 5761WAT    EPW23752   4.876   7.034   4.194
 5762WAT      O23753   3.114   7.183   4.607
 5762WAT     H123754   3.104   7.258   4.651
 5762WAT     H223755   3.179   7.200   4.552
 5762WAT    EPW23756   3.122   7.196   4.606
 5763WAT      O23757   4.399   6.971   3.268
 5763WAT     H123758   4.455   6.904   3.275
 5763WAT     H223759   4.421   7.022   3.336
 5763WAT    EPW23760   4.410   6.968   3.279
 5764WAT      O23761   3.245   7.064   3.524
 5764WAT     H123762   3.221   6.981   3.509
 5764WAT     H223763   3.199   7.087   3.594
 5764WAT    EPW23764   3.235   7.055   3.532
 5765WAT      O23765   4.169   7.235   3.433
 5765WAT     H123766   4.097   7.188   3.418
 5765WAT     H223767   4.188   7.269   3.355
 5765WAT    EPW23768   4.161   7.233   3.419
 5766WAT      O23769   4.160   6.902   3.396
 5766WAT     H123770   4.105   6.885   3.331
 5766WAT     H223771   4.233   6.927   3.355
 5766WAT    EPW23772   4.163   6.903   3.380
 5767WAT      O23773   3.935   7.228   3.843
 5767WAT     H123774   3.983   7.277   3.789
 5767WAT     H223775   3.961   7.252   3.922
 5767WAT    EPW23776   3.946   7.239   3.847
 5768WAT      O23777   3.605   6.730   3.694
 5768WAT     H123778   3.611   6.814   3.671
 5768WAT     H223779   3.636   6.688   3.624
 5768WAT    EPW23780   3.610   6.736   3.680
 5769WAT      O23781   3.677   7.812   4.180
 5769WAT     H123782   3.689   7.746   4.235
 5769WAT     H223783   3.632   7.777   4.115
 5769WAT    EPW23784   3.672   7.797   4.179
 5770WAT      O23785   4.337   7.162   4.436
 5770WAT     H123786   4.336   7.201   4.514
 5770WAT     H223787   4.270   7.107   4.439
 5770WAT    EPW23788   4.327   7.160   4.448
 5771WAT      O23789   4.500   6.744   3.733
 5771WAT     H123790   4.509   6.726   3.818
 5771WAT     H223791   4.535   6.674   3.694
 5771WAT    EPW23792   4.507   6.731   3.740
 5772WAT      O23793   4.725   7.183   4.545
 5772WAT     H123794   4.810   7.179   4.561
 5772WAT     H223795   4.689   7.179   4.625
 5772WAT    EPW23796   4.732   7.182   4.559
 5773WAT      O23797   3.500   7.133   3.821
 5773WAT     H123798   3.537   7.085   3.759
 5773WAT     H223799   3.488   7.077   3.887
 5773WAT    EPW23800   3.504   7.118   3.822
 5774WAT      O23801   3.381   7.346   4.200
 5774WAT     H123802   3.460   7.365   4.169
 5774WAT     H223803   3.327   7.365   4.133
 5774WAT    EPW23804   3.385   7.352   4.185
 5775WAT      O23805   4.595   7.653   3.170
 5775WAT     H123806   4.567   7.726   3.131
 5775WAT     H223807   4.610   7.678   3.252
 5775WAT    EPW23808   4.593   7.668   3.176
 5776WAT      O23809   4.907   7.097   3.240
 5776WAT     H123810   4.959   7.037   3.204
 5776WAT     H223811   4.874   7.139   3.171
 5776WAT    EPW23812   4.910   7.094   3.224
 5777WAT      O23813   3.976   7.366   4.980
 5777WAT     H123814   3.917   7.384   5.042
 5777WAT     H223815   3.947   7.411   4.911
 5777WAT    EPW23816   3.963   7.375   4.979
 5778WAT      O23817   5.039   7.465   4.434
 5778WAT     H123818   5.102   7.404   4.438
 5778WAT     H223819   4.986   7.436   4.372
 5778WAT    EPW23820   5.040   7.452   4.426
 5779WAT      O23821   3.340   7.726   3.483
 5779WAT     H123822   3.304   7.647   3.485
 5779WAT     H223823   3.406   7.717   3.427
 5779WAT    EPW23824   3.344   7.713   3.475
 5780WAT      O23825   4.768   6.932   3.426
 5780WAT     H123826   4.843   6.892   3.443
 5780WAT     H223827   4.792   7.000   3.376
 5780WAT    EPW23828   4.782   6.936   3.421
 5781WAT      O23829   4.480   7.180   3.884
 5781WAT     H123830   4.517   7.150   3.956
 5781WAT     H223831   4.420   7.120   3.865
 5781WAT    EPW23832   4.477   7.167   3.892
 5782WAT      O23833   3.903   7.156   3.338
 5782WAT     H123834   3.893   7.133   3.255
 5782WAT     H223835   3.877   7.240   3.339
 5782WAT    EPW23836   3.898   7.165   3.326
 5783WAT      O23837   3.505   7.515   4.796
 5783WAT     H123838   3.466   7.457   4.848
 5783WAT     H223839   3.520   7.471   4.723
 5783WAT    EPW23840   3.502   7.500   4.793
 5784WAT      O23841   3.536   7.410   3.306
 5784WAT     H123842   3.518   7.350   3.367
 5784WAT     H223843   3.494   7.380   3.236
 5784WAT    EPW23844   3.527   7.396   3.305
 5785WAT      O23845   3.485   7.679   4.018
 5785WAT     H123846   3.468   7.705   3.937
 5785WAT     H223847   3.516   7.598   4.008
 5785WAT    EPW23848   3.487   7.671   4.004
 5786WAT      O23849   3.601   7.590   4.366
 5786WAT     H123850   3.613   7.540   4.296
 5786WAT     H223851   3.529   7.636   4.346
 5786WAT    EPW23852   3.592   7.589   4.353
 5787WAT      O23853   4.634   7.359   4.154
 5787WAT     H123854   4.564   7.387   4.198
 5787WAT     H223855   4.635   7.409   4.083
 5787WAT    EPW23856   4.624   7.370   4.150
 5788WAT      O23857   4.151   6.956   4.490
 5788WAT     H123858   4.181   6.877   4.467
 5788WAT     H223859   4.176   6.964   4.573
 5788WAT    EPW23860   4.159   6.946   4.499
 5789WAT      O23861   4.427   7.130   3.488
 5789WAT     H123862   4.485   7.195   3.495
 5789WAT     H223863   4.351   7.171   3.484
 5789WAT    EPW23864   4.425   7.146   3.488
 5790WAT      O23865   3.344   7.738   4.762
 5790WAT     H123866   3.318   7.736   4.679
 5790WAT     H223867   3.393   7.667   4.771
 5790WAT    EPW23868   3.347   7.727   4.751
 5791WAT      O23869   4.003   7.279   4.108
 5791WAT     H123870   4.069   7.337   4.111
 5791WAT     H223871   4.043   7.202   4.116
 5791WAT    EPW23872   4.019   7.276   4.110
 5792WAT      O23873   4.257   7.560   3.317
 5792WAT     H123874   4.256   7.622   3.256
 5792WAT     H223875   4.195   7.585   3.372
 5792WAT    EPW23876   4.248   7.573   3.316
 5793WAT      O23877   3.700   6.844   3.292
 5793WAT     H123878   3.710   6.862   3.377
 5793WAT     H223879   3.653   6.911   3.262
 5793WAT    EPW23880   3.694   6.856   3.300
 5794WAT      O23881   4.866   7.787   4.515
 5794WAT     H123882   4.841   7.754   4.439
 5794WAT     H223883   4.953   7.778   4.514
 5794WAT    EPW23884   4.875   7.781   4.504
 5795WAT      O23885   4.745   6.890   4.812
 5795WAT     H123886   4.701   6.850   4.749
 5795WAT     H223887   4.748   6.830   4.876
 5795WAT    EPW23888   4.739   6.875   4.812
 5796WAT      O23889   3.568   7.686   3.299
 5796WAT     H123890   3.552   7.601   3.308
 5796WAT     H223891   3.641   7.699   3.345
 5796WAT    EPW23892   3.576   7.676   3.307
 5797WAT      O23893   4.277   7.760   4.404
 5797WAT     H123894   4.309   7.835   4.436
 5797WAT     H223895   4.319   7.699   4.449
 5797WAT    EPW23896   4.288   7.762   4.415
 5798WAT      O23897   3.155   6.795   3.465
 5798WAT     H123898   3.140   6.751   3.391
 5798WAT     H223899   3.115   6.747   3.525
 5798WAT    EPW23900   3.147   6.782   3.463
 5799WAT      O23901   4.077   7.621   3.528
 5799WAT     H123902   4.107   7.677   3.588
 5799WAT     H223903   4.074   7.545   3.571
 5799WAT    EPW23904   4.081   7.618   3.543
 5800WAT      O23905   3.566   7.062   3.191
 5800WAT     H123906   3.505   7.060   3.129
 5800WAT     H223907   3.635   7.097   3.150
 5800WAT    EPW23908   3.567   7.067   3.176
 5801WAT      O23909   3.932   7.825   4.050
 5801WAT     H123910   3.855   7.833   4.091
 5801WAT     H223911   3.980   7.779   4.107
 5801WAT    EPW23912   3.928   7.820   4.065
 5802WAT      O23913   3.406   7.769   4.275
 5802WAT     H123914   3.469   7.829   4.268
 5802WAT     H223915   3.400   7.736   4.194
 5802WAT    EPW23916   3.414   7.773   4.262
 5803WAT      O23917   3.680   7.334   3.883
 5803WAT     H123918   3.759   7.302   3.864
 5803WAT     H223919   3.627   7.267   3.867
 5803WAT    EPW23920   3.684   7.320   3.878
 5804WAT      O23921   3.217   7.465   3.502
 5804WAT     H123922   3.243   7.420   3.572
 5804WAT     H223923   3.224   7.407   3.437
 5804WAT    EPW23924   3.222   7.450   3.503
 5805WAT      O23925   4.778   7.658   4.278
 5805WAT     H123926   4.760   7.586   4.323
 5805WAT     H223927   4.699   7.687   4.254
 5805WAT    EPW23928   4.764   7.651   4.281
 5806WAT      O23929   3.726   7.645   3.065
 5806WAT     H123930   3.675   7.660   3.134
 5806WAT     H223931   3.672   7.607   3.008
 5806WAT    EPW23932   3.710   7.642   3.067
 5807WAT      O23933   4.922   7.617   4.039
 5807WAT     H123934   4.887   7.627   4.118
 5807WAT     H223935   4.969   7.690   4.029
 5807WAT    EPW23936   4.923   7.630   4.049
 5808WAT      O23937   3.812   7.418   3.305
 5808WAT     H123938   3.828   7.499   3.332
 5808WAT     H223939   3.725   7.413   3.305
 5808WAT    EPW23940   3.802   7.429   3.309
 5809WAT      O23941   4.615   7.140   4.803
 5809WAT     H123942   4.542   7.137   4.851
 5809WAT     H223943   4.650   7.061   4.813
 5809WAT    EPW23944   4.609   7.128   4.811
 5810WAT      O23945   3.182   7.044   4.014
 5810WAT     H123946   3.165   7.064   3.931
 5810WAT     H223947   3.266   7.022   4.013
 5810WAT    EPW23948   3.192   7.044   4.002
 5811WAT      O23949   4.490   7.467   4.913
 5811WAT     H123950   4.518   7.523   4.973
 5811WAT     H223951   4.404   7.463   4.927
 5811WAT    EPW23952   4.481   7.474   4.924
 5812WAT      O23953   4.650   7.550   4.702
 5812WAT     H123954   4.675   7.630   4.726
 5812WAT     H223955   4.602   7.522   4.769
 5812WAT    EPW23956   4.646   7.557   4.715
 5813WAT      O23957   4.716   7.280   3.768
 5813WAT     H123958   4.646   7.237   3.798
 5813WAT     H223959   4.715   7.354   3.815
 5813WAT    EPW23960   4.705   7.285   3.780
 5814WAT      O23961   4.977   7.653   4.862
 5814WAT     H123962   4.970   7.588   4.804
 5814WAT     H223963   5.055   7.687   4.845
 5814WAT    EPW23964   4.987   7.648   4.851
 5815WAT      O23965   4.556   6.986   4.445
 5815WAT     H123966   4.616   7.046   4.463
 5815WAT     H223967   4.483   7.032   4.433
 5815WAT    EPW23968   4.554   7.001   4.446
 5816WAT      O23969   4.072   7.667   4.243
 5816WAT     H123970   4.137   7.706   4.286
 5816WAT     H223971   4.021   7.635   4.307
 5816WAT    EPW23972   4.074   7.668   4.259
 5817WAT      O23973   3.798   7.263   4.590
 5817WAT     H123974   3.803   7.179   4.613
 5817WAT     H223975   3.818   7.263   4.505
 5817WAT    EPW23976   3.801   7.251   4.581
 5818WAT      O23977   4.626   6.779   4.265
 5818WAT     H123978   4.596   6.852   4.303
 5818WAT     H223979   4.711   6.781   4.282
 5818WAT    EPW23980   4.634   6.790   4.273
 5819WAT      O23981   3.886   6.884   4.440
 5819WAT     H123982   3.968   6.913   4.447
 5819WAT     H223983   3.895   6.806   4.401
 5819WAT    EPW23984   3.899   6.877   4.435
 5820WAT      O23985   4.841   7.517   3.141
 5820WAT     H123986   4.887   7.569   3.089
 5820WAT     H223987   4.763   7.556   3.146
 5820WAT    EPW23988   4.836   7.530   3.134
 5821WAT      O23989   3.959   7.790   3.126
 5821WAT     H123990   3.896   7.741   3.091
 5821WAT     H223991   3.930   7.872   3.115
 5821WAT    EPW23992   3.945   7.795   3.119
 5822WAT      O23993   3.642   7.427   4.140
 5822WAT     H123994   3.661   7.402   4.058
 5822WAT     H223995   3.698   7.381   4.189
 5822WAT    EPW23996   3.653   7.416   4.135
 5823WAT      O23997   4.349   7.316   4.670
 5823WAT     H123998   4.292   7.364   4.715
 5823WAT     H223999   4.413   7.301   4.727
 5823WAT    EPW24000   4.350   7.321   4.685
 5824WAT      O24001   4.401   7.402   4.301
 5824WAT     H124002   4.417   7.453   4.370
 5824WAT     H224003   4.383   7.324   4.336
 5824WAT    EPW24004   4.401   7.398   4.316
 5825WAT      O24005   4.616   7.342   3.518
 5825WAT     H124006   4.647   7.321   3.597
 5825WAT     H224007   4.684   7.383   3.480
 5825WAT    EPW24008   4.631   7.345   3.524
 5826WAT      O24009   3.906   6.839   4.073
 5826WAT     H124010   3.822   6.825   4.092
 5826WAT     H224011   3.905   6.863   3.989
 5826WAT    EPW24012   3.894   6.840   4.063
 5827WAT      O24013   4.727   6.913   3.703
 5827WAT     H124014   4.648   6.881   3.719
 5827WAT     H224015   4.723   6.936   3.618
 5827WAT    EPW24016   4.715   6.912   3.692
 5828WAT      O24017   4.655   7.726   3.428
 5828WAT     H124018   4.721   7.671   3.443
 5828WAT     H224019   4.587   7.688   3.467
 5828WAT    EPW24020   4.655   7.712   3.436
 5829WAT      O24021   3.136   6.945   4.742
 5829WAT     H124022   3.127   7.020   4.698
 5829WAT     H224023   3.057   6.932   4.776
 5829WAT    EPW24024   3.123   6.954   4.741
 5830WAT      O24025   3.492   7.164   3.442
 5830WAT     H124026   3.504   7.131   3.362
 5830WAT     H224027   3.412   7.138   3.463
 5830WAT    EPW24028   3.482   7.155   3.433
 5831WAT      O24029   4.920   7.446   4.686
 5831WAT     H124030   4.835   7.465   4.687
 5831WAT     H224031   4.945   7.462   4.604
 5831WAT    EPW24032   4.911   7.451   4.674
 5832WAT      O24033   4.416   7.558   4.537
 5832WAT     H124034   4.380   7.492   4.581
 5832WAT     H224035   4.489   7.575   4.582
 5832WAT    EPW24036   4.422   7.551   4.550
 5833WAT      O24037   4.215   7.704   4.999
 5833WAT     H124038   4.261   7.775   4.979
 5833WAT     H224039   4.133   7.734   5.004
 5833WAT    EPW24040   4.209   7.719   4.997
 5834WAT      O24041   3.547   7.382   4.554
 5834WAT     H124042   3.565   7.445   4.496
 5834WAT     H224043   3.625   7.344   4.568
 5834WAT    EPW24044   3.561   7.385   4.548
 5835WAT      O24045   3.344   7.227   4.442
 5835WAT     H124046   3.354   7.252   4.359
 5835WAT     H224047   3.407   7.270   4.484
 5835WAT    EPW24048   3.355   7.237   4.436
 5836WAT      O24049   4.829   7.505   3.426
 5836WAT     H124050   4.844   7.510   3.340
 5836WAT     H224051   4.909   7.501   3.461
 5836WAT    EPW24052   4.843   7.505   3.418
 5837WAT      O24053   3.517   6.901   4.681
 5837WAT     H124054   3.461   6.836   4.696
 5837WAT     H224055   3.491   6.934   4.605
 5837WAT    EPW24056   3.505   6.896   4.672
 5838WAT      O24057   4.706   7.451   4.448
 5838WAT     H124058   4.711   7.365   4.458
 5838WAT     H224059   4.681   7.480   4.526
 5838WAT    EPW24060   4.703   7.443   4.461
 5839WAT      O24061   3.246   7.706   4.497
 5839WAT     H124062   3.289   7.737   4.428
 5839WAT     H224063   3.220   7.627   4.471
 5839WAT    EPW24064   3.249   7.699   4.483
 5840WAT      O24065   3.389   7.332   3.081
 5840WAT     H124066   3.316   7.335   3.129
 5840WAT     H224067   3.386   7.254   3.044
 5840WAT    EPW24068   3.378   7.321   3.083
 5841WAT      O24069   4.231   6.975   4.758
 5841WAT     H124070   4.267   7.032   4.814
 5841WAT     H224071   4.158   6.950   4.799
 5841WAT    EPW24072   4.226   6.980   4.772
 5842WAT      O24073   4.274   6.992   3.872
 5842WAT     H124074   4.199   7.011   3.912
 5842WAT     H224075   4.249   6.943   3.804
 5842WAT    EPW24076   4.260   6.988   3.868
 5843WAT      O24077   4.594   7.089   4.123
 5843WAT     H124078   4.674   7.057   4.137
 5843WAT     H224079   4.601   7.174   4.143
 5843WAT    EPW24080   4.607   7.097   4.128
 5844WAT      O24081   3.746   7.658   4.605
 5844WAT     H124082   3.687   7.700   4.654
 5844WAT     H224083   3.705   7.645   4.529
 5844WAT    EPW24084   3.731   7.662   4.601
 5845WAT      O24085   4.684   7.507   3.926
 5845WAT     H124086   4.752   7.558   3.942
 5845WAT     H224087   4.628   7.560   3.885
 5845WAT    EPW24088   4.686   7.522   3.922
 5846WAT      O24089   3.693   7.041   4.303
 5846WAT     H124090   3.617   7.013   4.335
 5846WAT     H224091   3.751   6.984   4.335
 5846WAT    EPW24092   3.691   7.028   4.312
 5847WAT      O24093   4.886   6.824   4.377
 5847WAT     H124094   4.866   6.860   4.453
 5847WAT     H224095   4.971   6.804   4.385
 5847WAT    EPW24096   4.896   6.826   4.389
 5848WAT      O24097   4.111   7.028   4.110
 5848WAT     H124098   4.053   6.963   4.113
 5848WAT     H224099   4.185   6.991   4.138
 5848WAT    EPW24100   4.113   7.013   4.115
 5849WAT      O24101   3.921   7.477   4.727
 5849WAT     H124102   3.890   7.407   4.685
 5849WAT     H224103   3.873   7.542   4.696
 5849WAT    EPW24104   3.909   7.476   4.717
 5850WAT      O24105   3.966   6.838   3.209
 5850WAT     H124106   3.975   6.851   3.123
 5850WAT     H224107   3.881   6.855   3.223
 5850WAT    EPW24108   3.955   6.842   3.198
 5851WAT      O24109   3.449   6.967   4.425
 5851WAT     H124110   3.390   6.910   4.398
 5851WAT     H224111   3.407   7.044   4.422
 5851WAT    EPW24112   3.434   6.970   4.421
 5852WAT      O24113   4.368   6.918   4.128
 5852WAT     H124114   4.437   6.970   4.141
 5852WAT     H224115   4.356   6.922   4.042
 5852WAT    EPW24116   4.377   6.926   4.117
 5853WAT      O24117   4.306   7.402   3.855
 5853WAT     H124118   4.362   7.336   3.868
 5853WAT     H224119   4.277   7.420   3.935
 5853WAT    EPW24120   4.310   7.395   3.869
 5854WAT      O24121   3.315   7.341   3.746
 5854WAT     H124122   3.272   7.359   3.820
 5854WAT     H224123   3.357   7.267   3.765
 5854WAT    EPW24124   3.315   7.333   3.760
 5855WAT      O24125   4.450   7.565   3.521
 5855WAT     H124126   4.494   7.490   3.518
 5855WAT     H224127   4.394   7.559   3.454
 5855WAT    EPW24128   4.448   7.553   3.510
 5856WAT      O24129   3.852   7.685   3.369
 5856WAT     H124130   3.894   7.722   3.302
 5856WAT     H224131   3.915   7.674   3.429
 5856WAT    EPW24132   3.868   7.689   3.368
 5857WAT      O24133   4.750   7.799   4.770
 5857WAT     H124134   4.821   7.770   4.813
 5857WAT     H224135   4.780   7.813   4.689
 5857WAT    EPW24136   4.765   7.797   4.765
 5858WAT      O24137   4.815   7.245   4.966
 5858WAT     H124138   4.809   7.331   4.979
 5858WAT     H224139   4.748   7.227   4.914
 5858WAT    EPW24140   4.804   7.255   4.960
 5859WAT      O24141   4.897   7.323   4.238
 5859WAT     H124142   4.816   7.345   4.216
 5859WAT     H224143   4.897   7.236   4.233
 5859WAT    EPW24144   4.885   7.314   4.234
 5860WAT      O24145   3.795   6.985   4.684
 5860WAT     H124146   3.818   6.950   4.607
 5860WAT     H224147   3.713   6.958   4.696
 5860WAT    EPW24148   3.786   6.975   4.675
 5861WAT      O24149   4.537   7.903   4.947
 5861WAT     H124150   4.600   7.899   4.886
 5861WAT     H224151   4.544   7.984   4.977
 5861WAT    EPW24152   4.548   7.914   4.942
 5862WAT      O24153   4.266   6.874   1.760
 5862WAT     H124154   4.270   6.918   1.685
 5862WAT     H224155   4.349   6.852   1.776
 5862WAT    EPW24156   4.279   6.877   1.751
 5863WAT      O24157   4.207   7.474   2.228
 5863WAT     H124158   4.160   7.536   2.268
 5863WAT     H224159   4.268   7.454   2.287
 5863WAT    EPW24160   4.209   7.480   2.243
 5864WAT      O24161   3.149   7.319   1.330
 5864WAT     H124162   3.086   7.372   1.303
 5864WAT     H224163   3.114   7.240   1.324
 5864WAT    EPW24164   3.135   7.315   1.325
 5865WAT      O24165   3.474   7.908   1.200
 5865WAT     H124166   3.430   7.862   1.140
 5865WAT     H224167   3.489   7.850   1.263
 5865WAT    EPW24168   3.469   7.893   1.201
 5866WAT      O24169   4.475   7.646   1.901
 5866WAT     H124170   4.472   7.638   1.814
 5866WAT     H224171   4.416   7.589   1.929
 5866WAT    EPW24172   4.466   7.637   1.893
 5867WAT      O24173   3.912   6.971   1.643
 5867WAT     H124174   3.906   7.041   1.592
 5867WAT     H224175   3.986   6.933   1.618
 5867WAT    EPW24176   3.922   6.976   1.632
 5868WAT      O24177   3.431   7.783   1.845
 5868WAT     H124178   3.397   7.773   1.766
 5868WAT     H224179   3.470   7.707   1.861
 5868WAT    EPW24180   3.431   7.770   1.836
 5869WAT      O24181   3.821   7.314   2.417
 5869WAT     H124182   3.889   7.308   2.363
 5869WAT     H224183   3.783   7.236   2.413
 5869WAT    EPW24184   3.826   7.302   2.409
 5870WAT      O24185   3.509   7.531   1.943
 5870WAT     H124186   3.582   7.483   1.943
 5870WAT     H224187   3.450   7.478   1.906
 5870WAT    EPW24188   3.511   7.516   1.937
 5871WAT      O24189   4.203   7.516   2.908
 5871WAT     H124190   4.123   7.517   2.874
 5871WAT     H224191   4.206   7.588   2.957
 5871WAT    EPW24192   4.192   7.526   2.910
 5872WAT      O24193   3.637   7.009   1.724
 5872WAT     H124194   3.599   7.063   1.667
 5872WAT     H224195   3.719   7.003   1.695
 5872WAT    EPW24196   3.643   7.016   1.711
 5873WAT      O24197   4.606   6.744   2.698
 5873WAT     H124198   4.581   6.811   2.647
 5873WAT     H224199   4.534   6.723   2.741
 5873WAT    EPW24200   4.592   6.751   2.697
 5874WAT      O24201   3.934   6.942   1.919
 5874WAT     H124202   3.943   7.027   1.940
 5874WAT     H224203   3.918   6.944   1.833
 5874WAT    EPW24204   3.933   6.955   1.909
 5875WAT      O24205   4.377   7.156   1.152
 5875WAT     H124206   4.335   7.223   1.188
 5875WAT     H224207   4.390   7.101   1.219
 5875WAT    EPW24208   4.373   7.158   1.167
 5876WAT      O24209   3.200   7.392   2.103
 5876WAT     H124210   3.153   7.465   2.109
 5876WAT     H224211   3.153   7.333   2.147
 5876WAT    EPW24212   3.186   7.394   2.111
 5877WAT      O24213   3.447   6.978   2.136
 5877WAT     H124214   3.432   6.901   2.097
 5877WAT     H224215   3.502   6.958   2.201
 5877WAT    EPW24216   3.453   6.964   2.140
 5878WAT      O24217   3.806   7.130   3.059
 5878WAT     H124218   3.814   7.094   2.980
 5878WAT     H224219   3.847   7.207   3.050
 5878WAT    EPW24220   3.813   7.136   3.046
 5879WAT      O24221   4.944   7.126   1.874
 5879WAT     H124222   4.896   7.199   1.881
 5879WAT     H224223   4.884   7.063   1.864
 5879WAT    EPW24224   4.928   7.128   1.874
 5880WAT      O24225   3.381   7.067   2.982
 5880WAT     H124226   3.300   7.038   2.964
 5880WAT     H224227   3.429   7.034   2.917
 5880WAT    EPW24228   3.376   7.058   2.969
 5881WAT      O24229   3.996   6.871   2.937
 5881WAT     H124230   4.018   6.798   2.895
 5881WAT     H224231   3.932   6.904   2.887
 5881WAT    EPW24232   3.989   6.865   2.923
 5882WAT      O24233   4.106   7.399   1.777
 5882WAT     H124234   4.139   7.353   1.710
 5882WAT     H224235   4.176   7.413   1.828
 5882WAT    EPW24236   4.121   7.394   1.775
 5883WAT      O24237   4.213   7.344   1.284
 5883WAT     H124238   4.231   7.422   1.318
 5883WAT     H224239   4.135   7.356   1.247
 5883WAT    EPW24240   4.204   7.357   1.284
 5884WAT      O24241   4.844   7.032   2.292
 5884WAT     H124242   4.910   7.029   2.236
 5884WAT     H224243   4.863   6.969   2.349
 5884WAT    EPW24244   4.856   7.022   2.292
 5885WAT      O24245   3.119   7.186   2.721
 5885WAT     H124246   3.103   7.264   2.757
 5885WAT     H224247   3.181   7.202   2.663
 5885WAT    EPW24248   3.126   7.200   2.718
 5886WAT      O24249   4.408   6.985   1.368
 5886WAT     H124250   4.464   6.918   1.374
 5886WAT     H224251   4.426   7.034   1.438
 5886WAT    EPW24252   4.419   6.982   1.379
 5887WAT      O24253   3.242   7.095   1.639
 5887WAT     H124254   3.215   7.014   1.620
 5887WAT     H224255   3.194   7.117   1.708
 5887WAT    EPW24256   3.231   7.086   1.646
 5888WAT      O24257   4.180   7.253   1.548
 5888WAT     H124258   4.110   7.204   1.535
 5888WAT     H224259   4.197   7.286   1.469
 5888WAT    EPW24260   4.172   7.251   1.534
 5889WAT      O24261   4.163   6.931   1.495
 5889WAT     H124262   4.102   6.908   1.436
 5889WAT     H224263   4.234   6.947   1.446
 5889WAT    EPW24264   4.165   6.929   1.479
 5890WAT      O24265   3.980   7.218   1.951
 5890WAT     H124266   4.013   7.281   1.901
 5890WAT     H224267   3.992   7.248   2.032
 5890WAT    EPW24268   3.987   7.232   1.956
 5891WAT      O24269   3.580   6.744   1.783
 5891WAT     H124270   3.596   6.829   1.766
 5891WAT     H224271   3.553   6.713   1.706
 5891WAT    EPW24272   3.578   6.752   1.769
 5892WAT      O24273   3.661   7.730   2.203
 5892WAT     H124274   3.669   7.643   2.209
 5892WAT     H224275   3.624   7.741   2.124
 5892WAT    EPW24276   3.657   7.719   2.192
 5893WAT      O24277   4.337   7.154   2.536
 5893WAT     H124278   4.330   7.193   2.614
 5893WAT     H224279   4.271   7.097   2.536
 5893WAT    EPW24280   4.326   7.151   2.548
 5894WAT      O24281   4.516   6.774   1.838
 5894WAT     H124282   4.510   6.762   1.924
 5894WAT     H224283   4.553   6.701   1.809
 5894WAT    EPW24284   4.521   6.762   1.846
 5895WAT      O24285   4.729   7.177   2.639
 5895WAT     H124286   4.814   7.173   2.656
 5895WAT     H224287   4.691   7.176   2.717
 5895WAT    EPW24288   4.736   7.177   2.653
 5896WAT      O24289   3.515   7.155   1.931
 5896WAT     H124290   3.550   7.102   1.872
 5896WAT     H224291   3.496   7.101   1.998
 5896WAT    EPW24292   3.518   7.139   1.932
 5897WAT      O24293   3.402   7.357   2.299
 5897WAT     H124294   3.479   7.378   2.263
 5897WAT     H224295   3.345   7.369   2.234
 5897WAT    EPW24296   3.405   7.362   2.284
 5898WAT      O24297   4.600   7.659   1.281
 5898WAT     H124298   4.573   7.733   1.243
 5898WAT     H224299   4.618   7.684   1.363
 5898WAT    EPW24300   4.599   7.674   1.287
 5899WAT      O24301   4.924   7.082   1.342
 5899WAT     H124302   4.973   7.020   1.305
 5899WAT     H224303   4.893   7.126   1.274
 5899WAT    EPW24304   4.927   7.079   1.327
 5900WAT      O24305   3.945   7.371   3.064
 5900WAT     H124306   3.899   7.405   3.130
 5900WAT     H224307   3.932   7.427   2.998
 5900WAT    EPW24308   3.936   7.384   3.064
 5901WAT      O24309   5.033   7.460   2.521
 5901WAT     H124310   5.098   7.401   2.525
 5901WAT     H224311   4.981   7.427   2.459
 5901WAT    EPW24312   5.035   7.446   2.512
 5902WAT      O24313   3.344   7.706   1.590
 5902WAT     H124314   3.306   7.627   1.585
 5902WAT     H224315   3.402   7.705   1.524
 5902WAT    EPW24316   3.347   7.694   1.579
 5903WAT      O24317   4.782   6.939   1.538
 5903WAT     H124318   4.856   6.900   1.562
 5903WAT     H224319   4.808   7.001   1.482
 5903WAT    EPW24320   4.797   6.943   1.533
 5904WAT      O24321   4.477   7.211   1.981
 5904WAT     H124322   4.510   7.168   2.050
 5904WAT     H224323   4.409   7.162   1.957
 5904WAT    EPW24324   4.472   7.198   1.988
 5905WAT      O24325   3.914   7.176   1.463
 5905WAT     H124326   3.894   7.146   1.383
 5905WAT     H224327   3.884   7.258   1.462
 5905WAT    EPW24328   3.907   7.184   1.451
 5906WAT      O24329   3.515   7.521   2.917
 5906WAT     H124330   3.474   7.465   2.970
 5906WAT     H224331   3.527   7.474   2.844
 5906WAT    EPW24332   3.511   7.506   2.914
 5907WAT      O24333   3.534   7.416   1.410
 5907WAT     H124334   3.516   7.355   1.470
 5907WAT     H224335   3.492   7.388   1.339
 5907WAT    EPW24336   3.525   7.403   1.408
 5908WAT      O24337   3.335   7.708   2.102
 5908WAT     H124338   3.346   7.758   2.031
 5908WAT     H224339   3.374   7.633   2.081
 5908WAT    EPW24340   3.342   7.705   2.089
 5909WAT      O24341   3.597   7.568   2.490
 5909WAT     H124342   3.613   7.524   2.416
 5909WAT     H224343   3.534   7.624   2.468
 5909WAT    EPW24344   3.590   7.569   2.476
 5910WAT      O24345   4.631   7.357   2.253
 5910WAT     H124346   4.563   7.383   2.302
 5910WAT     H224347   4.633   7.415   2.188
 5910WAT    EPW24348   4.621   7.369   2.251
 5911WAT      O24349   4.169   6.937   2.607
 5911WAT     H124350   4.187   6.854   2.587
 5911WAT     H224351   4.197   6.946   2.689
 5911WAT    EPW24352   4.175   6.926   2.616
 5912WAT      O24353   4.430   7.134   1.597
 5912WAT     H124354   4.490   7.196   1.607
 5912WAT     H224355   4.355   7.178   1.592
 5912WAT    EPW24356   4.428   7.150   1.598
 5913WAT      O24357   3.346   7.737   2.872
 5913WAT     H124358   3.328   7.737   2.786
 5913WAT     H224359   3.401   7.670   2.881
 5913WAT    EPW24360   3.352   7.727   2.860
 5914WAT      O24361   4.010   7.284   2.217
 5914WAT     H124362   4.075   7.341   2.225
 5914WAT     H224363   4.043   7.210   2.249
 5914WAT    EPW24364   4.024   7.282   2.223
 5915WAT      O24365   4.258   7.576   1.430
 5915WAT     H124366   4.257   7.637   1.368
 5915WAT     H224367   4.194   7.601   1.484
 5915WAT    EPW24368   4.249   7.589   1.429
 5916WAT      O24369   3.670   6.804   1.367
 5916WAT     H124370   3.622   6.767   1.430
 5916WAT     H224371   3.632   6.881   1.355
 5916WAT    EPW24372   3.657   6.810   1.375
 5917WAT      O24373   4.746   7.833   2.596
 5917WAT     H124374   4.756   7.778   2.529
 5917WAT     H224375   4.782   7.907   2.567
 5917WAT    EPW24376   4.753   7.836   2.582
 5918WAT      O24377   4.739   6.889   2.895
 5918WAT     H124378   4.699   6.842   2.833
 5918WAT     H224379   4.739   6.835   2.964
 5918WAT    EPW24380   4.733   6.874   2.896
 5919WAT      O24381   3.563   7.693   1.395
 5919WAT     H124382   3.550   7.607   1.402
 5919WAT     H224383   3.634   7.708   1.443
 5919WAT    EPW24384   3.571   7.683   1.403
 5920WAT      O24385   4.261   7.748   2.532
 5920WAT     H124386   4.310   7.820   2.544
 5920WAT     H224387   4.306   7.685   2.572
 5920WAT    EPW24388   4.275   7.749   2.540
 5921WAT      O24389   3.136   6.836   1.586
 5921WAT     H124390   3.138   6.781   1.518
 5921WAT     H224391   3.107   6.787   1.652
 5921WAT    EPW24392   3.132   6.821   1.586
 5922WAT      O24393   4.071   7.638   1.635
 5922WAT     H124394   4.101   7.696   1.693
 5922WAT     H224395   4.071   7.563   1.679
 5922WAT    EPW24396   4.075   7.636   1.650
 5923WAT      O24397   3.567   7.055   1.317
 5923WAT     H124398   3.509   7.057   1.253
 5923WAT     H224399   3.638   7.093   1.283
 5923WAT    EPW24400   3.569   7.061   1.303
 5924WAT      O24401   3.929   7.819   2.180
 5924WAT     H124402   3.846   7.795   2.190
 5924WAT     H224403   3.972   7.770   2.239
 5924WAT    EPW24404   3.923   7.808   2.190
 5925WAT      O24405   3.432   7.761   2.367
 5925WAT     H124406   3.510   7.777   2.333
 5925WAT     H224407   3.382   7.745   2.297
 5925WAT    EPW24408   3.436   7.761   2.352
 5926WAT      O24409   3.714   7.339   1.984
 5926WAT     H124410   3.791   7.302   1.966
 5926WAT     H224411   3.657   7.275   1.968
 5926WAT    EPW24412   3.717   7.324   1.979
 5927WAT      O24413   3.220   7.446   1.596
 5927WAT     H124414   3.247   7.407   1.669
 5927WAT     H224415   3.220   7.381   1.537
 5927WAT    EPW24416   3.224   7.430   1.598
 5928WAT      O24417   4.761   7.656   2.374
 5928WAT     H124418   4.754   7.584   2.422
 5928WAT     H224419   4.686   7.658   2.330
 5928WAT    EPW24420   4.749   7.646   2.374
 5929WAT      O24421   3.730   7.649   1.168
 5929WAT     H124422   3.676   7.669   1.234
 5929WAT     H224423   3.678   7.611   1.110
 5929WAT    EPW24424   3.715   7.647   1.170
 5930WAT      O24425   4.928   7.644   2.145
 5930WAT     H124426   4.892   7.647   2.224
 5930WAT     H224427   4.972   7.719   2.140
 5930WAT    EPW24428   4.929   7.656   2.156
 5931WAT      O24429   3.810   7.431   1.418
 5931WAT     H124430   3.822   7.514   1.442
 5931WAT     H224431   3.724   7.423   1.414
 5931WAT    EPW24432   3.799   7.442   1.421
 5932WAT      O24433   4.612   7.141   2.894
 5932WAT     H124434   4.543   7.142   2.948
 5932WAT     H224435   4.643   7.060   2.901
 5932WAT    EPW24436   4.606   7.129   2.903
 5933WAT      O24437   3.176   7.080   2.119
 5933WAT     H124438   3.157   7.089   2.035
 5933WAT     H224439   3.259   7.054   2.119
 5933WAT    EPW24440   3.185   7.077   2.107
 5934WAT      O24441   4.476   7.460   3.002
 5934WAT     H124442   4.501   7.512   3.067
 5934WAT     H224443   4.392   7.480   2.990
 5934WAT    EPW24444   4.467   7.470   3.010
 5935WAT      O24445   4.650   7.534   2.802
 5935WAT     H124446   4.666   7.616   2.826
 5935WAT     H224447   4.600   7.503   2.867
 5935WAT    EPW24448   4.645   7.542   2.815
 5936WAT      O24449   4.722   7.309   1.888
 5936WAT     H124450   4.651   7.266   1.915
 5936WAT     H224451   4.720   7.383   1.934
 5936WAT    EPW24452   4.711   7.314   1.899
 5937WAT      O24453   4.962   7.669   2.942
 5937WAT     H124454   4.961   7.602   2.886
 5937WAT     H224455   5.044   7.699   2.936
 5937WAT    EPW24456   4.974   7.663   2.933
 5938WAT      O24457   4.558   6.978   2.544
 5938WAT     H124458   4.619   7.038   2.562
 5938WAT     H224459   4.485   7.026   2.536
 5938WAT    EPW24460   4.556   6.994   2.545
 5939WAT      O24461   4.051   7.654   2.378
 5939WAT     H124462   4.116   7.691   2.423
 5939WAT     H224463   3.990   7.638   2.438
 5939WAT    EPW24464   4.052   7.657   2.393
 5940WAT      O24465   3.806   7.275   2.698
 5940WAT     H124466   3.809   7.189   2.714
 5940WAT     H224467   3.823   7.280   2.612
 5940WAT    EPW24468   3.809   7.263   2.687
 5941WAT      O24469   4.629   6.782   2.357
 5941WAT     H124470   4.604   6.854   2.400
 5941WAT     H224471   4.713   6.774   2.377
 5941WAT    EPW24472   4.637   6.792   2.366
 5942WAT      O24473   3.896   6.894   2.547
 5942WAT     H124474   3.979   6.919   2.548
 5942WAT     H224475   3.898   6.816   2.508
 5942WAT    EPW24476   3.908   6.887   2.541
 5943WAT      O24477   4.840   7.503   1.265
 5943WAT     H124478   4.888   7.558   1.217
 5943WAT     H224479   4.762   7.541   1.267
 5943WAT    EPW24480   4.836   7.517   1.258
 5944WAT      O24481   3.956   7.802   1.235
 5944WAT     H124482   3.896   7.751   1.198
 5944WAT     H224483   3.924   7.883   1.225
 5944WAT    EPW24484   3.942   7.806   1.228
 5945WAT      O24485   3.666   7.448   2.236
 5945WAT     H124486   3.684   7.416   2.157
 5945WAT     H224487   3.721   7.405   2.288
 5945WAT    EPW24488   3.677   7.437   2.232
 5946WAT      O24489   4.332   7.306   2.774
 5946WAT     H124490   4.276   7.354   2.820
 5946WAT     H224491   4.392   7.282   2.833
 5946WAT    EPW24492   4.333   7.309   2.789
 5947WAT      O24493   4.402   7.395   2.406
 5947WAT     H124494   4.415   7.444   2.477
 5947WAT     H224495   4.382   7.317   2.439
 5947WAT    EPW24496   4.401   7.391   2.421
 5948WAT      O24497   4.619   7.348   1.633
 5948WAT     H124498   4.649   7.333   1.714
 5948WAT     H224499   4.687   7.388   1.594
 5948WAT    EPW24500   4.634   7.352   1.639
 5949WAT      O24501   3.893   6.872   2.191
 5949WAT     H124502   3.809   6.862   2.212
 5949WAT     H224503   3.892   6.882   2.104
 5949WAT    EPW24504   3.881   6.872   2.181
 5950WAT      O24505   4.740   6.942   1.814
 5950WAT     H124506   4.663   6.904   1.829
 5950WAT     H224507   4.740   6.957   1.728
 5950WAT    EPW24508   4.729   6.938   1.803
 5951WAT      O24509   4.665   7.729   1.538
 5951WAT     H124510   4.730   7.675   1.557
 5951WAT     H224511   4.596   7.693   1.577
 5951WAT    EPW24512   4.664   7.716   1.547
 5952WAT      O24513   3.127   6.965   2.889
 5952WAT     H124514   3.128   7.035   2.837
 5952WAT     H224515   3.043   6.942   2.892
 5952WAT    EPW24516   3.115   6.972   2.882
 5953WAT      O24517   3.494   7.177   1.555
 5953WAT     H124518   3.506   7.135   1.480
 5953WAT     H224519   3.413   7.154   1.580
 5953WAT    EPW24520   3.484   7.168   1.548
 5954WAT      O24521   4.925   7.449   2.778
 5954WAT     H124522   4.839   7.460   2.780
 5954WAT     H224523   4.946   7.462   2.694
 5954WAT    EPW24524   4.915   7.452   2.766
 5955WAT      O24525   4.414   7.542   2.644
 5955WAT     H124526   4.378   7.476   2.687
 5955WAT     H224527   4.487   7.559   2.688
 5955WAT    EPW24528   4.420   7.535   2.657
 5956WAT      O24529   4.242   7.726   3.091
 5956WAT     H124530   4.301   7.788   3.075
 5956WAT     H224531   4.167   7.770   3.096
 5956WAT    EPW24532   4.240   7.742   3.089
 5957WAT      O24533   3.547   7.375   2.682
 5957WAT     H124534   3.561   7.439   2.624
 5957WAT     H224535   3.625   7.338   2.691
 5957WAT    EPW24536   3.561   7.379   2.674
 5958WAT      O24537   3.340   7.251   2.544
 5958WAT     H124538   3.360   7.274   2.462
 5958WAT     H224539   3.404   7.285   2.592
 5958WAT    EPW24540   3.353   7.259   2.539
 5959WAT      O24541   4.837   7.508   1.547
 5959WAT     H124542   4.852   7.509   1.461
 5959WAT     H224543   4.917   7.501   1.582
 5959WAT    EPW24544   4.851   7.507   1.540
 5960WAT      O24545   3.522   6.929   2.786
 5960WAT     H124546   3.479   6.854   2.793
 5960WAT     H224547   3.506   6.954   2.704
 5960WAT    EPW24548   3.513   6.921   2.775
 5961WAT      O24549   4.711   7.444   2.545
 5961WAT     H124550   4.716   7.358   2.554
 5961WAT     H224551   4.683   7.472   2.623
 5961WAT    EPW24552   4.708   7.436   2.558
 5962WAT      O24553   3.265   7.713   2.596
 5962WAT     H124554   3.313   7.742   2.530
 5962WAT     H224555   3.235   7.636   2.568
 5962WAT    EPW24556   3.267   7.706   2.582
 5963WAT      O24557   3.387   7.337   1.186
 5963WAT     H124558   3.310   7.339   1.227
 5963WAT     H224559   3.391   7.256   1.154
 5963WAT    EPW24560   3.376   7.326   1.188
 5964WAT      O24561   4.252   6.961   2.873
 5964WAT     H124562   4.286   7.024   2.923
 5964WAT     H224563   4.173   6.947   2.907
 5964WAT    EPW24564   4.245   6.968   2.885
 5965WAT      O24565   4.237   7.072   1.952
 5965WAT     H124566   4.159   7.111   1.945
 5965WAT     H224567   4.235   7.010   1.891
 5965WAT    EPW24568   4.225   7.068   1.942
 5966WAT      O24569   4.575   7.091   2.214
 5966WAT     H124570   4.652   7.052   2.227
 5966WAT     H224571   4.589   7.174   2.237
 5966WAT    EPW24572   4.588   7.097   2.219
 5967WAT      O24573   3.851   7.652   2.582
 5967WAT     H124574   3.840   7.738   2.588
 5967WAT     H224575   3.773   7.623   2.555
 5967WAT    EPW24576   3.838   7.660   2.579
 5968WAT      O24577   4.682   7.536   2.048
 5968WAT     H124578   4.754   7.584   2.055
 5968WAT     H224579   4.629   7.586   2.001
 5968WAT    EPW24580   4.685   7.550   2.042
 5969WAT      O24581   3.709   7.069   2.431
 5969WAT     H124582   3.631   7.036   2.454
 5969WAT     H224583   3.765   7.007   2.457
 5969WAT    EPW24584   3.705   7.055   2.438
 5970WAT      O24585   4.888   6.823   2.475
 5970WAT     H124586   4.867   6.833   2.559
 5970WAT     H224587   4.972   6.801   2.477
 5970WAT    EPW24588   4.897   6.821   2.488
 5971WAT      O24589   4.086   7.039   2.308
 5971WAT     H124590   4.026   6.985   2.274
 5971WAT     H224591   4.162   7.005   2.282
 5971WAT    EPW24592   4.088   7.026   2.299
 5972WAT      O24593   3.941   7.496   2.804
 5972WAT     H124594   3.906   7.422   2.775
 5972WAT     H224595   3.919   7.555   2.744
 5972WAT    EPW24596   3.932   7.494   2.791
 5973WAT      O24597   3.950   6.839   1.340
 5973WAT     H124598   3.959   6.850   1.254
 5973WAT     H224599   3.863   6.841   1.352
 5973WAT    EPW24600   3.938   6.841   1.329
 5974WAT      O24601   3.455   6.996   2.528
 5974WAT     H124602   3.395   6.935   2.508
 5974WAT     H224603   3.410   7.071   2.525
 5974WAT    EPW24604   3.440   6.998   2.524
 5975WAT      O24605   4.327   6.958   2.191
 5975WAT     H124606   4.398   7.003   2.211
 5975WAT     H224607   4.299   6.994   2.116
 5975WAT    EPW24608   4.333   6.970   2.183
 5976WAT      O24609   4.306   7.435   1.970
 5976WAT     H124610   4.363   7.371   1.981
 5976WAT     H224611   4.275   7.450   2.050
 5976WAT    EPW24612   4.310   7.428   1.983
 5977WAT      O24613   3.321   7.348   1.850
 5977WAT     H124614   3.272   7.354   1.923
 5977WAT     H224615   3.372   7.279   1.865
 5977WAT    EPW24616   3.321   7.338   1.863
 5978WAT      O24617   4.455   7.574   1.631
 5978WAT     H124618   4.497   7.498   1.629
 5978WAT     H224619   4.398   7.568   1.565
 5978WAT    EPW24620   4.453   7.562   1.621
 5979WAT      O24621   3.845   7.699   1.477
 5979WAT     H124622   3.886   7.735   1.409
 5979WAT     H224623   3.908   7.689   1.536
 5979WAT    EPW24624   3.860   7.703   1.476
 5980WAT      O24625   4.710   7.794   2.871
 5980WAT     H124626   4.791   7.777   2.900
 5980WAT     H224627   4.723   7.816   2.788
 5980WAT    EPW24628   4.724   7.795   2.863
 5981WAT      O24629   4.827   7.252   3.029
 5981WAT     H124630   4.817   7.337   3.048
 5981WAT     H224631   4.754   7.231   2.987
 5981WAT    EPW24632   4.815   7.262   3.026
 5982WAT      O24633   4.897   7.309   2.319
 5982WAT     H124634   4.815   7.333   2.303
 5982WAT     H224635   4.893   7.221   2.320
 5982WAT    EPW24636   4.884   7.299   2.316
 5983WAT      O24637   3.796   6.999   2.785
 5983WAT     H124638   3.825   6.963   2.711
 5983WAT     H224639   3.713   6.971   2.791
 5983WAT    EPW24640   3.788   6.990   2.775
 5984WAT      O24641   4.491   7.886   3.048
 5984WAT     H124642   4.554   7.881   2.987
 5984WAT     H224643   4.503   7.966   3.082
 5984WAT    EPW24644   4.502   7.897   3.044
 5985WAT      O24645   4.171   7.483   0.371
 5985WAT     H124646   4.136   7.543   0.423
 5985WAT     H224647   4.245   7.461   0.413
 5985WAT    EPW24648   4.177   7.488   0.385
 5986WAT      O24649   3.830   7.242   0.560
 5986WAT     H124650   3.893   7.253   0.501
 5986WAT     H224651   3.805   7.159   0.548
 5986WAT    EPW24652   3.836   7.232   0.550
 5987WAT      O24653   4.199   7.536   1.017
 5987WAT     H124654   4.117   7.534   0.988
 5987WAT     H224655   4.201   7.605   1.070
 5987WAT    EPW24656   4.187   7.546   1.020
 5988WAT      O24657   4.581   6.753   0.812
 5988WAT     H124658   4.566   6.826   0.766
 5988WAT     H224659   4.510   6.745   0.862
 5988WAT    EPW24660   4.568   6.763   0.813
 5989WAT      O24661   3.224   7.432   0.297
 5989WAT     H124662   3.212   7.517   0.309
 5989WAT     H224663   3.153   7.396   0.333
 5989WAT    EPW24664   3.212   7.439   0.304
 5990WAT      O24665   3.453   6.894   0.380
 5990WAT     H124666   3.470   6.959   0.323
 5990WAT     H224667   3.511   6.833   0.358
 5990WAT    EPW24668   3.464   6.895   0.368
 5991WAT      O24669   3.805   7.144   1.197
 5991WAT     H124670   3.803   7.107   1.118
 5991WAT     H224671   3.848   7.219   1.183
 5991WAT    EPW24672   3.811   7.150   1.183
 5992WAT      O24673   3.392   7.070   1.103
 5992WAT     H124674   3.311   7.038   1.096
 5992WAT     H224675   3.433   7.035   1.034
 5992WAT    EPW24676   3.386   7.060   1.091
 5993WAT      O24677   3.988   6.873   1.069
 5993WAT     H124678   4.009   6.803   1.021
 5993WAT     H224679   3.919   6.906   1.029
 5993WAT    EPW24680   3.981   6.867   1.056
 5994WAT      O24681   4.891   7.063   0.395
 5994WAT     H124682   4.944   7.025   0.337
 5994WAT     H224683   4.900   7.014   0.467
 5994WAT    EPW24684   4.900   7.050   0.397
 5995WAT      O24685   3.138   7.190   0.859
 5995WAT     H124686   3.121   7.269   0.891
 5995WAT     H224687   3.200   7.204   0.799
 5995WAT    EPW24688   3.145   7.204   0.855
 5996WAT      O24689   3.653   7.824   0.430
 5996WAT     H124690   3.665   7.745   0.466
 5996WAT     H224691   3.729   7.839   0.390
 5996WAT    EPW24692   3.666   7.814   0.429
 5997WAT      O24693   4.331   7.170   0.651
 5997WAT     H124694   4.324   7.211   0.728
 5997WAT     H224695   4.264   7.114   0.651
 5997WAT    EPW24696   4.320   7.168   0.662
 5998WAT      O24697   4.725   7.196   0.749
 5998WAT     H124698   4.810   7.189   0.766
 5998WAT     H224699   4.688   7.192   0.829
 5998WAT    EPW24700   4.732   7.195   0.764
 5999WAT      O24701   3.418   7.267   0.404
 5999WAT     H124702   3.497   7.301   0.385
 5999WAT     H224703   3.363   7.318   0.359
 5999WAT    EPW24704   3.422   7.279   0.394
 6000WAT      O24705   3.948   7.382   1.182
 6000WAT     H124706   3.902   7.416   1.248
 6000WAT     H224707   3.932   7.436   1.116
 6000WAT    EPW24708   3.939   7.395   1.182
 6001WAT      O24709   5.023   7.462   0.659
 6001WAT     H124710   5.087   7.403   0.653
 6001WAT     H224711   4.967   7.438   0.596
 6001WAT    EPW24712   5.024   7.450   0.649
 6002WAT      O24713   3.515   7.527   1.025
 6002WAT     H124714   3.474   7.468   1.074
 6002WAT     H224715   3.524   7.487   0.948
 6002WAT    EPW24716   3.510   7.512   1.021
 6003WAT      O24717   3.610   7.577   0.573
 6003WAT     H124718   3.623   7.522   0.507
 6003WAT     H224719   3.533   7.614   0.554
 6003WAT    EPW24720   3.601   7.574   0.561
 6004WAT      O24721   4.626   7.363   0.349
 6004WAT     H124722   4.561   7.379   0.405
 6004WAT     H224723   4.604   7.406   0.277
 6004WAT    EPW24724   4.613   7.371   0.347
 6005WAT      O24725   4.153   6.964   0.718
 6005WAT     H124726   4.178   6.885   0.691
 6005WAT     H224727   4.184   6.969   0.799
 6005WAT    EPW24728   4.161   6.953   0.726
 6006WAT      O24729   3.342   7.743   1.010
 6006WAT     H124730   3.317   7.744   0.926
 6006WAT     H224731   3.397   7.675   1.013
 6006WAT    EPW24732   3.346   7.733   0.998
 6007WAT      O24733   3.988   7.277   0.339
 6007WAT     H124734   4.050   7.338   0.341
 6007WAT     H224735   4.032   7.203   0.324
 6007WAT    EPW24736   4.003   7.275   0.337
 6008WAT      O24737   4.841   7.804   0.739
 6008WAT     H124738   4.811   7.778   0.661
 6008WAT     H224739   4.926   7.790   0.734
 6008WAT    EPW24740   4.849   7.798   0.727
 6009WAT      O24741   4.738   6.893   1.000
 6009WAT     H124742   4.694   6.845   0.940
 6009WAT     H224743   4.744   6.839   1.068
 6009WAT    EPW24744   4.732   6.878   1.001
 6010WAT      O24745   4.263   7.770   0.689
 6010WAT     H124746   4.285   7.829   0.750
 6010WAT     H224747   4.309   7.700   0.711
 6010WAT    EPW24748   4.273   7.769   0.702
 6011WAT      O24749   3.917   7.820   0.335
 6011WAT     H124750   3.962   7.809   0.261
 6011WAT     H224751   3.965   7.779   0.395
 6011WAT    EPW24752   3.931   7.812   0.333
 6012WAT      O24753   3.393   7.742   0.509
 6012WAT     H124754   3.449   7.795   0.469
 6012WAT     H224755   3.328   7.734   0.451
 6012WAT    EPW24756   3.392   7.749   0.495
 6013WAT      O24757   4.723   7.694   0.504
 6013WAT     H124758   4.722   7.614   0.539
 6013WAT     H224759   4.639   7.715   0.497
 6013WAT    EPW24760   4.710   7.685   0.508
 6014WAT      O24761   4.905   7.722   0.290
 6014WAT     H124762   4.848   7.716   0.356
 6014WAT     H224763   4.877   7.791   0.245
 6014WAT    EPW24764   4.892   7.731   0.293
 6015WAT      O24765   4.618   7.148   1.004
 6015WAT     H124766   4.547   7.151   1.055
 6015WAT     H224767   4.644   7.065   1.010
 6015WAT    EPW24768   4.611   7.136   1.013
 6016WAT      O24769   4.473   7.477   1.108
 6016WAT     H124770   4.499   7.526   1.175
 6016WAT     H224771   4.390   7.499   1.097
 6016WAT    EPW24772   4.465   7.487   1.116
 6017WAT      O24773   4.649   7.551   0.910
 6017WAT     H124774   4.669   7.632   0.935
 6017WAT     H224775   4.599   7.521   0.975
 6017WAT    EPW24776   4.645   7.559   0.923
 6018WAT      O24777   4.962   7.666   1.078
 6018WAT     H124778   4.958   7.600   1.020
 6018WAT     H224779   5.041   7.700   1.066
 6018WAT    EPW24780   4.973   7.661   1.067
 6019WAT      O24781   4.551   6.994   0.671
 6019WAT     H124782   4.612   7.054   0.685
 6019WAT     H224783   4.479   7.041   0.655
 6019WAT    EPW24784   4.549   7.010   0.670
 6020WAT      O24785   4.052   7.680   0.535
 6020WAT     H124786   4.117   7.714   0.580
 6020WAT     H224787   3.989   7.668   0.594
 6020WAT    EPW24788   4.052   7.683   0.550
 6021WAT      O24789   3.796   7.283   0.831
 6021WAT     H124790   3.791   7.203   0.865
 6021WAT     H224791   3.818   7.268   0.748
 6021WAT    EPW24792   3.798   7.269   0.823
 6022WAT      O24793   4.678   6.810   0.499
 6022WAT     H124794   4.634   6.876   0.535
 6022WAT     H224795   4.758   6.819   0.532
 6022WAT    EPW24796   4.683   6.821   0.509
 6023WAT      O24797   3.891   6.880   0.747
 6023WAT     H124798   3.975   6.898   0.735
 6023WAT     H224799   3.891   6.797   0.773
 6023WAT    EPW24800   3.903   6.871   0.749
 6024WAT      O24801   3.673   7.384   0.384
 6024WAT     H124802   3.724   7.391   0.313
 6024WAT     H224803   3.721   7.336   0.438
 6024WAT    EPW24804   3.688   7.378   0.381
 6025WAT      O24805   4.323   7.320   0.888
 6025WAT     H124806   4.268   7.373   0.931
 6025WAT     H224807   4.378   7.293   0.951
 6025WAT    EPW24808   4.323   7.324   0.904
 6026WAT      O24809   4.403   7.402   0.510
 6026WAT     H124810   4.418   7.451   0.581
 6026WAT     H224811   4.379   7.325   0.542
 6026WAT    EPW24812   4.402   7.398   0.525
 6027WAT      O24813   3.896   6.833   0.354
 6027WAT     H124814   3.856   6.888   0.408
 6027WAT     H224815   3.829   6.793   0.314
 6027WAT    EPW24816   3.880   6.835   0.356
 6028WAT      O24817   3.139   6.965   1.019
 6028WAT     H124818   3.139   7.035   0.968
 6028WAT     H224819   3.065   6.923   0.998
 6028WAT    EPW24820   3.128   6.969   1.009
 6029WAT      O24821   4.915   7.450   0.910
 6029WAT     H124822   4.829   7.469   0.909
 6029WAT     H224823   4.939   7.462   0.827
 6029WAT    EPW24824   4.906   7.455   0.898
 6030WAT      O24825   4.415   7.547   0.751
 6030WAT     H124826   4.378   7.480   0.794
 6030WAT     H224827   4.490   7.560   0.795
 6030WAT    EPW24828   4.421   7.539   0.764
 6031WAT      O24829   4.241   7.741   1.204
 6031WAT     H124830   4.301   7.804   1.190
 6031WAT     H224831   4.166   7.786   1.210
 6031WAT    EPW24832   4.239   7.757   1.203
 6032WAT      O24833   3.549   7.399   0.780
 6032WAT     H124834   3.569   7.457   0.718
 6032WAT     H224835   3.625   7.360   0.797
 6032WAT    EPW24836   3.564   7.402   0.773
 6033WAT      O24837   3.344   7.252   0.666
 6033WAT     H124838   3.364   7.258   0.581
 6033WAT     H224839   3.410   7.294   0.705
 6033WAT    EPW24840   3.357   7.259   0.659
 6034WAT      O24841   3.512   6.927   0.898
 6034WAT     H124842   3.462   6.856   0.905
 6034WAT     H224843   3.505   6.950   0.814
 6034WAT    EPW24844   3.504   6.920   0.887
 6035WAT      O24845   4.707   7.460   0.652
 6035WAT     H124846   4.709   7.374   0.662
 6035WAT     H224847   4.688   7.490   0.732
 6035WAT    EPW24848   4.705   7.452   0.665
 6036WAT      O24849   3.245   7.712   0.744
 6036WAT     H124850   3.295   7.739   0.678
 6036WAT     H224851   3.218   7.633   0.718
 6036WAT    EPW24852   3.248   7.704   0.730
 6037WAT      O24853   4.232   6.984   0.985
 6037WAT     H124854   4.269   7.046   1.035
 6037WAT     H224855   4.158   6.966   1.027
 6037WAT    EPW24856   4.227   6.990   0.999
 6038WAT      O24857   4.606   7.081   0.333
 6038WAT     H124858   4.688   7.058   0.351
 6038WAT     H224859   4.609   7.169   0.337
 6038WAT    EPW24860   4.618   7.091   0.337
 6039WAT      O24861   3.834   7.675   0.716
 6039WAT     H124862   3.812   7.759   0.724
 6039WAT     H224863   3.765   7.640   0.675
 6039WAT    EPW24864   3.820   7.682   0.711
 6040WAT      O24865   3.748   6.983   0.537
 6040WAT     H124866   3.663   6.981   0.559
 6040WAT     H224867   3.786   6.942   0.604
 6040WAT    EPW24868   3.741   6.977   0.550
 6041WAT      O24869   4.922   6.897   0.617
 6041WAT     H124870   4.931   6.929   0.698
 6041WAT     H224871   4.991   6.844   0.608
 6041WAT    EPW24872   4.934   6.894   0.628
 6042WAT      O24873   4.112   7.025   0.315
 6042WAT     H124874   4.057   6.957   0.317
 6042WAT     H224875   4.191   6.987   0.317
 6042WAT    EPW24876   4.116   7.009   0.316
 6043WAT      O24877   3.933   7.508   0.925
 6043WAT     H124878   3.898   7.434   0.896
 6043WAT     H224879   3.905   7.568   0.869
 6043WAT    EPW24880   3.924   7.506   0.913
 6044WAT      O24881   3.482   7.002   0.636
 6044WAT     H124882   3.453   6.959   0.565
 6044WAT     H224883   3.433   7.074   0.637
 6044WAT    EPW24884   3.470   7.006   0.625
 6045WAT      O24885   4.382   6.920   0.278
 6045WAT     H124886   4.447   6.971   0.306
 6045WAT     H224887   4.380   6.934   0.192
 6045WAT    EPW24888   4.391   6.930   0.270
 6046WAT      O24889   4.725   7.804   0.993
 6046WAT     H124890   4.796   7.778   1.036
 6046WAT     H224891   4.756   7.824   0.913
 6046WAT    EPW24892   4.740   7.803   0.987
 6047WAT      O24893   4.840   7.242   1.139
 6047WAT     H124894   4.831   7.327   1.160
 6047WAT     H224895   4.766   7.223   1.098
 6047WAT    EPW24896   4.828   7.252   1.136
 6048WAT      O24897   4.898   7.342   0.432
 6048WAT     H124898   4.815   7.360   0.412
 6048WAT     H224899   4.903   7.255   0.422
 6048WAT    EPW24900   4.886   7.332   0.428
 6049WAT      O24901   3.772   7.021   0.944
 6049WAT     H124902   3.811   6.983   0.875
 6049WAT     H224903   3.691   6.991   0.940
 6049WAT    EPW24904   3.766   7.011   0.933
 6050WAT      O24905   4.500   7.895   1.159
 6050WAT     H124906   4.564   7.890   1.100
 6050WAT     H224907   4.511   7.974   1.195
 6050WAT    EPW24908   4.511   7.906   1.155
 6051WAT      O24909   3.268   6.036   7.463
 6051WAT     H124910   3.240   6.083   7.531
 6051WAT     H224911   3.323   5.978   7.500
 6051WAT    EPW24912   3.272   6.034   7.479
 6052WAT      O24913   4.832   6.482   7.200
 6052WAT     H124914   4.895   6.425   7.221
 6052WAT     H224915   4.778   6.436   7.149
 6052WAT    EPW24916   4.833   6.467   7.195
 6053WAT      O24917   3.179   5.454   7.054
 6053WAT     H124918   3.106   5.491   7.023
 6053WAT     H224919   3.159   5.370   7.059
 6053WAT    EPW24920   3.165   5.447   7.050
 6054WAT      O24921   3.539   5.985   6.953
 6054WAT     H124922   3.470   5.967   6.903
 6054WAT     H224923   3.596   5.922   6.933
 6054WAT    EPW24924   3.537   5.973   6.943
 6055WAT      O24925   4.449   5.847   7.574
 6055WAT     H124926   4.456   5.834   7.488
 6055WAT     H224927   4.403   5.778   7.602
 6055WAT    EPW24928   4.443   5.835   7.566
 6056WAT      O24929   3.453   6.213   7.364
 6056WAT     H124930   3.518   6.193   7.418
 6056WAT     H224931   3.389   6.158   7.388
 6056WAT    EPW24932   3.453   6.202   7.375
 6057WAT      O24933   3.879   5.165   7.334
 6057WAT     H124934   3.898   5.207   7.260
 6057WAT     H224935   3.867   5.082   7.308
 6057WAT    EPW24936   3.880   5.159   7.319
 6058WAT      O24937   3.301   6.454   6.941
 6058WAT     H124938   3.355   6.471   6.875
 6058WAT     H224939   3.342   6.389   6.984
 6058WAT    EPW24940   3.315   6.447   6.938
 6059WAT      O24941   3.437   5.851   7.592
 6059WAT     H124942   3.462   5.793   7.532
 6059WAT     H224943   3.469   5.819   7.666
 6059WAT    EPW24944   3.446   5.838   7.594
 6060WAT      O24945   3.542   5.663   7.421
 6060WAT     H124946   3.601   5.629   7.475
 6060WAT     H224947   3.472   5.613   7.433
 6060WAT    EPW24948   3.540   5.651   7.431
 6061WAT      O24949   3.914   6.255   7.661
 6061WAT     H124950   3.939   6.187   7.710
 6061WAT     H224951   3.984   6.307   7.662
 6061WAT    EPW24952   3.928   6.253   7.668
 6062WAT      O24953   4.032   6.215   7.344
 6062WAT     H124954   4.045   6.147   7.397
 6062WAT     H224955   4.061   6.188   7.267
 6062WAT    EPW24956   4.038   6.201   7.341
 6063WAT      O24957   3.627   5.210   7.448
 6063WAT     H124958   3.579   5.235   7.379
 6063WAT     H224959   3.707   5.201   7.415
 6063WAT    EPW24960   3.632   5.212   7.433
 6064WAT      O24961   3.990   5.147   7.585
 6064WAT     H124962   3.954   5.213   7.627
 6064WAT     H224963   3.957   5.152   7.505
 6064WAT    EPW24964   3.980   5.157   7.579
 6065WAT      O24965   4.401   5.311   6.760
 6065WAT     H124966   4.337   5.367   6.781
 6065WAT     H224967   4.417   5.270   6.835
 6065WAT    EPW24968   4.394   5.313   6.774
 6066WAT      O24969   3.257   5.618   7.787
 6066WAT     H124970   3.217   5.694   7.802
 6066WAT     H224971   3.209   5.561   7.834
 6066WAT    EPW24972   3.244   5.621   7.796
 6067WAT      O24973   3.190   6.564   7.611
 6067WAT     H124974   3.129   6.614   7.575
 6067WAT     H224975   3.232   6.529   7.543
 6067WAT    EPW24976   3.187   6.566   7.596
 6068WAT      O24977   3.774   6.304   7.302
 6068WAT     H124978   3.741   6.319   7.382
 6068WAT     H224979   3.856   6.279   7.318
 6068WAT    EPW24980   3.781   6.302   7.317
 6069WAT      O24981   4.383   6.595   7.105
 6069WAT     H124982   4.456   6.643   7.107
 6069WAT     H224983   4.410   6.516   7.130
 6069WAT    EPW24984   4.398   6.591   7.109
 6070WAT      O24985   4.183   6.625   7.293
 6070WAT     H124986   4.202   6.698   7.337
 6070WAT     H224987   4.246   6.620   7.233
 6070WAT    EPW24988   4.195   6.635   7.290
 6071WAT      O24989   3.322   6.457   7.388
 6071WAT     H124990   3.374   6.387   7.391
 6071WAT     H224991   3.372   6.519   7.354
 6071WAT    EPW24992   3.337   6.456   7.384
 6072WAT      O24993   4.949   5.295   7.523
 6072WAT     H124994   4.904   5.368   7.542
 6072WAT     H224995   4.887   5.237   7.505
 6072WAT    EPW24996   4.933   5.297   7.523
 6073WAT      O24997   3.520   6.243   7.736
 6073WAT     H124998   3.557   6.302   7.683
 6073WAT     H224999   3.562   6.169   7.716
 6073WAT    EPW25000   3.532   6.240   7.725
 6074WAT      O25001   3.750   6.618   7.635
 6074WAT     H125002   3.831   6.640   7.613
 6074WAT     H225003   3.702   6.685   7.606
 6074WAT    EPW25004   3.755   6.631   7.628
 6075WAT      O25005   4.121   5.526   7.488
 6075WAT     H125006   4.142   5.511   7.405
 6075WAT     H225007   4.194   5.563   7.520
 6075WAT    EPW25008   4.135   5.530   7.481
 6076WAT      O25009   4.192   5.479   6.812
 6076WAT     H125010   4.196   5.539   6.875
 6076WAT     H225011   4.109   5.482   6.787
 6076WAT    EPW25012   4.180   5.489   6.818
 6077WAT      O25013   4.603   6.769   7.075
 6077WAT     H125014   4.653   6.742   7.009
 6077WAT     H225015   4.655   6.822   7.121
 6077WAT    EPW25016   4.618   6.773   7.072
 6078WAT      O25017   4.082   6.397   6.921
 6078WAT     H125018   4.048   6.456   6.975
 6078WAT     H225019   4.157   6.433   6.896
 6078WAT    EPW25020   4.088   6.411   6.925
 6079WAT      O25021   4.439   5.170   6.998
 6079WAT     H125022   4.496   5.104   7.005
 6079WAT     H225023   4.454   5.218   7.069
 6079WAT    EPW25024   4.450   5.168   7.009
 6080WAT      O25025   3.224   5.253   7.337
 6080WAT     H125026   3.211   5.167   7.332
 6080WAT     H225027   3.167   5.279   7.398
 6080WAT    EPW25028   3.214   5.244   7.345
 6081WAT      O25029   4.178   5.428   7.233
 6081WAT     H125030   4.115   5.385   7.191
 6081WAT     H225031   4.192   5.499   7.184
 6081WAT    EPW25032   4.171   5.433   7.220
 6082WAT      O25033   4.202   5.091   7.123
 6082WAT     H125034   4.130   5.078   7.076
 6082WAT     H225035   4.262   5.112   7.064
 6082WAT    EPW25036   4.200   5.092   7.108
 6083WAT      O25037   4.871   6.709   7.499
 6083WAT     H125038   4.830   6.786   7.494
 6083WAT     H225039   4.810   6.651   7.475
 6083WAT    EPW25040   4.856   6.712   7.495
 6084WAT      O25041   3.925   5.417   7.661
 6084WAT     H125042   3.978   5.455   7.602
 6084WAT     H225043   3.950   5.453   7.736
 6084WAT    EPW25044   3.937   5.428   7.663
 6085WAT      O25045   4.584   6.284   7.498
 6085WAT     H125046   4.644   6.222   7.487
 6085WAT     H225047   4.512   6.239   7.517
 6085WAT    EPW25048   4.582   6.268   7.499
 6086WAT      O25049   3.547   4.974   7.582
 6086WAT     H125050   3.577   5.052   7.555
 6086WAT     H225051   3.523   4.934   7.509
 6086WAT    EPW25052   3.548   4.980   7.567
 6087WAT      O25053   4.527   4.959   7.484
 6087WAT     H125054   4.532   4.948   7.571
 6087WAT     H225055   4.555   4.882   7.453
 6087WAT    EPW25056   4.532   4.946   7.492
 6088WAT      O25057   3.479   5.338   7.642
 6088WAT     H125058   3.518   5.285   7.585
 6088WAT     H225059   3.412   5.290   7.672
 6088WAT    EPW25060   3.475   5.323   7.638
 6089WAT      O25061   4.789   6.077   7.052
 6089WAT     H125062   4.780   6.022   7.119
 6089WAT     H225063   4.875   6.083   7.041
 6089WAT    EPW25064   4.800   6.069   7.060
 6090WAT      O25065   3.623   6.051   7.535
 6090WAT     H125066   3.673   6.024   7.469
 6090WAT     H225067   3.574   5.981   7.553
 6090WAT    EPW25068   3.623   6.037   7.528
 6091WAT      O25069   3.414   6.650   7.755
 6091WAT     H125070   3.341   6.634   7.711
 6091WAT     H225071   3.464   6.694   7.698
 6091WAT    EPW25072   3.411   6.654   7.740
 6092WAT      O25073   4.569   5.715   6.935
 6092WAT     H125074   4.571   5.801   6.923
 6092WAT     H225075   4.495   5.702   6.979
 6092WAT    EPW25076   4.558   5.725   6.940
 6093WAT      O25077   3.713   6.031   7.259
 6093WAT     H125078   3.717   6.117   7.270
 6093WAT     H225079   3.780   6.013   7.207
 6093WAT    EPW25080   3.723   6.041   7.253
 6094WAT      O25081   4.923   5.211   6.931
 6094WAT     H125082   4.970   5.162   6.875
 6094WAT     H225083   4.877   5.264   6.878
 6094WAT    EPW25084   4.923   5.211   6.915
 6095WAT      O25085   3.253   6.168   7.713
 6095WAT     H125086   3.211   6.234   7.751
 6095WAT     H225087   3.337   6.191   7.719
 6095WAT    EPW25088   3.259   6.181   7.720
 6096WAT      O25089   3.329   5.867   7.239
 6096WAT     H125090   3.286   5.792   7.250
 6096WAT     H225091   3.288   5.922   7.293
 6096WAT    EPW25092   3.317   5.864   7.249
 6097WAT      O25093   4.810   5.106   7.166
 6097WAT     H125094   4.881   5.062   7.191
 6097WAT     H225095   4.837   5.150   7.095
 6097WAT    EPW25096   4.825   5.106   7.159
 6098WAT      O25097   4.149   6.415   7.666
 6098WAT     H125098   4.113   6.494   7.654
 6098WAT     H225099   4.190   6.400   7.591
 6098WAT    EPW25100   4.150   6.424   7.653
 6099WAT      O25101   3.100   6.302   7.293
 6099WAT     H125102   3.162   6.344   7.337
 6099WAT     H225103   3.061   6.252   7.354
 6099WAT    EPW25104   3.103   6.301   7.308
 6100WAT      O25105   4.466   5.365   7.681
 6100WAT     H125106   4.485   5.310   7.746
 6100WAT     H225107   4.401   5.324   7.639
 6100WAT    EPW25108   4.459   5.351   7.685
 6101WAT      O25109   3.155   6.176   7.051
 6101WAT     H125110   3.242   6.168   7.052
 6101WAT     H225111   3.138   6.217   7.126
 6101WAT    EPW25112   3.166   6.181   7.062
 6102WAT      O25113   3.201   5.895   7.748
 6102WAT     H125114   3.261   5.870   7.691
 6102WAT     H225115   3.220   5.979   7.763
 6102WAT    EPW25116   3.212   5.904   7.742
 6103WAT      O25117   3.950   5.308   7.100
 6103WAT     H125118   3.949   5.247   7.038
 6103WAT     H225119   3.907   5.375   7.063
 6103WAT    EPW25120   3.943   5.309   7.085
 6104WAT      O25121   3.687   6.368   7.553
 6104WAT     H125122   3.700   6.450   7.578
 6104WAT     H225123   3.753   6.325   7.591
 6104WAT    EPW25124   3.699   6.373   7.562
 6105WAT      O25125   3.548   5.536   7.083
 6105WAT     H125126   3.527   5.473   7.140
 6105WAT     H225127   3.499   5.518   7.013
 6105WAT    EPW25128   3.538   5.524   7.081
 6106WAT      O25129   3.526   5.711   7.809
 6106WAT     H125130   3.452   5.665   7.817
 6106WAT     H225131   3.579   5.656   7.768
 6106WAT    EPW25132   3.523   5.696   7.804
 6107WAT      O25133   4.430   5.306   7.246
 6107WAT     H125134   4.487   5.369   7.267
 6107WAT     H225135   4.355   5.349   7.235
 6107WAT    EPW25136   4.427   5.322   7.247
 6108WAT      O25137   4.783   6.080   7.464
 6108WAT     H125138   4.794   6.033   7.537
 6108WAT     H225139   4.760   6.020   7.405
 6108WAT    EPW25140   4.781   6.064   7.466
 6109WAT      O25141   4.258   6.221   7.840
 6109WAT     H125142   4.228   6.292   7.798
 6109WAT     H225143   4.269   6.249   7.922
 6109WAT    EPW25144   4.255   6.236   7.846
 6110WAT      O25145   3.779   6.584   7.273
 6110WAT     H125146   3.783   6.500   7.299
 6110WAT     H225147   3.839   6.588   7.210
 6110WAT    EPW25148   3.788   6.572   7.267
 6111WAT      O25149   3.692   4.993   7.027
 6111WAT     H125150   3.648   4.955   7.093
 6111WAT     H225151   3.645   5.064   7.009
 6111WAT    EPW25152   3.679   4.998   7.034
 6112WAT      O25153   3.990   6.592   7.095
 6112WAT     H125154   4.051   6.604   7.156
 6112WAT     H225155   3.985   6.669   7.055
 6112WAT    EPW25156   3.998   6.605   7.098
 6113WAT      O25157   3.178   4.972   7.330
 6113WAT     H125158   3.255   4.939   7.305
 6113WAT     H225159   3.152   4.917   7.392
 6113WAT    EPW25160   3.186   4.959   7.335
 6114WAT      O25161   3.974   5.769   7.426
 6114WAT     H125162   4.020   5.838   7.451
 6114WAT     H225163   4.023   5.701   7.450
 6114WAT    EPW25164   3.988   5.769   7.433
 6115WAT      O25165   3.549   5.222   6.973
 6115WAT     H125166   3.486   5.213   6.914
 6115WAT     H225167   3.618   5.248   6.925
 6115WAT    EPW25168   3.550   5.224   6.957
 6116WAT      O25169   4.042   6.049   7.806
 6116WAT     H125170   4.011   6.023   7.884
 6116WAT     H225171   4.111   6.097   7.827
 6116WAT    EPW25172   4.048   6.052   7.821
 6117WAT      O25173   3.658   6.613   6.897
 6117WAT     H125174   3.671   6.541   6.944
 6117WAT     H225175   3.662   6.677   6.956
 6117WAT    EPW25176   3.660   6.612   6.912
 6118WAT      O25177   3.670   5.537   7.640
 6118WAT     H125178   3.748   5.498   7.640
 6118WAT     H225179   3.614   5.470   7.647
 6118WAT    EPW25180   3.673   5.521   7.641
 6119WAT      O25181   4.996   6.659   7.069
 6119WAT     H125182   5.065   6.611   7.046
 6119WAT     H225183   4.945   6.602   7.111
 6119WAT    EPW25184   4.999   6.644   7.072
 6120WAT      O25185   3.217   5.615   7.281
 6120WAT     H125186   3.239   5.574   7.355
 6120WAT     H225187   3.220   5.552   7.221
 6120WAT    EPW25188   3.221   5.599   7.283
 6121WAT      O25189   3.677   5.760   6.885
 6121WAT     H125190   3.728   5.695   6.913
 6121WAT     H225191   3.635   5.725   6.817
 6121WAT    EPW25192   3.678   5.745   6.879
 6122WAT      O25193   4.846   5.954   7.704
 6122WAT     H125194   4.846   6.021   7.760
 6122WAT     H225195   4.929   5.927   7.705
 6122WAT    EPW25196   4.859   5.960   7.713
 6123WAT      O25197   3.813   5.541   6.998
 6123WAT     H125198   3.844   5.596   7.058
 6123WAT     H225199   3.733   5.523   7.027
 6123WAT    EPW25200   3.806   5.546   7.011
 6124WAT      O25201   3.240   5.217   7.714
 6124WAT     H125202   3.172   5.240   7.664
 6124WAT     H225203   3.232   5.130   7.720
 6124WAT    EPW25204   3.229   5.207   7.707
 6125WAT      O25205   5.068   6.414   7.874
 6125WAT     H125206   5.066   6.462   7.801
 6125WAT     H225207   5.144   6.435   7.911
 6125WAT    EPW25208   5.079   6.424   7.869
 6126WAT      O25209   4.667   6.325   7.051
 6126WAT     H125210   4.700   6.244   7.055
 6126WAT     H225211   4.592   6.320   7.095
 6126WAT    EPW25212   4.661   6.312   7.058
 6127WAT      O25213   4.711   5.471   7.574
 6127WAT     H125214   4.642   5.433   7.612
 6127WAT     H225215   4.712   5.551   7.610
 6127WAT    EPW25216   4.701   5.477   7.585
 6128WAT      O25217   4.370   6.135   6.988
 6128WAT     H125218   4.437   6.080   6.976
 6128WAT     H225219   4.334   6.141   6.908
 6128WAT    EPW25220   4.374   6.128   6.974
 6129WAT      O25221   4.023   6.651   7.562
 6129WAT     H125222   4.014   6.738   7.569
 6129WAT     H225223   4.039   6.640   7.477
 6129WAT    EPW25224   4.024   6.662   7.550
 6130WAT      O25225   4.831   5.628   6.922
 6130WAT     H125226   4.876   5.691   6.882
 6130WAT     H225227   4.749   5.657   6.920
 6130WAT    EPW25228   4.825   5.641   6.916
 6131WAT      O25229   3.902   5.994   7.058
 6131WAT     H125230   3.862   6.037   6.993
 6131WAT     H225231   3.979   6.035   7.065
 6131WAT    EPW25232   3.908   6.006   7.049
 6132WAT      O25233   4.597   5.519   7.325
 6132WAT     H125234   4.633   5.502   7.403
 6132WAT     H225235   4.664   5.549   7.278
 6132WAT    EPW25236   4.613   5.521   7.329
 6133WAT      O25237   4.758   5.109   7.441
 6133WAT     H125238   4.679   5.074   7.454
 6133WAT     H225239   4.760   5.122   7.355
 6133WAT    EPW25240   4.746   5.106   7.430
 6134WAT      O25241   4.723   5.899   7.261
 6134WAT     H125242   4.764   5.823   7.247
 6134WAT     H225243   4.639   5.876   7.268
 6134WAT    EPW25244   4.717   5.884   7.260
 6135WAT      O25245   3.478   5.313   7.235
 6135WAT     H125246   3.488   5.266   7.162
 6135WAT     H225247   3.396   5.294   7.259
 6135WAT    EPW25248   3.467   5.303   7.228
 6136WAT      O25249   4.364   6.112   7.590
 6136WAT     H125250   4.349   6.135   7.673
 6136WAT     H225251   4.398   6.032   7.597
 6136WAT    EPW25252   4.366   6.104   7.604
 6137WAT      O25253   4.107   6.007   7.523
 6137WAT     H125254   4.074   6.013   7.604
 6137WAT     H225255   4.189   6.036   7.532
 6137WAT    EPW25256   4.114   6.012   7.537
 6138WAT      O25257   4.555   6.682   7.722
 6138WAT     H125258   4.519   6.603   7.732
 6138WAT     H225259   4.641   6.666   7.731
 6138WAT    EPW25260   4.563   6.668   7.725
 6139WAT      O25261   4.813   5.643   7.202
 6139WAT     H125262   4.819   5.638   7.115
 6139WAT     H225263   4.892   5.620   7.230
 6139WAT    EPW25264   4.826   5.639   7.193
 6140WAT      O25265   4.246   6.378   7.406
 6140WAT     H125266   4.225   6.456   7.373
 6140WAT     H225267   4.177   6.328   7.386
 6140WAT    EPW25268   4.233   6.382   7.399
 6141WAT      O25269   3.378   5.483   6.862
 6141WAT     H125270   3.311   5.482   6.918
 6141WAT     H225271   3.376   5.404   6.826
 6141WAT    EPW25272   3.368   5.471   6.865
 6142WAT      O25273   4.236   5.267   7.547
 6142WAT     H125274   4.164   5.225   7.573
 6142WAT     H225275   4.205   5.343   7.517
 6142WAT    EPW25276   4.221   5.272   7.546
 6143WAT      O25277   3.673   6.369   7.041
 6143WAT     H125278   3.713   6.362   7.118
 6143WAT     H225279   3.594   6.333   7.055
 6143WAT    EPW25280   3.667   6.363   7.054
 6144WAT      O25281   4.678   5.728   7.679
 6144WAT     H125282   4.736   5.792   7.693
 6144WAT     H225283   4.609   5.771   7.646
 6144WAT    EPW25284   4.677   5.744   7.676
 6145WAT      O25285   4.661   6.541   7.409
 6145WAT     H125286   4.633   6.464   7.438
 6145WAT     H225287   4.709   6.520   7.339
 6145WAT    EPW25288   4.664   6.527   7.403
 6146WAT      O25289   3.439   6.220   7.083
 6146WAT     H125290   3.444   6.215   7.169
 6146WAT     H225291   3.472   6.144   7.056
 6146WAT    EPW25292   3.445   6.208   7.091
 6147WAT      O25293   3.753   6.153   6.883
 6147WAT     H125294   3.678   6.109   6.894
 6147WAT     H225295   3.739   6.227   6.927
 6147WAT    EPW25296   3.740   6.157   6.891
 6148WAT      O25297   3.966   5.026   6.987
 6148WAT     H125298   3.979   5.022   6.901
 6148WAT     H225299   3.879   5.019   6.994
 6148WAT    EPW25300   3.955   5.025   6.975
 6149WAT      O25301   4.328   5.611   7.662
 6149WAT     H125302   4.383   5.544   7.670
 6149WAT     H225303   4.303   5.627   7.745
 6149WAT    EPW25304   4.332   5.603   7.676
 6150WAT      O25305   3.318   5.530   7.526
 6150WAT     H125306   3.289   5.563   7.601
 6150WAT     H225307   3.361   5.458   7.549
 6150WAT    EPW25308   3.320   5.524   7.540
 6151WAT      O25309   4.476   5.773   7.309
 6151WAT     H125310   4.507   5.692   7.312
 6151WAT     H225311   4.412   5.769   7.249
 6151WAT    EPW25312   4.471   5.761   7.301
 6152WAT      O25313   3.509   6.648   7.287
 6152WAT     H125314   3.497   6.702   7.219
 6152WAT     H225315   3.593   6.626   7.282
 6152WAT    EPW25316   3.519   6.653   7.276
 6153WAT      O25317   3.853   5.746   7.177
 6153WAT     H125318   3.891   5.811   7.133
 6153WAT     H225319   3.892   5.749   7.255
 6153WAT    EPW25320   3.864   5.756   7.182
 6154WAT      O25321   4.791   6.704   6.883
 6154WAT     H125322   4.859   6.697   6.936
 6154WAT     H225323   4.776   6.622   6.857
 6154WAT    EPW25324   4.798   6.691   6.887
 6155WAT      O25325   4.425   6.334   7.182
 6155WAT     H125326   4.386   6.324   7.260
 6155WAT     H225327   4.391   6.269   7.134
 6155WAT    EPW25328   4.414   6.323   7.187
 6156WAT      O25329   3.423   6.434   7.936
 6156WAT     H125330   3.463   6.373   7.887
 6156WAT     H225331   3.433   6.507   7.889
 6156WAT    EPW25332   3.430   6.436   7.922
 6157WAT      O25333   4.114   6.169   7.085
 6157WAT     H125334   4.192   6.139   7.062
 6157WAT     H225335   4.101   6.237   7.031
 6157WAT    EPW25336   4.124   6.175   7.074
 6158WAT      O25337   4.302   5.790   5.969
 6158WAT     H125338   4.231   5.816   6.014
 6158WAT     H225339   4.324   5.715   6.007
 6158WAT    EPW25340   4.295   5.783   5.981
 6159WAT      O25341   3.227   6.081   5.522
 6159WAT     H125342   3.164   6.084   5.582
 6159WAT     H225343   3.226   5.998   5.495
 6159WAT    EPW25344   3.218   6.069   5.527
 6160WAT      O25345   4.793   6.501   5.338
 6160WAT     H125346   4.854   6.447   5.368
 6160WAT     H225347   4.747   6.451   5.283
 6160WAT    EPW25348   4.795   6.486   5.334
 6161WAT      O25349   3.441   6.002   5.096
 6161WAT     H125350   3.427   5.962   5.020
 6161WAT     H225351   3.455   5.936   5.152
 6161WAT    EPW25352   3.441   5.986   5.093
 6162WAT      O25353   4.388   5.716   5.586
 6162WAT     H125354   4.412   5.718   5.502
 6162WAT     H225355   4.328   5.653   5.589
 6162WAT    EPW25356   4.383   5.707   5.574
 6163WAT      O25357   3.482   6.194   5.465
 6163WAT     H125358   3.544   6.133   5.459
 6163WAT     H225359   3.411   6.149   5.491
 6163WAT    EPW25360   3.480   6.179   5.468
 6164WAT      O25361   3.318   6.463   5.047
 6164WAT     H125362   3.368   6.476   4.976
 6164WAT     H225363   3.368   6.411   5.097
 6164WAT    EPW25364   3.333   6.457   5.044
 6165WAT      O25365   3.230   6.322   6.211
 6165WAT     H125366   3.262   6.305   6.290
 6165WAT     H225367   3.158   6.272   6.206
 6165WAT    EPW25368   3.224   6.312   6.222
 6166WAT      O25369   3.852   6.177   6.627
 6166WAT     H125370   3.827   6.164   6.710
 6166WAT     H225371   3.782   6.151   6.581
 6166WAT    EPW25372   3.838   6.171   6.632
 6167WAT      O25373   3.459   5.823   5.648
 6167WAT     H125374   3.395   5.840   5.591
 6167WAT     H225375   3.482   5.741   5.628
 6167WAT    EPW25376   3.453   5.813   5.637
 6168WAT      O25377   3.851   6.445   6.365
 6168WAT     H125378   3.859   6.516   6.315
 6168WAT     H225379   3.933   6.424   6.384
 6168WAT    EPW25380   3.864   6.452   6.360
 6169WAT      O25381   3.555   5.604   5.489
 6169WAT     H125382   3.630   5.560   5.498
 6169WAT     H225383   3.498   5.543   5.466
 6169WAT    EPW25384   3.558   5.588   5.487
 6170WAT      O25385   4.000   6.287   5.818
 6170WAT     H125386   4.050   6.236   5.868
 6170WAT     H225387   4.058   6.337   5.775
 6170WAT    EPW25388   4.016   6.287   5.819
 6171WAT      O25389   3.954   6.152   5.360
 6171WAT     H125390   3.997   6.104   5.419
 6171WAT     H225391   3.988   6.125   5.284
 6171WAT    EPW25392   3.966   6.141   5.358
 6172WAT      O25393   4.125   5.720   6.509
 6172WAT     H125394   4.042   5.695   6.511
 6172WAT     H225395   4.139   5.752   6.589
 6172WAT    EPW25396   4.115   5.721   6.521
 6173WAT      O25397   4.597   4.912   6.453
 6173WAT     H125398   4.583   4.988   6.412
 6173WAT     H225399   4.531   4.906   6.509
 6173WAT    EPW25400   4.585   4.922   6.455
 6174WAT      O25401   3.146   5.620   5.948
 6174WAT     H125402   3.098   5.689   5.924
 6174WAT     H225403   3.092   5.575   6.000
 6174WAT    EPW25404   3.131   5.624   5.952
 6175WAT      O25405   3.226   6.560   5.760
 6175WAT     H125406   3.160   6.599   5.719
 6175WAT     H225407   3.262   6.511   5.697
 6175WAT    EPW25408   3.221   6.558   5.744
 6176WAT      O25409   3.762   6.345   5.421
 6176WAT     H125410   3.743   6.322   5.503
 6176WAT     H225411   3.824   6.288   5.397
 6176WAT    EPW25412   3.769   6.333   5.430
 6177WAT      O25413   4.410   6.568   5.187
 6177WAT     H125414   4.482   6.616   5.200
 6177WAT     H225415   4.434   6.488   5.213
 6177WAT    EPW25416   4.424   6.563   5.193
 6178WAT      O25417   4.240   6.623   5.392
 6178WAT     H125418   4.197   6.695   5.366
 6178WAT     H225419   4.292   6.605   5.324
 6178WAT    EPW25420   4.241   6.631   5.378
 6179WAT      O25421   3.502   4.998   5.840
 6179WAT     H125422   3.454   5.014   5.769
 6179WAT     H225423   3.584   5.011   5.812
 6179WAT    EPW25424   3.507   5.003   5.825
 6180WAT      O25425   3.778   5.256   6.816
 6180WAT     H125426   3.778   5.198   6.751
 6180WAT     H225427   3.825   5.323   6.785
 6180WAT    EPW25428   3.785   5.258   6.802
 6181WAT      O25429   3.341   6.435   5.532
 6181WAT     H125430   3.404   6.375   5.525
 6181WAT     H225431   3.376   6.505   5.491
 6181WAT    EPW25432   3.356   6.437   5.525
 6182WAT      O25433   4.910   5.227   5.629
 6182WAT     H125434   4.860   5.298   5.631
 6182WAT     H225435   4.853   5.162   5.620
 6182WAT    EPW25436   4.894   5.228   5.628
 6183WAT      O25437   4.399   6.595   6.200
 6183WAT     H125438   4.467   6.649   6.188
 6183WAT     H225439   4.373   6.577   6.119
 6183WAT    EPW25440   4.405   6.601   6.186
 6184WAT      O25441   3.363   5.223   6.760
 6184WAT     H125442   3.283   5.193   6.744
 6184WAT     H225443   3.410   5.189   6.694
 6184WAT    EPW25444   3.358   5.213   6.748
 6185WAT      O25445   3.500   6.310   5.852
 6185WAT     H125446   3.569   6.298   5.800
 6185WAT     H225447   3.512   6.253   5.916
 6185WAT    EPW25448   3.512   6.300   5.854
 6186WAT      O25449   3.751   6.571   5.747
 6186WAT     H125450   3.828   6.602   5.720
 6186WAT     H225451   3.693   6.628   5.715
 6186WAT    EPW25452   3.754   6.584   5.738
 6187WAT      O25453   4.024   5.021   6.712
 6187WAT     H125454   4.048   4.951   6.665
 6187WAT     H225455   3.954   5.051   6.671
 6187WAT    EPW25456   4.017   5.015   6.699
 6188WAT      O25457   4.603   6.770   5.208
 6188WAT     H125458   4.656   6.748   5.142
 6188WAT     H225459   4.657   6.811   5.263
 6188WAT    EPW25460   4.619   6.773   5.206
 6189WAT      O25461   3.618   6.688   6.398
 6189WAT     H125462   3.665   6.655   6.463
 6189WAT     H225463   3.557   6.627   6.383
 6189WAT    EPW25464   3.616   6.674   6.405
 6190WAT      O25465   4.947   5.300   6.136
 6190WAT     H125466   4.982   5.277   6.059
 6190WAT     H225467   4.952   5.228   6.184
 6190WAT    EPW25468   4.953   5.286   6.132
 6191WAT      O25469   3.105   5.336   6.470
 6191WAT     H125470   3.102   5.405   6.524
 6191WAT     H225471   3.164   5.359   6.410
 6191WAT    EPW25472   3.114   5.349   6.469
 6192WAT      O25473   4.331   6.416   6.577
 6192WAT     H125474   4.319   6.432   6.662
 6192WAT     H225475   4.417   6.404   6.571
 6192WAT    EPW25476   4.342   6.416   6.589
 6193WAT      O25477   4.099   6.354   5.005
 6193WAT     H125478   4.055   6.405   5.060
 6193WAT     H225479   4.170   6.400   4.985
 6193WAT    EPW25480   4.103   6.368   5.010
 6194WAT      O25481   4.365   5.118   5.031
 6194WAT     H125482   4.399   5.077   5.101
 6194WAT     H225483   4.283   5.090   5.029
 6194WAT    EPW25484   4.358   5.108   5.041
 6195WAT      O25485   3.392   6.556   6.248
 6195WAT     H125486   3.337   6.489   6.243
 6195WAT     H225487   3.435   6.553   6.172
 6195WAT    EPW25488   3.390   6.546   6.236
 6196WAT      O25489   4.175   6.707   6.316
 6196WAT     H125490   4.250   6.675   6.284
 6196WAT     H225491   4.115   6.679   6.260
 6196WAT    EPW25492   4.177   6.698   6.303
 6197WAT      O25493   4.790   6.723   5.682
 6197WAT     H125494   4.730   6.785   5.672
 6197WAT     H225495   4.748   6.651   5.655
 6197WAT    EPW25496   4.775   6.721   5.676
 6198WAT      O25497   4.598   6.253   5.658
 6198WAT     H125498   4.654   6.191   5.633
 6198WAT     H225499   4.520   6.215   5.647
 6198WAT    EPW25500   4.595   6.239   5.652
 6199WAT      O25501   3.595   6.391   6.496
 6199WAT     H125502   3.674   6.417   6.467
 6199WAT     H225503   3.585   6.434   6.571
 6199WAT    EPW25504   3.606   6.401   6.502
 6200WAT      O25505   3.668   5.897   5.941
 6200WAT     H125506   3.727   5.908   6.004
 6200WAT     H225507   3.635   5.818   5.958
 6200WAT    EPW25508   3.672   5.887   5.953
 6201WAT      O25509   4.322   5.335   6.293
 6201WAT     H125510   4.311   5.381   6.367
 6201WAT     H225511   4.260   5.275   6.297
 6201WAT    EPW25512   4.311   5.333   6.305
 6202WAT      O25513   3.828   5.978   6.153
 6202WAT     H125514   3.820   6.064   6.166
 6202WAT     H225515   3.804   5.943   6.229
 6202WAT    EPW25516   3.823   5.985   6.166
 6203WAT      O25517   4.428   6.047   6.215
 6203WAT     H125518   4.359   6.011   6.255
 6203WAT     H225519   4.404   6.131   6.205
 6203WAT    EPW25520   4.414   6.054   6.220
 6204WAT      O25521   4.438   4.900   5.488
 6204WAT     H125522   4.444   4.813   5.487
 6204WAT     H225523   4.352   4.915   5.487
 6204WAT    EPW25524   4.426   4.889   5.488
 6205WAT      O25525   3.091   6.334   6.804
 6205WAT     H125526   3.154   6.377   6.846
 6205WAT     H225527   3.088   6.257   6.845
 6205WAT    EPW25528   3.100   6.329   6.817
 6206WAT      O25529   4.781   5.451   6.384
 6206WAT     H125530   4.852   5.404   6.403
 6206WAT     H225531   4.724   5.428   6.445
 6206WAT    EPW25532   4.783   5.441   6.396
 6207WAT      O25533   4.772   6.079   5.178
 6207WAT     H125534   4.763   6.024   5.246
 6207WAT     H225535   4.858   6.081   5.164
 6207WAT    EPW25536   4.783   6.071   5.186
 6208WAT      O25537   3.413   6.744   5.852
 6208WAT     H125538   3.344   6.698   5.825
 6208WAT     H225539   3.461   6.752   5.780
 6208WAT    EPW25540   3.410   6.739   5.837
 6209WAT      O25541   3.361   5.456   6.003
 6209WAT     H125542   3.344   5.382   5.961
 6209WAT     H225543   3.297   5.509   5.978
 6209WAT    EPW25544   3.349   5.453   5.993
 6210WAT      O25545   5.026   6.508   6.589
 6210WAT     H125546   4.947   6.515   6.554
 6210WAT     H225547   5.013   6.462   6.661
 6210WAT    EPW25548   5.013   6.502   6.594
 6211WAT      O25549   4.570   5.722   5.045
 6211WAT     H125550   4.572   5.808   5.030
 6211WAT     H225551   4.535   5.716   5.125
 6211WAT    EPW25552   4.565   5.734   5.054
 6212WAT      O25553   3.710   6.005   5.422
 6212WAT     H125554   3.780   6.052   5.398
 6212WAT     H225555   3.705   5.943   5.361
 6212WAT    EPW25556   3.720   6.003   5.409
 6213WAT      O25557   3.242   6.201   5.815
 6213WAT     H125558   3.187   6.255   5.857
 6213WAT     H225559   3.318   6.244   5.815
 6213WAT    EPW25560   3.245   6.215   5.821
 6214WAT      O25561   3.919   5.486   6.737
 6214WAT     H125562   3.885   5.526   6.807
 6214WAT     H225563   3.892   5.534   6.670
 6214WAT    EPW25564   3.910   5.499   6.738
 6215WAT      O25565   5.053   5.635   6.302
 6215WAT     H125566   5.113   5.572   6.303
 6215WAT     H225567   5.010   5.621   6.227
 6215WAT    EPW25568   5.055   5.624   6.291
 6216WAT      O25569   3.273   5.826   5.437
 6216WAT     H125570   3.203   5.775   5.422
 6216WAT     H225571   3.330   5.802   5.376
 6216WAT    EPW25572   3.271   5.815   5.426
 6217WAT      O25573   4.720   5.078   5.273
 6217WAT     H125574   4.792   5.030   5.284
 6217WAT     H225575   4.657   5.019   5.263
 6217WAT    EPW25576   4.722   5.062   5.274
 6218WAT      O25577   4.179   6.465   5.696
 6218WAT     H125578   4.124   6.530   5.679
 6218WAT     H225579   4.186   6.424   5.620
 6218WAT    EPW25580   4.172   6.468   5.683
 6219WAT      O25581   3.179   6.293   5.355
 6219WAT     H125582   3.230   6.349   5.399
 6219WAT     H225583   3.179   6.222   5.405
 6219WAT    EPW25584   3.186   6.291   5.369
 6220WAT      O25585   3.548   6.129   6.052
 6220WAT     H125586   3.609   6.165   6.102
 6220WAT     H225587   3.588   6.058   6.019
 6220WAT    EPW25588   3.563   6.124   6.054
 6221WAT      O25589   3.176   6.136   5.117
 6221WAT     H125590   3.250   6.089   5.116
 6221WAT     H225591   3.189   6.191   5.184
 6221WAT    EPW25592   3.189   6.137   5.127
 6222WAT      O25593   3.264   5.930   5.856
 6222WAT     H125594   3.323   5.897   5.801
 6222WAT     H225595   3.263   6.015   5.836
 6222WAT    EPW25596   3.273   5.937   5.845
 6223WAT      O25597   4.784   6.555   6.448
 6223WAT     H125598   4.729   6.620   6.463
 6223WAT     H225599   4.807   6.566   6.364
 6223WAT    EPW25600   4.779   6.566   6.437
 6224WAT      O25601   3.742   6.298   5.700
 6224WAT     H125602   3.738   6.385   5.710
 6224WAT     H225603   3.821   6.277   5.732
 6224WAT    EPW25604   3.753   6.308   5.706
 6225WAT      O25605   3.504   5.657   6.684
 6225WAT     H125606   3.461   5.598   6.731
 6225WAT     H225607   3.509   5.621   6.605
 6225WAT    EPW25608   3.498   5.643   6.679
 6226WAT      O25609   3.588   5.626   5.992
 6226WAT     H125610   3.516   5.576   5.985
 6226WAT     H225611   3.653   5.569   5.987
 6226WAT    EPW25612   3.587   5.610   5.990
 6227WAT      O25613   3.524   5.756   6.230
 6227WAT     H125614   3.546   5.712   6.158
 6227WAT     H225615   3.464   5.813   6.202
 6227WAT    EPW25616   3.518   5.758   6.215
 6228WAT      O25617   4.617   5.535   6.023
 6228WAT     H125618   4.537   5.545   6.057
 6228WAT     H225619   4.607   5.563   5.941
 6228WAT    EPW25620   4.604   5.541   6.016
 6229WAT      O25621   3.957   6.638   6.159
 6229WAT     H125622   3.934   6.568   6.112
 6229WAT     H225623   3.943   6.704   6.104
 6229WAT    EPW25624   3.952   6.637   6.144
 6230WAT      O25625   4.151   5.122   6.342
 6230WAT     H125626   4.164   5.040   6.314
 6230WAT     H225627   4.181   5.120   6.424
 6230WAT    EPW25628   4.157   5.109   6.350
 6231WAT      O25629   3.363   5.886   6.763
 6231WAT     H125630   3.361   5.940   6.695
 6231WAT     H225631   3.408   5.818   6.733
 6231WAT    EPW25632   3.370   5.884   6.749
 6232WAT      O25633   4.531   6.107   6.636
 6232WAT     H125634   4.563   6.185   6.614
 6232WAT     H225635   4.559   6.055   6.572
 6232WAT    EPW25636   4.540   6.111   6.623
 6233WAT      O25637   3.963   6.431   6.671
 6233WAT     H125638   3.996   6.418   6.750
 6233WAT     H225639   3.928   6.353   6.650
 6233WAT    EPW25640   3.963   6.417   6.679
 6234WAT      O25641   4.239   5.708   5.131
 6234WAT     H125642   4.251   5.753   5.058
 6234WAT     H225643   4.172   5.655   5.112
 6234WAT    EPW25644   4.231   5.707   5.118
 6235WAT      O25645   4.747   6.027   5.601
 6235WAT     H125646   4.834   6.024   5.591
 6235WAT     H225647   4.718   5.984   5.530
 6235WAT    EPW25648   4.756   6.020   5.589
 6236WAT      O25649   4.322   6.473   5.945
 6236WAT     H125650   4.270   6.461   5.875
 6236WAT     H225651   4.383   6.527   5.915
 6236WAT    EPW25652   4.323   6.479   5.930
 6237WAT      O25653   4.408   6.037   5.895
 6237WAT     H125654   4.337   6.081   5.921
 6237WAT     H225655   4.392   5.955   5.918
 6237WAT    EPW25656   4.395   6.032   5.902
 6238WAT      O25657   3.847   6.605   5.411
 6238WAT     H125658   3.808   6.528   5.421
 6238WAT     H225659   3.788   6.653   5.369
 6238WAT    EPW25660   3.832   6.601   5.406
 6239WAT      O25661   3.956   6.522   5.173
 6239WAT     H125662   3.932   6.543   5.254
 6239WAT     H225663   3.965   6.600   5.134
 6239WAT    EPW25664   3.954   6.537   5.179
 6240WAT      O25665   4.596   5.952   6.412
 6240WAT     H125666   4.552   5.988   6.346
 6240WAT     H225667   4.679   5.974   6.395
 6240WAT    EPW25668   4.602   5.961   6.399
 6241WAT      O25669   4.313   6.535   6.841
 6241WAT     H125670   4.341   6.556   6.921
 6241WAT     H225671   4.338   6.604   6.793
 6241WAT    EPW25672   4.321   6.548   6.846
 6242WAT      O25673   4.824   4.961   6.610
 6242WAT     H125674   4.752   4.952   6.562
 6242WAT     H225675   4.804   4.919   6.684
 6242WAT    EPW25676   4.810   4.954   6.614
 6243WAT      O25677   3.474   5.751   5.260
 6243WAT     H125678   3.444   5.685   5.211
 6243WAT     H225679   3.513   5.710   5.327
 6243WAT    EPW25680   3.475   5.735   5.263
 6244WAT      O25681   4.207   5.937   6.351
 6244WAT     H125682   4.173   5.998   6.403
 6244WAT     H225683   4.192   5.862   6.394
 6244WAT    EPW25684   4.200   5.935   6.365
 6245WAT      O25685   4.632   6.214   5.940
 6245WAT     H125686   4.638   6.230   5.854
 6245WAT     H225687   4.568   6.155   5.944
 6245WAT    EPW25688   4.623   6.208   5.928
 6246WAT      O25689   3.968   5.802   5.732
 6246WAT     H125690   3.969   5.722   5.698
 6246WAT     H225691   4.032   5.800   5.791
 6246WAT    EPW25692   3.978   5.790   5.736
 6247WAT      O25693   3.690   6.590   4.915
 6247WAT     H125694   3.706   6.519   4.963
 6247WAT     H225695   3.679   6.652   4.975
 6247WAT    EPW25696   3.691   6.588   4.931
 6248WAT      O25697   3.349   5.947   6.122
 6248WAT     H125698   3.399   6.018   6.111
 6248WAT     H225699   3.317   5.932   6.042
 6248WAT    EPW25700   3.352   5.955   6.109
 6249WAT      O25701   4.974   6.641   5.172
 6249WAT     H125702   5.046   6.594   5.154
 6249WAT     H225703   4.929   6.590   5.226
 6249WAT    EPW25704   4.978   6.626   5.177
 6250WAT      O25705   4.643   5.878   6.100
 6250WAT     H125706   4.665   5.884   6.015
 6250WAT     H225707   4.572   5.929   6.106
 6250WAT    EPW25708   4.636   5.886   6.088
 6251WAT      O25709   3.363   6.046   6.540
 6251WAT     H125710   3.316   6.000   6.482
 6251WAT     H225711   3.337   6.128   6.526
 6251WAT    EPW25712   3.352   6.051   6.529
 6252WAT      O25713   4.744   5.871   5.833
 6252WAT     H125714   4.730   5.924   5.765
 6252WAT     H225715   4.830   5.872   5.843
 6252WAT    EPW25716   4.754   5.879   5.824
 6253WAT      O25717   4.607   5.346   6.577
 6253WAT     H125718   4.540   5.340   6.633
 6253WAT     H225719   4.588   5.287   6.516
 6253WAT    EPW25720   4.594   5.337   6.576
 6254WAT      O25721   3.286   5.198   5.891
 6254WAT     H125722   3.277   5.175   5.807
 6254WAT     H225723   3.351   5.146   5.919
 6254WAT    EPW25724   3.295   5.187   5.883
 6255WAT      O25725   4.956   6.440   5.934
 6255WAT     H125726   4.991   6.500   5.880
 6255WAT     H225727   4.998   6.454   6.009
 6255WAT    EPW25728   4.968   6.451   5.937
 6256WAT      O25729   4.460   5.687   6.683
 6256WAT     H125730   4.495   5.682   6.762
 6256WAT     H225731   4.389   5.736   6.694
 6256WAT    EPW25732   4.455   5.694   6.696
 6257WAT      O25733   4.719   5.708   6.566
 6257WAT     H125734   4.736   5.790   6.589
 6257WAT     H225735   4.638   5.695   6.595
 6257WAT    EPW25736   4.709   5.718   6.574
 6258WAT      O25737   4.656   6.327   5.175
 6258WAT     H125738   4.699   6.252   5.182
 6258WAT     H225739   4.578   6.309   5.209
 6258WAT    EPW25740   4.651   6.314   5.181
 6259WAT      O25741   4.690   5.409   5.630
 6259WAT     H125742   4.628   5.351   5.651
 6259WAT     H225743   4.667   5.480   5.674
 6259WAT    EPW25744   4.677   5.411   5.640
 6260WAT      O25745   4.999   5.798   6.776
 6260WAT     H125746   5.012   5.739   6.713
 6260WAT     H225747   5.077   5.835   6.787
 6260WAT    EPW25748   5.012   5.794   6.768
 6261WAT      O25749   4.864   6.008   6.349
 6261WAT     H125750   4.945   5.977   6.341
 6261WAT     H225751   4.856   6.063   6.281
 6261WAT    EPW25752   4.875   6.012   6.338
 6262WAT      O25753   4.346   6.108   5.066
 6262WAT     H125754   4.421   6.064   5.061
 6262WAT     H225755   4.328   6.130   4.984
 6262WAT    EPW25756   4.354   6.105   5.053
 6263WAT      O25757   3.771   6.252   6.173
 6263WAT     H125758   3.786   6.298   6.246
 6263WAT     H225759   3.790   6.308   6.109
 6263WAT    EPW25760   3.776   6.267   6.174
 6264WAT      O25761   3.625   6.110   6.478
 6264WAT     H125762   3.546   6.082   6.501
 6264WAT     H225763   3.614   6.196   6.471
 6264WAT    EPW25764   3.611   6.119   6.480
 6265WAT      O25765   4.548   5.181   6.360
 6265WAT     H125766   4.597   5.203   6.292
 6265WAT     H225767   4.470   5.217   6.343
 6265WAT    EPW25768   4.543   5.190   6.348
 6266WAT      O25769   4.090   5.912   6.105
 6266WAT     H125770   4.124   5.913   6.185
 6266WAT     H225771   4.005   5.925   6.118
 6266WAT    EPW25772   4.082   5.914   6.118
 6267WAT      O25773   3.991   6.664   5.641
 6267WAT     H125774   3.980   6.748   5.661
 6267WAT     H225775   3.955   6.656   5.563
 6267WAT    EPW25776   3.984   6.675   5.633
 6268WAT      O25777   4.693   4.988   6.135
 6268WAT     H125778   4.673   5.070   6.112
 6268WAT     H225779   4.768   4.996   6.179
 6268WAT    EPW25780   4.701   5.001   6.138
 6269WAT      O25781   3.850   6.444   5.988
 6269WAT     H125782   3.802   6.492   5.934
 6269WAT     H225783   3.903   6.399   5.936
 6269WAT    EPW25784   3.851   6.444   5.972
 6270WAT      O25785   4.272   6.106   6.729
 6270WAT     H125786   4.351   6.110   6.693
 6270WAT     H225787   4.219   6.126   6.663
 6270WAT    EPW25788   4.276   6.109   6.714
 6271WAT      O25789   4.611   6.372   6.580
 6271WAT     H125790   4.646   6.393   6.657
 6271WAT     H225791   4.661   6.414   6.522
 6271WAT    EPW25792   4.623   6.382   6.583
 6272WAT      O25793   4.834   5.642   5.057
 6272WAT     H125794   4.879   5.698   5.008
 6272WAT     H225795   4.752   5.670   5.049
 6272WAT    EPW25796   4.829   5.655   5.049
 6273WAT      O25797   3.978   5.909   4.900
 6273WAT     H125798   3.964   5.828   4.929
 6273WAT     H225799   3.991   5.955   4.973
 6273WAT    EPW25800   3.978   5.904   4.915
 6274WAT      O25801   4.307   5.511   6.508
 6274WAT     H125802   4.240   5.567   6.509
 6274WAT     H225803   4.345   5.523   6.586
 6274WAT    EPW25804   4.303   5.521   6.520
 6275WAT      O25805   4.369   5.569   6.138
 6275WAT     H125806   4.388   5.616   6.209
 6275WAT     H225807   4.345   5.492   6.170
 6275WAT    EPW25808   4.368   5.565   6.153
 6276WAT      O25809   4.106   6.657   6.580
 6276WAT     H125810   4.119   6.659   6.494
 6276WAT     H225811   4.071   6.579   6.594
 6276WAT    EPW25812   4.103   6.646   6.569
 6277WAT      O25813   4.633   5.515   5.376
 6277WAT     H125814   4.645   5.472   5.451
 6277WAT     H225815   4.709   5.556   5.363
 6277WAT    EPW25816   4.646   5.515   5.385
 6278WAT      O25817   4.670   5.061   5.549
 6278WAT     H125818   4.590   5.028   5.547
 6278WAT     H225819   4.684   5.086   5.466
 6278WAT    EPW25820   4.660   5.060   5.537
 6279WAT      O25821   4.687   5.889   5.367
 6279WAT     H125822   4.745   5.823   5.364
 6279WAT     H225823   4.611   5.849   5.354
 6279WAT    EPW25824   4.684   5.873   5.365
 6280WAT      O25825   4.100   6.135   6.511
 6280WAT     H125826   4.021   6.138   6.548
 6280WAT     H225827   4.108   6.213   6.473
 6280WAT    EPW25828   4.089   6.147   6.511
 6281WAT      O25829   3.131   5.107   6.628
 6281WAT     H125830   3.129   5.179   6.579
 6281WAT     H225831   3.048   5.093   6.647
 6281WAT    EPW25832   3.119   5.116   6.623
 6282WAT      O25833   3.670   6.751   6.124
 6282WAT     H125834   3.654   6.739   6.209
 6282WAT     H225835   3.633   6.682   6.085
 6282WAT    EPW25836   3.662   6.739   6.131
 6283WAT      O25837   4.339   5.992   5.629
 6283WAT     H125838   4.364   6.005   5.712
 6283WAT     H225839   4.355   5.908   5.615
 6283WAT    EPW25840   4.345   5.982   5.639
 6284WAT      O25841   4.068   6.003   5.562
 6284WAT     H125842   4.045   5.932   5.607
 6284WAT     H225843   4.154   6.010   5.577
 6284WAT    EPW25844   4.077   5.993   5.571
 6285WAT      O25845   4.131   6.380   6.387
 6285WAT     H125846   4.191   6.401   6.446
 6285WAT     H225847   4.178   6.367   6.314
 6285WAT    EPW25848   4.147   6.381   6.385
 6286WAT      O25849   4.983   5.608   6.572
 6286WAT     H125850   4.896   5.618   6.571
 6286WAT     H225851   5.006   5.622   6.489
 6286WAT    EPW25852   4.974   5.612   6.560
 6287WAT      O25853   4.459   5.700   6.365
 6287WAT     H125854   4.422   5.648   6.425
 6287WAT     H225855   4.475   5.774   6.408
 6287WAT    EPW25856   4.456   5.703   6.380
 6288WAT      O25857   3.265   6.712   6.611
 6288WAT     H125858   3.208   6.647   6.600
 6288WAT     H225859   3.217   6.777   6.644
 6288WAT    EPW25860   3.250   6.712   6.615
 6289WAT      O25861   4.226   5.831   6.745
 6289WAT     H125862   4.238   5.918   6.747
 6289WAT     H225863   4.222   5.809   6.829
 6289WAT    EPW25864   4.227   5.841   6.757
 6290WAT      O25865   4.491   6.674   5.861
 6290WAT     H125866   4.473   6.740   5.915
 6290WAT     H225867   4.563   6.638   5.895
 6290WAT    EPW25868   4.499   6.679   5.874
 6291WAT      O25869   4.170   6.151   5.994
 6291WAT     H125870   4.143   6.075   6.027
 6291WAT     H225871   4.202   6.193   6.063
 6291WAT    EPW25872   4.171   6.146   6.009
 6292WAT      O25873   4.745   6.441   6.814
 6292WAT     H125874   4.827   6.411   6.818
 6292WAT     H225875   4.707   6.405   6.884
 6292WAT    EPW25876   4.751   6.431   6.825
 6293WAT      O25877   3.518   5.546   6.411
 6293WAT     H125878   3.516   5.617   6.361
 6293WAT     H225879   3.595   5.510   6.394
 6293WAT    EPW25880   3.529   5.551   6.401
 6294WAT      O25881   3.306   5.413   6.278
 6294WAT     H125882   3.323   5.427   6.194
 6294WAT     H225883   3.371   5.454   6.320
 6294WAT    EPW25884   3.318   5.421   6.272
 6295WAT      O25885   4.857   5.674   5.331
 6295WAT     H125886   4.863   5.662   5.244
 6295WAT     H225887   4.935   5.646   5.360
 6295WAT    EPW25888   4.869   5.668   5.322
 6296WAT      O25889   3.494   5.089   6.554
 6296WAT     H125890   3.445   5.017   6.555
 6296WAT     H225891   3.483   5.120   6.472
 6296WAT    EPW25892   3.485   5.083   6.542
 6297WAT      O25893   4.174   6.352   5.439
 6297WAT     H125894   4.170   6.433   5.407
 6297WAT     H225895   4.102   6.314   5.407
 6297WAT    EPW25896   4.163   6.358   5.429
 6298WAT      O25897   3.212   5.903   6.357
 6298WAT     H125898   3.246   5.924   6.279
 6298WAT     H225899   3.190   5.819   6.347
 6298WAT    EPW25900   3.214   5.893   6.344
 6299WAT      O25901   4.255   5.135   6.603
 6299WAT     H125902   4.296   5.197   6.650
 6299WAT     H225903   4.183   5.119   6.650
 6299WAT    EPW25904   4.251   5.142   6.617
 6300WAT      O25905   3.731   6.372   5.082
 6300WAT     H125906   3.797   6.411   5.124
 6300WAT     H225907   3.669   6.365   5.143
 6300WAT    EPW25908   3.732   6.377   5.098
 6301WAT      O25909   4.671   5.268   6.120
 6301WAT     H125910   4.757   5.283   6.126
 6301WAT     H225911   4.640   5.341   6.083
 6301WAT    EPW25912   4.679   5.281   6.115
 6302WAT      O25913   3.730   5.862   6.384
 6302WAT     H125914   3.701   5.936   6.422
 6302WAT     H225915   3.660   5.832   6.341
 6302WAT    EPW25916   3.715   5.869   6.383
 6303WAT      O25917   4.599   5.638   5.764
 6303WAT     H125918   4.643   5.712   5.777
 6303WAT     H225919   4.530   5.663   5.717
 6303WAT    EPW25920   4.595   5.652   5.759
 6304WAT      O25921   4.626   6.521   5.560
 6304WAT     H125922   4.624   6.440   5.593
 6304WAT     H225923   4.678   6.514   5.491
 6304WAT    EPW25924   4.633   6.508   5.555
 6305WAT      O25925   3.479   6.277   5.195
 6305WAT     H125926   3.481   6.265   5.281
 6305WAT     H225927   3.466   6.197   5.163
 6305WAT    EPW25928   3.477   6.263   5.203
 6306WAT      O25929   3.651   6.146   4.937
 6306WAT     H125930   3.602   6.102   4.994
 6306WAT     H225931   3.681   6.213   4.983
 6306WAT    EPW25932   3.648   6.149   4.952
 6307WAT      O25933   4.920   5.067   6.293
 6307WAT     H125934   4.902   5.082   6.377
 6307WAT     H225935   4.997   5.025   6.296
 6307WAT    EPW25936   4.929   5.063   6.306
 6308WAT      O25937   4.325   6.315   6.176
 6308WAT     H125938   4.375   6.367   6.225
 6308WAT     H225939   4.326   6.354   6.098
 6308WAT    EPW25940   4.332   6.329   6.172
 6309WAT      O25941   4.375   6.730   6.645
 6309WAT     H125942   4.308   6.688   6.608
 6309WAT     H225943   4.345   6.812   6.656
 6309WAT    EPW25944   4.361   6.736   6.641
 6310WAT      O25945   3.858   5.628   6.487
 6310WAT     H125946   3.855   5.577   6.416
 6310WAT     H225947   3.818   5.701   6.462
 6310WAT    EPW25948   3.852   5.631   6.473
 6311WAT      O25949   4.864   6.182   6.125
 6311WAT     H125950   4.927   6.164   6.066
 6311WAT     H225951   4.792   6.190   6.076
 6311WAT    EPW25952   4.863   6.180   6.109
 6312WAT      O25953   3.756   6.616   6.631
 6312WAT     H125954   3.733   6.626   6.715
 6312WAT     H225955   3.824   6.562   6.635
 6312WAT    EPW25956   3.763   6.609   6.644
 6313WAT      O25957   4.680   6.493   5.966
 6313WAT     H125958   4.767   6.486   5.954
 6313WAT     H225959   4.653   6.411   5.970
 6313WAT    EPW25960   4.689   6.480   5.965
 6314WAT      O25961   3.443   5.165   6.296
 6314WAT     H125962   3.395   5.097   6.270
 6314WAT     H225963   3.391   5.234   6.283
 6314WAT    EPW25964   3.428   5.165   6.290
 6315WAT      O25965   3.456   6.530   6.721
 6315WAT     H125966   3.516   6.569   6.771
 6315WAT     H225967   3.409   6.597   6.690
 6315WAT    EPW25968   3.458   6.546   6.724
 6316WAT      O25969   3.321   6.312   6.471
 6316WAT     H125970   3.264   6.370   6.503
 6316WAT     H225971   3.398   6.352   6.478
 6316WAT    EPW25972   3.324   6.326   6.477
 6317WAT      O25973   4.462   5.720   5.309
 6317WAT     H125974   4.497   5.642   5.325
 6317WAT     H225975   4.386   5.702   5.271
 6317WAT    EPW25976   4.456   5.706   5.306
 6318WAT      O25977   3.416   6.674   5.417
 6318WAT     H125978   3.346   6.724   5.409
 6318WAT     H225979   3.467   6.698   5.350
 6318WAT    EPW25980   3.413   6.685   5.406
 6319WAT      O25981   4.765   6.685   4.998
 6319WAT     H125982   4.838   6.673   5.045
 6319WAT     H225983   4.747   6.605   4.968
 6319WAT    EPW25984   4.773   6.671   5.000
 6320WAT      O25985   4.815   5.958   6.640
 6320WAT     H125986   4.881   5.923   6.685
 6320WAT     H225987   4.855   5.991   6.569
 6320WAT    EPW25988   4.831   5.958   6.636
 6321WAT      O25989   4.397   6.298   5.266
 6321WAT     H125990   4.336   6.296   5.329
 6321WAT     H225991   4.371   6.237   5.210
 6321WAT    EPW25992   4.384   6.289   5.267
 6322WAT      O25993   4.814   5.392   6.760
 6322WAT     H125994   4.801   5.472   6.791
 6322WAT     H225995   4.748   5.381   6.703
 6322WAT    EPW25996   4.802   5.402   6.756
 6323WAT      O25997   4.891   5.567   6.080
 6323WAT     H125998   4.810   5.561   6.047
 6323WAT     H225999   4.911   5.484   6.100
 6323WAT    EPW26000   4.882   5.554   6.078
 6324WAT      O26001   3.765   5.068   6.606
 6324WAT     H126002   3.772   4.981   6.600
 6324WAT     H226003   3.682   5.084   6.587
 6324WAT    EPW26004   3.754   5.058   6.602
 6325WAT      O26005   4.585   5.985   6.889
 6325WAT     H126006   4.658   6.015   6.925
 6325WAT     H226007   4.587   6.017   6.808
 6325WAT    EPW26008   4.596   5.994   6.882
 6326WAT      O26009   3.523   6.546   6.003
 6326WAT     H126010   3.517   6.473   5.955
 6326WAT     H226011   3.486   6.606   5.952
 6326WAT    EPW26012   3.516   6.544   5.988
 6327WAT      O26013   4.064   6.091   5.107
 6327WAT     H126014   4.148   6.069   5.114
 6327WAT     H226015   4.066   6.171   5.072
 6327WAT    EPW26016   4.077   6.100   5.103
 6328WAT      O26017   3.269   6.788   6.342
 6328WAT     H126018   3.275   6.768   6.427
 6328WAT     H226019   3.306   6.720   6.302
 6328WAT    EPW26020   3.275   6.775   6.349
 6329WAT      O26021   3.217   6.020   3.594
 6329WAT     H126022   3.207   6.018   3.680
 6329WAT     H226023   3.219   5.936   3.571
 6329WAT    EPW26024   3.216   6.008   3.603
 6330WAT      O26025   4.796   6.474   3.404
 6330WAT     H126026   4.861   6.421   3.426
 6330WAT     H226027   4.746   6.425   3.352
 6330WAT    EPW26028   4.798   6.459   3.400
 6331WAT      O26029   3.169   5.507   3.248
 6331WAT     H126030   3.107   5.539   3.195
 6331WAT     H226031   3.170   5.422   3.230
 6331WAT    EPW26032   3.160   5.499   3.238
 6332WAT      O26033   4.409   5.789   3.822
 6332WAT     H126034   4.422   5.772   3.737
 6332WAT     H226035   4.340   5.740   3.843
 6332WAT    EPW26036   4.401   5.780   3.812
 6333WAT      O26037   3.443   6.179   3.586
 6333WAT     H126038   3.508   6.132   3.622
 6333WAT     H226039   3.374   6.127   3.593
 6333WAT    EPW26040   3.443   6.164   3.593
 6334WAT      O26041   3.282   6.473   3.173
 6334WAT     H126042   3.334   6.489   3.105
 6334WAT     H226043   3.333   6.490   3.242
 6334WAT    EPW26044   3.297   6.478   3.173
 6335WAT      O26045   3.228   6.264   4.303
 6335WAT     H126046   3.143   6.263   4.281
 6335WAT     H226047   3.260   6.195   4.261
 6335WAT    EPW26048   3.220   6.254   4.293
 6336WAT      O26049   3.891   6.091   4.689
 6336WAT     H126050   3.901   6.036   4.756
 6336WAT     H226051   3.806   6.113   4.692
 6336WAT    EPW26052   3.880   6.086   4.699
 6337WAT      O26053   3.499   5.753   3.597
 6337WAT     H126054   3.412   5.761   3.590
 6337WAT     H226055   3.511   5.667   3.604
 6337WAT    EPW26056   3.488   5.742   3.597
 6338WAT      O26057   3.963   6.440   4.451
 6338WAT     H126058   3.977   6.503   4.392
 6338WAT     H226059   4.042   6.405   4.463
 6338WAT    EPW26060   3.977   6.444   4.444
 6339WAT      O26061   3.942   6.259   3.928
 6339WAT     H126062   3.958   6.175   3.949
 6339WAT     H226063   4.021   6.295   3.926
 6339WAT    EPW26064   3.956   6.252   3.931
 6340WAT      O26065   3.990   6.158   3.527
 6340WAT     H126066   4.021   6.098   3.583
 6340WAT     H226067   4.031   6.139   3.452
 6340WAT    EPW26068   4.001   6.146   3.524
 6341WAT      O26069   4.380   5.241   3.045
 6341WAT     H126070   4.321   5.295   3.081
 6341WAT     H226071   4.423   5.208   3.113
 6341WAT    EPW26072   4.377   5.244   3.060
 6342WAT      O26073   3.194   6.569   3.811
 6342WAT     H126074   3.127   6.605   3.768
 6342WAT     H226075   3.230   6.516   3.752
 6342WAT    EPW26076   3.190   6.567   3.796
 6343WAT      O26077   3.760   6.320   3.518
 6343WAT     H126078   3.730   6.312   3.599
 6343WAT     H226079   3.837   6.277   3.520
 6343WAT    EPW26080   3.767   6.312   3.530
 6344WAT      O26081   4.363   6.578   3.323
 6344WAT     H126082   4.434   6.628   3.330
 6344WAT     H226083   4.392   6.499   3.346
 6344WAT    EPW26084   4.378   6.573   3.327
 6345WAT      O26085   4.164   6.593   3.513
 6345WAT     H126086   4.189   6.664   3.558
 6345WAT     H226087   4.223   6.588   3.449
 6345WAT    EPW26088   4.177   6.603   3.510
 6346WAT      O26089   3.311   6.421   3.607
 6346WAT     H126090   3.361   6.351   3.614
 6346WAT     H226091   3.349   6.468   3.544
 6346WAT    EPW26092   3.324   6.418   3.599
 6347WAT      O26093   4.812   5.371   3.695
 6347WAT     H126094   4.762   5.369   3.766
 6347WAT     H226095   4.817   5.287   3.671
 6347WAT    EPW26096   4.805   5.358   3.702
 6348WAT      O26097   4.433   6.590   4.336
 6348WAT     H126098   4.495   6.648   4.319
 6348WAT     H226099   4.407   6.563   4.257
 6348WAT    EPW26100   4.438   6.595   4.322
 6349WAT      O26101   3.501   6.266   3.962
 6349WAT     H126102   3.563   6.275   3.901
 6349WAT     H226103   3.540   6.220   4.025
 6349WAT    EPW26104   3.516   6.261   3.962
 6350WAT      O26105   3.766   6.589   3.876
 6350WAT     H126106   3.847   6.608   3.850
 6350WAT     H226107   3.717   6.644   3.830
 6350WAT    EPW26108   3.771   6.600   3.865
 6351WAT      O26109   4.207   5.457   3.098
 6351WAT     H126110   4.220   5.510   3.166
 6351WAT     H226111   4.124   5.471   3.076
 6351WAT    EPW26112   4.196   5.467   3.105
 6352WAT      O26113   4.579   6.761   3.308
 6352WAT     H126114   4.627   6.741   3.238
 6352WAT     H226115   4.633   6.810   3.357
 6352WAT    EPW26116   4.594   6.766   3.305
 6353WAT      O26117   3.625   6.695   4.449
 6353WAT     H126118   3.681   6.667   4.510
 6353WAT     H226119   3.591   6.767   4.485
 6353WAT    EPW26120   3.629   6.701   4.464
 6354WAT      O26121   4.815   5.157   4.087
 6354WAT     H126122   4.731   5.137   4.080
 6354WAT     H226123   4.841   5.111   4.157
 6354WAT    EPW26124   4.807   5.147   4.097
 6355WAT      O26125   4.363   6.367   4.705
 6355WAT     H126126   4.354   6.418   4.776
 6355WAT     H226127   4.449   6.365   4.691
 6355WAT    EPW26128   4.374   6.374   4.713
 6356WAT      O26129   4.046   6.400   3.157
 6356WAT     H126130   4.012   6.460   3.211
 6356WAT     H226131   4.120   6.437   3.129
 6356WAT    EPW26132   4.052   6.414   3.161
 6357WAT      O26133   4.525   5.186   3.275
 6357WAT     H126134   4.552   5.130   3.335
 6357WAT     H226135   4.493   5.253   3.322
 6357WAT    EPW26136   4.524   5.188   3.291
 6358WAT      O26137   3.381   6.499   4.326
 6358WAT     H126138   3.323   6.435   4.309
 6358WAT     H226139   3.421   6.511   4.250
 6358WAT    EPW26140   3.378   6.491   4.312
 6359WAT      O26141   4.149   5.442   3.482
 6359WAT     H126142   4.131   5.428   3.566
 6359WAT     H226143   4.090   5.394   3.440
 6359WAT    EPW26144   4.138   5.433   3.488
 6360WAT      O26145   4.186   6.685   4.417
 6360WAT     H126146   4.266   6.659   4.396
 6360WAT     H226147   4.139   6.669   4.345
 6360WAT    EPW26148   4.191   6.679   4.403
 6361WAT      O26149   4.861   6.672   3.690
 6361WAT     H126150   4.822   6.748   3.707
 6361WAT     H226151   4.794   6.616   3.679
 6361WAT    EPW26152   4.845   6.675   3.691
 6362WAT      O26153   4.523   6.249   3.660
 6362WAT     H126154   4.590   6.200   3.686
 6362WAT     H226155   4.454   6.210   3.697
 6362WAT    EPW26156   4.523   6.236   3.669
 6363WAT      O26157   3.516   4.657   3.752
 6363WAT     H126158   3.517   4.661   3.839
 6363WAT     H226159   3.585   4.606   3.733
 6363WAT    EPW26160   3.527   4.650   3.762
 6364WAT      O26161   3.751   5.893   4.144
 6364WAT     H126162   3.786   5.883   4.224
 6364WAT     H226163   3.719   5.814   4.126
 6364WAT    EPW26164   3.751   5.880   4.153
 6365WAT      O26165   3.855   6.049   4.402
 6365WAT     H126166   3.822   6.128   4.387
 6365WAT     H226167   3.859   6.044   4.489
 6365WAT    EPW26168   3.851   6.060   4.413
 6366WAT      O26169   4.465   6.015   4.274
 6366WAT     H126170   4.403   5.974   4.319
 6366WAT     H226171   4.474   6.091   4.315
 6366WAT    EPW26172   4.457   6.020   4.287
 6367WAT      O26173   3.109   6.338   4.915
 6367WAT     H126174   3.173   6.380   4.956
 6367WAT     H226175   3.112   6.258   4.948
 6367WAT    EPW26176   3.119   6.333   4.926
 6368WAT      O26177   4.647   5.265   4.539
 6368WAT     H126178   4.670   5.184   4.516
 6368WAT     H226179   4.572   5.277   4.497
 6368WAT    EPW26180   4.639   5.254   4.529
 6369WAT      O26181   4.737   6.057   3.297
 6369WAT     H126182   4.736   6.019   3.376
 6369WAT     H226183   4.822   6.064   3.279
 6369WAT    EPW26184   4.749   6.052   3.306
 6370WAT      O26185   3.630   5.993   3.667
 6370WAT     H126186   3.681   5.989   3.596
 6370WAT     H226187   3.589   5.917   3.667
 6370WAT    EPW26188   3.632   5.981   3.656
 6371WAT      O26189   3.416   6.705   3.897
 6371WAT     H126190   3.341   6.671   3.868
 6371WAT     H226191   3.466   6.708   3.826
 6371WAT    EPW26192   3.412   6.701   3.883
 6372WAT      O26193   5.023   6.494   4.684
 6372WAT     H126194   4.942   6.505   4.654
 6372WAT     H226195   5.011   6.450   4.759
 6372WAT    EPW26196   5.009   6.489   4.691
 6373WAT      O26197   3.782   5.980   3.434
 6373WAT     H126198   3.839   6.039   3.463
 6373WAT     H226199   3.820   5.903   3.452
 6373WAT    EPW26200   3.796   5.977   3.441
 6374WAT      O26201   5.037   5.095   3.024
 6374WAT     H126202   5.016   5.017   3.058
 6374WAT     H226203   4.972   5.147   3.050
 6374WAT    EPW26204   5.024   5.091   3.033
 6375WAT      O26205   4.992   5.613   4.427
 6375WAT     H126206   5.044   5.544   4.422
 6375WAT     H226207   4.913   5.581   4.408
 6375WAT    EPW26208   4.988   5.598   4.424
 6376WAT      O26209   3.235   5.763   3.497
 6376WAT     H126210   3.174   5.700   3.493
 6376WAT     H226211   3.278   5.754   3.422
 6376WAT    EPW26212   3.232   5.752   3.485
 6377WAT      O26213   4.173   6.415   3.890
 6377WAT     H126214   4.129   6.488   3.869
 6377WAT     H226215   4.196   6.382   3.812
 6377WAT    EPW26216   4.170   6.421   3.875
 6378WAT      O26217   3.074   6.335   3.490
 6378WAT     H126218   3.143   6.358   3.539
 6378WAT     H226219   3.036   6.271   3.536
 6378WAT    EPW26220   3.079   6.329   3.504
 6379WAT      O26221   3.598   6.122   4.181
 6379WAT     H126222   3.641   6.166   4.242
 6379WAT     H226223   3.648   6.052   4.167
 6379WAT    EPW26224   3.612   6.118   4.188
 6380WAT      O26225   4.342   5.385   4.023
 6380WAT     H126226   4.329   5.314   4.073
 6380WAT     H226227   4.266   5.393   3.980
 6380WAT    EPW26228   4.329   5.376   4.024
 6381WAT      O26229   3.182   6.141   3.328
 6381WAT     H126230   3.191   6.086   3.395
 6381WAT     H226231   3.151   6.213   3.366
 6381WAT    EPW26232   3.179   6.143   3.343
 6382WAT      O26233   3.315   6.059   3.910
 6382WAT     H126234   3.371   6.126   3.912
 6382WAT     H226235   3.237   6.096   3.914
 6382WAT    EPW26236   3.312   6.074   3.911
 6383WAT      O26237   3.948   5.305   3.351
 6383WAT     H126238   3.936   5.270   3.272
 6383WAT     H226239   3.924   5.241   3.406
 6383WAT    EPW26240   3.943   5.290   3.347
 6384WAT      O26241   4.771   6.546   4.556
 6384WAT     H126242   4.716   6.612   4.575
 6384WAT     H226243   4.790   6.559   4.472
 6384WAT    EPW26244   4.765   6.558   4.546
 6385WAT      O26245   3.711   6.331   3.790
 6385WAT     H126246   3.720   6.415   3.813
 6385WAT     H226247   3.781   6.293   3.824
 6385WAT    EPW26248   3.723   6.338   3.798
 6386WAT      O26249   4.538   5.466   4.219
 6386WAT     H126250   4.508   5.408   4.278
 6386WAT     H226251   4.480   5.462   4.155
 6386WAT    EPW26252   4.525   5.457   4.218
 6387WAT      O26253   3.975   6.627   4.237
 6387WAT     H126254   3.933   6.562   4.197
 6387WAT     H226255   3.964   6.695   4.184
 6387WAT    EPW26256   3.967   6.627   4.223
 6388WAT      O26257   4.421   5.420   3.395
 6388WAT     H126258   4.467   5.421   3.470
 6388WAT     H226259   4.339   5.406   3.423
 6388WAT    EPW26260   4.415   5.418   3.410
 6389WAT      O26261   3.408   5.865   4.850
 6389WAT     H126262   3.401   5.919   4.782
 6389WAT     H226263   3.464   5.804   4.822
 6389WAT    EPW26264   3.415   5.864   4.836
 6390WAT      O26265   4.522   6.048   4.587
 6390WAT     H126266   4.575   6.116   4.599
 6390WAT     H226267   4.466   6.053   4.653
 6390WAT    EPW26268   4.522   6.059   4.598
 6391WAT      O26269   3.991   6.362   4.748
 6391WAT     H126270   4.019   6.357   4.830
 6391WAT     H226271   3.960   6.282   4.732
 6391WAT    EPW26272   3.991   6.350   4.758
 6392WAT      O26273   4.225   5.648   3.303
 6392WAT     H126274   4.158   5.699   3.283
 6392WAT     H226275   4.193   5.596   3.366
 6392WAT    EPW26276   4.210   5.648   3.309
 6393WAT      O26277   4.710   6.055   3.763
 6393WAT     H126278   4.758   6.005   3.817
 6393WAT     H226279   4.706   6.008   3.689
 6393WAT    EPW26280   4.716   6.041   3.760
 6394WAT      O26281   4.363   6.476   4.091
 6394WAT     H126282   4.303   6.454   4.032
 6394WAT     H226283   4.413   6.533   4.048
 6394WAT    EPW26284   4.362   6.481   4.076
 6395WAT      O26285   4.370   6.150   4.050
 6395WAT     H126286   4.299   6.192   4.079
 6395WAT     H226287   4.391   6.098   4.117
 6395WAT    EPW26288   4.362   6.149   4.064
 6396WAT      O26289   3.702   6.587   3.476
 6396WAT     H126290   3.718   6.505   3.502
 6396WAT     H226291   3.771   6.607   3.427
 6396WAT    EPW26292   3.715   6.578   3.473
 6397WAT      O26293   3.949   6.594   3.334
 6397WAT     H126294   4.013   6.598   3.393
 6397WAT     H226295   3.958   6.668   3.289
 6397WAT    EPW26296   3.960   6.605   3.336
 6398WAT      O26297   4.316   6.520   4.933
 6398WAT     H126298   4.350   6.538   5.012
 6398WAT     H226299   4.326   6.594   4.889
 6398WAT    EPW26300   4.323   6.534   4.938
 6399WAT      O26301   4.777   4.964   4.785
 6399WAT     H126302   4.730   4.907   4.738
 6399WAT     H226303   4.807   4.915   4.851
 6399WAT    EPW26304   4.774   4.948   4.788
 6400WAT      O26305   3.463   5.759   3.317
 6400WAT     H126306   3.464   5.686   3.269
 6400WAT     H226307   3.499   5.735   3.393
 6400WAT    EPW26308   3.468   5.744   3.321
 6401WAT      O26309   4.273   5.869   4.411
 6401WAT     H126310   4.240   5.913   4.479
 6401WAT     H226311   4.293   5.791   4.445
 6401WAT    EPW26312   4.271   5.864   4.426
 6402WAT      O26313   3.198   4.968   3.251
 6402WAT     H126314   3.269   4.921   3.236
 6402WAT     H226315   3.185   4.959   3.337
 6402WAT    EPW26316   3.207   4.960   3.262
 6403WAT      O26317   4.154   5.710   3.655
 6403WAT     H126318   4.128   5.786   3.689
 6403WAT     H226319   4.130   5.651   3.715
 6403WAT    EPW26320   4.147   5.713   3.669
 6404WAT      O26321   4.647   6.196   4.019
 6404WAT     H126322   4.667   6.165   3.940
 6404WAT     H226323   4.560   6.190   4.022
 6404WAT    EPW26324   4.637   6.191   4.008
 6405WAT      O26325   3.641   5.329   3.201
 6405WAT     H126326   3.572   5.303   3.154
 6405WAT     H226327   3.709   5.291   3.161
 6405WAT    EPW26328   3.641   5.319   3.188
 6406WAT      O26329   3.972   5.986   3.982
 6406WAT     H126330   3.894   5.955   4.005
 6406WAT     H226331   4.020   5.976   4.054
 6406WAT    EPW26332   3.968   5.980   3.996
 6407WAT      O26333   3.654   6.624   3.115
 6407WAT     H126334   3.670   6.551   3.159
 6407WAT     H226335   3.666   6.687   3.175
 6407WAT    EPW26336   3.658   6.623   3.130
 6408WAT      O26337   3.336   6.029   4.190
 6408WAT     H126338   3.420   6.052   4.196
 6408WAT     H226339   3.323   6.024   4.104
 6408WAT    EPW26340   3.346   6.032   4.178
 6409WAT      O26341   4.969   6.639   3.264
 6409WAT     H126342   5.034   6.588   3.236
 6409WAT     H226343   4.917   6.584   3.307
 6409WAT    EPW26344   4.971   6.623   3.266
 6410WAT      O26345   4.691   5.875   4.192
 6410WAT     H126346   4.663   5.810   4.140
 6410WAT     H226347   4.621   5.927   4.200
 6410WAT    EPW26348   4.676   5.873   4.185
 6411WAT      O26349   3.766   5.792   3.118
 6411WAT     H126350   3.756   5.723   3.171
 6411WAT     H226351   3.722   5.770   3.046
 6411WAT    EPW26352   3.758   5.779   3.115
 6412WAT      O26353   3.382   6.026   4.624
 6412WAT     H126354   3.348   5.979   4.560
 6412WAT     H226355   3.343   6.104   4.616
 6412WAT    EPW26356   3.371   6.031   4.613
 6413WAT      O26357   4.841   5.889   3.947
 6413WAT     H126358   4.811   5.900   4.028
 6413WAT     H226359   4.928   5.895   3.956
 6413WAT    EPW26360   4.850   5.892   3.960
 6414WAT      O26361   3.769   5.563   3.268
 6414WAT     H126362   3.813   5.546   3.341
 6414WAT     H226363   3.720   5.491   3.256
 6414WAT    EPW26364   3.768   5.550   3.277
 6415WAT      O26365   4.601   5.291   4.813
 6415WAT     H126366   4.514   5.289   4.814
 6415WAT     H226367   4.621   5.279   4.729
 6415WAT    EPW26368   4.591   5.289   4.801
 6416WAT      O26369   4.989   6.386   4.008
 6416WAT     H126370   5.029   6.445   3.957
 6416WAT     H226371   5.031   6.392   4.084
 6416WAT    EPW26372   5.001   6.396   4.012
 6417WAT      O26373   4.431   5.650   4.806
 6417WAT     H126374   4.467   5.639   4.885
 6417WAT     H226375   4.367   5.708   4.821
 6417WAT    EPW26376   4.427   5.657   4.820
 6418WAT      O26377   4.681   5.723   4.707
 6418WAT     H126378   4.698   5.801   4.744
 6418WAT     H226379   4.606   5.699   4.744
 6418WAT    EPW26380   4.673   5.731   4.718
 6419WAT      O26381   4.639   6.310   3.252
 6419WAT     H126382   4.670   6.229   3.263
 6419WAT     H226383   4.562   6.308   3.293
 6419WAT    EPW26384   4.632   6.298   3.260
 6420WAT      O26385   4.577   5.440   3.880
 6420WAT     H126386   4.506   5.408   3.921
 6420WAT     H226387   4.596   5.512   3.926
 6420WAT    EPW26388   4.569   5.446   3.893
 6421WAT      O26389   4.971   5.813   4.881
 6421WAT     H126390   4.977   5.748   4.823
 6421WAT     H226391   5.053   5.843   4.887
 6421WAT    EPW26392   4.984   5.808   4.873
 6422WAT      O26393   4.829   5.989   4.498
 6422WAT     H126394   4.909   5.957   4.482
 6422WAT     H226395   4.822   6.056   4.443
 6422WAT    EPW26396   4.840   5.994   4.488
 6423WAT      O26397   4.330   6.095   3.207
 6423WAT     H126398   4.393   6.036   3.204
 6423WAT     H226399   4.311   6.110   3.123
 6423WAT    EPW26400   4.336   6.089   3.194
 6424WAT      O26401   3.742   6.310   4.350
 6424WAT     H126402   3.808   6.345   4.396
 6424WAT     H226403   3.749   6.348   4.272
 6424WAT    EPW26404   3.753   6.321   4.345
 6425WAT      O26405   3.621   6.177   4.665
 6425WAT     H126406   3.557   6.122   4.644
 6425WAT     H226407   3.620   6.178   4.752
 6425WAT    EPW26408   3.611   6.169   4.675
 6426WAT      O26409   4.075   5.981   4.244
 6426WAT     H126410   4.133   5.934   4.290
 6426WAT     H226411   4.010   5.994   4.301
 6426WAT    EPW26412   4.074   5.976   4.259
 6427WAT      O26413   4.026   6.632   3.779
 6427WAT     H126414   4.059   6.712   3.787
 6427WAT     H226415   4.046   6.610   3.697
 6427WAT    EPW26416   4.034   6.641   3.768
 6428WAT      O26417   4.650   5.002   4.404
 6428WAT     H126418   4.607   5.023   4.331
 6428WAT     H226419   4.612   4.928   4.430
 6428WAT    EPW26420   4.638   4.994   4.397
 6429WAT      O26421   3.821   6.431   4.111
 6429WAT     H126422   3.782   6.483   4.052
 6429WAT     H226423   3.864   6.374   4.062
 6429WAT    EPW26424   3.822   6.430   4.095
 6430WAT      O26425   4.321   6.108   4.783
 6430WAT     H126426   4.338   6.192   4.766
 6430WAT     H226427   4.261   6.087   4.724
 6430WAT    EPW26428   4.315   6.118   4.772
 6431WAT      O26429   4.634   6.325   4.672
 6431WAT     H126430   4.664   6.340   4.752
 6431WAT     H226431   4.675   6.386   4.624
 6431WAT    EPW26432   4.645   6.336   4.676
 6432WAT      O26433   4.812   5.616   3.106
 6432WAT     H126434   4.884   5.663   3.091
 6432WAT     H226435   4.766   5.625   3.032
 6432WAT    EPW26436   4.816   5.625   3.093
 6433WAT      O26437   4.028   5.842   3.214
 6433WAT     H126438   3.951   5.827   3.175
 6433WAT     H226439   4.028   5.929   3.225
 6433WAT    EPW26440   4.016   5.853   3.210
 6434WAT      O26441   4.099   6.617   4.675
 6434WAT     H126442   4.112   6.622   4.589
 6434WAT     H226443   4.072   6.535   4.687
 6434WAT    EPW26444   4.097   6.606   4.664
 6435WAT      O26445   4.573   5.498   3.613
 6435WAT     H126446   4.554   5.476   3.696
 6435WAT     H226447   4.654   5.468   3.602
 6435WAT    EPW26448   4.582   5.490   3.624
 6436WAT      O26449   4.673   5.898   3.526
 6436WAT     H126450   4.714   5.831   3.489
 6436WAT     H226451   4.591   5.868   3.538
 6436WAT    EPW26452   4.667   5.883   3.522
 6437WAT      O26453   4.148   6.062   4.577
 6437WAT     H126454   4.067   6.070   4.607
 6437WAT     H226455   4.163   6.138   4.537
 6437WAT    EPW26456   4.138   6.074   4.575
 6438WAT      O26457   3.652   6.749   4.170
 6438WAT     H126458   3.646   6.733   4.255
 6438WAT     H226459   3.618   6.678   4.133
 6438WAT    EPW26460   3.646   6.736   4.177
 6439WAT      O26461   4.344   6.062   3.791
 6439WAT     H126462   4.347   6.094   3.872
 6439WAT     H226463   4.376   5.981   3.800
 6439WAT    EPW26464   4.349   6.054   3.804
 6440WAT      O26465   4.088   5.980   3.721
 6440WAT     H126466   4.046   5.978   3.798
 6440WAT     H226467   4.167   6.011   3.742
 6440WAT    EPW26468   4.094   5.985   3.736
 6441WAT      O26469   4.215   6.314   4.473
 6441WAT     H126470   4.248   6.342   4.548
 6441WAT     H226471   4.284   6.308   4.420
 6441WAT    EPW26472   4.230   6.318   4.476
 6442WAT      O26473   4.937   5.607   4.699
 6442WAT     H126474   4.851   5.624   4.701
 6442WAT     H226475   4.957   5.615   4.615
 6442WAT    EPW26476   4.927   5.611   4.687
 6443WAT      O26477   4.396   5.636   4.515
 6443WAT     H126478   4.385   5.557   4.479
 6443WAT     H226479   4.401   5.618   4.601
 6443WAT    EPW26480   4.395   5.622   4.523
 6444WAT      O26481   3.284   6.715   4.689
 6444WAT     H126482   3.229   6.647   4.687
 6444WAT     H226483   3.234   6.782   4.712
 6444WAT    EPW26484   3.269   6.715   4.692
 6445WAT      O26485   4.251   5.848   4.884
 6445WAT     H126486   4.288   5.927   4.874
 6445WAT     H226487   4.166   5.864   4.875
 6445WAT    EPW26488   4.244   5.862   4.881
 6446WAT      O26489   4.544   6.671   4.001
 6446WAT     H126490   4.553   6.725   4.069
 6446WAT     H226491   4.609   6.614   4.012
 6446WAT    EPW26492   4.555   6.671   4.013
 6447WAT      O26493   4.142   6.241   4.184
 6447WAT     H126494   4.118   6.160   4.205
 6447WAT     H226495   4.141   6.284   4.260
 6447WAT    EPW26496   4.138   6.236   4.198
 6448WAT      O26497   4.733   6.416   4.922
 6448WAT     H126498   4.817   6.395   4.928
 6448WAT     H226499   4.699   6.385   4.996
 6448WAT    EPW26500   4.740   6.408   4.934
 6449WAT      O26501   4.757   5.677   3.372
 6449WAT     H126502   4.783   5.662   3.290
 6449WAT     H226503   4.822   5.644   3.421
 6449WAT    EPW26504   4.771   5.670   3.367
 6450WAT      O26505   4.197   6.334   3.625
 6450WAT     H126506   4.191   6.409   3.582
 6450WAT     H226507   4.128   6.288   3.596
 6450WAT    EPW26508   4.186   6.338   3.614
 6451WAT      O26509   4.720   5.532   4.427
 6451WAT     H126510   4.676   5.512   4.354
 6451WAT     H226511   4.713   5.460   4.475
 6451WAT    EPW26512   4.712   5.519   4.423
 6452WAT      O26513   3.250   5.882   4.416
 6452WAT     H126514   3.278   5.913   4.340
 6452WAT     H226515   3.243   5.796   4.401
 6452WAT    EPW26516   3.253   5.874   4.403
 6453WAT      O26517   3.413   5.555   3.126
 6453WAT     H126518   3.334   5.548   3.163
 6453WAT     H226519   3.430   5.475   3.097
 6453WAT    EPW26520   3.404   5.542   3.127
 6454WAT      O26521   3.671   6.368   3.247
 6454WAT     H126522   3.705   6.363   3.328
 6454WAT     H226523   3.595   6.327   3.255
 6454WAT    EPW26524   3.665   6.361   3.260
 6455WAT      O26525   4.623   5.704   3.980
 6455WAT     H126526   4.694   5.736   3.939
 6455WAT     H226527   4.557   5.734   3.932
 6455WAT    EPW26528   4.624   5.713   3.967
 6456WAT      O26529   4.628   6.517   3.623
 6456WAT     H126530   4.596   6.439   3.642
 6456WAT     H226531   4.673   6.503   3.549
 6456WAT    EPW26532   4.630   6.504   3.615
 6457WAT      O26533   3.458   6.196   3.310
 6457WAT     H126534   3.462   6.195   3.397
 6457WAT     H226535   3.373   6.187   3.293
 6457WAT    EPW26536   3.446   6.195   3.320
 6458WAT      O26537   3.795   6.146   3.131
 6458WAT     H126538   3.870   6.136   3.174
 6458WAT     H226539   3.765   6.223   3.159
 6458WAT    EPW26540   3.801   6.156   3.142
 6459WAT      O26541   4.895   4.973   4.274
 6459WAT     H126542   4.824   4.969   4.324
 6459WAT     H226543   4.961   4.963   4.330
 6459WAT    EPW26544   4.894   4.971   4.289
 6460WAT      O26545   4.441   6.304   4.315
 6460WAT     H126546   4.474   6.378   4.347
 6460WAT     H226547   4.421   6.325   4.232
 6460WAT    EPW26548   4.443   6.318   4.307
 6461WAT      O26549   4.349   6.724   4.743
 6461WAT     H126550   4.278   6.685   4.711
 6461WAT     H226551   4.324   6.807   4.756
 6461WAT    EPW26552   4.335   6.731   4.740
 6462WAT      O26553   4.826   6.137   4.247
 6462WAT     H126554   4.816   6.053   4.230
 6462WAT     H226555   4.776   6.177   4.188
 6462WAT    EPW26556   4.817   6.131   4.236
 6463WAT      O26557   3.761   6.552   4.645
 6463WAT     H126558   3.757   6.566   4.731
 6463WAT     H226559   3.837   6.511   4.634
 6463WAT    EPW26560   3.771   6.548   4.656
 6464WAT      O26561   4.723   6.464   4.047
 6464WAT     H126562   4.808   6.452   4.034
 6464WAT     H226563   4.689   6.385   4.038
 6464WAT    EPW26564   4.731   6.451   4.044
 6465WAT      O26565   3.453   6.514   4.797
 6465WAT     H126566   3.526   6.545   4.834
 6465WAT     H226567   3.408   6.587   4.778
 6465WAT    EPW26568   3.458   6.530   4.800
 6466WAT      O26569   3.298   6.289   4.568
 6466WAT     H126570   3.242   6.345   4.604
 6466WAT     H226571   3.267   6.278   4.488
 6466WAT    EPW26572   3.285   6.295   4.562
 6467WAT      O26573   4.435   5.729   3.550
 6467WAT     H126574   4.474   5.654   3.569
 6467WAT     H226575   4.350   5.710   3.555
 6467WAT    EPW26576   4.428   5.715   3.553
 6468WAT      O26577   3.423   6.578   3.403
 6468WAT     H126578   3.397   6.659   3.421
 6468WAT     H226579   3.510   6.582   3.413
 6468WAT    EPW26580   3.432   6.591   3.407
 6469WAT      O26581   3.935   5.751   3.469
 6469WAT     H126582   3.979   5.769   3.396
 6469WAT     H226583   3.998   5.725   3.525
 6469WAT    EPW26584   3.951   5.750   3.467
 6470WAT      O26585   4.753   6.703   3.099
 6470WAT     H126586   4.827   6.692   3.145
 6470WAT     H226587   4.735   6.623   3.069
 6470WAT    EPW26588   4.761   6.689   3.102
 6471WAT      O26589   4.770   5.976   4.780
 6471WAT     H126590   4.842   5.941   4.813
 6471WAT     H226591   4.792   5.995   4.697
 6471WAT    EPW26592   4.784   5.974   4.772
 6472WAT      O26593   4.401   6.308   3.385
 6472WAT     H126594   4.407   6.282   3.468
 6472WAT     H226595   4.370   6.238   3.343
 6472WAT    EPW26596   4.397   6.294   3.391
 6473WAT      O26597   4.806   5.370   5.000
 6473WAT     H126598   4.813   5.456   5.016
 6473WAT     H226599   4.756   5.367   4.929
 6473WAT    EPW26600   4.800   5.382   4.992
 6474WAT      O26601   4.804   5.434   4.115
 6474WAT     H126602   4.721   5.449   4.135
 6474WAT     H226603   4.809   5.347   4.108
 6474WAT    EPW26604   4.793   5.423   4.117
 6475WAT      O26605   4.591   5.993   4.994
 6475WAT     H126606   4.648   6.019   5.054
 6475WAT     H226607   4.635   5.999   4.919
 6475WAT    EPW26608   4.606   5.998   4.992
 6476WAT      O26609   3.507   6.521   4.080
 6476WAT     H126610   3.502   6.442   4.043
 6476WAT     H226611   3.471   6.574   4.021
 6476WAT    EPW26612   3.501   6.517   4.066
 6477WAT      O26613   4.061   6.136   3.254
 6477WAT     H126614   4.145   6.115   3.245
 6477WAT     H226615   4.056   6.218   3.226
 6477WAT    EPW26616   4.072   6.145   3.249
 6478WAT      O26617   3.273   6.747   4.410
 6478WAT     H126618   3.277   6.731   4.495
 6478WAT     H226619   3.303   6.674   4.373
 6478WAT    EPW26620   3.278   6.734   4.417
 6479WAT      O26621   4.327   5.086   1.757
 6479WAT     H126622   4.278   5.027   1.714
 6479WAT     H226623   4.398   5.041   1.779
 6479WAT    EPW26624   4.330   5.070   1.754
 6480WAT      O26625   4.211   5.637   2.212
 6480WAT     H126626   4.179   5.714   2.236
 6480WAT     H226627   4.265   5.616   2.276
 6480WAT    EPW26628   4.214   5.645   2.225
 6481WAT      O26629   3.171   6.106   1.709
 6481WAT     H126630   3.112   6.106   1.774
 6481WAT     H226631   3.179   6.021   1.690
 6481WAT    EPW26632   3.163   6.094   1.716
 6482WAT      O26633   4.823   6.497   1.535
 6482WAT     H126634   4.888   6.442   1.553
 6482WAT     H226635   4.770   6.450   1.484
 6482WAT    EPW26636   4.825   6.481   1.530
 6483WAT      O26637   3.167   5.450   1.373
 6483WAT     H126638   3.102   5.497   1.339
 6483WAT     H226639   3.139   5.368   1.365
 6483WAT    EPW26640   3.153   5.445   1.367
 6484WAT      O26641   3.395   6.050   1.316
 6484WAT     H126642   3.389   6.009   1.239
 6484WAT     H226643   3.415   5.986   1.372
 6484WAT    EPW26644   3.398   6.034   1.313
 6485WAT      O26645   4.488   5.823   1.849
 6485WAT     H126646   4.492   5.806   1.764
 6485WAT     H226647   4.426   5.770   1.878
 6485WAT    EPW26648   4.479   5.813   1.841
 6486WAT      O26649   3.424   6.230   1.703
 6486WAT     H126650   3.479   6.187   1.756
 6486WAT     H226651   3.348   6.188   1.714
 6486WAT    EPW26652   3.421   6.217   1.713
 6487WAT      O26653   3.900   5.154   1.634
 6487WAT     H126654   3.886   5.224   1.583
 6487WAT     H226655   3.978   5.125   1.607
 6487WAT    EPW26656   3.910   5.160   1.622
 6488WAT      O26657   3.338   6.512   1.305
 6488WAT     H126658   3.381   6.517   1.230
 6488WAT     H226659   3.366   6.437   1.340
 6488WAT    EPW26660   3.349   6.502   1.299
 6489WAT      O26661   3.246   6.339   2.425
 6489WAT     H126662   3.272   6.317   2.506
 6489WAT     H226663   3.176   6.289   2.411
 6489WAT    EPW26664   3.240   6.329   2.435
 6490WAT      O26665   3.866   6.166   2.860
 6490WAT     H126666   3.846   6.152   2.944
 6490WAT     H226667   3.793   6.142   2.818
 6490WAT    EPW26668   3.852   6.160   2.867
 6491WAT      O26669   3.374   5.865   1.894
 6491WAT     H126670   3.324   5.858   1.823
 6491WAT     H226671   3.426   5.795   1.890
 6491WAT    EPW26672   3.374   5.854   1.883
 6492WAT      O26673   3.812   5.406   2.421
 6492WAT     H126674   3.882   5.418   2.370
 6492WAT     H226675   3.797   5.320   2.417
 6492WAT    EPW26676   3.820   5.395   2.413
 6493WAT      O26677   3.826   6.429   2.601
 6493WAT     H126678   3.811   6.508   2.568
 6493WAT     H226679   3.912   6.427   2.612
 6493WAT    EPW26680   3.836   6.441   2.598
 6494WAT      O26681   3.539   5.642   1.886
 6494WAT     H126682   3.606   5.590   1.907
 6494WAT     H226683   3.472   5.587   1.880
 6494WAT    EPW26684   3.539   5.626   1.889
 6495WAT      O26685   3.965   6.286   2.031
 6495WAT     H126686   3.992   6.205   2.046
 6495WAT     H226687   4.039   6.330   2.017
 6495WAT    EPW26688   3.980   6.281   2.031
 6496WAT      O26689   4.044   6.218   1.638
 6496WAT     H126690   4.074   6.149   1.684
 6496WAT     H226691   4.054   6.192   1.555
 6496WAT    EPW26692   4.050   6.204   1.632
 6497WAT      O26693   4.153   5.657   2.799
 6497WAT     H126694   4.066   5.661   2.788
 6497WAT     H226695   4.166   5.708   2.869
 6497WAT    EPW26696   4.142   5.665   2.808
 6498WAT      O26697   3.628   5.156   1.709
 6498WAT     H126698   3.589   5.215   1.659
 6498WAT     H226699   3.711   5.158   1.683
 6498WAT    EPW26700   3.635   5.165   1.698
 6499WAT      O26701   4.675   4.942   2.628
 6499WAT     H126702   4.648   5.022   2.652
 6499WAT     H226703   4.660   4.894   2.699
 6499WAT    EPW26704   4.669   4.947   2.642
 6500WAT      O26705   3.925   5.126   1.911
 6500WAT     H126706   3.947   5.209   1.925
 6500WAT     H226707   3.912   5.122   1.825
 6500WAT    EPW26708   3.927   5.137   1.900
 6501WAT      O26709   4.335   5.303   1.155
 6501WAT     H126710   4.293   5.368   1.196
 6501WAT     H226711   4.356   5.247   1.218
 6501WAT    EPW26712   4.332   5.305   1.170
 6502WAT      O26713   3.197   5.523   2.137
 6502WAT     H126714   3.193   5.577   2.205
 6502WAT     H226715   3.119   5.484   2.138
 6502WAT    EPW26716   3.185   5.525   2.147
 6503WAT      O26717   3.198   6.578   1.946
 6503WAT     H126718   3.133   6.623   1.909
 6503WAT     H226719   3.237   6.539   1.878
 6503WAT    EPW26720   3.194   6.579   1.931
 6504WAT      O26721   3.771   6.251   1.643
 6504WAT     H126722   3.750   6.272   1.725
 6504WAT     H226723   3.857   6.239   1.646
 6504WAT    EPW26724   3.781   6.252   1.656
 6505WAT      O26725   4.381   6.598   1.429
 6505WAT     H126726   4.452   6.647   1.431
 6505WAT     H226727   4.410   6.519   1.452
 6505WAT    EPW26728   4.396   6.593   1.433
 6506WAT      O26729   4.198   6.640   1.631
 6506WAT     H126730   4.221   6.715   1.669
 6506WAT     H226731   4.255   6.633   1.565
 6506WAT    EPW26732   4.210   6.650   1.627
 6507WAT      O26733   3.512   5.089   2.155
 6507WAT     H126734   3.454   5.030   2.127
 6507WAT     H226735   3.463   5.148   2.196
 6507WAT    EPW26736   3.496   5.089   2.157
 6508WAT      O26737   3.876   5.254   3.071
 6508WAT     H126738   3.843   5.228   2.994
 6508WAT     H226739   3.905   5.335   3.054
 6508WAT    EPW26740   3.875   5.262   3.057
 6509WAT      O26741   3.332   6.490   1.715
 6509WAT     H126742   3.376   6.415   1.727
 6509WAT     H226743   3.385   6.537   1.665
 6509WAT    EPW26744   3.346   6.486   1.709
 6510WAT      O26745   4.957   5.279   1.858
 6510WAT     H126746   4.910   5.351   1.872
 6510WAT     H226747   4.897   5.219   1.839
 6510WAT    EPW26748   4.941   5.281   1.857
 6511WAT      O26749   4.417   6.613   2.429
 6511WAT     H126750   4.487   6.663   2.416
 6511WAT     H226751   4.397   6.584   2.349
 6511WAT    EPW26752   4.424   6.616   2.415
 6512WAT      O26753   3.419   5.290   3.033
 6512WAT     H126754   3.340   5.265   3.060
 6512WAT     H226755   3.431   5.246   2.959
 6512WAT    EPW26756   3.409   5.279   3.026
 6513WAT      O26757   3.491   6.318   2.054
 6513WAT     H126758   3.553   6.312   1.993
 6513WAT     H226759   3.513   6.257   2.112
 6513WAT    EPW26760   3.503   6.308   2.054
 6514WAT      O26761   3.764   6.611   1.957
 6514WAT     H126762   3.844   6.632   1.929
 6514WAT     H226763   3.711   6.658   1.905
 6514WAT    EPW26764   3.768   6.621   1.945
 6515WAT      O26765   4.116   5.559   1.780
 6515WAT     H126766   4.145   5.508   1.716
 6515WAT     H226767   4.187   5.575   1.828
 6515WAT    EPW26768   4.130   5.554   1.778
 6516WAT      O26769   4.189   5.502   1.293
 6516WAT     H126770   4.222   5.580   1.316
 6516WAT     H226771   4.116   5.523   1.251
 6516WAT    EPW26772   4.183   5.517   1.290
 6517WAT      O26773   4.593   6.780   1.408
 6517WAT     H126774   4.645   6.759   1.341
 6517WAT     H226775   4.646   6.825   1.461
 6517WAT    EPW26776   4.609   6.783   1.406
 6518WAT      O26777   3.666   6.665   2.556
 6518WAT     H126778   3.674   6.669   2.642
 6518WAT     H226779   3.591   6.623   2.543
 6518WAT    EPW26780   3.656   6.660   2.567
 6519WAT      O26781   4.863   5.234   2.271
 6519WAT     H126782   4.932   5.234   2.217
 6519WAT     H226783   4.882   5.172   2.329
 6519WAT    EPW26784   4.876   5.224   2.271
 6520WAT      O26785   3.128   5.354   2.775
 6520WAT     H126786   3.112   5.435   2.803
 6520WAT     H226787   3.199   5.363   2.726
 6520WAT    EPW26788   3.136   5.367   2.772
 6521WAT      O26789   4.309   6.389   2.814
 6521WAT     H126790   4.302   6.416   2.896
 6521WAT     H226791   4.394   6.377   2.803
 6521WAT    EPW26792   4.320   6.391   2.824
 6522WAT      O26793   4.063   6.415   1.247
 6522WAT     H126794   4.037   6.469   1.310
 6522WAT     H226795   4.139   6.449   1.221
 6522WAT    EPW26796   4.070   6.428   1.252
 6523WAT      O26797   4.400   5.128   1.362
 6523WAT     H126798   4.459   5.064   1.365
 6523WAT     H226799   4.435   5.191   1.412
 6523WAT    EPW26800   4.414   5.128   1.370
 6524WAT      O26801   3.232   5.242   1.654
 6524WAT     H126802   3.209   5.160   1.635
 6524WAT     H226803   3.185   5.260   1.725
 6524WAT    EPW26804   3.222   5.232   1.662
 6525WAT      O26805   3.420   6.562   2.442
 6525WAT     H126806   3.368   6.491   2.442
 6525WAT     H226807   3.452   6.563   2.361
 6525WAT    EPW26808   3.417   6.552   2.430
 6526WAT      O26809   4.203   5.408   1.560
 6526WAT     H126810   4.179   5.325   1.552
 6526WAT     H226811   4.192   5.440   1.480
 6526WAT    EPW26812   4.198   5.401   1.547
 6527WAT      O26813   4.171   6.662   2.535
 6527WAT     H126814   4.249   6.652   2.498
 6527WAT     H226815   4.116   6.666   2.468
 6527WAT    EPW26816   4.174   6.661   2.520
 6528WAT      O26817   4.145   5.145   1.486
 6528WAT     H126818   4.091   5.113   1.425
 6528WAT     H226819   4.224   5.122   1.458
 6528WAT    EPW26820   4.148   5.137   1.473
 6529WAT      O26821   4.885   6.704   1.826
 6529WAT     H126822   4.845   6.780   1.838
 6529WAT     H226823   4.819   6.648   1.812
 6529WAT    EPW26824   4.870   6.707   1.826
 6530WAT      O26825   3.988   5.388   1.961
 6530WAT     H126826   4.018   5.452   1.910
 6530WAT     H226827   4.003   5.417   2.042
 6530WAT    EPW26828   3.995   5.402   1.966
 6531WAT      O26829   4.625   6.282   1.865
 6531WAT     H126830   4.689   6.225   1.855
 6531WAT     H226831   4.553   6.234   1.857
 6531WAT    EPW26832   4.624   6.267   1.863
 6532WAT      O26833   3.582   6.386   2.737
 6532WAT     H126834   3.658   6.411   2.701
 6532WAT     H226835   3.574   6.440   2.805
 6532WAT    EPW26836   3.592   6.398   2.742
 6533WAT      O26837   3.551   4.906   1.797
 6533WAT     H126838   3.572   4.987   1.771
 6533WAT     H226839   3.523   4.868   1.723
 6533WAT    EPW26840   3.550   4.912   1.782
 6534WAT      O26841   3.783   5.966   2.145
 6534WAT     H126842   3.806   5.961   2.229
 6534WAT     H226843   3.729   5.898   2.135
 6534WAT    EPW26844   3.778   5.955   2.156
 6535WAT      O26845   4.342   5.329   2.580
 6535WAT     H126846   4.342   5.368   2.658
 6535WAT     H226847   4.275   5.274   2.584
 6535WAT    EPW26848   4.332   5.327   2.592
 6536WAT      O26849   3.880   5.992   2.403
 6536WAT     H126850   3.853   6.075   2.408
 6536WAT     H226851   3.845   5.955   2.474
 6536WAT    EPW26852   3.871   5.998   2.414
 6537WAT      O26853   4.495   6.058   2.418
 6537WAT     H126854   4.418   6.033   2.449
 6537WAT     H226855   4.491   6.145   2.420
 6537WAT    EPW26856   4.483   6.067   2.423
 6538WAT      O26857   4.549   4.935   1.839
 6538WAT     H126858   4.534   4.908   1.921
 6538WAT     H226859   4.564   4.860   1.796
 6538WAT    EPW26860   4.549   4.920   1.845
 6539WAT      O26861   3.080   6.359   3.001
 6539WAT     H126862   3.144   6.371   3.059
 6539WAT     H226863   3.075   6.273   2.993
 6539WAT    EPW26864   3.089   6.348   3.008
 6540WAT      O26865   4.728   5.461   2.631
 6540WAT     H126866   4.806   5.424   2.642
 6540WAT     H226867   4.701   5.478   2.712
 6540WAT    EPW26868   4.735   5.458   2.644
 6541WAT      O26869   3.520   5.270   1.939
 6541WAT     H126870   3.550   5.227   1.869
 6541WAT     H226871   3.517   5.209   2.001
 6541WAT    EPW26872   3.524   5.255   1.938
 6542WAT      O26873   4.799   6.083   1.387
 6542WAT     H126874   4.798   6.033   1.459
 6542WAT     H226875   4.883   6.092   1.368
 6542WAT    EPW26876   4.811   6.077   1.395
 6543WAT      O26877   3.570   6.060   1.864
 6543WAT     H126878   3.613   6.022   1.798
 6543WAT     H226879   3.508   6.002   1.884
 6543WAT    EPW26880   3.567   6.046   1.857
 6544WAT      O26881   3.411   6.740   2.003
 6544WAT     H126882   3.338   6.697   1.983
 6544WAT     H226883   3.458   6.738   1.929
 6544WAT    EPW26884   3.408   6.733   1.989
 6545WAT      O26885   3.379   5.337   2.230
 6545WAT     H126886   3.450   5.383   2.251
 6545WAT     H226887   3.320   5.398   2.210
 6545WAT    EPW26888   3.381   5.353   2.230
 6546WAT      O26889   5.004   6.487   2.771
 6546WAT     H126890   4.931   6.487   2.724
 6546WAT     H226891   4.983   6.440   2.841
 6546WAT    EPW26892   4.990   6.480   2.775
 6547WAT      O26893   4.607   5.747   1.304
 6547WAT     H126894   4.600   5.830   1.277
 6547WAT     H226895   4.577   5.750   1.386
 6547WAT    EPW26896   4.602   5.760   1.312
 6548WAT      O26897   3.677   5.990   1.613
 6548WAT     H126898   3.703   6.073   1.611
 6548WAT     H226899   3.748   5.946   1.588
 6548WAT    EPW26900   3.691   5.996   1.609
 6549WAT      O26901   4.925   5.211   1.264
 6549WAT     H126902   4.961   5.159   1.204
 6549WAT     H226903   4.878   5.267   1.216
 6549WAT    EPW26904   4.923   5.212   1.248
 6550WAT      O26905   3.229   6.217   2.021
 6550WAT     H126906   3.183   6.277   2.065
 6550WAT     H226907   3.311   6.248   2.022
 6550WAT    EPW26908   3.234   6.230   2.028
 6551WAT      O26909   3.941   5.527   3.045
 6551WAT     H126910   3.887   5.544   3.111
 6551WAT     H226911   3.912   5.579   2.981
 6551WAT    EPW26912   3.929   5.537   3.045
 6552WAT      O26913   5.027   5.610   2.514
 6552WAT     H126914   5.089   5.548   2.512
 6552WAT     H226915   4.973   5.588   2.449
 6552WAT    EPW26916   5.028   5.597   2.504
 6553WAT      O26917   3.232   5.838   1.657
 6553WAT     H126918   3.214   5.752   1.656
 6553WAT     H226919   3.301   5.845   1.604
 6553WAT    EPW26920   3.239   5.826   1.649
 6554WAT      O26921   4.800   5.096   1.493
 6554WAT     H126922   4.875   5.061   1.522
 6554WAT     H226923   4.825   5.142   1.423
 6554WAT    EPW26924   4.815   5.098   1.487
 6555WAT      O26925   4.180   6.453   1.979
 6555WAT     H126926   4.135   6.524   1.955
 6555WAT     H226927   4.214   6.425   1.904
 6555WAT    EPW26928   4.178   6.460   1.964
 6556WAT      O26929   3.153   6.338   1.564
 6556WAT     H126930   3.209   6.389   1.608
 6556WAT     H226931   3.149   6.266   1.614
 6556WAT    EPW26932   3.161   6.335   1.578
 6557WAT      O26933   3.582   6.135   2.238
 6557WAT     H126934   3.635   6.176   2.295
 6557WAT     H226935   3.636   6.085   2.192
 6557WAT    EPW26936   3.598   6.134   2.240
 6558WAT      O26937   4.493   5.417   1.983
 6558WAT     H126938   4.511   5.417   2.068
 6558WAT     H226939   4.427   5.361   1.975
 6558WAT    EPW26940   4.486   5.409   1.994
 6559WAT      O26941   3.149   6.178   1.333
 6559WAT     H126942   3.222   6.130   1.329
 6559WAT     H226943   3.160   6.227   1.404
 6559WAT    EPW26944   3.161   6.178   1.343
 6560WAT      O26945   3.225   5.956   2.113
 6560WAT     H126946   3.271   5.915   2.051
 6560WAT     H226947   3.225   6.039   2.088
 6560WAT    EPW26948   3.231   5.962   2.100
 6561WAT      O26949   3.841   5.355   1.454
 6561WAT     H126950   3.842   5.328   1.371
 6561WAT     H226951   3.830   5.441   1.447
 6561WAT    EPW26952   3.840   5.364   1.441
 6562WAT      O26953   4.753   6.500   2.622
 6562WAT     H126954   4.709   6.575   2.629
 6562WAT     H226955   4.753   6.485   2.536
 6562WAT    EPW26956   4.746   6.509   2.610
 6563WAT      O26957   3.725   6.346   1.897
 6563WAT     H126958   3.733   6.432   1.910
 6563WAT     H226959   3.793   6.312   1.939
 6563WAT    EPW26960   3.736   6.354   1.905
 6564WAT      O26961   3.550   5.716   2.947
 6564WAT     H126962   3.509   5.658   2.998
 6564WAT     H226963   3.538   5.684   2.867
 6564WAT    EPW26964   3.542   5.702   2.943
 6565WAT      O26965   3.515   5.589   1.446
 6565WAT     H126966   3.502   5.521   1.498
 6565WAT     H226967   3.477   5.565   1.371
 6565WAT    EPW26968   3.507   5.575   1.443
 6566WAT      O26969   3.605   5.758   2.133
 6566WAT     H126970   3.577   5.733   2.054
 6566WAT     H226971   3.608   5.684   2.178
 6566WAT    EPW26972   3.601   5.743   2.128
 6567WAT      O26973   3.551   5.748   2.459
 6567WAT     H126974   3.559   5.685   2.399
 6567WAT     H226975   3.500   5.807   2.419
 6567WAT    EPW26976   3.545   5.747   2.444
 6568WAT      O26977   4.592   5.517   2.233
 6568WAT     H126978   4.539   5.549   2.294
 6568WAT     H226979   4.607   5.585   2.181
 6568WAT    EPW26980   4.587   5.531   2.235
 6569WAT      O26981   3.957   6.665   2.362
 6569WAT     H126982   3.926   6.595   2.321
 6569WAT     H226983   3.947   6.729   2.303
 6569WAT    EPW26984   3.951   6.664   2.347
 6570WAT      O26985   4.155   5.120   2.636
 6570WAT     H126986   4.194   5.063   2.582
 6570WAT     H226987   4.184   5.097   2.715
 6570WAT    EPW26988   4.165   5.108   2.639
 6571WAT      O26989   4.474   5.351   1.506
 6571WAT     H126990   4.529   5.399   1.553
 6571WAT     H226991   4.396   5.373   1.537
 6571WAT    EPW26992   4.471   5.361   1.518
 6572WAT      O26993   3.393   5.925   3.028
 6572WAT     H126994   3.381   5.975   2.957
 6572WAT     H226995   3.439   5.857   2.997
 6572WAT    EPW26996   3.398   5.922   3.013
 6573WAT      O26997   4.518   6.076   2.864
 6573WAT     H126998   4.547   6.156   2.844
 6573WAT     H226999   4.552   6.025   2.802
 6573WAT    EPW27000   4.527   6.081   2.852
 6574WAT      O27001   3.934   6.438   2.902
 6574WAT     H127002   3.962   6.426   2.983
 6574WAT     H227003   3.912   6.357   2.876
 6574WAT    EPW27004   3.935   6.424   2.910
 6575WAT      O27005   4.022   5.433   2.234
 6575WAT     H127006   4.081   5.497   2.236
 6575WAT     H227007   4.067   5.362   2.258
 6575WAT    EPW27008   4.037   5.432   2.238
 6576WAT      O27009   4.286   5.741   1.408
 6576WAT     H127010   4.269   5.795   1.342
 6576WAT     H227011   4.228   5.765   1.469
 6576WAT    EPW27012   4.275   5.753   1.408
 6577WAT      O27013   4.813   6.077   1.836
 6577WAT     H127014   4.821   6.028   1.907
 6577WAT     H227015   4.788   6.020   1.775
 6577WAT    EPW27016   4.810   6.061   1.837
 6578WAT      O27017   4.366   6.505   2.180
 6578WAT     H127018   4.305   6.482   2.122
 6578WAT     H227019   4.408   6.570   2.141
 6578WAT    EPW27020   4.363   6.511   2.166
 6579WAT      O27021   4.382   6.109   2.158
 6579WAT     H127022   4.309   6.146   2.189
 6579WAT     H227023   4.416   6.068   2.227
 6579WAT    EPW27024   4.376   6.109   2.173
 6580WAT      O27025   3.746   6.501   1.534
 6580WAT     H127026   3.758   6.425   1.575
 6580WAT     H227027   3.827   6.530   1.522
 6580WAT    EPW27028   3.759   6.494   1.538
 6581WAT      O27029   3.686   4.979   1.355
 6581WAT     H127030   3.673   4.953   1.438
 6581WAT     H227031   3.640   5.052   1.349
 6581WAT    EPW27032   3.678   4.986   1.367
 6582WAT      O27033   3.992   6.591   1.451
 6582WAT     H127034   4.055   6.607   1.509
 6582WAT     H227035   3.981   6.669   1.412
 6582WAT    EPW27036   4.000   6.605   1.454
 6583WAT      O27037   4.612   5.928   2.643
 6583WAT     H127038   4.579   5.973   2.576
 6583WAT     H227039   4.695   5.953   2.646
 6583WAT    EPW27040   4.619   5.938   2.634
 6584WAT      O27041   4.282   6.528   3.063
 6584WAT     H127042   4.314   6.547   3.142
 6584WAT     H227043   4.311   6.594   3.013
 6584WAT    EPW27044   4.291   6.541   3.067
 6585WAT      O27045   3.458   5.858   1.503
 6585WAT     H127046   3.480   5.775   1.490
 6585WAT     H227047   3.528   5.892   1.542
 6585WAT    EPW27048   3.471   5.851   1.507
 6586WAT      O27049   4.253   5.978   2.521
 6586WAT     H127050   4.203   6.017   2.581
 6586WAT     H227051   4.277   5.903   2.560
 6586WAT    EPW27052   4.249   5.972   2.535
 6587WAT      O27053   3.136   4.980   1.599
 6587WAT     H127054   3.139   4.927   1.530
 6587WAT     H227055   3.106   4.930   1.663
 6587WAT    EPW27056   3.132   4.965   1.598
 6588WAT      O27057   4.130   5.795   1.634
 6588WAT     H127058   4.143   5.861   1.690
 6588WAT     H227059   4.121   5.725   1.685
 6588WAT    EPW27060   4.131   5.795   1.650
 6589WAT      O27061   4.605   6.281   2.149
 6589WAT     H127062   4.622   6.295   2.064
 6589WAT     H227063   4.534   6.230   2.147
 6589WAT    EPW27064   4.597   6.275   2.136
 6590WAT      O27065   3.559   5.222   1.317
 6590WAT     H127066   3.499   5.224   1.254
 6590WAT     H227067   3.626   5.265   1.283
 6590WAT    EPW27068   3.560   5.229   1.303
 6591WAT      O27069   4.037   6.015   2.048
 6591WAT     H127070   3.954   5.993   2.063
 6591WAT     H227071   4.080   5.983   2.117
 6591WAT    EPW27072   4.031   6.007   2.061
 6592WAT      O27073   3.699   6.629   1.151
 6592WAT     H127074   3.711   6.552   1.190
 6592WAT     H227075   3.694   6.685   1.218
 6592WAT    EPW27076   3.700   6.626   1.167
 6593WAT      O27077   3.395   5.955   2.339
 6593WAT     H127078   3.452   6.015   2.310
 6593WAT     H227079   3.340   5.944   2.273
 6593WAT    EPW27080   3.396   5.962   2.325
 6594WAT      O27081   3.712   5.455   2.008
 6594WAT     H127082   3.792   5.429   1.984
 6594WAT     H227083   3.661   5.389   1.981
 6594WAT    EPW27084   3.716   5.441   2.000
 6595WAT      O27085   4.986   6.663   1.386
 6595WAT     H127086   5.056   6.615   1.365
 6595WAT     H227087   4.936   6.606   1.430
 6595WAT    EPW27088   4.989   6.647   1.389
 6596WAT      O27089   3.195   5.560   1.648
 6596WAT     H127090   3.229   5.522   1.719
 6596WAT     H227091   3.208   5.501   1.585
 6596WAT    EPW27092   3.202   5.546   1.649
 6597WAT      O27093   4.746   5.950   2.326
 6597WAT     H127094   4.747   5.872   2.366
 6597WAT     H227095   4.665   5.980   2.341
 6597WAT    EPW27096   4.734   5.943   2.334
 6598WAT      O27097   3.708   5.837   1.204
 6598WAT     H127098   3.719   5.774   1.263
 6598WAT     H227099   3.659   5.799   1.143
 6598WAT    EPW27100   3.702   5.822   1.204
 6599WAT      O27101   3.365   6.053   2.785
 6599WAT     H127102   3.334   6.002   2.722
 6599WAT     H227103   3.337   6.133   2.763
 6599WAT    EPW27104   3.356   6.058   2.773
 6600WAT      O27105   4.847   5.916   2.066
 6600WAT     H127106   4.818   5.938   2.145
 6600WAT     H227107   4.933   5.906   2.077
 6600WAT    EPW27108   4.856   5.918   2.079
 6601WAT      O27109   3.778   5.628   1.386
 6601WAT     H127110   3.809   5.687   1.442
 6601WAT     H227111   3.696   5.614   1.412
 6601WAT    EPW27112   3.771   5.635   1.398
 6602WAT      O27113   4.630   5.307   2.914
 6602WAT     H127114   4.559   5.286   2.960
 6602WAT     H227115   4.618   5.265   2.838
 6602WAT    EPW27116   4.618   5.298   2.909
 6603WAT      O27117   3.180   5.155   2.113
 6603WAT     H127118   3.145   5.192   2.042
 6603WAT     H227119   3.236   5.216   2.142
 6603WAT    EPW27120   3.183   5.170   2.107
 6604WAT      O27121   4.996   6.413   2.175
 6604WAT     H127122   5.027   6.463   2.111
 6604WAT     H227123   5.060   6.412   2.234
 6604WAT    EPW27124   5.010   6.420   2.174
 6605WAT      O27125   4.450   5.649   2.996
 6605WAT     H127126   4.418   5.579   2.955
 6605WAT     H227127   4.382   5.703   3.001
 6605WAT    EPW27128   4.435   5.646   2.991
 6606WAT      O27129   4.690   5.673   2.858
 6606WAT     H127130   4.709   5.758   2.868
 6606WAT     H227131   4.611   5.666   2.895
 6606WAT    EPW27132   4.681   5.685   2.865
 6607WAT      O27133   4.672   6.329   1.384
 6607WAT     H127134   4.707   6.250   1.391
 6607WAT     H227135   4.595   6.321   1.424
 6607WAT    EPW27136   4.666   6.316   1.391
 6608WAT      O27137   4.751   5.474   1.894
 6608WAT     H127138   4.680   5.433   1.920
 6608WAT     H227139   4.748   5.551   1.936
 6608WAT    EPW27140   4.740   5.479   1.904
 6609WAT      O27141   5.014   5.778   3.006
 6609WAT     H127142   5.020   5.727   2.935
 6609WAT     H227143   5.091   5.821   3.007
 6609WAT    EPW27144   5.026   5.777   2.995
 6610WAT      O27145   4.876   6.015   2.653
 6610WAT     H127146   4.941   5.964   2.624
 6610WAT     H227147   4.877   6.083   2.598
 6610WAT    EPW27148   4.886   6.018   2.641
 6611WAT      O27149   4.345   6.143   1.305
 6611WAT     H127150   4.420   6.098   1.298
 6611WAT     H227151   4.317   6.148   1.222
 6611WAT    EPW27152   4.352   6.137   1.291
 6612WAT      O27153   3.785   6.257   2.389
 6612WAT     H127154   3.790   6.302   2.463
 6612WAT     H227155   3.802   6.316   2.327
 6612WAT    EPW27156   3.788   6.272   2.391
 6613WAT      O27157   3.629   6.109   2.725
 6613WAT     H127158   3.550   6.080   2.748
 6613WAT     H227159   3.617   6.195   2.717
 6613WAT    EPW27160   3.615   6.117   2.727
 6614WAT      O27161   4.591   5.214   2.648
 6614WAT     H127162   4.640   5.283   2.623
 6614WAT     H227163   4.511   5.236   2.622
 6614WAT    EPW27164   4.586   5.228   2.640
 6615WAT      O27165   4.116   5.890   2.294
 6615WAT     H127166   4.169   5.918   2.358
 6615WAT     H227167   4.037   5.908   2.324
 6615WAT    EPW27168   4.113   5.897   2.308
 6616WAT      O27169   3.749   5.465   2.687
 6616WAT     H127170   3.751   5.388   2.729
 6616WAT     H227171   3.775   5.444   2.606
 6616WAT    EPW27172   3.753   5.450   2.681
 6617WAT      O27173   4.027   6.670   1.876
 6617WAT     H127174   4.027   6.754   1.898
 6617WAT     H227175   4.063   6.669   1.797
 6617WAT    EPW27176   4.032   6.682   1.868
 6618WAT      O27177   4.567   4.947   2.369
 6618WAT     H127178   4.565   5.032   2.349
 6618WAT     H227179   4.606   4.946   2.447
 6618WAT    EPW27180   4.572   4.960   2.377
 6619WAT      O27181   3.881   5.059   2.642
 6619WAT     H127182   3.966   5.079   2.641
 6619WAT     H227183   3.878   4.986   2.690
 6619WAT    EPW27184   3.893   5.051   2.649
 6620WAT      O27185   3.841   6.462   2.206
 6620WAT     H127186   3.793   6.508   2.150
 6620WAT     H227187   3.887   6.409   2.154
 6620WAT    EPW27188   3.841   6.461   2.190
 6621WAT      O27189   4.255   6.083   2.937
 6621WAT     H127190   4.337   6.086   2.907
 6621WAT     H227191   4.207   6.109   2.869
 6621WAT    EPW27192   4.260   6.087   2.922
 6622WAT      O27193   4.587   6.344   2.795
 6622WAT     H127194   4.622   6.377   2.868
 6622WAT     H227195   4.634   6.381   2.731
 6622WAT    EPW27196   4.599   6.354   2.796
 6623WAT      O27197   4.851   5.627   1.269
 6623WAT     H127198   4.898   5.686   1.224
 6623WAT     H227199   4.773   5.665   1.275
 6623WAT    EPW27200   4.847   5.642   1.263
 6624WAT      O27201   3.977   5.915   1.262
 6624WAT     H127202   3.899   5.910   1.223
 6624WAT     H227203   3.986   6.000   1.279
 6624WAT    EPW27204   3.967   5.927   1.259
 6625WAT      O27205   3.611   5.509   2.262
 6625WAT     H127206   3.644   5.488   2.184
 6625WAT     H227207   3.671   5.480   2.318
 6625WAT    EPW27208   3.625   5.501   2.259
 6626WAT      O27209   4.340   5.450   2.828
 6626WAT     H127210   4.266   5.495   2.828
 6626WAT     H227211   4.329   5.390   2.891
 6626WAT    EPW27212   4.328   5.448   2.837
 6627WAT      O27213   4.380   5.558   2.417
 6627WAT     H127214   4.380   5.617   2.481
 6627WAT     H227215   4.367   5.483   2.459
 6627WAT    EPW27216   4.378   5.556   2.433
 6628WAT      O27217   4.095   6.649   2.805
 6628WAT     H127218   4.103   6.644   2.718
 6628WAT     H227219   4.054   6.575   2.826
 6628WAT    EPW27220   4.090   6.638   2.795
 6629WAT      O27221   4.638   5.531   1.645
 6629WAT     H127222   4.665   5.507   1.725
 6629WAT     H227223   4.710   5.563   1.608
 6629WAT    EPW27224   4.653   5.532   1.652
 6630WAT      O27225   3.901   5.069   2.184
 6630WAT     H127226   3.848   5.125   2.226
 6630WAT     H227227   3.895   5.093   2.101
 6630WAT    EPW27228   3.892   5.081   2.178
 6631WAT      O27229   4.759   5.104   1.775
 6631WAT     H127230   4.683   5.067   1.798
 6631WAT     H227231   4.749   5.117   1.689
 6631WAT    EPW27232   4.746   5.100   1.765
 6632WAT      O27233   4.754   5.916   1.610
 6632WAT     H127234   4.801   5.844   1.598
 6632WAT     H227235   4.671   5.888   1.601
 6632WAT    EPW27236   4.749   5.901   1.607
 6633WAT      O27237   4.098   6.128   2.705
 6633WAT     H127238   4.022   6.126   2.748
 6633WAT     H227239   4.102   6.209   2.673
 6633WAT    EPW27240   4.087   6.139   2.706
 6634WAT      O27241   3.091   5.078   2.817
 6634WAT     H127242   3.103   5.164   2.818
 6634WAT     H227243   3.028   5.065   2.876
 6634WAT    EPW27244   3.083   5.089   2.825
 6635WAT      O27245   3.643   6.790   2.293
 6635WAT     H127246   3.656   6.765   2.375
 6635WAT     H227247   3.616   6.717   2.253
 6635WAT    EPW27248   3.641   6.775   2.299
 6636WAT      O27249   3.479   5.336   1.561
 6636WAT     H127250   3.492   5.297   1.484
 6636WAT     H227251   3.400   5.307   1.586
 6636WAT    EPW27252   3.469   5.326   1.553
 6637WAT      O27253   4.414   6.089   1.882
 6637WAT     H127254   4.400   6.095   1.968
 6637WAT     H227255   4.446   6.009   1.872
 6637WAT    EPW27256   4.417   6.078   1.893
 6638WAT      O27257   4.158   6.020   1.797
 6638WAT     H127258   4.117   6.014   1.874
 6638WAT     H227259   4.238   6.047   1.818
 6638WAT    EPW27260   4.163   6.023   1.811
 6639WAT      O27261   4.113   6.398   2.621
 6639WAT     H127262   4.173   6.397   2.684
 6639WAT     H227263   4.137   6.466   2.571
 6639WAT    EPW27264   4.125   6.408   2.623
 6640WAT      O27265   4.961   5.614   2.787
 6640WAT     H127266   4.875   5.625   2.792
 6640WAT     H227267   4.978   5.619   2.701
 6640WAT    EPW27268   4.951   5.616   2.775
 6641WAT      O27269   4.354   5.744   2.625
 6641WAT     H127270   4.294   5.710   2.680
 6641WAT     H227271   4.423   5.758   2.676
 6641WAT    EPW27272   4.355   5.741   2.641
 6642WAT      O27273   3.290   6.740   2.809
 6642WAT     H127274   3.237   6.672   2.800
 6642WAT     H227275   3.238   6.803   2.839
 6642WAT    EPW27276   3.275   6.739   2.812
 6643WAT      O27277   4.225   5.818   3.010
 6643WAT     H127278   4.233   5.901   2.985
 6643WAT     H227279   4.164   5.822   3.073
 6643WAT    EPW27280   4.217   5.831   3.016
 6644WAT      O27281   4.489   6.746   2.113
 6644WAT     H127282   4.430   6.806   2.136
 6644WAT     H227283   4.550   6.753   2.175
 6644WAT    EPW27284   4.489   6.756   2.125
 6645WAT      O27285   4.179   6.228   2.305
 6645WAT     H127286   4.124   6.193   2.364
 6645WAT     H227287   4.238   6.269   2.354
 6645WAT    EPW27288   4.179   6.229   2.321
 6646WAT      O27289   4.711   6.441   3.022
 6646WAT     H127290   4.792   6.410   3.016
 6646WAT     H227291   4.678   6.399   3.091
 6646WAT    EPW27292   4.718   6.430   3.031
 6647WAT      O27293   3.509   5.602   2.695
 6647WAT     H127294   3.512   5.653   2.624
 6647WAT     H227295   3.584   5.557   2.691
 6647WAT    EPW27296   3.521   5.603   2.684
 6648WAT      O27297   3.337   5.406   2.597
 6648WAT     H127298   3.288   5.453   2.543
 6648WAT     H227299   3.389   5.465   2.634
 6648WAT    EPW27300   3.338   5.422   2.595
 6649WAT      O27301   4.857   5.665   1.546
 6649WAT     H127302   4.866   5.654   1.460
 6649WAT     H227303   4.928   5.627   1.579
 6649WAT    EPW27304   4.869   5.658   1.538
 6650WAT      O27305   3.483   5.134   2.803
 6650WAT     H127306   3.441   5.057   2.807
 6650WAT     H227307   3.482   5.152   2.717
 6650WAT    EPW27308   3.476   5.125   2.791
 6651WAT      O27309   4.252   6.381   1.719
 6651WAT     H127310   4.233   6.462   1.692
 6651WAT     H227311   4.182   6.335   1.695
 6651WAT    EPW27312   4.239   6.386   1.711
 6652WAT      O27313   4.703   5.711   2.484
 6652WAT     H127314   4.711   5.633   2.521
 6652WAT     H227315   4.669   5.761   2.548
 6652WAT    EPW27316   4.699   5.707   2.499
 6653WAT      O27317   3.251   5.919   2.571
 6653WAT     H127318   3.295   5.943   2.500
 6653WAT     H227319   3.216   5.842   2.550
 6653WAT    EPW27320   3.252   5.911   2.557
 6654WAT      O27321   3.386   5.505   1.210
 6654WAT     H127322   3.313   5.496   1.258
 6654WAT     H227323   3.392   5.428   1.169
 6654WAT    EPW27324   3.376   5.492   1.211
 6655WAT      O27325   4.236   5.047   2.888
 6655WAT     H127326   4.284   5.095   2.943
 6655WAT     H227327   4.196   4.989   2.941
 6655WAT    EPW27328   4.237   5.045   2.904
 6656WAT      O27329   4.261   5.269   1.949
 6656WAT     H127330   4.177   5.294   1.940
 6656WAT     H227331   4.273   5.216   1.880
 6656WAT    EPW27332   4.250   5.265   1.937
 6657WAT      O27333   3.684   6.383   1.294
 6657WAT     H127334   3.723   6.414   1.365
 6657WAT     H227335   3.608   6.351   1.325
 6657WAT    EPW27336   3.678   6.383   1.309
 6658WAT      O27337   4.583   5.224   2.257
 6658WAT     H127338   4.669   5.214   2.248
 6658WAT     H227339   4.573   5.308   2.278
 6658WAT    EPW27340   4.594   5.235   2.259
 6659WAT      O27341   3.749   5.874   2.620
 6659WAT     H127342   3.708   5.944   2.652
 6659WAT     H227343   3.688   5.834   2.572
 6659WAT    EPW27344   3.734   5.878   2.618
 6660WAT      O27345   4.669   5.707   2.033
 6660WAT     H127346   4.730   5.769   2.046
 6660WAT     H227347   4.615   5.744   1.976
 6660WAT    EPW27348   4.670   5.722   2.026
 6661WAT      O27349   4.664   6.544   1.761
 6661WAT     H127350   4.648   6.465   1.795
 6661WAT     H227351   4.705   6.526   1.686
 6661WAT    EPW27352   4.667   6.530   1.755
 6662WAT      O27353   3.457   6.292   1.426
 6662WAT     H127354   3.457   6.275   1.512
 6662WAT     H227355   3.441   6.214   1.390
 6662WAT    EPW27356   3.455   6.278   1.434
 6663WAT      O27357   3.781   6.132   1.204
 6663WAT     H127358   3.719   6.073   1.223
 6663WAT     H227359   3.749   6.206   1.238
 6663WAT    EPW27360   3.767   6.134   1.212
 6664WAT      O27361   3.738   5.138   2.411
 6664WAT     H127362   3.657   5.148   2.442
 6664WAT     H227363   3.781   5.102   2.478
 6664WAT    EPW27364   3.732   5.135   2.426
 6665WAT      O27365   4.919   5.031   2.450
 6665WAT     H127366   4.885   5.031   2.530
 6665WAT     H227367   5.005   5.019   2.464
 6665WAT    EPW27368   4.927   5.029   2.464
 6666WAT      O27369   4.128   5.186   2.298
 6666WAT     H127370   4.065   5.134   2.267
 6666WAT     H227371   4.201   5.155   2.261
 6666WAT    EPW27372   4.130   5.173   2.288
 6667WAT      O27373   4.428   6.328   2.402
 6667WAT     H127374   4.438   6.400   2.451
 6667WAT     H227375   4.436   6.358   2.320
 6667WAT    EPW27376   4.431   6.343   2.397
 6668WAT      O27377   4.369   6.709   2.856
 6668WAT     H127378   4.297   6.672   2.824
 6668WAT     H227379   4.345   6.792   2.870
 6668WAT    EPW27380   4.355   6.716   2.854
 6669WAT      O27381   3.873   5.681   2.802
 6669WAT     H127382   3.836   5.611   2.766
 6669WAT     H227383   3.841   5.748   2.757
 6669WAT    EPW27384   3.863   5.680   2.790
 6670WAT      O27385   3.958   5.032   1.313
 6670WAT     H127386   3.966   5.036   1.226
 6670WAT     H227387   3.872   5.030   1.326
 6670WAT    EPW27388   3.946   5.032   1.302
 6671WAT      O27389   4.886   6.179   2.426
 6671WAT     H127390   4.852   6.112   2.382
 6671WAT     H227391   4.838   6.247   2.400
 6671WAT    EPW27392   4.874   6.179   2.416
 6672WAT      O27393   3.734   6.631   2.839
 6672WAT     H127394   3.714   6.648   2.923
 6672WAT     H227395   3.799   6.573   2.845
 6672WAT    EPW27396   3.741   6.625   2.853
 6673WAT      O27397   4.764   6.414   2.339
 6673WAT     H127398   4.832   6.429   2.287
 6673WAT     H227399   4.704   6.380   2.285
 6673WAT    EPW27400   4.765   6.411   2.323
 6674WAT      O27401   3.484   5.179   2.526
 6674WAT     H127402   3.427   5.116   2.508
 6674WAT     H227403   3.436   5.251   2.530
 6674WAT    EPW27404   3.469   5.180   2.524
 6675WAT      O27405   4.349   5.105   2.153
 6675WAT     H127406   4.421   5.146   2.180
 6675WAT     H227407   4.323   5.153   2.085
 6675WAT    EPW27408   4.356   5.118   2.147
 6676WAT      O27409   3.442   6.542   2.956
 6676WAT     H127410   3.507   6.577   3.003
 6676WAT     H227411   3.406   6.612   2.916
 6676WAT    EPW27412   3.446   6.558   2.957
 6677WAT      O27413   4.321   5.630   1.952
 6677WAT     H127414   4.378   5.564   1.960
 6677WAT     H227415   4.286   5.637   2.032
 6677WAT    EPW27416   4.324   5.621   1.965
 6678WAT      O27417   3.322   5.473   1.887
 6678WAT     H127418   3.281   5.489   1.962
 6678WAT     H227419   3.367   5.399   1.903
 6678WAT    EPW27420   3.323   5.464   1.900
 6679WAT      O27421   3.318   6.314   2.691
 6679WAT     H127422   3.266   6.377   2.720
 6679WAT     H227423   3.399   6.345   2.703
 6679WAT    EPW27424   3.322   6.328   2.697
 6680WAT      O27425   4.511   5.764   1.573
 6680WAT     H127426   4.537   5.684   1.593
 6680WAT     H227427   4.435   5.752   1.531
 6680WAT    EPW27428   4.503   5.751   1.570
 6681WAT      O27429   3.502   6.628   1.530
 6681WAT     H127430   3.458   6.602   1.460
 6681WAT     H227431   3.574   6.579   1.528
 6681WAT    EPW27432   3.506   6.617   1.520
 6682WAT      O27433   3.889   5.844   1.514
 6682WAT     H127434   3.919   5.873   1.437
 6682WAT     H227435   3.962   5.828   1.559
 6682WAT    EPW27436   3.904   5.846   1.509
 6683WAT      O27437   4.775   6.715   1.208
 6683WAT     H127438   4.846   6.707   1.258
 6683WAT     H227439   4.758   6.633   1.184
 6683WAT    EPW27440   4.783   6.702   1.212
 6684WAT      O27441   4.797   5.924   2.912
 6684WAT     H127442   4.868   5.892   2.950
 6684WAT     H227443   4.828   5.967   2.842
 6684WAT    EPW27444   4.812   5.925   2.907
 6685WAT      O27445   4.423   6.332   1.500
 6685WAT     H127446   4.379   6.328   1.575
 6685WAT     H227447   4.383   6.273   1.449
 6685WAT    EPW27448   4.411   6.323   1.503
 6686WAT      O27449   4.865   5.341   3.070
 6686WAT     H127450   4.852   5.426   3.079
 6686WAT     H227451   4.793   5.314   3.028
 6686WAT    EPW27452   4.852   5.349   3.065
 6687WAT      O27453   4.880   5.513   2.292
 6687WAT     H127454   4.796   5.532   2.286
 6687WAT     H227455   4.882   5.426   2.290
 6687WAT    EPW27456   4.868   5.503   2.291
 6688WAT      O27457   3.750   5.221   2.822
 6688WAT     H127458   3.792   5.168   2.766
 6688WAT     H227459   3.669   5.188   2.824
 6688WAT    EPW27460   3.744   5.208   2.814
 6689WAT      O27461   4.544   5.919   3.155
 6689WAT     H127462   4.610   5.957   3.197
 6689WAT     H227463   4.559   5.938   3.071
 6689WAT    EPW27464   4.556   5.927   3.149
 6690WAT      O27465   3.518   6.562   2.183
 6690WAT     H127466   3.514   6.483   2.146
 6690WAT     H227467   3.483   6.615   2.123
 6690WAT    EPW27468   3.512   6.558   2.169
 6691WAT      O27469   4.076   6.160   1.369
 6691WAT     H127470   4.161   6.146   1.355
 6691WAT     H227471   4.060   6.234   1.325
 6691WAT    EPW27472   4.086   6.169   1.360
 6692WAT      O27473   3.274   6.782   2.530
 6692WAT     H127474   3.281   6.767   2.615
 6692WAT     H227475   3.315   6.714   2.494
 6692WAT    EPW27476   3.281   6.770   2.537
 6693WAT      O27477   4.166   5.653   0.339
 6693WAT     H127478   4.151   5.738   0.354
 6693WAT     H227479   4.238   5.636   0.387
 6693WAT    EPW27480   4.175   5.663   0.348
 6694WAT      O27481   3.231   6.331   0.527
 6694WAT     H127482   3.252   6.320   0.611
 6694WAT     H227483   3.173   6.268   0.512
 6694WAT    EPW27484   3.226   6.320   0.537
 6695WAT      O27485   3.867   6.169   0.947
 6695WAT     H127486   3.846   6.152   1.030
 6695WAT     H227487   3.793   6.154   0.903
 6695WAT    EPW27488   3.853   6.165   0.953
 6696WAT      O27489   3.775   5.433   0.523
 6696WAT     H127490   3.855   5.433   0.486
 6696WAT     H227491   3.751   5.349   0.517
 6696WAT    EPW27492   3.783   5.420   0.516
 6697WAT      O27493   3.860   6.435   0.691
 6697WAT     H127494   3.871   6.499   0.632
 6697WAT     H227495   3.941   6.409   0.709
 6697WAT    EPW27496   3.874   6.441   0.684
 6698WAT      O27497   4.143   5.724   0.905
 6698WAT     H127498   4.057   5.714   0.904
 6698WAT     H227499   4.158   5.765   0.981
 6698WAT    EPW27500   4.133   5.728   0.916
 6699WAT      O27501   4.565   4.905   0.801
 6699WAT     H127502   4.554   4.986   0.772
 6699WAT     H227503   4.497   4.892   0.854
 6699WAT    EPW27504   4.553   4.915   0.805
 6700WAT      O27505   3.180   5.690   0.312
 6700WAT     H127506   3.131   5.762   0.316
 6700WAT     H227507   3.124   5.627   0.335
 6700WAT    EPW27508   3.164   5.691   0.316
 6701WAT      O27509   3.405   4.914   0.294
 6701WAT     H127510   3.384   4.925   0.210
 6701WAT     H227511   3.492   4.905   0.293
 6701WAT    EPW27512   3.415   4.914   0.282
 6702WAT      O27513   3.787   5.324   1.176
 6702WAT     H127514   3.789   5.284   1.098
 6702WAT     H227515   3.836   5.395   1.164
 6702WAT    EPW27516   3.795   5.329   1.162
 6703WAT      O27517   4.433   6.608   0.603
 6703WAT     H127518   4.493   6.639   0.658
 6703WAT     H227519   4.464   6.630   0.525
 6703WAT    EPW27520   4.446   6.616   0.600
 6704WAT      O27521   3.384   5.244   1.103
 6704WAT     H127522   3.303   5.213   1.093
 6704WAT     H227523   3.427   5.210   1.035
 6704WAT    EPW27524   3.378   5.235   1.091
 6705WAT      O27525   3.979   5.032   1.038
 6705WAT     H127526   3.994   4.955   1.000
 6705WAT     H227527   3.906   5.061   0.998
 6705WAT    EPW27528   3.970   5.025   1.027
 6706WAT      O27529   3.651   6.657   0.610
 6706WAT     H127530   3.672   6.659   0.695
 6706WAT     H227531   3.574   6.616   0.609
 6706WAT    EPW27532   3.643   6.651   0.623
 6707WAT      O27533   4.906   5.213   0.452
 6707WAT     H127534   4.969   5.172   0.407
 6707WAT     H227535   4.900   5.166   0.525
 6707WAT    EPW27536   4.914   5.200   0.456
 6708WAT      O27537   3.135   5.344   0.847
 6708WAT     H127538   3.118   5.420   0.886
 6708WAT     H227539   3.195   5.365   0.787
 6708WAT    EPW27540   3.141   5.358   0.844
 6709WAT      O27541   4.322   6.420   0.910
 6709WAT     H127542   4.309   6.439   0.995
 6709WAT     H227543   4.408   6.408   0.905
 6709WAT    EPW27544   4.332   6.421   0.922
 6710WAT      O27545   3.406   6.547   0.507
 6710WAT     H127546   3.354   6.478   0.518
 6710WAT     H227547   3.439   6.534   0.427
 6710WAT    EPW27548   3.403   6.535   0.496
 6711WAT      O27549   4.176   6.696   0.651
 6711WAT     H127550   4.256   6.666   0.629
 6711WAT     H227551   4.124   6.661   0.590
 6711WAT    EPW27552   4.180   6.686   0.639
 6712WAT      O27553   3.578   6.404   0.819
 6712WAT     H127554   3.653   6.438   0.791
 6712WAT     H227555   3.564   6.444   0.895
 6712WAT    EPW27556   3.587   6.415   0.826
 6713WAT      O27557   3.729   5.949   0.265
 6713WAT     H127558   3.768   5.954   0.342
 6713WAT     H227559   3.696   5.868   0.263
 6713WAT    EPW27560   3.730   5.938   0.276
 6714WAT      O27561   4.341   5.343   0.655
 6714WAT     H127562   4.333   5.394   0.725
 6714WAT     H227563   4.273   5.290   0.660
 6714WAT    EPW27564   4.330   5.343   0.666
 6715WAT      O27565   3.861   5.987   0.504
 6715WAT     H127566   3.841   6.072   0.513
 6715WAT     H227567   3.841   5.952   0.581
 6715WAT    EPW27568   3.855   5.995   0.517
 6716WAT      O27569   4.462   6.124   0.562
 6716WAT     H127570   4.394   6.071   0.577
 6716WAT     H227571   4.427   6.203   0.564
 6716WAT    EPW27572   4.447   6.128   0.565
 6717WAT      O27573   3.124   6.388   1.151
 6717WAT     H127574   3.184   6.435   1.194
 6717WAT     H227575   3.127   6.310   1.190
 6717WAT    EPW27576   3.133   6.384   1.163
 6718WAT      O27577   4.755   5.364   0.770
 6718WAT     H127578   4.838   5.346   0.790
 6718WAT     H227579   4.718   5.378   0.848
 6718WAT    EPW27580   4.762   5.364   0.785
 6719WAT      O27581   3.387   5.527   0.408
 6719WAT     H127582   3.465   5.554   0.379
 6719WAT     H227583   3.331   5.582   0.370
 6719WAT    EPW27584   3.390   5.539   0.398
 6720WAT      O27585   5.024   6.499   0.893
 6720WAT     H127586   4.945   6.510   0.858
 6720WAT     H227587   5.008   6.459   0.969
 6720WAT    EPW27588   5.010   6.495   0.899
 6721WAT      O27589   3.939   5.560   1.166
 6721WAT     H127590   3.889   5.594   1.230
 6721WAT     H227591   3.917   5.609   1.097
 6721WAT    EPW27592   3.928   5.572   1.166
 6722WAT      O27593   5.027   5.627   0.645
 6722WAT     H127594   5.086   5.563   0.642
 6722WAT     H227595   4.964   5.600   0.591
 6722WAT    EPW27596   5.026   5.614   0.637
 6723WAT      O27597   3.562   6.170   0.343
 6723WAT     H127598   3.619   6.199   0.403
 6723WAT     H227599   3.608   6.111   0.298
 6723WAT    EPW27600   3.577   6.165   0.346
 6724WAT      O27601   4.771   6.543   0.777
 6724WAT     H127602   4.722   6.615   0.785
 6724WAT     H227603   4.763   6.522   0.693
 6724WAT    EPW27604   4.763   6.551   0.766
 6725WAT      O27605   3.516   5.694   1.047
 6725WAT     H127606   3.475   5.633   1.095
 6725WAT     H227607   3.513   5.662   0.966
 6725WAT    EPW27608   3.510   5.680   1.042
 6726WAT      O27609   3.565   5.773   0.574
 6726WAT     H127610   3.595   5.726   0.506
 6726WAT     H227611   3.510   5.830   0.538
 6726WAT    EPW27612   3.562   5.774   0.559
 6727WAT      O27613   4.614   5.492   0.362
 6727WAT     H127614   4.548   5.522   0.411
 6727WAT     H227615   4.605   5.536   0.287
 6727WAT    EPW27616   4.603   5.503   0.358
 6728WAT      O27617   3.976   6.598   0.484
 6728WAT     H127618   3.971   6.538   0.421
 6728WAT     H227619   3.949   6.671   0.445
 6728WAT    EPW27620   3.971   6.600   0.469
 6729WAT      O27621   4.157   5.113   0.687
 6729WAT     H127622   4.176   5.029   0.674
 6729WAT     H227623   4.179   5.126   0.770
 6729WAT    EPW27624   4.163   5.103   0.697
 6730WAT      O27625   3.357   5.915   1.081
 6730WAT     H127626   3.361   5.960   1.006
 6730WAT     H227627   3.412   5.848   1.067
 6730WAT    EPW27628   3.366   5.912   1.068
 6731WAT      O27629   4.531   6.108   0.965
 6731WAT     H127630   4.559   6.188   0.944
 6731WAT     H227631   4.567   6.057   0.904
 6731WAT    EPW27632   4.541   6.112   0.953
 6732WAT      O27633   3.949   6.434   0.991
 6732WAT     H127634   3.976   6.426   1.074
 6732WAT     H227635   3.924   6.354   0.970
 6732WAT    EPW27636   3.950   6.421   1.001
 6733WAT      O27637   4.014   5.423   0.390
 6733WAT     H127638   4.065   5.490   0.368
 6733WAT     H227639   4.066   5.354   0.382
 6733WAT    EPW27640   4.029   5.423   0.386
 6734WAT      O27641   4.464   6.398   0.267
 6734WAT     H127642   4.421   6.387   0.192
 6734WAT     H227643   4.479   6.484   0.270
 6734WAT    EPW27644   4.460   6.409   0.256
 6735WAT      O27645   4.309   6.257   0.067
 6735WAT     H127646   4.253   6.242   0.132
 6735WAT     H227647   4.360   6.187   0.068
 6735WAT    EPW27648   4.308   6.244   0.077
 6736WAT      O27649   4.609   5.963   0.735
 6736WAT     H127650   4.574   6.024   0.684
 6736WAT     H227651   4.695   5.974   0.726
 6736WAT    EPW27652   4.617   5.973   0.726
 6737WAT      O27653   4.300   6.541   1.169
 6737WAT     H127654   4.330   6.561   1.249
 6737WAT     H227655   4.324   6.610   1.121
 6737WAT    EPW27656   4.308   6.554   1.174
 6738WAT      O27657   4.800   4.980   0.933
 6738WAT     H127658   4.721   4.965   0.898
 6738WAT     H227659   4.794   4.944   1.012
 6738WAT    EPW27660   4.787   4.973   0.940
 6739WAT      O27661   4.247   5.962   0.621
 6739WAT     H127662   4.197   5.992   0.687
 6739WAT     H227663   4.285   5.891   0.655
 6739WAT    EPW27664   4.245   5.956   0.636
 6740WAT      O27665   4.653   6.230   0.387
 6740WAT     H127666   4.603   6.279   0.335
 6740WAT     H227667   4.596   6.186   0.435
 6740WAT    EPW27668   4.637   6.231   0.386
 6741WAT      O27669   3.973   5.990   0.112
 6741WAT     H127670   3.893   5.981   0.144
 6741WAT     H227671   4.024   5.957   0.174
 6741WAT    EPW27672   3.969   5.984   0.126
 6742WAT      O27673   3.396   5.953   0.436
 6742WAT     H127674   3.435   6.029   0.416
 6742WAT     H227675   3.356   5.930   0.362
 6742WAT    EPW27676   3.396   5.961   0.422
 6743WAT      O27677   4.685   5.807   0.460
 6743WAT     H127678   4.697   5.742   0.517
 6743WAT     H227679   4.619   5.853   0.495
 6743WAT    EPW27680   4.677   5.804   0.473
 6744WAT      O27681   3.368   6.049   0.842
 6744WAT     H127682   3.327   6.000   0.784
 6744WAT     H227683   3.334   6.129   0.829
 6744WAT    EPW27684   3.357   6.054   0.832
 6745WAT      O27685   4.908   5.904   0.331
 6745WAT     H127686   4.839   5.871   0.373
 6745WAT     H227687   4.878   5.918   0.250
 6745WAT    EPW27688   4.894   5.901   0.325
 6746WAT      O27689   4.555   5.340   0.987
 6746WAT     H127690   4.489   5.333   1.043
 6746WAT     H227691   4.538   5.280   0.926
 6746WAT    EPW27692   4.543   5.330   0.986
 6747WAT      O27693   4.955   6.520   0.369
 6747WAT     H127694   4.993   6.532   0.290
 6747WAT     H227695   5.011   6.467   0.410
 6747WAT    EPW27696   4.969   6.514   0.363
 6748WAT      O27697   4.448   5.675   1.086
 6748WAT     H127698   4.491   5.680   1.162
 6748WAT     H227699   4.376   5.723   1.100
 6748WAT    EPW27700   4.444   5.683   1.099
 6749WAT      O27701   4.683   5.703   0.931
 6749WAT     H127702   4.706   5.786   0.948
 6749WAT     H227703   4.609   5.693   0.977
 6749WAT    EPW27704   4.675   5.714   0.940
 6750WAT      O27705   4.998   5.797   1.109
 6750WAT     H127706   5.002   5.740   1.043
 6750WAT     H227707   5.077   5.835   1.107
 6750WAT    EPW27708   5.010   5.794   1.099
 6751WAT      O27709   4.882   6.025   0.723
 6751WAT     H127710   4.949   5.972   0.706
 6751WAT     H227711   4.883   6.081   0.656
 6751WAT    EPW27712   4.892   6.025   0.710
 6752WAT      O27713   3.785   6.254   0.493
 6752WAT     H127714   3.797   6.305   0.563
 6752WAT     H227715   3.831   6.294   0.431
 6752WAT    EPW27716   3.793   6.268   0.495
 6753WAT      O27717   3.631   6.128   0.806
 6753WAT     H127718   3.551   6.095   0.820
 6753WAT     H227719   3.617   6.214   0.800
 6753WAT    EPW27720   3.617   6.136   0.807
 6754WAT      O27721   4.546   5.179   0.751
 6754WAT     H127722   4.619   5.223   0.733
 6754WAT     H227723   4.484   5.224   0.709
 6754WAT    EPW27724   4.548   5.192   0.742
 6755WAT      O27725   4.107   5.941   0.385
 6755WAT     H127726   4.159   5.941   0.455
 6755WAT     H227727   4.027   5.948   0.419
 6755WAT    EPW27728   4.103   5.942   0.400
 6756WAT      O27729   3.754   5.465   0.798
 6756WAT     H127730   3.761   5.386   0.834
 6756WAT     H227731   3.771   5.452   0.714
 6756WAT    EPW27732   3.758   5.452   0.791
 6757WAT      O27733   4.662   4.950   0.497
 6757WAT     H127734   4.638   5.031   0.475
 6757WAT     H227735   4.734   4.962   0.545
 6757WAT    EPW27736   4.669   4.964   0.501
 6758WAT      O27737   3.880   5.054   0.724
 6758WAT     H127738   3.967   5.059   0.712
 6758WAT     H227739   3.869   4.972   0.753
 6758WAT    EPW27740   3.891   5.042   0.727
 6759WAT      O27741   3.946   6.380   0.304
 6759WAT     H127742   3.919   6.386   0.221
 6759WAT     H227743   4.015   6.327   0.298
 6759WAT    EPW27744   3.952   6.373   0.291
 6760WAT      O27745   4.269   6.095   1.041
 6760WAT     H127746   4.349   6.101   1.008
 6760WAT     H227747   4.217   6.104   0.971
 6760WAT    EPW27748   4.273   6.097   1.026
 6761WAT      O27749   4.599   6.375   0.917
 6761WAT     H127750   4.634   6.396   0.994
 6761WAT     H227751   4.649   6.418   0.859
 6761WAT    EPW27752   4.612   6.384   0.920
 6762WAT      O27753   3.653   5.614   0.353
 6762WAT     H127754   3.678   5.590   0.273
 6762WAT     H227755   3.693   5.558   0.406
 6762WAT    EPW27756   3.662   5.602   0.349
 6763WAT      O27757   4.337   5.536   0.855
 6763WAT     H127758   4.266   5.585   0.872
 6763WAT     H227759   4.382   5.540   0.929
 6763WAT    EPW27760   4.333   5.544   0.868
 6764WAT      O27761   4.385   5.572   0.495
 6764WAT     H127762   4.403   5.629   0.558
 6764WAT     H227763   4.367   5.498   0.539
 6764WAT    EPW27764   4.385   5.569   0.511
 6765WAT      O27765   4.086   6.664   0.908
 6765WAT     H127766   4.108   6.657   0.824
 6765WAT     H227767   4.054   6.585   0.927
 6765WAT    EPW27768   4.085   6.651   0.899
 6766WAT      O27769   3.889   5.012   0.368
 6766WAT     H127770   3.836   5.066   0.412
 6766WAT     H227771   3.834   4.966   0.318
 6766WAT    EPW27772   3.873   5.014   0.367
 6767WAT      O27773   4.105   6.107   0.816
 6767WAT     H127774   4.027   6.110   0.856
 6767WAT     H227775   4.114   6.187   0.782
 6767WAT    EPW27776   4.095   6.119   0.817
 6768WAT      O27777   3.143   5.118   1.009
 6768WAT     H127778   3.140   5.190   0.959
 6768WAT     H227779   3.065   5.082   0.996
 6768WAT    EPW27780   3.131   5.123   1.000
 6769WAT      O27781   3.649   6.693   0.332
 6769WAT     H127782   3.658   6.680   0.418
 6769WAT     H227783   3.621   6.616   0.302
 6769WAT    EPW27784   3.647   6.680   0.341
 6770WAT      O27785   4.134   6.363   0.716
 6770WAT     H127786   4.188   6.386   0.780
 6770WAT     H227787   4.183   6.367   0.644
 6770WAT    EPW27788   4.149   6.367   0.715
 6771WAT      O27789   4.954   5.611   0.910
 6771WAT     H127790   4.867   5.621   0.917
 6771WAT     H227791   4.970   5.626   0.826
 6771WAT    EPW27792   4.943   5.615   0.899
 6772WAT      O27793   4.416   5.758   0.699
 6772WAT     H127794   4.401   5.698   0.761
 6772WAT     H227795   4.485   5.802   0.730
 6772WAT    EPW27796   4.424   5.755   0.713
 6773WAT      O27797   3.298   6.738   0.925
 6773WAT     H127798   3.242   6.672   0.914
 6773WAT     H227799   3.248   6.803   0.955
 6773WAT    EPW27800   3.282   6.738   0.927
 6774WAT      O27801   4.217   5.845   1.148
 6774WAT     H127802   4.241   5.923   1.116
 6774WAT     H227803   4.137   5.860   1.180
 6774WAT    EPW27804   4.209   5.859   1.148
 6775WAT      O27805   4.500   6.670   0.336
 6775WAT     H127806   4.455   6.742   0.315
 6775WAT     H227807   4.574   6.701   0.370
 6775WAT    EPW27808   4.504   6.685   0.338
 6776WAT      O27809   4.167   6.210   0.312
 6776WAT     H127810   4.148   6.127   0.330
 6776WAT     H227811   4.210   6.237   0.383
 6776WAT    EPW27812   4.171   6.202   0.325
 6777WAT      O27813   4.737   6.449   1.146
 6777WAT     H127814   4.820   6.424   1.144
 6777WAT     H227815   4.706   6.410   1.218
 6777WAT    EPW27816   4.744   6.440   1.157
 6778WAT      O27817   3.509   5.593   0.785
 6778WAT     H127818   3.521   5.653   0.723
 6778WAT     H227819   3.586   5.552   0.789
 6778WAT    EPW27820   3.523   5.596   0.776
 6779WAT      O27821   3.334   5.424   0.655
 6779WAT     H127822   3.351   5.446   0.572
 6779WAT     H227823   3.390   5.472   0.701
 6779WAT    EPW27824   3.345   5.434   0.650
 6780WAT      O27825   3.509   5.105   0.898
 6780WAT     H127826   3.469   5.028   0.907
 6780WAT     H227827   3.493   5.127   0.815
 6780WAT    EPW27828   3.501   5.097   0.887
 6781WAT      O27829   4.711   5.621   0.665
 6781WAT     H127830   4.723   5.536   0.680
 6781WAT     H227831   4.694   5.654   0.745
 6781WAT    EPW27832   4.710   5.614   0.679
 6782WAT      O27833   3.234   5.891   0.658
 6782WAT     H127834   3.275   5.911   0.584
 6782WAT     H227835   3.209   5.808   0.646
 6782WAT    EPW27836   3.236   5.882   0.645
 6783WAT      O27837   4.218   5.147   0.957
 6783WAT     H127838   4.251   5.203   1.015
 6783WAT     H227839   4.143   5.122   0.994
 6783WAT    EPW27840   4.212   5.152   0.971
 6784WAT      O27841   4.627   5.213   0.393
 6784WAT     H127842   4.714   5.210   0.399
 6784WAT     H227843   4.611   5.299   0.385
 6784WAT    EPW27844   4.638   5.226   0.393
 6785WAT      O27845   3.757   5.884   0.742
 6785WAT     H127846   3.721   5.959   0.768
 6785WAT     H227847   3.695   5.847   0.693
 6785WAT    EPW27848   3.743   5.889   0.738
 6786WAT      O27849   3.716   5.163   0.530
 6786WAT     H127850   3.632   5.151   0.550
 6786WAT     H227851   3.758   5.123   0.594
 6786WAT    EPW27852   3.710   5.156   0.542
 6787WAT      O27853   4.883   5.025   0.659
 6787WAT     H127854   4.865   5.013   0.743
 6787WAT     H227855   4.957   4.982   0.647
 6787WAT    EPW27856   4.891   5.017   0.669
 6788WAT      O27857   4.138   5.163   0.402
 6788WAT     H127858   4.069   5.114   0.377
 6788WAT     H227859   4.141   5.151   0.488
 6788WAT    EPW27860   4.128   5.154   0.411
 6789WAT      O27861   4.335   6.367   0.510
 6789WAT     H127862   4.368   6.434   0.554
 6789WAT     H227863   4.370   6.376   0.430
 6789WAT    EPW27864   4.345   6.378   0.504
 6790WAT      O27865   4.354   6.737   0.973
 6790WAT     H127866   4.284   6.696   0.940
 6790WAT     H227867   4.326   6.819   0.986
 6790WAT    EPW27868   4.340   6.743   0.970
 6791WAT      O27869   3.868   5.690   0.921
 6791WAT     H127870   3.836   5.619   0.881
 6791WAT     H227871   3.835   5.756   0.875
 6791WAT    EPW27872   3.858   5.689   0.908
 6792WAT      O27873   4.906   6.146   0.470
 6792WAT     H127874   4.917   6.071   0.427
 6792WAT     H227875   4.832   6.178   0.437
 6792WAT    EPW27876   4.897   6.140   0.459
 6793WAT      O27877   3.768   6.643   0.878
 6793WAT     H127878   3.752   6.650   0.964
 6793WAT     H227879   3.823   6.576   0.873
 6793WAT    EPW27880   3.774   6.634   0.890
 6794WAT      O27881   4.728   6.468   0.517
 6794WAT     H127882   4.793   6.497   0.467
 6794WAT     H227883   4.705   6.393   0.480
 6794WAT    EPW27884   4.734   6.461   0.504
 6795WAT      O27885   3.453   5.169   0.637
 6795WAT     H127886   3.388   5.111   0.626
 6795WAT     H227887   3.411   5.245   0.636
 6795WAT    EPW27888   3.437   5.171   0.635
 6796WAT      O27889   4.392   5.061   0.305
 6796WAT     H127890   4.454   5.118   0.329
 6796WAT     H227891   4.318   5.098   0.330
 6796WAT    EPW27892   4.390   5.075   0.312
 6797WAT      O27893   3.460   6.542   1.053
 6797WAT     H127894   3.534   6.580   1.081
 6797WAT     H227895   3.417   6.608   1.015
 6797WAT    EPW27896   3.464   6.558   1.051
 6798WAT      O27897   3.310   6.318   0.789
 6798WAT     H127898   3.259   6.379   0.825
 6798WAT     H227899   3.390   6.353   0.795
 6798WAT    EPW27900   3.314   6.332   0.795
 6799WAT      O27901   4.799   5.950   0.990
 6799WAT     H127902   4.867   5.916   1.033
 6799WAT     H227903   4.836   5.986   0.919
 6799WAT    EPW27904   4.815   5.951   0.986
 6800WAT      O27905   4.800   5.397   1.106
 6800WAT     H127906   4.799   5.475   1.146
 6800WAT     H227907   4.717   5.385   1.083
 6800WAT    EPW27908   4.788   5.407   1.109
 6801WAT      O27909   4.887   5.495   0.435
 6801WAT     H127910   4.801   5.502   0.421
 6801WAT     H227911   4.899   5.409   0.443
 6801WAT    EPW27912   4.876   5.483   0.434
 6802WAT      O27913   3.767   5.205   0.919
 6802WAT     H127914   3.806   5.166   0.851
 6802WAT     H227915   3.687   5.171   0.919
 6802WAT    EPW27916   3.761   5.194   0.909
 6803WAT      O27917   4.581   6.011   1.230
 6803WAT     H127918   4.656   6.037   1.265
 6803WAT     H227919   4.587   6.033   1.146
 6803WAT    EPW27920   4.593   6.018   1.223
 6804WAT      O27921   3.519   6.448   0.257
 6804WAT     H127922   3.525   6.364   0.277
 6804WAT     H227923   3.493   6.447   0.174
 6804WAT    EPW27924   3.516   6.436   0.248
 6805WAT      O27925   3.252   6.753   0.636
 6805WAT     H127926   3.290   6.745   0.714
 6805WAT     H227927   3.298   6.699   0.586
 6805WAT    EPW27928   3.264   6.744   0.640
 6806WAT      O27929   4.241   3.130   7.408
 6806WAT     H127930   4.226   3.179   7.338
 6806WAT     H227931   4.328   3.121   7.408
 6806WAT    EPW27932   4.252   3.136   7.397
 6807WAT      O27933   3.170   4.282   7.378
 6807WAT     H127934   3.092   4.274   7.416
 6807WAT     H227935   3.179   4.207   7.333
 6807WAT    EPW27936   3.160   4.269   7.377
 6808WAT      O27937   4.823   4.637   7.202
 6808WAT     H127938   4.883   4.578   7.225
 6808WAT     H227939   4.766   4.591   7.154
 6808WAT    EPW27940   4.823   4.622   7.198
 6809WAT      O27941   3.159   3.591   7.062
 6809WAT     H127942   3.084   3.580   7.020
 6809WAT     H227943   3.162   3.523   7.116
 6809WAT    EPW27944   3.148   3.579   7.064
 6810WAT      O27945   3.498   4.228   6.976
 6810WAT     H127946   3.459   4.187   6.910
 6810WAT     H227947   3.510   4.165   7.035
 6810WAT    EPW27948   3.494   4.212   6.975
 6811WAT      O27949   4.428   4.007   7.514
 6811WAT     H127950   4.441   3.993   7.429
 6811WAT     H227951   4.388   3.935   7.541
 6811WAT    EPW27952   4.424   3.995   7.505
 6812WAT      O27953   3.436   4.375   7.363
 6812WAT     H127954   3.489   4.347   7.427
 6812WAT     H227955   3.360   4.337   7.382
 6812WAT    EPW27956   3.433   4.365   7.375
 6813WAT      O27957   3.857   3.288   7.357
 6813WAT     H127958   3.872   3.338   7.287
 6813WAT     H227959   3.851   3.208   7.324
 6813WAT    EPW27960   3.858   3.284   7.341
 6814WAT      O27961   3.298   4.663   6.930
 6814WAT     H127962   3.354   4.668   6.864
 6814WAT     H227963   3.342   4.617   6.991
 6814WAT    EPW27964   3.313   4.657   6.929
 6815WAT      O27965   3.387   4.034   7.498
 6815WAT     H127966   3.340   4.049   7.426
 6815WAT     H227967   3.433   3.963   7.478
 6815WAT    EPW27968   3.387   4.026   7.485
 6816WAT      O27969   3.527   3.812   7.416
 6816WAT     H127970   3.583   3.789   7.479
 6816WAT     H227971   3.459   3.759   7.428
 6816WAT    EPW27972   3.525   3.801   7.427
 6817WAT      O27973   3.878   4.414   7.578
 6817WAT     H127974   3.905   4.338   7.612
 6817WAT     H227975   3.946   4.468   7.591
 6817WAT    EPW27976   3.892   4.411   7.585
 6818WAT      O27977   3.958   4.334   7.275
 6818WAT     H127978   4.005   4.281   7.325
 6818WAT     H227979   3.993   4.323   7.196
 6818WAT    EPW27980   3.970   4.324   7.270
 6819WAT      O27981   3.599   3.364   7.433
 6819WAT     H127982   3.566   3.412   7.368
 6819WAT     H227983   3.682   3.351   7.408
 6819WAT    EPW27984   3.607   3.369   7.420
 6820WAT      O27985   3.977   3.330   7.604
 6820WAT     H127986   3.948   3.409   7.625
 6820WAT     H227987   3.943   3.316   7.525
 6820WAT    EPW27988   3.968   3.339   7.595
 6821WAT      O27989   4.327   3.460   6.852
 6821WAT     H127990   4.277   3.519   6.891
 6821WAT     H227991   4.355   3.410   6.918
 6821WAT    EPW27992   4.324   3.461   6.868
 6822WAT      O27993   3.187   3.784   7.715
 6822WAT     H127994   3.196   3.870   7.726
 6822WAT     H227995   3.191   3.753   7.797
 6822WAT    EPW27996   3.189   3.792   7.729
 6823WAT      O27997   3.209   4.718   7.654
 6823WAT     H127998   3.139   4.760   7.623
 6823WAT     H227999   3.245   4.682   7.583
 6823WAT    EPW28000   3.204   4.719   7.639
 6824WAT      O28001   3.816   4.580   7.287
 6824WAT     H128002   3.755   4.585   7.349
 6824WAT     H228003   3.850   4.501   7.298
 6824WAT    EPW28004   3.812   4.569   7.298
 6825WAT      O28005   4.404   4.775   7.078
 6825WAT     H128006   4.480   4.817   7.073
 6825WAT     H228007   4.427   4.693   7.095
 6825WAT    EPW28008   4.418   4.769   7.080
 6826WAT      O28009   4.256   4.825   7.301
 6826WAT     H128010   4.246   4.745   7.335
 6826WAT     H228011   4.306   4.811   7.231
 6826WAT    EPW28012   4.262   4.811   7.296
 6827WAT      O28013   3.326   4.625   7.417
 6827WAT     H128014   3.375   4.553   7.416
 6827WAT     H228015   3.377   4.686   7.380
 6827WAT    EPW28016   3.341   4.624   7.412
 6828WAT      O28017   4.926   3.451   7.521
 6828WAT     H128018   4.879   3.523   7.539
 6828WAT     H228019   4.866   3.391   7.502
 6828WAT    EPW28020   4.910   3.453   7.521
 6829WAT      O28021   3.528   4.422   7.729
 6829WAT     H128022   3.554   4.479   7.669
 6829WAT     H228023   3.562   4.346   7.702
 6829WAT    EPW28024   3.536   4.419   7.716
 6830WAT      O28025   3.730   4.781   7.666
 6830WAT     H128026   3.810   4.807   7.644
 6830WAT     H228027   3.679   4.849   7.646
 6830WAT    EPW28028   3.734   4.795   7.660
 6831WAT      O28029   4.103   3.706   7.460
 6831WAT     H128030   4.126   3.649   7.398
 6831WAT     H228031   4.176   3.716   7.506
 6831WAT    EPW28032   4.117   3.699   7.457
 6832WAT      O28033   4.162   3.644   6.984
 6832WAT     H128034   4.197   3.722   7.000
 6832WAT     H228035   4.090   3.663   6.938
 6832WAT    EPW28036   4.156   3.658   6.980
 6833WAT      O28037   4.616   4.954   7.040
 6833WAT     H128038   4.660   4.920   6.973
 6833WAT     H228039   4.677   4.996   7.086
 6833WAT    EPW28040   4.631   4.955   7.037
 6834WAT      O28041   4.076   4.599   6.922
 6834WAT     H128042   4.054   4.655   6.985
 6834WAT     H228043   4.151   4.632   6.892
 6834WAT    EPW28044   4.084   4.612   6.927
 6835WAT      O28045   4.411   3.293   7.057
 6835WAT     H128046   4.470   3.229   7.054
 6835WAT     H228047   4.438   3.343   7.123
 6835WAT    EPW28048   4.423   3.291   7.067
 6836WAT      O28049   3.206   3.412   7.275
 6836WAT     H128050   3.203   3.325   7.269
 6836WAT     H228051   3.160   3.429   7.346
 6836WAT    EPW28052   3.199   3.401   7.284
 6837WAT      O28053   4.180   3.542   7.246
 6837WAT     H128054   4.156   3.458   7.237
 6837WAT     H228055   4.167   3.575   7.167
 6837WAT    EPW28056   4.175   3.534   7.233
 6838WAT      O28057   4.163   3.266   7.180
 6838WAT     H128058   4.099   3.247   7.124
 6838WAT     H228059   4.235   3.268   7.130
 6838WAT    EPW28060   4.164   3.263   7.164
 6839WAT      O28061   4.885   4.864   7.475
 6839WAT     H128062   4.850   4.944   7.477
 6839WAT     H228063   4.817   4.811   7.460
 6839WAT    EPW28064   4.870   4.868   7.473
 6840WAT      O28065   3.918   3.604   7.641
 6840WAT     H128066   3.969   3.635   7.578
 6840WAT     H228067   3.954   3.635   7.714
 6840WAT    EPW28068   3.931   3.613   7.643
 6841WAT      O28069   4.560   4.465   7.485
 6841WAT     H128070   4.624   4.405   7.483
 6841WAT     H228071   4.488   4.418   7.500
 6841WAT    EPW28072   4.559   4.449   7.487
 6842WAT      O28073   3.543   3.104   7.518
 6842WAT     H128074   3.551   3.189   7.498
 6842WAT     H228075   3.523   3.067   7.441
 6842WAT    EPW28076   3.541   3.111   7.503
 6843WAT      O28077   4.512   3.088   7.455
 6843WAT     H128078   4.517   3.080   7.542
 6843WAT     H228079   4.552   3.016   7.425
 6843WAT    EPW28080   4.519   3.076   7.463
 6844WAT      O28081   3.482   3.512   7.636
 6844WAT     H128082   3.526   3.463   7.579
 6844WAT     H228083   3.415   3.460   7.660
 6844WAT    EPW28084   3.478   3.497   7.631
 6845WAT      O28085   4.775   4.247   7.058
 6845WAT     H128086   4.769   4.194   7.127
 6845WAT     H228087   4.861   4.253   7.045
 6845WAT    EPW28088   4.787   4.240   7.066
 6846WAT      O28089   3.601   4.189   7.578
 6846WAT     H128090   3.651   4.183   7.507
 6846WAT     H228091   3.530   4.142   7.557
 6846WAT    EPW28092   3.598   4.181   7.564
 6847WAT      O28093   3.414   4.839   7.800
 6847WAT     H128094   3.348   4.807   7.753
 6847WAT     H228095   3.459   4.887   7.742
 6847WAT    EPW28096   3.411   4.841   7.784
 6848WAT      O28097   4.586   3.903   6.974
 6848WAT     H128098   4.585   3.984   6.942
 6848WAT     H228099   4.558   3.913   7.056
 6848WAT    EPW28100   4.582   3.917   6.981
 6849WAT      O28101   3.735   4.160   7.334
 6849WAT     H128102   3.784   4.230   7.316
 6849WAT     H228103   3.779   4.094   7.298
 6849WAT    EPW28104   3.749   4.160   7.326
 6850WAT      O28105   4.925   3.374   6.938
 6850WAT     H128106   4.964   3.324   6.878
 6850WAT     H228107   4.876   3.428   6.891
 6850WAT    EPW28108   4.924   3.374   6.922
 6851WAT      O28109   3.276   4.320   7.803
 6851WAT     H128110   3.237   4.390   7.837
 6851WAT     H228111   3.354   4.350   7.777
 6851WAT    EPW28112   3.282   4.335   7.804
 6852WAT      O28113   3.258   4.052   7.252
 6852WAT     H128114   3.235   3.968   7.248
 6852WAT     H228115   3.338   4.054   7.218
 6852WAT    EPW28116   3.266   4.040   7.246
 6853WAT      O28117   4.808   3.259   7.168
 6853WAT     H128118   4.881   3.222   7.197
 6853WAT     H228119   4.834   3.303   7.097
 6853WAT    EPW28120   4.822   3.260   7.162
 6854WAT      O28121   4.095   4.589   7.594
 6854WAT     H128122   4.064   4.671   7.597
 6854WAT     H228123   4.116   4.579   7.510
 6854WAT    EPW28124   4.094   4.600   7.582
 6855WAT      O28125   3.159   4.510   7.224
 6855WAT     H128126   3.214   4.558   7.271
 6855WAT     H228127   3.149   4.438   7.273
 6855WAT    EPW28128   3.165   4.507   7.238
 6856WAT      O28129   4.459   3.529   7.660
 6856WAT     H128130   4.480   3.484   7.732
 6856WAT     H228131   4.400   3.477   7.621
 6856WAT    EPW28132   4.453   3.514   7.665
 6857WAT      O28133   3.165   4.334   6.996
 6857WAT     H128134   3.239   4.288   6.994
 6857WAT     H228135   3.181   4.395   7.057
 6857WAT    EPW28136   3.178   4.336   7.005
 6858WAT      O28137   3.221   4.062   7.718
 6858WAT     H128138   3.273   4.056   7.649
 6858WAT     H228139   3.241   4.140   7.752
 6858WAT    EPW28140   3.231   4.073   7.713
 6859WAT      O28141   3.874   3.447   7.133
 6859WAT     H128142   3.862   3.429   7.048
 6859WAT     H228143   3.860   3.533   7.138
 6859WAT    EPW28144   3.870   3.457   7.121
 6860WAT      O28145   3.655   4.559   7.523
 6860WAT     H128146   3.672   4.634   7.565
 6860WAT     H228147   3.722   4.508   7.543
 6860WAT    EPW28148   3.667   4.563   7.532
 6861WAT      O28149   3.531   3.755   7.093
 6861WAT     H128150   3.510   3.705   7.161
 6861WAT     H228151   3.485   3.721   7.027
 6861WAT    EPW28152   3.521   3.743   7.093
 6862WAT      O28153   3.760   4.005   7.728
 6862WAT     H128154   3.703   4.058   7.688
 6862WAT     H228155   3.729   3.925   7.709
 6862WAT    EPW28156   3.747   4.001   7.719
 6863WAT      O28157   4.451   3.463   7.269
 6863WAT     H128158   4.504   3.532   7.277
 6863WAT     H228159   4.371   3.498   7.272
 6863WAT    EPW28160   4.447   3.478   7.271
 6864WAT      O28161   4.266   3.889   7.076
 6864WAT     H128162   4.239   3.940   7.010
 6864WAT     H228163   4.210   3.907   7.140
 6864WAT    EPW28164   4.254   3.899   7.076
 6865WAT      O28165   4.748   4.257   7.477
 6865WAT     H128166   4.780   4.210   7.542
 6865WAT     H228167   4.745   4.201   7.410
 6865WAT    EPW28168   4.752   4.242   7.477
 6866WAT      O28169   4.196   4.374   7.783
 6866WAT     H128170   4.171   4.447   7.742
 6866WAT     H228171   4.209   4.400   7.865
 6866WAT    EPW28172   4.194   4.389   7.789
 6867WAT      O28173   3.841   4.887   7.322
 6867WAT     H128174   3.755   4.871   7.317
 6867WAT     H228175   3.876   4.830   7.267
 6867WAT    EPW28176   3.834   4.877   7.313
 6868WAT      O28177   3.686   3.152   7.036
 6868WAT     H128178   3.703   3.141   7.121
 6868WAT     H228179   3.639   3.226   7.034
 6868WAT    EPW28180   3.682   3.161   7.048
 6869WAT      O28181   4.034   4.790   7.128
 6869WAT     H128182   4.103   4.819   7.174
 6869WAT     H228183   4.011   4.859   7.081
 6869WAT    EPW28184   4.041   4.805   7.128
 6870WAT      O28185   3.524   4.040   7.178
 6870WAT     H128186   3.536   3.954   7.183
 6870WAT     H228187   3.583   4.072   7.233
 6870WAT    EPW28188   3.534   4.032   7.187
 6871WAT      O28189   3.154   3.135   7.249
 6871WAT     H128190   3.153   3.077   7.184
 6871WAT     H228191   3.111   3.095   7.313
 6871WAT    EPW28192   3.147   3.121   7.249
 6872WAT      O28193   4.117   3.935   7.302
 6872WAT     H128194   4.123   4.005   7.353
 6872WAT     H228195   4.108   3.869   7.358
 6872WAT    EPW28196   4.116   3.935   7.317
 6873WAT      O28197   3.542   3.385   7.003
 6873WAT     H128198   3.478   3.376   6.945
 6873WAT     H228199   3.608   3.419   6.956
 6873WAT    EPW28200   3.543   3.389   6.988
 6874WAT      O28201   3.980   4.176   7.680
 6874WAT     H128202   3.920   4.120   7.710
 6874WAT     H228203   4.021   4.201   7.753
 6874WAT    EPW28204   3.977   4.171   7.696
 6875WAT      O28205   3.672   4.778   6.855
 6875WAT     H128206   3.689   4.711   6.909
 6875WAT     H228207   3.674   4.848   6.908
 6875WAT    EPW28208   3.675   4.779   6.871
 6876WAT      O28209   3.668   3.733   7.646
 6876WAT     H128210   3.743   3.689   7.637
 6876WAT     H228211   3.609   3.671   7.663
 6876WAT    EPW28212   3.671   3.717   7.647
 6877WAT      O28213   4.977   4.799   7.041
 6877WAT     H128214   5.043   4.750   7.013
 6877WAT     H228215   4.930   4.744   7.090
 6877WAT    EPW28216   4.980   4.783   7.044
 6878WAT      O28217   3.203   3.781   7.258
 6878WAT     H128218   3.229   3.737   7.328
 6878WAT     H228219   3.201   3.720   7.195
 6878WAT    EPW28220   3.206   3.765   7.259
 6879WAT      O28221   3.680   3.917   6.887
 6879WAT     H128222   3.636   3.887   6.956
 6879WAT     H228223   3.628   3.899   6.820
 6879WAT    EPW28224   3.666   3.910   6.887
 6880WAT      O28225   4.842   4.101   7.692
 6880WAT     H128226   4.842   4.159   7.758
 6880WAT     H228227   4.923   4.069   7.693
 6880WAT    EPW28228   4.854   4.105   7.702
 6881WAT      O28229   3.805   3.717   7.107
 6881WAT     H128230   3.828   3.793   7.142
 6881WAT     H228231   3.718   3.720   7.105
 6881WAT    EPW28232   3.796   3.728   7.112
 6882WAT      O28233   3.251   3.354   7.656
 6882WAT     H128234   3.178   3.370   7.611
 6882WAT     H228235   3.248   3.268   7.672
 6882WAT    EPW28236   3.240   3.344   7.652
 6883WAT      O28237   5.045   4.544   7.823
 6883WAT     H128238   5.047   4.598   7.755
 6883WAT     H228239   5.118   4.562   7.867
 6883WAT    EPW28240   5.056   4.554   7.820
 6884WAT      O28241   4.644   4.489   7.058
 6884WAT     H128242   4.679   4.410   7.065
 6884WAT     H228243   4.565   4.481   7.093
 6884WAT    EPW28244   4.637   4.476   7.064
 6885WAT      O28245   4.703   3.635   7.565
 6885WAT     H128246   4.631   3.595   7.595
 6885WAT     H228247   4.697   3.716   7.598
 6885WAT    EPW28248   4.691   3.641   7.574
 6886WAT      O28249   4.354   4.303   6.927
 6886WAT     H128250   4.429   4.259   6.923
 6886WAT     H228251   4.323   4.297   6.845
 6886WAT    EPW28252   4.360   4.296   6.914
 6887WAT      O28253   3.978   4.857   7.563
 6887WAT     H128254   3.987   4.941   7.587
 6887WAT     H228255   3.938   4.862   7.486
 6887WAT    EPW28256   3.974   4.870   7.555
 6888WAT      O28257   4.841   3.801   6.932
 6888WAT     H128258   4.882   3.860   6.882
 6888WAT     H228259   4.758   3.829   6.933
 6888WAT    EPW28260   4.835   3.814   6.924
 6889WAT      O28261   3.914   4.067   6.930
 6889WAT     H128262   3.844   4.021   6.903
 6889WAT     H228263   3.885   4.149   6.932
 6889WAT    EPW28264   3.899   4.072   6.927
 6890WAT      O28265   4.611   3.692   7.310
 6890WAT     H128266   4.638   3.672   7.391
 6890WAT     H228267   4.684   3.720   7.271
 6890WAT    EPW28268   4.626   3.693   7.317
 6891WAT      O28269   4.737   3.259   7.438
 6891WAT     H128270   4.657   3.225   7.445
 6891WAT     H228271   4.746   3.275   7.353
 6891WAT    EPW28272   4.727   3.256   7.427
 6892WAT      O28273   4.726   4.073   7.268
 6892WAT     H128274   4.774   4.001   7.258
 6892WAT     H228275   4.644   4.044   7.265
 6892WAT    EPW28276   4.721   4.058   7.266
 6893WAT      O28277   3.468   3.513   7.238
 6893WAT     H128278   3.489   3.474   7.164
 6893WAT     H228279   3.386   3.486   7.253
 6893WAT    EPW28280   3.459   3.503   7.230
 6894WAT      O28281   4.345   4.283   7.549
 6894WAT     H128282   4.314   4.299   7.629
 6894WAT     H228283   4.381   4.204   7.556
 6894WAT    EPW28284   4.346   4.274   7.561
 6895WAT      O28285   4.114   4.175   7.440
 6895WAT     H128286   4.069   4.170   7.514
 6895WAT     H228287   4.189   4.212   7.463
 6895WAT    EPW28288   4.118   4.180   7.454
 6896WAT      O28289   4.563   4.919   7.757
 6896WAT     H128290   4.511   4.878   7.814
 6896WAT     H228291   4.642   4.891   7.778
 6896WAT    EPW28292   4.567   4.909   7.769
 6897WAT      O28293   4.834   3.824   7.209
 6897WAT     H128294   4.842   3.819   7.123
 6897WAT     H228295   4.912   3.798   7.238
 6897WAT    EPW28296   4.847   3.820   7.201
 6898WAT      O28297   4.128   4.559   7.307
 6898WAT     H128298   4.075   4.613   7.264
 6898WAT     H228299   4.086   4.483   7.304
 6898WAT    EPW28300   4.114   4.556   7.300
 6899WAT      O28301   3.370   3.648   6.887
 6899WAT     H128302   3.298   3.645   6.937
 6899WAT     H228303   3.372   3.570   6.849
 6899WAT    EPW28304   3.360   3.636   6.889
 6900WAT      O28305   4.253   3.366   7.569
 6900WAT     H128306   4.167   3.363   7.586
 6900WAT     H228307   4.266   3.296   7.518
 6900WAT    EPW28308   4.242   3.355   7.564
 6901WAT      O28309   3.707   4.565   7.032
 6901WAT     H128310   3.746   4.579   7.109
 6901WAT     H228311   3.624   4.548   7.053
 6901WAT    EPW28312   3.701   4.564   7.046
 6902WAT      O28313   4.651   3.897   7.649
 6902WAT     H128314   4.712   3.958   7.665
 6902WAT     H228315   4.589   3.941   7.606
 6902WAT    EPW28316   4.651   3.913   7.645
 6903WAT      O28317   4.652   4.718   7.405
 6903WAT     H128318   4.620   4.644   7.437
 6903WAT     H228319   4.699   4.693   7.336
 6903WAT    EPW28320   4.654   4.704   7.400
 6904WAT      O28321   3.451   4.475   7.092
 6904WAT     H128322   3.448   4.455   7.177
 6904WAT     H228323   3.464   4.398   7.053
 6904WAT    EPW28324   3.453   4.460   7.099
 6905WAT      O28325   3.763   4.310   6.923
 6905WAT     H128326   3.682   4.279   6.934
 6905WAT     H228327   3.760   4.390   6.958
 6905WAT    EPW28328   3.751   4.317   6.929
 6906WAT      O28329   3.964   3.178   6.995
 6906WAT     H128330   3.978   3.177   6.909
 6906WAT     H228331   3.877   3.186   7.002
 6906WAT    EPW28332   3.953   3.179   6.983
 6907WAT      O28333   4.322   3.770   7.624
 6907WAT     H128334   4.372   3.699   7.629
 6907WAT     H228335   4.312   3.795   7.707
 6907WAT    EPW28336   4.328   3.763   7.637
 6908WAT      O28337   3.299   3.665   7.491
 6908WAT     H128338   3.258   3.703   7.558
 6908WAT     H228339   3.351   3.606   7.530
 6908WAT    EPW28340   3.301   3.662   7.507
 6909WAT      O28341   4.484   3.929   7.244
 6909WAT     H128342   4.512   3.849   7.266
 6909WAT     H228343   4.411   3.913   7.199
 6909WAT    EPW28344   4.478   3.915   7.241
 6910WAT      O28345   3.871   3.971   7.188
 6910WAT     H128346   3.888   4.006   7.110
 6910WAT     H228347   3.951   3.960   7.223
 6910WAT    EPW28348   3.886   3.975   7.182
 6911WAT      O28349   4.774   4.829   6.849
 6911WAT     H128350   4.843   4.819   6.902
 6911WAT     H228351   4.750   4.747   6.831
 6911WAT    EPW28352   4.781   4.815   6.854
 6912WAT      O28353   4.375   4.499   7.133
 6912WAT     H128354   4.305   4.498   7.185
 6912WAT     H228355   4.354   4.443   7.069
 6912WAT    EPW28356   4.362   4.491   7.131
 6913WAT      O28357   3.483   4.611   7.958
 6913WAT     H128358   3.509   4.555   7.897
 6913WAT     H228359   3.480   4.687   7.915
 6913WAT    EPW28360   3.487   4.614   7.943
 6914WAT      O28361   4.096   4.342   7.036
 6914WAT     H128362   4.173   4.314   7.005
 6914WAT     H228363   4.084   4.418   6.995
 6914WAT    EPW28364   4.106   4.349   7.025
 6915WAT      O28365   4.178   3.799   6.089
 6915WAT     H128366   4.170   3.880   6.121
 6915WAT     H228367   4.249   3.768   6.128
 6915WAT    EPW28368   4.187   3.806   6.100
 6916WAT      O28369   4.752   4.581   5.193
 6916WAT     H128370   4.762   4.495   5.186
 6916WAT     H228371   4.715   4.604   5.117
 6916WAT    EPW28372   4.748   4.572   5.180
 6917WAT      O28373   4.432   4.045   5.579
 6917WAT     H128374   4.424   4.013   5.499
 6917WAT     H228375   4.351   4.042   5.612
 6917WAT    EPW28376   4.419   4.040   5.572
 6918WAT      O28377   3.847   4.344   6.659
 6918WAT     H128378   3.824   4.331   6.742
 6918WAT     H228379   3.777   4.319   6.614
 6918WAT    EPW28380   3.833   4.339   6.664
 6919WAT      O28381   3.744   3.590   6.191
 6919WAT     H128382   3.823   3.595   6.154
 6919WAT     H228383   3.726   3.504   6.190
 6919WAT    EPW28384   3.753   3.578   6.186
 6920WAT      O28385   3.837   4.581   6.358
 6920WAT     H128386   3.824   4.656   6.315
 6920WAT     H228387   3.924   4.579   6.370
 6920WAT    EPW28388   3.848   4.591   6.353
 6921WAT      O28389   4.150   4.563   5.797
 6921WAT     H128390   4.189   4.487   5.777
 6921WAT     H228391   4.132   4.598   5.719
 6921WAT    EPW28392   4.153   4.557   5.782
 6922WAT      O28393   4.108   3.892   6.589
 6922WAT     H128394   4.022   3.874   6.586
 6922WAT     H228395   4.120   3.920   6.671
 6922WAT    EPW28396   4.097   3.894   6.601
 6923WAT      O28397   4.598   3.043   6.469
 6923WAT     H128398   4.591   3.128   6.450
 6923WAT     H228399   4.530   3.027   6.521
 6923WAT    EPW28400   4.587   3.053   6.474
 6924WAT      O28401   3.127   3.715   5.890
 6924WAT     H128402   3.106   3.650   5.836
 6924WAT     H228403   3.067   3.710   5.953
 6924WAT    EPW28404   3.115   3.705   5.891
 6925WAT      O28405   3.225   4.768   5.568
 6925WAT     H128406   3.168   4.768   5.502
 6925WAT     H228407   3.289   4.716   5.540
 6925WAT    EPW28408   3.226   4.760   5.554
 6926WAT      O28409   4.376   4.743   5.061
 6926WAT     H128410   4.324   4.765   4.995
 6926WAT     H228411   4.335   4.673   5.096
 6926WAT    EPW28412   4.362   4.736   5.056
 6927WAT      O28413   3.438   3.256   6.093
 6927WAT     H128414   3.375   3.269   6.034
 6927WAT     H228415   3.472   3.179   6.069
 6927WAT    EPW28416   3.434   3.246   6.081
 6928WAT      O28417   3.776   3.454   6.861
 6928WAT     H128418   3.767   3.415   6.784
 6928WAT     H228419   3.820   3.526   6.843
 6928WAT    EPW28420   3.781   3.459   6.847
 6929WAT      O28421   4.764   3.479   5.482
 6929WAT     H128422   4.735   3.548   5.527
 6929WAT     H228423   4.702   3.419   5.495
 6929WAT    EPW28424   4.750   3.481   5.490
 6930WAT      O28425   4.455   4.735   6.290
 6930WAT     H128426   4.503   4.788   6.339
 6930WAT     H228427   4.482   4.751   6.209
 6930WAT    EPW28428   4.466   4.745   6.285
 6931WAT      O28429   3.328   3.371   6.819
 6931WAT     H128430   3.245   3.353   6.837
 6931WAT     H228431   3.344   3.328   6.744
 6931WAT    EPW28432   3.318   3.362   6.810
 6932WAT      O28433   3.542   4.522   5.772
 6932WAT     H128434   3.586   4.495   5.701
 6932WAT     H228435   3.581   4.480   5.837
 6932WAT    EPW28436   3.554   4.512   5.771
 6933WAT      O28437   3.988   3.162   6.722
 6933WAT     H128438   4.009   3.089   6.679
 6933WAT     H228439   3.916   3.190   6.681
 6933WAT    EPW28440   3.980   3.155   6.710
 6934WAT      O28441   4.225   3.994   5.141
 6934WAT     H128442   4.152   3.977   5.186
 6934WAT     H228443   4.198   4.048   5.078
 6934WAT    EPW28444   4.210   4.000   5.138
 6935WAT      O28445   4.485   4.943   5.216
 6935WAT     H128446   4.448   4.878   5.172
 6935WAT     H228447   4.455   4.933   5.297
 6935WAT    EPW28448   4.476   4.932   5.222
 6936WAT      O28449   3.719   4.821   6.261
 6936WAT     H128450   3.722   4.855   6.341
 6936WAT     H228451   3.755   4.882   6.211
 6936WAT    EPW28452   3.725   4.835   6.266
 6937WAT      O28453   4.932   3.381   6.011
 6937WAT     H128454   4.910   3.465   6.024
 6937WAT     H228455   4.949   3.351   6.091
 6937WAT    EPW28456   4.931   3.389   6.024
 6938WAT      O28457   3.116   3.511   6.509
 6938WAT     H128458   3.130   3.575   6.566
 6938WAT     H228459   3.173   3.529   6.445
 6938WAT    EPW28460   3.127   3.523   6.508
 6939WAT      O28461   4.309   4.544   6.595
 6939WAT     H128462   4.310   4.586   6.671
 6939WAT     H228463   4.394   4.531   6.578
 6939WAT    EPW28464   4.322   4.548   6.604
 6940WAT      O28465   4.370   3.441   5.143
 6940WAT     H128466   4.316   3.465   5.079
 6940WAT     H228467   4.325   3.458   5.215
 6940WAT    EPW28468   4.355   3.447   5.144
 6941WAT      O28469   3.456   4.710   6.180
 6941WAT     H128470   3.536   4.735   6.204
 6941WAT     H228471   3.454   4.726   6.094
 6941WAT    EPW28472   3.467   4.716   6.170
 6942WAT      O28473   4.199   4.846   6.270
 6942WAT     H128474   4.280   4.817   6.283
 6942WAT     H228475   4.181   4.825   6.188
 6942WAT    EPW28476   4.208   4.839   6.260
 6943WAT      O28477   4.798   4.809   5.553
 6943WAT     H128478   4.748   4.879   5.567
 6943WAT     H228479   4.742   4.748   5.526
 6943WAT    EPW28480   4.782   4.810   5.551
 6944WAT      O28481   4.344   4.615   5.426
 6944WAT     H128482   4.271   4.635   5.468
 6944WAT     H228483   4.316   4.579   5.351
 6944WAT    EPW28484   4.329   4.612   5.421
 6945WAT      O28485   3.580   4.552   6.483
 6945WAT     H128486   3.658   4.580   6.457
 6945WAT     H228487   3.564   4.600   6.555
 6945WAT    EPW28488   3.589   4.563   6.490
 6946WAT      O28489   3.630   4.110   5.937
 6946WAT     H128490   3.701   4.094   5.986
 6946WAT     H228491   3.653   4.080   5.858
 6946WAT    EPW28492   3.644   4.103   5.933
 6947WAT      O28493   4.343   3.472   6.371
 6947WAT     H128494   4.314   3.525   6.435
 6947WAT     H228495   4.280   3.412   6.365
 6947WAT    EPW28496   4.329   3.471   6.379
 6948WAT      O28497   3.830   4.109   6.146
 6948WAT     H128498   3.839   4.195   6.150
 6948WAT     H228499   3.804   4.087   6.226
 6948WAT    EPW28500   3.827   4.118   6.158
 6949WAT      O28501   4.438   4.277   6.078
 6949WAT     H128502   4.477   4.230   6.140
 6949WAT     H228503   4.409   4.347   6.121
 6949WAT    EPW28504   4.440   4.281   6.093
 6950WAT      O28505   4.549   3.092   5.606
 6950WAT     H128506   4.527   3.079   5.690
 6950WAT     H228507   4.555   3.011   5.573
 6950WAT    EPW28508   4.547   3.078   5.614
 6951WAT      O28509   3.100   4.528   6.792
 6951WAT     H128510   3.157   4.578   6.837
 6951WAT     H228511   3.108   4.449   6.829
 6951WAT    EPW28512   3.109   4.524   6.804
 6952WAT      O28513   4.733   3.540   6.466
 6952WAT     H128514   4.818   3.524   6.479
 6952WAT     H228515   4.702   3.554   6.546
 6952WAT    EPW28516   4.741   3.540   6.479
 6953WAT      O28517   4.788   4.308   5.216
 6953WAT     H128518   4.748   4.231   5.224
 6953WAT     H228519   4.859   4.290   5.170
 6953WAT    EPW28520   4.793   4.294   5.210
 6954WAT      O28521   3.313   5.049   5.644
 6954WAT     H128522   3.285   4.974   5.607
 6954WAT     H228523   3.360   5.086   5.581
 6954WAT    EPW28524   3.316   5.043   5.629
 6955WAT      O28525   3.337   3.627   6.044
 6955WAT     H128526   3.414   3.664   6.026
 6955WAT     H228527   3.281   3.671   5.992
 6955WAT    EPW28528   3.340   3.639   6.034
 6956WAT      O28529   5.001   4.641   6.567
 6956WAT     H128530   4.926   4.646   6.524
 6956WAT     H228531   4.982   4.590   6.636
 6956WAT    EPW28532   4.987   4.634   6.571
 6957WAT      O28533   4.576   3.941   5.010
 6957WAT     H128534   4.581   3.978   4.931
 6957WAT     H228535   4.495   3.959   5.036
 6957WAT    EPW28536   4.565   3.949   5.002
 6958WAT      O28537   4.805   3.415   5.032
 6958WAT     H128538   4.815   3.335   4.997
 6958WAT     H228539   4.776   3.463   4.965
 6958WAT    EPW28540   4.802   3.410   5.017
 6959WAT      O28541   3.295   4.414   5.855
 6959WAT     H128542   3.239   4.479   5.836
 6959WAT     H228543   3.369   4.440   5.819
 6959WAT    EPW28544   3.297   4.428   5.847
 6960WAT      O28545   3.914   3.703   6.848
 6960WAT     H128546   3.870   3.724   6.920
 6960WAT     H228547   3.880   3.756   6.787
 6960WAT    EPW28548   3.902   3.714   6.849
 6961WAT      O28549   5.023   3.781   6.319
 6961WAT     H128550   5.086   3.720   6.313
 6961WAT     H228551   4.971   3.762   6.252
 6961WAT    EPW28552   5.025   3.769   6.308
 6962WAT      O28553   3.590   4.376   6.006
 6962WAT     H128554   3.662   4.391   6.053
 6962WAT     H228555   3.600   4.295   5.977
 6962WAT    EPW28556   3.602   4.367   6.009
 6963WAT      O28557   4.360   3.610   5.745
 6963WAT     H128558   4.403   3.578   5.814
 6963WAT     H228559   4.301   3.548   5.727
 6963WAT    EPW28560   4.358   3.596   5.753
 6964WAT      O28561   3.236   4.134   5.824
 6964WAT     H128562   3.266   4.101   5.749
 6964WAT     H228563   3.250   4.220   5.816
 6964WAT    EPW28564   3.243   4.142   5.812
 6965WAT      O28565   4.760   4.665   6.415
 6965WAT     H128566   4.723   4.744   6.421
 6965WAT     H228567   4.768   4.654   6.329
 6965WAT    EPW28568   4.755   4.675   6.403
 6966WAT      O28569   3.463   3.852   6.714
 6966WAT     H128570   3.425   3.788   6.759
 6966WAT     H228571   3.468   3.820   6.633
 6966WAT    EPW28572   3.458   3.838   6.709
 6967WAT      O28573   3.529   3.927   6.241
 6967WAT     H128574   3.554   3.875   6.175
 6967WAT     H228575   3.473   3.982   6.203
 6967WAT    EPW28576   3.525   3.927   6.225
 6968WAT      O28577   4.518   3.520   5.959
 6968WAT     H128578   4.479   3.556   6.028
 6968WAT     H228579   4.590   3.569   5.948
 6968WAT    EPW28580   4.523   3.533   5.967
 6969WAT      O28581   4.193   3.240   6.401
 6969WAT     H128582   4.107   3.224   6.395
 6969WAT     H228583   4.206   3.249   6.487
 6969WAT    EPW28584   4.182   3.239   6.413
 6970WAT      O28585   4.264   3.498   5.399
 6970WAT     H128586   4.248   3.583   5.402
 6970WAT     H228587   4.188   3.463   5.373
 6970WAT    EPW28588   4.250   3.505   5.395
 6971WAT      O28589   3.355   4.100   6.779
 6971WAT     H128590   3.353   4.145   6.705
 6971WAT     H228591   3.393   4.024   6.757
 6971WAT    EPW28592   3.360   4.095   6.765
 6972WAT      O28593   4.450   4.245   6.464
 6972WAT     H128594   4.498   4.315   6.484
 6972WAT     H228595   4.502   4.199   6.410
 6972WAT    EPW28596   4.465   4.248   6.459
 6973WAT      O28597   3.962   4.603   6.665
 6973WAT     H128598   3.989   4.603   6.748
 6973WAT     H228599   3.925   4.524   6.655
 6973WAT    EPW28600   3.960   4.591   6.676
 6974WAT      O28601   3.984   3.601   6.065
 6974WAT     H128602   4.044   3.665   6.069
 6974WAT     H228603   4.032   3.528   6.067
 6974WAT    EPW28604   4.000   3.600   6.066
 6975WAT      O28605   4.251   4.717   6.010
 6975WAT     H128606   4.223   4.681   5.936
 6975WAT     H228607   4.331   4.746   5.989
 6975WAT    EPW28608   4.259   4.716   5.996
 6976WAT      O28609   4.281   4.298   5.831
 6976WAT     H128610   4.249   4.227   5.793
 6976WAT     H228611   4.330   4.266   5.896
 6976WAT    EPW28612   4.283   4.283   5.835
 6977WAT      O28613   4.596   4.119   6.252
 6977WAT     H128614   4.609   4.067   6.183
 6977WAT     H228615   4.674   4.124   6.289
 6977WAT    EPW28616   4.609   4.112   6.247
 6978WAT      O28617   4.312   4.712   6.824
 6978WAT     H128618   4.344   4.738   6.901
 6978WAT     H228619   4.336   4.776   6.770
 6978WAT    EPW28620   4.320   4.725   6.828
 6979WAT      O28621   4.825   3.107   6.630
 6979WAT     H128622   4.753   3.095   6.582
 6979WAT     H228623   4.804   3.072   6.708
 6979WAT    EPW28624   4.811   3.100   6.634
 6980WAT      O28625   3.043   3.094   5.333
 6980WAT     H128626   3.099   3.048   5.285
 6980WAT     H228627   3.046   3.055   5.411
 6980WAT    EPW28628   3.052   3.082   5.337
 6981WAT      O28629   4.678   4.328   5.953
 6981WAT     H128630   4.676   4.293   5.873
 6981WAT     H228631   4.601   4.306   5.987
 6981WAT    EPW28632   4.666   4.320   5.947
 6982WAT      O28633   4.192   4.057   5.716
 6982WAT     H128634   4.153   4.014   5.650
 6982WAT     H228635   4.224   3.993   5.765
 6982WAT    EPW28636   4.191   4.041   5.713
 6983WAT      O28637   3.381   4.115   6.067
 6983WAT     H128638   3.459   4.111   6.030
 6983WAT     H228639   3.325   4.109   6.000
 6983WAT    EPW28640   3.384   4.114   6.052
 6984WAT      O28641   4.996   4.726   5.204
 6984WAT     H128642   5.061   4.694   5.156
 6984WAT     H228643   4.933   4.666   5.198
 6984WAT    EPW28644   4.996   4.712   5.196
 6985WAT      O28645   4.657   3.983   6.010
 6985WAT     H128646   4.701   3.909   6.025
 6985WAT     H228647   4.606   3.963   5.942
 6985WAT    EPW28648   4.656   3.969   6.002
 6986WAT      O28649   3.357   4.233   6.536
 6986WAT     H128650   3.328   4.182   6.471
 6986WAT     H228651   3.334   4.313   6.511
 6986WAT    EPW28652   3.349   4.237   6.523
 6987WAT      O28653   4.829   4.096   5.813
 6987WAT     H128654   4.789   4.068   5.885
 6987WAT     H228655   4.912   4.074   5.826
 6987WAT    EPW28656   4.835   4.089   5.826
 6988WAT      O28657   4.546   3.494   6.686
 6988WAT     H128658   4.476   3.489   6.737
 6988WAT     H228659   4.534   3.429   6.629
 6988WAT    EPW28660   4.534   3.484   6.685
 6989WAT      O28661   3.207   3.389   5.963
 6989WAT     H128662   3.162   3.413   5.892
 6989WAT     H228663   3.254   3.460   5.982
 6989WAT    EPW28664   3.207   3.403   5.956
 6990WAT      O28665   4.985   4.561   5.906
 6990WAT     H128666   5.004   4.621   5.846
 6990WAT     H228667   5.040   4.579   5.971
 6990WAT    EPW28668   4.996   4.572   5.907
 6991WAT      O28669   4.408   3.815   6.777
 6991WAT     H128670   4.460   3.826   6.846
 6991WAT     H228671   4.344   3.873   6.790
 6991WAT    EPW28672   4.406   3.825   6.789
 6992WAT      O28673   4.676   3.827   6.648
 6992WAT     H128674   4.682   3.913   6.634
 6992WAT     H228675   4.590   3.815   6.663
 6992WAT    EPW28676   4.664   3.838   6.648
 6993WAT      O28677   4.634   4.701   4.968
 6993WAT     H128678   4.634   4.704   4.881
 6993WAT     H228679   4.551   4.712   4.989
 6993WAT    EPW28680   4.622   4.703   4.958
 6994WAT      O28681   4.596   3.670   5.608
 6994WAT     H128682   4.519   3.648   5.642
 6994WAT     H228683   4.616   3.745   5.648
 6994WAT    EPW28684   4.587   3.678   5.619
 6995WAT      O28685   4.971   3.975   6.756
 6995WAT     H128686   4.981   3.910   6.699
 6995WAT     H228687   5.051   4.008   6.765
 6995WAT    EPW28688   4.984   3.970   6.749
 6996WAT      O28689   4.844   4.173   6.374
 6996WAT     H128690   4.918   4.126   6.369
 6996WAT     H228691   4.854   4.233   6.310
 6996WAT    EPW28692   4.857   4.175   6.364
 6997WAT      O28693   3.821   4.392   6.153
 6997WAT     H128694   3.826   4.445   6.221
 6997WAT     H228695   3.869   4.431   6.092
 6997WAT    EPW28696   3.829   4.405   6.154
 6998WAT      O28697   3.627   4.277   6.499
 6998WAT     H128698   3.546   4.253   6.520
 6998WAT     H228699   3.620   4.363   6.483
 6998WAT    EPW28700   3.614   4.286   6.500
 6999WAT      O28701   4.557   3.321   6.459
 6999WAT     H128702   4.622   3.377   6.442
 6999WAT     H228703   4.487   3.359   6.424
 6999WAT    EPW28704   4.557   3.335   6.451
 7000WAT      O28705   4.107   4.063   6.175
 7000WAT     H128706   4.126   4.138   6.135
 7000WAT     H228707   4.020   4.056   6.165
 7000WAT    EPW28708   4.097   4.073   6.168
 7001WAT      O28709   3.731   3.622   6.465
 7001WAT     H128710   3.731   3.540   6.495
 7001WAT     H228711   3.747   3.613   6.380
 7001WAT    EPW28712   3.733   3.609   6.457
 7002WAT      O28713   4.714   3.150   6.194
 7002WAT     H128714   4.701   3.197   6.121
 7002WAT     H228715   4.786   3.184   6.228
 7002WAT    EPW28716   4.723   3.162   6.188
 7003WAT      O28717   3.940   3.116   6.368
 7003WAT     H128718   3.925   3.146   6.287
 7003WAT     H228719   3.876   3.154   6.414
 7003WAT    EPW28720   3.928   3.126   6.363
 7004WAT      O28721   3.911   4.558   5.942
 7004WAT     H128722   3.882   4.636   5.917
 7004WAT     H228723   3.985   4.547   5.898
 7004WAT    EPW28724   3.917   4.568   5.932
 7005WAT      O28725   4.268   4.218   6.676
 7005WAT     H128726   4.339   4.230   6.626
 7005WAT     H228727   4.205   4.260   6.634
 7005WAT    EPW28728   4.269   4.226   6.663
 7006WAT      O28729   4.582   4.487   6.553
 7006WAT     H128730   4.617   4.501   6.631
 7006WAT     H228731   4.630   4.537   6.500
 7006WAT    EPW28732   4.594   4.497   6.556
 7007WAT      O28733   4.829   3.836   5.050
 7007WAT     H128734   4.867   3.892   4.994
 7007WAT     H228735   4.744   3.854   5.042
 7007WAT    EPW28736   4.822   3.847   5.040
 7008WAT      O28737   3.588   3.750   6.032
 7008WAT     H128738   3.629   3.762   5.956
 7008WAT     H228739   3.641   3.696   6.076
 7008WAT    EPW28740   3.602   3.744   6.027
 7009WAT      O28741   4.284   3.673   6.561
 7009WAT     H128742   4.215   3.726   6.568
 7009WAT     H228743   4.328   3.686   6.635
 7009WAT    EPW28744   4.280   3.683   6.573
 7010WAT      O28745   4.403   3.654   6.175
 7010WAT     H128746   4.472   3.690   6.215
 7010WAT     H228747   4.377   3.592   6.230
 7010WAT    EPW28748   4.410   3.650   6.189
 7011WAT      O28749   4.110   4.813   6.541
 7011WAT     H128750   4.117   4.809   6.455
 7011WAT     H228751   4.076   4.735   6.563
 7011WAT    EPW28752   4.106   4.801   6.532
 7012WAT      O28753   4.579   3.698   5.332
 7012WAT     H128754   4.571   3.687   5.418
 7012WAT     H228755   4.649   3.750   5.324
 7012WAT    EPW28756   4.588   3.704   5.344
 7013WAT      O28757   3.906   3.181   6.101
 7013WAT     H128758   3.830   3.221   6.116
 7013WAT     H228759   3.890   3.131   6.032
 7013WAT    EPW28760   3.892   3.180   6.093
 7014WAT      O28761   4.523   3.332   5.461
 7014WAT     H128762   4.518   3.257   5.504
 7014WAT     H228763   4.440   3.361   5.461
 7014WAT    EPW28764   4.510   3.325   5.467
 7015WAT      O28765   4.667   4.096   5.351
 7015WAT     H128766   4.719   4.026   5.352
 7015WAT     H228767   4.589   4.063   5.332
 7015WAT    EPW28768   4.664   4.081   5.348
 7016WAT      O28769   4.067   4.285   6.499
 7016WAT     H128770   3.994   4.296   6.546
 7016WAT     H228771   4.076   4.361   6.458
 7016WAT    EPW28772   4.057   4.298   6.500
 7017WAT      O28773   3.090   3.240   6.546
 7017WAT     H128774   3.101   3.325   6.532
 7017WAT     H228775   3.169   3.213   6.574
 7017WAT    EPW28776   3.103   3.248   6.548
 7018WAT      O28777   4.534   4.277   5.688
 7018WAT     H128778   4.463   4.314   5.722
 7018WAT     H228779   4.505   4.202   5.655
 7018WAT    EPW28780   4.519   4.271   5.688
 7019WAT      O28781   4.118   4.537   6.393
 7019WAT     H128782   4.174   4.545   6.458
 7019WAT     H228783   4.169   4.533   6.322
 7019WAT    EPW28784   4.134   4.537   6.392
 7020WAT      O28785   4.945   3.759   6.584
 7020WAT     H128786   4.858   3.765   6.592
 7020WAT     H228787   4.959   3.773   6.499
 7020WAT    EPW28788   4.934   3.762   6.573
 7021WAT      O28789   4.414   3.889   6.438
 7021WAT     H128790   4.381   3.815   6.472
 7021WAT     H228791   4.487   3.863   6.400
 7021WAT    EPW28792   4.420   3.874   6.437
 7022WAT      O28793   3.290   4.884   6.559
 7022WAT     H128794   3.240   4.813   6.556
 7022WAT     H228795   3.235   4.947   6.587
 7022WAT    EPW28796   3.274   4.883   6.563
 7023WAT      O28797   4.173   4.007   6.837
 7023WAT     H128798   4.203   4.078   6.798
 7023WAT     H228799   4.093   4.030   6.863
 7023WAT    EPW28800   4.166   4.021   6.835
 7024WAT      O28801   4.534   4.783   6.031
 7024WAT     H128802   4.580   4.854   6.050
 7024WAT     H228803   4.595   4.721   6.018
 7024WAT    EPW28804   4.550   4.784   6.032
 7025WAT      O28805   4.127   4.319   6.069
 7025WAT     H128806   4.155   4.319   5.986
 7025WAT     H228807   4.177   4.379   6.107
 7025WAT    EPW28808   4.139   4.328   6.062
 7026WAT      O28809   4.708   4.562   6.797
 7026WAT     H128810   4.791   4.534   6.800
 7026WAT     H228811   4.676   4.537   6.874
 7026WAT    EPW28812   4.716   4.554   6.809
 7027WAT      O28813   3.486   3.748   6.452
 7027WAT     H128814   3.500   3.808   6.391
 7027WAT     H228815   3.562   3.706   6.458
 7027WAT    EPW28816   3.499   3.751   6.444
 7028WAT      O28817   3.296   3.600   6.314
 7028WAT     H128818   3.313   3.609   6.229
 7028WAT     H228819   3.365   3.639   6.352
 7028WAT    EPW28820   3.309   3.607   6.307
 7029WAT      O28821   4.808   3.859   5.325
 7029WAT     H128822   4.825   3.859   5.240
 7029WAT     H228823   4.880   3.825   5.361
 7029WAT    EPW28824   4.821   3.854   5.318
 7030WAT      O28825   3.382   3.218   6.583
 7030WAT     H128826   3.468   3.227   6.594
 7030WAT     H228827   3.366   3.256   6.507
 7030WAT    EPW28828   3.392   3.225   6.574
 7031WAT      O28829   4.624   3.750   6.316
 7031WAT     H128830   4.677   3.747   6.247
 7031WAT     H228831   4.654   3.686   6.368
 7031WAT    EPW28832   4.637   3.740   6.313
 7032WAT      O28833   3.252   4.097   6.319
 7032WAT     H128834   3.280   4.099   6.236
 7032WAT     H228835   3.233   4.013   6.332
 7032WAT    EPW28836   3.253   4.085   6.309
 7033WAT      O28837   4.238   3.268   6.673
 7033WAT     H128838   4.261   3.334   6.726
 7033WAT     H228839   4.158   3.247   6.701
 7033WAT    EPW28840   4.230   3.275   6.685
 7034WAT      O28841   4.221   3.369   5.641
 7034WAT     H128842   4.156   3.316   5.619
 7034WAT     H228843   4.235   3.415   5.569
 7034WAT    EPW28844   4.213   3.368   5.627
 7035WAT      O28845   4.678   3.284   5.955
 7035WAT     H128846   4.761   3.311   5.955
 7035WAT     H228847   4.632   3.358   5.960
 7035WAT    EPW28848   4.684   3.299   5.956
 7036WAT      O28849   3.733   4.035   6.400
 7036WAT     H128850   3.703   4.111   6.430
 7036WAT     H228851   3.666   4.002   6.356
 7036WAT    EPW28852   3.719   4.042   6.398
 7037WAT      O28853   4.626   3.916   5.729
 7037WAT     H128854   4.693   3.973   5.726
 7037WAT     H228855   4.563   3.956   5.684
 7037WAT    EPW28856   4.627   3.930   5.722
 7038WAT      O28857   4.629   4.596   5.443
 7038WAT     H128858   4.542   4.598   5.436
 7038WAT     H228859   4.656   4.603   5.360
 7038WAT    EPW28860   4.620   4.597   5.430
 7039WAT      O28861   3.685   3.322   6.213
 7039WAT     H128862   3.608   3.302   6.178
 7039WAT     H228863   3.673   3.308   6.299
 7039WAT    EPW28864   3.672   3.317   6.221
 7040WAT      O28865   4.953   3.278   6.278
 7040WAT     H128866   4.955   3.332   6.347
 7040WAT     H228867   5.019   3.223   6.291
 7040WAT    EPW28868   4.963   3.278   6.290
 7041WAT      O28869   4.123   3.362   6.080
 7041WAT     H128870   4.062   3.300   6.081
 7041WAT     H228871   4.182   3.332   6.023
 7041WAT    EPW28872   4.123   3.348   6.072
 7042WAT      O28873   4.309   4.513   6.186
 7042WAT     H128874   4.366   4.556   6.236
 7042WAT     H228875   4.287   4.570   6.124
 7042WAT    EPW28876   4.314   4.528   6.184
 7043WAT      O28877   4.372   4.886   6.613
 7043WAT     H128878   4.302   4.846   6.579
 7043WAT     H228879   4.347   4.970   6.618
 7043WAT    EPW28880   4.358   4.893   6.609
 7044WAT      O28881   3.836   3.846   6.593
 7044WAT     H128882   3.808   3.773   6.554
 7044WAT     H228883   3.803   3.909   6.542
 7044WAT    EPW28884   3.827   3.845   6.579
 7045WAT      O28885   4.899   4.302   6.127
 7045WAT     H128886   4.948   4.242   6.087
 7045WAT     H228887   4.832   4.314   6.073
 7045WAT    EPW28888   4.897   4.295   6.113
 7046WAT      O28889   3.765   4.793   6.595
 7046WAT     H128890   3.736   4.789   6.677
 7046WAT     H228891   3.832   4.737   6.595
 7046WAT    EPW28892   3.771   4.784   6.607
 7047WAT      O28893   4.732   4.589   6.026
 7047WAT     H128894   4.811   4.595   5.989
 7047WAT     H228895   4.705   4.510   6.001
 7047WAT    EPW28896   4.740   4.578   6.017
 7048WAT      O28897   3.328   3.322   6.339
 7048WAT     H128898   3.354   3.288   6.263
 7048WAT     H228899   3.324   3.408   6.323
 7048WAT    EPW28900   3.332   3.330   6.325
 7049WAT      O28901   4.325   3.296   5.892
 7049WAT     H128902   4.382   3.361   5.908
 7049WAT     H228903   4.294   3.316   5.813
 7049WAT    EPW28904   4.329   3.309   5.883
 7050WAT      O28905   3.458   4.696   6.702
 7050WAT     H128906   3.523   4.730   6.750
 7050WAT     H228907   3.420   4.766   6.667
 7050WAT    EPW28908   3.462   4.711   6.704
 7051WAT      O28909   4.318   3.864   5.861
 7051WAT     H128910   4.327   3.791   5.813
 7051WAT     H228911   4.269   3.838   5.929
 7051WAT    EPW28912   4.312   3.849   5.864
 7052WAT      O28913   3.323   4.481   6.403
 7052WAT     H128914   3.265   4.534   6.440
 7052WAT     H228915   3.400   4.515   6.425
 7052WAT    EPW28916   3.325   4.494   6.412
 7053WAT      O28917   4.434   3.951   5.317
 7053WAT     H128918   4.453   3.866   5.306
 7053WAT     H228919   4.363   3.963   5.269
 7053WAT    EPW28920   4.426   3.940   5.308
 7054WAT      O28921   4.825   4.880   5.045
 7054WAT     H128922   4.888   4.838   5.088
 7054WAT     H228923   4.766   4.817   5.030
 7054WAT    EPW28924   4.825   4.865   5.049
 7055WAT      O28925   4.750   4.103   6.641
 7055WAT     H128926   4.825   4.076   6.676
 7055WAT     H228927   4.773   4.135   6.564
 7055WAT    EPW28928   4.764   4.104   6.635
 7056WAT      O28929   4.265   4.507   5.171
 7056WAT     H128930   4.179   4.497   5.175
 7056WAT     H228931   4.294   4.430   5.142
 7056WAT    EPW28932   4.257   4.494   5.168
 7057WAT      O28933   4.794   3.556   6.784
 7057WAT     H128934   4.793   3.640   6.808
 7057WAT     H228935   4.710   3.539   6.766
 7057WAT    EPW28936   4.781   3.566   6.785
 7058WAT      O28937   4.593   4.160   6.871
 7058WAT     H128938   4.657   4.190   6.922
 7058WAT     H228939   4.631   4.152   6.793
 7058WAT    EPW28940   4.608   4.163   6.867
 7059WAT      O28941   3.423   4.741   5.908
 7059WAT     H128942   3.469   4.687   5.856
 7059WAT     H228943   3.451   4.820   5.884
 7059WAT    EPW28944   3.434   4.745   5.896
 7060WAT      O28945   3.293   4.922   6.278
 7060WAT     H128946   3.293   4.905   6.364
 7060WAT     H228947   3.339   4.856   6.244
 7060WAT    EPW28948   3.299   4.910   6.286
 7061WAT      O28949   3.463   4.558   3.023
 7061WAT     H128950   3.507   4.603   2.963
 7061WAT     H228951   3.516   4.493   3.044
 7061WAT    EPW28952   3.477   4.555   3.018
 7062WAT      O28953   3.245   4.684   3.682
 7062WAT     H128954   3.330   4.687   3.701
 7062WAT     H228955   3.238   4.612   3.632
 7062WAT    EPW28956   3.256   4.674   3.677
 7063WAT      O28957   3.268   4.471   3.490
 7063WAT     H128958   3.265   4.389   3.461
 7063WAT     H228959   3.352   4.493   3.480
 7063WAT    EPW28960   3.280   4.462   3.484
 7064WAT      O28961   3.483   4.648   4.036
 7064WAT     H128962   3.538   4.588   4.068
 7064WAT     H228963   3.506   4.721   4.078
 7064WAT    EPW28964   3.495   4.650   4.047
 7065WAT      O28965   4.824   3.276   4.102
 7065WAT     H128966   4.770   3.241   4.043
 7065WAT     H228967   4.828   3.360   4.080
 7065WAT    EPW28968   4.817   3.283   4.090
 7066WAT      O28969   4.913   4.658   4.701
 7066WAT     H128970   4.827   4.672   4.689
 7066WAT     H228971   4.917   4.616   4.777
 7066WAT    EPW28972   4.901   4.654   4.711
 7067WAT      O28973   3.068   4.375   3.913
 7067WAT     H128974   3.109   4.451   3.928
 7067WAT     H228975   3.132   4.322   3.886
 7067WAT    EPW28976   3.084   4.378   3.911
 7068WAT      O28977   4.971   3.817   4.397
 7068WAT     H128978   5.007   3.777   4.328
 7068WAT     H228979   4.885   3.805   4.386
 7068WAT    EPW28980   4.964   3.809   4.385
 7069WAT      O28981   4.843   3.029   4.595
 7069WAT     H128982   4.844   3.060   4.513
 7069WAT     H228983   4.760   3.007   4.608
 7069WAT    EPW28984   4.831   3.031   4.585
 7070WAT      O28985   4.395   4.438   4.080
 7070WAT     H128986   4.364   4.445   3.998
 7070WAT     H228987   4.323   4.419   4.127
 7070WAT    EPW28988   4.380   4.436   4.075
 7071WAT      O28989   4.597   4.071   4.302
 7071WAT     H128990   4.517   4.070   4.268
 7071WAT     H228991   4.584   4.099   4.384
 7071WAT    EPW28992   4.584   4.075   4.309
 7072WAT      O28993   4.810   4.124   3.869
 7072WAT     H128994   4.739   4.073   3.876
 7072WAT     H228995   4.777   4.200   3.841
 7072WAT    EPW28996   4.795   4.128   3.866
 7073WAT      O28997   4.835   4.619   3.983
 7073WAT     H128998   4.790   4.627   3.909
 7073WAT     H228999   4.774   4.598   4.042
 7073WAT    EPW29000   4.820   4.617   3.981
 7074WAT      O29001   4.904   4.013   4.843
 7074WAT     H129002   4.873   3.959   4.781
 7074WAT     H229003   4.842   4.074   4.848
 7074WAT    EPW29004   4.890   4.014   4.834
 7075WAT      O29005   4.822   4.247   4.492
 7075WAT     H129006   4.748   4.219   4.529
 7075WAT     H229007   4.796   4.283   4.417
 7075WAT    EPW29008   4.807   4.248   4.486
 7076WAT      O29009   4.770   3.829   4.674
 7076WAT     H129010   4.713   3.890   4.700
 7076WAT     H229011   4.740   3.805   4.596
 7076WAT    EPW29012   4.757   3.835   4.666
 7077WAT      O29013   4.548   5.057   4.142
 7077WAT     H129014   4.474   5.099   4.160
 7077WAT     H229015   4.521   4.980   4.111
 7077WAT    EPW29016   4.533   5.052   4.140
 7078WAT      O29017   4.689   3.796   4.400
 7078WAT     H129018   4.627   3.735   4.391
 7078WAT     H229019   4.650   3.868   4.369
 7078WAT    EPW29020   4.674   3.798   4.394
 7079WAT      O29021   4.563   3.991   3.875
 7079WAT     H129022   4.533   4.020   3.798
 7079WAT     H229023   4.491   3.980   3.922
 7079WAT    EPW29024   4.548   3.994   3.870
 7080WAT      O29025   4.811   3.094   4.318
 7080WAT     H129026   4.732   3.076   4.349
 7080WAT     H229027   4.796   3.160   4.262
 7080WAT    EPW29028   4.797   3.101   4.314
 7081WAT      O29029   4.749   4.304   4.229
 7081WAT     H129030   4.690   4.240   4.241
 7081WAT     H229031   4.699   4.372   4.208
 7081WAT    EPW29032   4.733   4.304   4.228
 7082WAT      O29033   4.629   4.552   4.171
 7082WAT     H129034   4.556   4.523   4.134
 7082WAT     H229035   4.601   4.597   4.239
 7082WAT    EPW29036   4.614   4.554   4.175
 7083WAT      O29037   3.512   4.648   3.455
 7083WAT     H129038   3.520   4.678   3.537
 7083WAT     H229039   3.591   4.616   3.438
 7083WAT    EPW29040   3.525   4.648   3.465
 7084WAT      O29041   4.712   3.581   4.828
 7084WAT     H129042   4.715   3.667   4.816
 7084WAT     H229043   4.661   3.554   4.762
 7084WAT    EPW29044   4.705   3.590   4.816
 7085WAT      O29045   4.304   3.189   1.801
 7085WAT     H129046   4.284   3.256   1.749
 7085WAT     H229047   4.366   3.222   1.853
 7085WAT    EPW29048   4.310   3.204   1.801
 7086WAT      O29049   3.220   4.260   1.721
 7086WAT     H129050   3.203   4.268   1.807
 7086WAT     H229051   3.214   4.175   1.707
 7086WAT    EPW29052   3.217   4.249   1.732
 7087WAT      O29053   4.821   4.637   1.499
 7087WAT     H129054   4.881   4.581   1.529
 7087WAT     H229055   4.770   4.586   1.449
 7087WAT    EPW29056   4.823   4.621   1.496
 7088WAT      O29057   3.165   3.604   1.360
 7088WAT     H129058   3.100   3.652   1.327
 7088WAT     H229059   3.134   3.522   1.354
 7088WAT    EPW29060   3.151   3.599   1.355
 7089WAT      O29061   3.455   4.226   1.294
 7089WAT     H129062   3.431   4.181   1.223
 7089WAT     H229063   3.461   4.164   1.356
 7089WAT    EPW29064   3.452   4.210   1.293
 7090WAT      O29065   3.455   4.401   1.685
 7090WAT     H129066   3.511   4.364   1.740
 7090WAT     H229067   3.384   4.350   1.691
 7090WAT    EPW29068   3.453   4.388   1.694
 7091WAT      O29069   3.890   3.309   1.638
 7091WAT     H129070   3.881   3.368   1.574
 7091WAT     H229071   3.976   3.294   1.641
 7091WAT    EPW29072   3.901   3.315   1.629
 7092WAT      O29073   3.337   4.675   1.289
 7092WAT     H129074   3.384   4.683   1.215
 7092WAT     H229075   3.376   4.608   1.330
 7092WAT    EPW29076   3.350   4.666   1.284
 7093WAT      O29077   3.043   4.535   2.392
 7093WAT     H129078   3.118   4.537   2.437
 7093WAT     H229079   3.013   4.454   2.406
 7093WAT    EPW29080   3.050   4.523   2.401
 7094WAT      O29081   3.427   4.001   1.876
 7094WAT     H129082   3.372   3.995   1.808
 7094WAT     H229083   3.478   3.931   1.868
 7094WAT    EPW29084   3.426   3.990   1.865
 7095WAT      O29085   3.829   3.246   2.273
 7095WAT     H129086   3.914   3.263   2.282
 7095WAT     H229087   3.820   3.167   2.309
 7095WAT    EPW29088   3.840   3.237   2.280
 7096WAT      O29089   3.896   4.681   2.581
 7096WAT     H129090   3.920   4.707   2.501
 7096WAT     H229091   3.899   4.594   2.576
 7096WAT    EPW29092   3.900   4.672   2.568
 7097WAT      O29093   3.582   3.770   1.869
 7097WAT     H129094   3.640   3.709   1.890
 7097WAT     H229095   3.507   3.725   1.862
 7097WAT    EPW29096   3.579   3.754   1.871
 7098WAT      O29097   3.910   4.435   2.066
 7098WAT     H129098   3.941   4.353   2.069
 7098WAT     H229099   3.981   4.484   2.057
 7098WAT    EPW29100   3.925   4.430   2.065
 7099WAT      O29101   4.046   4.367   1.666
 7099WAT     H129102   4.061   4.291   1.707
 7099WAT     H229103   4.055   4.347   1.582
 7099WAT    EPW29104   4.049   4.353   1.660
 7100WAT      O29105   4.228   4.042   2.760
 7100WAT     H129106   4.234   3.956   2.753
 7100WAT     H229107   4.264   4.060   2.837
 7100WAT    EPW29108   4.234   4.032   2.770
 7101WAT      O29109   3.626   3.343   1.734
 7101WAT     H129110   3.579   3.392   1.680
 7101WAT     H229111   3.708   3.354   1.706
 7101WAT    EPW29112   3.631   3.352   1.722
 7102WAT      O29113   3.880   3.311   2.008
 7102WAT     H129114   3.861   3.287   2.090
 7102WAT     H229115   3.966   3.325   2.011
 7102WAT    EPW29116   3.890   3.310   2.021
 7103WAT      O29117   4.326   3.431   1.167
 7103WAT     H129118   4.288   3.506   1.191
 7103WAT     H229119   4.355   3.398   1.242
 7103WAT    EPW29120   4.325   3.437   1.181
 7104WAT      O29121   3.188   3.771   2.085
 7104WAT     H129122   3.200   3.856   2.098
 7104WAT     H229123   3.124   3.750   2.141
 7104WAT    EPW29124   3.180   3.780   2.095
 7105WAT      O29125   3.187   4.718   1.956
 7105WAT     H129126   3.125   4.768   1.922
 7105WAT     H229127   3.228   4.686   1.886
 7105WAT    EPW29128   3.184   4.720   1.941
 7106WAT      O29129   3.786   4.457   1.638
 7106WAT     H129130   3.759   4.478   1.719
 7106WAT     H229131   3.870   4.437   1.649
 7106WAT    EPW29132   3.794   4.457   1.652
 7107WAT      O29133   4.420   4.719   1.412
 7107WAT     H129134   4.480   4.782   1.411
 7107WAT     H229135   4.362   4.747   1.471
 7107WAT    EPW29136   4.420   4.732   1.421
 7108WAT      O29137   3.551   3.284   2.182
 7108WAT     H129138   3.496   3.288   2.249
 7108WAT     H229139   3.629   3.277   2.219
 7108WAT    EPW29140   3.554   3.284   2.197
 7109WAT      O29141   3.321   4.639   1.721
 7109WAT     H129142   3.374   4.570   1.727
 7109WAT     H229143   3.364   4.694   1.669
 7109WAT    EPW29144   3.335   4.637   1.714
 7110WAT      O29145   4.520   4.660   2.387
 7110WAT     H129146   4.527   4.747   2.390
 7110WAT     H229147   4.472   4.646   2.316
 7110WAT    EPW29148   4.514   4.671   2.377
 7111WAT      O29149   3.488   4.385   2.071
 7111WAT     H129150   3.535   4.356   2.003
 7111WAT     H229151   3.517   4.338   2.138
 7111WAT    EPW29152   3.499   4.373   2.071
 7112WAT      O29153   3.740   4.803   1.980
 7112WAT     H129154   3.822   4.816   1.955
 7112WAT     H229155   3.693   4.839   1.915
 7112WAT    EPW29156   3.745   4.810   1.967
 7113WAT      O29157   4.301   3.748   1.592
 7113WAT     H129158   4.258   3.677   1.564
 7113WAT     H229159   4.375   3.715   1.624
 7113WAT    EPW29160   4.306   3.732   1.593
 7114WAT      O29161   4.213   3.682   1.218
 7114WAT     H129162   4.273   3.725   1.172
 7114WAT     H229163   4.138   3.699   1.177
 7114WAT    EPW29164   4.211   3.691   1.205
 7115WAT      O29165   4.602   4.933   1.379
 7115WAT     H129166   4.651   4.915   1.308
 7115WAT     H229167   4.656   4.980   1.429
 7115WAT    EPW29168   4.617   4.937   1.376
 7116WAT      O29169   3.656   4.819   2.496
 7116WAT     H129170   3.713   4.766   2.536
 7116WAT     H229171   3.583   4.772   2.491
 7116WAT    EPW29172   3.654   4.804   2.501
 7117WAT      O29173   3.091   3.511   2.696
 7117WAT     H129174   3.122   3.566   2.756
 7117WAT     H229175   3.147   3.518   2.630
 7117WAT    EPW29176   3.104   3.520   2.695
 7118WAT      O29177   4.071   4.568   1.243
 7118WAT     H129178   4.041   4.633   1.292
 7118WAT     H229179   4.149   4.597   1.216
 7118WAT    EPW29180   4.078   4.582   1.246
 7119WAT      O29181   4.416   3.329   1.406
 7119WAT     H129182   4.354   3.306   1.461
 7119WAT     H229183   4.488   3.331   1.455
 7119WAT    EPW29184   4.418   3.326   1.421
 7120WAT      O29185   3.229   3.404   1.638
 7120WAT     H129186   3.210   3.320   1.622
 7120WAT     H229187   3.177   3.424   1.705
 7120WAT    EPW29188   3.219   3.394   1.645
 7121WAT      O29189   3.408   4.724   2.405
 7121WAT     H129190   3.366   4.660   2.447
 7121WAT     H229191   3.435   4.687   2.331
 7121WAT    EPW29192   3.406   4.709   2.400
 7122WAT      O29193   4.145   3.560   1.461
 7122WAT     H129194   4.058   3.551   1.456
 7122WAT     H229195   4.166   3.595   1.384
 7122WAT    EPW29196   4.135   3.564   1.449
 7123WAT      O29197   4.169   3.299   1.546
 7123WAT     H129198   4.128   3.260   1.479
 7123WAT     H229199   4.168   3.383   1.525
 7123WAT    EPW29200   4.163   3.305   1.533
 7124WAT      O29201   4.881   4.855   1.785
 7124WAT     H129202   4.845   4.933   1.798
 7124WAT     H229203   4.812   4.803   1.769
 7124WAT    EPW29204   4.865   4.859   1.785
 7125WAT      O29205   4.523   4.452   1.756
 7125WAT     H129206   4.558   4.385   1.799
 7125WAT     H229207   4.442   4.458   1.789
 7125WAT    EPW29208   4.516   4.443   1.767
 7126WAT      O29209   3.546   4.489   2.631
 7126WAT     H129210   3.550   4.414   2.676
 7126WAT     H229211   3.568   4.549   2.691
 7126WAT    EPW29212   3.550   4.487   2.647
 7127WAT      O29213   3.796   4.071   2.256
 7127WAT     H129214   3.794   4.034   2.335
 7127WAT     H229215   3.757   4.011   2.205
 7127WAT    EPW29216   3.790   4.056   2.260
 7128WAT      O29217   4.461   4.228   2.415
 7128WAT     H129218   4.488   4.173   2.477
 7128WAT     H229219   4.434   4.298   2.461
 7128WAT    EPW29220   4.461   4.230   2.431
 7129WAT      O29221   3.215   4.435   2.980
 7129WAT     H129222   3.293   4.472   2.995
 7129WAT     H229223   3.229   4.351   2.999
 7129WAT    EPW29224   3.228   4.428   2.985
 7130WAT      O29225   3.474   3.435   1.954
 7130WAT     H129226   3.503   3.385   1.889
 7130WAT     H229227   3.480   3.384   2.024
 7130WAT    EPW29228   3.479   3.420   1.955
 7131WAT      O29229   4.801   4.211   1.361
 7131WAT     H129230   4.797   4.177   1.441
 7131WAT     H229231   4.886   4.230   1.352
 7131WAT    EPW29232   4.813   4.209   1.372
 7132WAT      O29233   3.591   4.226   1.860
 7132WAT     H129234   3.639   4.206   1.790
 7132WAT     H229235   3.539   4.157   1.870
 7132WAT    EPW29236   3.590   4.213   1.851
 7133WAT      O29237   3.419   4.850   2.038
 7133WAT     H129238   3.339   4.820   2.020
 7133WAT     H229239   3.452   4.867   1.959
 7133WAT    EPW29240   3.412   4.848   2.024
 7134WAT      O29241   3.323   3.566   2.214
 7134WAT     H129242   3.409   3.580   2.214
 7134WAT     H229243   3.291   3.638   2.176
 7134WAT    EPW29244   3.331   3.579   2.209
 7135WAT      O29245   4.563   3.918   1.350
 7135WAT     H129246   4.573   3.995   1.310
 7135WAT     H229247   4.595   3.932   1.430
 7135WAT    EPW29248   4.569   3.931   1.356
 7136WAT      O29249   3.694   4.187   1.605
 7136WAT     H129250   3.724   4.268   1.595
 7136WAT     H229251   3.761   4.137   1.580
 7136WAT    EPW29252   3.708   4.192   1.599
 7137WAT      O29253   4.964   3.401   1.174
 7137WAT     H129254   4.918   3.327   1.167
 7137WAT     H229255   4.912   3.461   1.136
 7137WAT    EPW29256   4.949   3.399   1.167
 7138WAT      O29257   3.230   4.310   2.001
 7138WAT     H129258   3.175   4.369   2.034
 7138WAT     H229259   3.309   4.341   2.020
 7138WAT    EPW29260   3.233   4.323   2.009
 7139WAT      O29261   3.257   3.991   1.658
 7139WAT     H129262   3.234   3.908   1.644
 7139WAT     H229263   3.319   4.005   1.598
 7139WAT    EPW29264   3.263   3.981   1.647
 7140WAT      O29265   4.642   3.311   1.573
 7140WAT     H129266   4.728   3.299   1.570
 7140WAT     H229267   4.631   3.360   1.645
 7140WAT    EPW29268   4.653   3.317   1.583
 7141WAT      O29269   4.126   4.609   2.030
 7141WAT     H129270   4.095   4.686   2.000
 7141WAT     H229271   4.164   4.574   1.960
 7141WAT    EPW29272   4.127   4.615   2.015
 7142WAT      O29273   3.162   4.476   1.561
 7142WAT     H129274   3.212   4.532   1.605
 7142WAT     H229275   3.159   4.406   1.613
 7142WAT    EPW29276   3.169   4.474   1.575
 7143WAT      O29277   3.585   4.251   2.293
 7143WAT     H129278   3.616   4.313   2.346
 7143WAT     H229279   3.653   4.199   2.279
 7143WAT    EPW29280   3.599   4.253   2.298
 7144WAT      O29281   3.180   4.323   1.324
 7144WAT     H129282   3.259   4.287   1.319
 7144WAT     H229283   3.185   4.372   1.396
 7144WAT    EPW29284   3.192   4.325   1.334
 7145WAT      O29285   3.252   4.051   2.086
 7145WAT     H129286   3.310   4.026   2.026
 7145WAT     H229287   3.242   4.136   2.069
 7145WAT    EPW29288   3.259   4.060   2.074
 7146WAT      O29289   3.875   3.505   1.440
 7146WAT     H129290   3.860   3.484   1.357
 7146WAT     H229291   3.839   3.584   1.448
 7146WAT    EPW29292   3.868   3.514   1.429
 7147WAT      O29293   4.830   4.765   2.460
 7147WAT     H129294   4.783   4.789   2.530
 7147WAT     H229295   4.866   4.839   2.433
 7147WAT    EPW29296   4.828   4.780   2.466
 7148WAT      O29297   3.716   4.535   1.893
 7148WAT     H129298   3.717   4.618   1.921
 7148WAT     H229299   3.774   4.495   1.944
 7148WAT    EPW29300   3.725   4.542   1.904
 7149WAT      O29301   3.495   3.759   1.453
 7149WAT     H129302   3.482   3.690   1.505
 7149WAT     H229303   3.466   3.733   1.376
 7149WAT    EPW29304   3.489   3.745   1.450
 7150WAT      O29305   3.646   3.868   2.130
 7150WAT     H129306   3.629   3.863   2.045
 7150WAT     H229307   3.640   3.786   2.157
 7150WAT    EPW29308   3.643   3.855   2.121
 7151WAT      O29309   3.576   3.900   2.406
 7151WAT     H129310   3.591   3.885   2.321
 7151WAT     H229311   3.508   3.954   2.406
 7151WAT    EPW29312   3.568   3.906   2.394
 7152WAT      O29313   3.919   4.730   2.303
 7152WAT     H129314   3.880   4.652   2.294
 7152WAT     H229315   3.992   4.722   2.256
 7152WAT    EPW29316   3.924   4.717   2.294
 7153WAT      O29317   4.512   4.504   2.790
 7153WAT     H129318   4.469   4.506   2.866
 7153WAT     H229319   4.570   4.440   2.802
 7153WAT    EPW29320   4.514   4.495   2.803
 7154WAT      O29321   4.651   4.205   1.856
 7154WAT     H129322   4.691   4.162   1.921
 7154WAT     H229323   4.698   4.185   1.786
 7154WAT    EPW29324   4.664   4.195   1.855
 7155WAT      O29325   4.387   4.606   2.148
 7155WAT     H129326   4.303   4.600   2.124
 7155WAT     H229327   4.412   4.683   2.116
 7155WAT    EPW29328   4.378   4.617   2.140
 7156WAT      O29329   4.261   4.238   2.206
 7156WAT     H129330   4.223   4.303   2.250
 7156WAT     H229331   4.318   4.204   2.263
 7156WAT    EPW29332   4.264   4.242   2.221
 7157WAT      O29333   3.742   4.715   1.541
 7157WAT     H129334   3.761   4.640   1.581
 7157WAT     H229335   3.820   4.742   1.510
 7157WAT    EPW29336   3.757   4.708   1.542
 7158WAT      O29337   3.728   3.163   1.366
 7158WAT     H129338   3.714   3.135   1.447
 7158WAT     H229339   3.674   3.231   1.359
 7158WAT    EPW29340   3.718   3.169   1.377
 7159WAT      O29341   3.973   4.771   1.401
 7159WAT     H129342   4.032   4.774   1.465
 7159WAT     H229343   3.974   4.851   1.368
 7159WAT    EPW29344   3.982   4.783   1.406
 7160WAT      O29345   4.685   4.291   2.804
 7160WAT     H129346   4.627   4.235   2.771
 7160WAT     H229347   4.685   4.272   2.890
 7160WAT    EPW29348   4.677   4.280   2.812
 7161WAT      O29349   3.476   4.040   1.495
 7161WAT     H129350   3.496   3.955   1.486
 7161WAT     H229351   3.545   4.072   1.537
 7161WAT    EPW29352   3.489   4.032   1.500
 7162WAT      O29353   3.149   3.136   1.588
 7162WAT     H129354   3.166   3.083   1.521
 7162WAT     H229355   3.130   3.082   1.653
 7162WAT    EPW29356   3.149   3.121   1.588
 7163WAT      O29357   4.119   3.961   1.635
 7163WAT     H129358   4.121   4.012   1.706
 7163WAT     H229359   4.161   3.889   1.661
 7163WAT    EPW29360   4.125   3.958   1.649
 7164WAT      O29361   4.576   4.395   2.214
 7164WAT     H129362   4.509   4.442   2.183
 7164WAT     H229363   4.538   4.335   2.263
 7164WAT    EPW29364   4.561   4.393   2.216
 7165WAT      O29365   3.573   3.389   1.318
 7165WAT     H129366   3.512   3.381   1.257
 7165WAT     H229367   3.636   3.434   1.279
 7165WAT    EPW29368   3.573   3.395   1.303
 7166WAT      O29369   4.008   4.175   2.091
 7166WAT     H129370   3.952   4.136   2.145
 7166WAT     H229371   4.082   4.179   2.136
 7166WAT    EPW29372   4.010   4.170   2.105
 7167WAT      O29373   3.713   4.793   1.144
 7167WAT     H129374   3.735   4.718   1.182
 7167WAT     H229375   3.708   4.850   1.211
 7167WAT    EPW29376   3.715   4.791   1.160
 7168WAT      O29377   3.372   4.081   2.341
 7168WAT     H129378   3.434   4.142   2.328
 7168WAT     H229379   3.339   4.068   2.262
 7168WAT    EPW29380   3.376   4.088   2.327
 7169WAT      O29381   3.723   3.548   1.990
 7169WAT     H129382   3.780   3.482   1.989
 7169WAT     H229383   3.646   3.509   1.976
 7169WAT    EPW29384   3.720   3.533   1.988
 7170WAT      O29385   4.991   4.812   1.370
 7170WAT     H129386   5.062   4.765   1.351
 7170WAT     H229387   4.939   4.756   1.410
 7170WAT    EPW29388   4.994   4.797   1.373
 7171WAT      O29389   3.194   3.721   1.625
 7171WAT     H129390   3.232   3.685   1.694
 7171WAT     H229391   3.205   3.662   1.562
 7171WAT    EPW29392   3.201   3.707   1.626
 7172WAT      O29393   3.756   3.902   1.191
 7172WAT     H129394   3.742   3.856   1.264
 7172WAT     H229395   3.684   3.887   1.144
 7172WAT    EPW29396   3.743   3.893   1.194
 7173WAT      O29397   4.785   4.033   2.036
 7173WAT     H129398   4.750   3.964   2.077
 7173WAT     H229399   4.867   4.034   2.066
 7173WAT    EPW29400   4.792   4.023   2.047
 7174WAT      O29401   3.767   3.759   1.429
 7174WAT     H129402   3.798   3.830   1.471
 7174WAT     H229403   3.682   3.759   1.450
 7174WAT    EPW29404   3.759   3.770   1.438
 7175WAT      O29405   3.174   3.358   2.093
 7175WAT     H129406   3.147   3.390   2.017
 7175WAT     H229407   3.231   3.418   2.122
 7175WAT    EPW29408   3.179   3.372   2.086
 7176WAT      O29409   4.995   4.548   2.169
 7176WAT     H129410   5.003   4.598   2.098
 7176WAT     H229411   5.065   4.568   2.217
 7176WAT    EPW29412   5.006   4.558   2.166
 7177WAT      O29413   4.419   4.051   2.980
 7177WAT     H129414   4.400   3.992   3.041
 7177WAT     H229415   4.464   4.112   3.024
 7177WAT    EPW29416   4.423   4.052   2.996
 7178WAT      O29417   4.675   4.456   1.353
 7178WAT     H129418   4.710   4.376   1.358
 7178WAT     H229419   4.597   4.447   1.392
 7178WAT    EPW29420   4.669   4.443   1.360
 7179WAT      O29421   4.310   4.237   1.361
 7179WAT     H129422   4.352   4.303   1.401
 7179WAT     H229423   4.322   4.254   1.277
 7179WAT    EPW29424   4.318   4.249   1.355
 7180WAT      O29425   3.883   4.406   2.523
 7180WAT     H129426   3.830   4.366   2.579
 7180WAT     H229427   3.830   4.427   2.457
 7180WAT    EPW29428   3.867   4.403   2.521
 7181WAT      O29429   4.009   4.848   1.924
 7181WAT     H129430   4.006   4.935   1.933
 7181WAT     H229431   4.050   4.837   1.848
 7181WAT    EPW29432   4.015   4.859   1.914
 7182WAT      O29433   3.759   4.503   2.287
 7182WAT     H129434   3.690   4.544   2.253
 7182WAT     H229435   3.801   4.471   2.217
 7182WAT    EPW29436   3.755   4.504   2.272
 7183WAT      O29437   4.638   4.757   2.834
 7183WAT     H129438   4.642   4.767   2.920
 7183WAT     H229439   4.602   4.678   2.823
 7183WAT    EPW29440   4.633   4.747   2.845
 7184WAT      O29441   4.806   3.793   1.272
 7184WAT     H129442   4.857   3.852   1.232
 7184WAT     H229443   4.729   3.833   1.279
 7184WAT    EPW29444   4.802   3.807   1.267
 7185WAT      O29445   3.969   4.071   1.265
 7185WAT     H129446   3.897   4.041   1.227
 7185WAT     H229447   3.952   4.156   1.276
 7185WAT    EPW29448   3.956   4.079   1.261
 7186WAT      O29449   3.595   3.620   2.238
 7186WAT     H129450   3.652   3.571   2.194
 7186WAT     H229451   3.610   3.598   2.321
 7186WAT    EPW29452   3.606   3.610   2.244
 7187WAT      O29453   4.562   3.709   1.692
 7187WAT     H129454   4.576   3.631   1.729
 7187WAT     H229455   4.637   3.726   1.652
 7187WAT    EPW29456   4.575   3.700   1.692
 7188WAT      O29457   4.737   4.086   1.604
 7188WAT     H129458   4.779   4.010   1.608
 7188WAT     H229459   4.654   4.065   1.623
 7188WAT    EPW29460   4.731   4.072   1.607
 7189WAT      O29461   3.016   3.245   2.727
 7189WAT     H129462   3.044   3.327   2.730
 7189WAT     H229463   2.964   3.238   2.797
 7189WAT    EPW29464   3.012   3.256   2.738
 7190WAT      O29465   3.477   3.500   1.560
 7190WAT     H129466   3.496   3.461   1.484
 7190WAT     H229467   3.398   3.469   1.580
 7190WAT    EPW29468   3.468   3.489   1.552
 7191WAT      O29469   4.378   4.175   1.930
 7191WAT     H129470   4.359   4.197   2.013
 7191WAT     H229471   4.464   4.189   1.924
 7191WAT    EPW29472   4.388   4.181   1.942
 7192WAT      O29473   4.119   4.152   1.832
 7192WAT     H129474   4.073   4.152   1.906
 7192WAT     H229475   4.201   4.164   1.859
 7192WAT    EPW29476   4.124   4.154   1.847
 7193WAT      O29477   4.495   4.113   2.698
 7193WAT     H129478   4.408   4.114   2.694
 7193WAT     H229479   4.512   4.065   2.769
 7193WAT    EPW29480   4.485   4.106   2.708
 7194WAT      O29481   3.310   4.903   2.785
 7194WAT     H129482   3.277   4.823   2.794
 7194WAT     H229483   3.242   4.955   2.805
 7194WAT    EPW29484   3.295   4.899   2.789
 7195WAT      O29485   4.483   4.867   2.105
 7195WAT     H129486   4.425   4.931   2.111
 7195WAT     H229487   4.533   4.878   2.175
 7195WAT    EPW29488   4.482   4.878   2.116
 7196WAT      O29489   4.144   4.419   2.389
 7196WAT     H129490   4.073   4.411   2.438
 7196WAT     H229491   4.207   4.438   2.446
 7196WAT    EPW29492   4.142   4.421   2.404
 7197WAT      O29493   3.547   3.649   2.525
 7197WAT     H129494   3.557   3.731   2.499
 7197WAT     H229495   3.595   3.644   2.597
 7197WAT    EPW29496   3.555   3.660   2.532
 7198WAT      O29497   3.280   3.567   2.490
 7198WAT     H129498   3.279   3.566   2.403
 7198WAT     H229499   3.362   3.588   2.509
 7198WAT    EPW29500   3.292   3.570   2.480
 7199WAT      O29501   4.791   3.810   1.557
 7199WAT     H129502   4.803   3.795   1.472
 7199WAT     H229503   4.863   3.778   1.594
 7199WAT    EPW29504   4.803   3.803   1.550
 7200WAT      O29505   4.248   4.506   1.802
 7200WAT     H129506   4.246   4.582   1.761
 7200WAT     H229507   4.188   4.458   1.761
 7200WAT    EPW29508   4.239   4.510   1.790
 7201WAT      O29509   3.175   4.082   2.534
 7201WAT     H129510   3.243   4.090   2.480
 7201WAT     H229511   3.168   3.996   2.544
 7201WAT    EPW29512   3.184   4.071   2.527
 7202WAT      O29513   3.390   3.655   1.209
 7202WAT     H129514   3.315   3.646   1.253
 7202WAT     H229515   3.401   3.577   1.170
 7202WAT    EPW29516   3.381   3.642   1.210
 7203WAT      O29517   3.725   4.551   1.299
 7203WAT     H129518   3.770   4.584   1.366
 7203WAT     H229519   3.647   4.533   1.335
 7203WAT    EPW29520   3.720   4.553   1.315
 7204WAT      O29521   4.657   4.700   1.717
 7204WAT     H129522   4.617   4.625   1.737
 7204WAT     H229523   4.696   4.682   1.641
 7204WAT    EPW29524   4.657   4.686   1.709
 7205WAT      O29525   3.482   4.474   1.413
 7205WAT     H129526   3.483   4.455   1.499
 7205WAT     H229527   3.474   4.396   1.376
 7205WAT    EPW29528   3.481   4.460   1.420
 7206WAT      O29529   3.748   4.277   1.232
 7206WAT     H129530   3.665   4.254   1.248
 7206WAT     H229531   3.750   4.361   1.257
 7206WAT    EPW29532   3.736   4.286   1.238
 7207WAT      O29533   4.386   4.467   2.541
 7207WAT     H129534   4.419   4.469   2.621
 7207WAT     H229535   4.427   4.532   2.500
 7207WAT    EPW29536   4.397   4.477   2.546
 7208WAT      O29537   4.007   3.193   1.338
 7208WAT     H129538   4.018   3.173   1.254
 7208WAT     H229539   3.920   3.199   1.345
 7208WAT    EPW29540   3.995   3.191   1.326
 7209WAT      O29541   4.832   4.357   2.553
 7209WAT     H129542   4.796   4.354   2.632
 7209WAT     H229543   4.845   4.273   2.533
 7209WAT    EPW29544   4.829   4.344   2.562
 7210WAT      O29545   3.859   4.830   2.812
 7210WAT     H129546   3.920   4.821   2.873
 7210WAT     H229547   3.884   4.774   2.749
 7210WAT    EPW29548   3.872   4.820   2.811
 7211WAT      O29549   3.379   3.290   2.399
 7211WAT     H129550   3.334   3.220   2.426
 7211WAT     H229551   3.339   3.357   2.439
 7211WAT    EPW29552   3.366   3.289   2.409
 7212WAT      O29553   3.593   4.708   2.816
 7212WAT     H129554   3.673   4.741   2.827
 7212WAT     H229555   3.545   4.778   2.798
 7212WAT    EPW29556   3.598   4.723   2.815
 7213WAT      O29557   3.326   3.656   1.864
 7213WAT     H129558   3.276   3.686   1.929
 7213WAT     H229559   3.353   3.578   1.893
 7213WAT    EPW29560   3.323   3.649   1.878
 7214WAT      O29561   3.280   4.532   2.555
 7214WAT     H129562   3.251   4.569   2.629
 7214WAT     H229563   3.359   4.501   2.577
 7214WAT    EPW29564   3.288   4.533   2.569
 7215WAT      O29565   4.482   3.991   1.658
 7215WAT     H129566   4.495   3.909   1.685
 7215WAT     H229567   4.457   4.033   1.730
 7215WAT    EPW29568   4.480   3.985   1.672
 7216WAT      O29569   3.477   4.789   1.545
 7216WAT     H129570   3.446   4.783   1.465
 7216WAT     H229571   3.558   4.757   1.538
 7216WAT    EPW29572   3.485   4.783   1.532
 7217WAT      O29573   3.875   3.999   1.515
 7217WAT     H129574   3.906   4.026   1.437
 7217WAT     H229575   3.948   3.984   1.561
 7217WAT    EPW29576   3.891   4.001   1.510
 7218WAT      O29577   4.790   4.865   1.183
 7218WAT     H129578   4.857   4.860   1.238
 7218WAT     H229579   4.771   4.782   1.166
 7218WAT    EPW29580   4.797   4.852   1.188
 7219WAT      O29581   4.438   4.448   1.489
 7219WAT     H129582   4.461   4.448   1.573
 7219WAT     H229583   4.423   4.533   1.471
 7219WAT    EPW29584   4.439   4.461   1.498
 7220WAT      O29585   3.535   4.637   2.173
 7220WAT     H129586   3.516   4.562   2.132
 7220WAT     H229587   3.503   4.698   2.120
 7220WAT    EPW29588   3.528   4.635   2.159
 7221WAT      O29589   4.051   4.328   1.389
 7221WAT     H129590   4.132   4.298   1.377
 7221WAT     H229591   4.050   4.403   1.344
 7221WAT    EPW29592   4.063   4.335   1.380
 7222WAT      O29593   3.310   4.962   2.512
 7222WAT     H129594   3.316   4.936   2.596
 7222WAT     H229595   3.338   4.892   2.468
 7222WAT    EPW29596   3.315   4.947   2.518
 7223WAT      O29597   4.175   3.809   0.332
 7223WAT     H129598   4.159   3.892   0.353
 7223WAT     H229599   4.247   3.790   0.377
 7223WAT    EPW29600   4.183   3.818   0.342
 7224WAT      O29601   3.242   4.507   0.505
 7224WAT     H129602   3.267   4.496   0.588
 7224WAT     H229603   3.188   4.440   0.491
 7224WAT    EPW29604   3.238   4.495   0.515
 7225WAT      O29605   3.857   4.306   0.977
 7225WAT     H129606   3.827   4.291   1.058
 7225WAT     H229607   3.787   4.291   0.927
 7225WAT    EPW29608   3.842   4.302   0.982
 7226WAT      O29609   3.788   3.578   0.515
 7226WAT     H129610   3.865   3.582   0.475
 7226WAT     H229611   3.770   3.492   0.515
 7226WAT    EPW29612   3.797   3.566   0.509
 7227WAT      O29613   3.844   4.609   0.704
 7227WAT     H129614   3.864   4.663   0.639
 7227WAT     H229615   3.921   4.577   0.728
 7227WAT    EPW29616   3.858   4.612   0.698
 7228WAT      O29617   4.179   3.840   0.934
 7228WAT     H129618   4.103   3.848   0.893
 7228WAT     H229619   4.176   3.901   0.996
 7228WAT    EPW29620   4.167   3.850   0.937
 7229WAT      O29621   4.638   3.094   0.866
 7229WAT     H129622   4.626   3.165   0.817
 7229WAT     H229623   4.558   3.077   0.896
 7229WAT    EPW29624   4.624   3.102   0.863
 7230WAT      O29625   3.179   3.833   0.313
 7230WAT     H129626   3.135   3.908   0.321
 7230WAT     H229627   3.121   3.773   0.339
 7230WAT    EPW29628   3.164   3.836   0.318
 7231WAT      O29629   3.441   3.181   0.381
 7231WAT     H129630   3.438   3.233   0.312
 7231WAT     H229631   3.514   3.135   0.369
 7231WAT    EPW29632   3.452   3.182   0.369
 7232WAT      O29633   3.796   3.493   1.172
 7232WAT     H129634   3.784   3.453   1.095
 7232WAT     H229635   3.842   3.564   1.151
 7232WAT    EPW29636   3.801   3.498   1.157
 7233WAT      O29637   4.422   4.778   0.576
 7233WAT     H129638   4.484   4.821   0.620
 7233WAT     H229639   4.446   4.788   0.492
 7233WAT    EPW29640   4.435   4.786   0.570
 7234WAT      O29641   3.393   3.391   1.104
 7234WAT     H129642   3.311   3.361   1.098
 7234WAT     H229643   3.433   3.357   1.034
 7234WAT    EPW29644   3.387   3.381   1.093
 7235WAT      O29645   4.020   3.117   1.067
 7235WAT     H129646   4.066   3.046   1.046
 7235WAT     H229647   3.942   3.103   1.030
 7235WAT    EPW29648   4.015   3.105   1.058
 7236WAT      O29649   3.636   4.824   0.594
 7236WAT     H129650   3.653   4.828   0.679
 7236WAT     H229651   3.553   4.798   0.591
 7236WAT    EPW29652   3.626   4.821   0.606
 7237WAT      O29653   4.922   3.365   0.431
 7237WAT     H129654   4.985   3.338   0.377
 7237WAT     H229655   4.926   3.307   0.497
 7237WAT    EPW29656   4.932   3.352   0.433
 7238WAT      O29657   3.136   3.499   0.851
 7238WAT     H129658   3.121   3.576   0.888
 7238WAT     H229659   3.196   3.517   0.790
 7238WAT    EPW29660   3.143   3.513   0.847
 7239WAT      O29661   4.344   4.554   0.898
 7239WAT     H129662   4.320   4.580   0.977
 7239WAT     H229663   4.431   4.544   0.905
 7239WAT    EPW29664   4.353   4.556   0.910
 7240WAT      O29665   3.371   4.761   0.524
 7240WAT     H129666   3.335   4.683   0.508
 7240WAT     H229667   3.372   4.800   0.446
 7240WAT    EPW29668   3.366   4.755   0.510
 7241WAT      O29669   4.164   4.839   0.649
 7241WAT     H129670   4.243   4.814   0.621
 7241WAT     H229671   4.110   4.806   0.589
 7241WAT    EPW29672   4.168   4.831   0.636
 7242WAT      O29673   3.581   4.550   0.820
 7242WAT     H129674   3.655   4.584   0.789
 7242WAT     H229675   3.568   4.595   0.894
 7242WAT    EPW29676   3.590   4.562   0.826
 7243WAT      O29677   3.815   4.217   0.221
 7243WAT     H129678   3.825   4.182   0.300
 7243WAT     H229679   3.809   4.147   0.169
 7243WAT    EPW29680   3.816   4.201   0.225
 7244WAT      O29681   4.365   3.484   0.632
 7244WAT     H129682   4.358   3.536   0.701
 7244WAT     H229683   4.300   3.427   0.641
 7244WAT    EPW29684   4.355   3.483   0.643
 7245WAT      O29685   3.863   4.153   0.486
 7245WAT     H129686   3.846   4.237   0.504
 7245WAT     H229687   3.837   4.111   0.558
 7245WAT    EPW29688   3.857   4.159   0.500
 7246WAT      O29689   4.477   4.256   0.548
 7246WAT     H129690   4.403   4.214   0.567
 7246WAT     H229691   4.462   4.337   0.575
 7246WAT    EPW29692   4.464   4.262   0.555
 7247WAT      O29693   3.133   4.538   1.144
 7247WAT     H129694   3.193   4.585   1.187
 7247WAT     H229695   3.140   4.459   1.180
 7247WAT    EPW29696   3.143   4.533   1.156
 7248WAT      O29697   4.784   3.532   0.790
 7248WAT     H129698   4.869   3.513   0.785
 7248WAT     H229699   4.772   3.553   0.874
 7248WAT    EPW29700   4.794   3.533   0.801
 7249WAT      O29701   3.378   3.656   0.399
 7249WAT     H129702   3.457   3.687   0.378
 7249WAT     H229703   3.324   3.715   0.365
 7249WAT    EPW29704   3.382   3.669   0.391
 7250WAT      O29705   5.023   4.668   0.887
 7250WAT     H129706   4.944   4.677   0.850
 7250WAT     H229707   5.006   4.624   0.960
 7250WAT    EPW29708   5.009   4.663   0.892
 7251WAT      O29709   3.950   3.722   1.111
 7251WAT     H129710   3.894   3.780   1.143
 7251WAT     H229711   3.957   3.743   1.027
 7251WAT    EPW29712   3.943   3.734   1.103
 7252WAT      O29713   5.039   3.790   0.643
 7252WAT     H129714   5.101   3.728   0.638
 7252WAT     H229715   4.977   3.760   0.590
 7252WAT    EPW29716   5.039   3.776   0.634
 7253WAT      O29717   3.579   4.335   0.327
 7253WAT     H129718   3.621   4.367   0.397
 7253WAT     H229719   3.642   4.299   0.279
 7253WAT    EPW29720   3.594   4.334   0.330
 7254WAT      O29721   4.766   4.695   0.760
 7254WAT     H129722   4.712   4.763   0.768
 7254WAT     H229723   4.757   4.672   0.676
 7254WAT    EPW29724   4.757   4.702   0.749
 7255WAT      O29725   3.517   3.846   1.049
 7255WAT     H129726   3.473   3.785   1.094
 7255WAT     H229727   3.511   3.818   0.967
 7255WAT    EPW29728   3.510   3.833   1.044
 7256WAT      O29729   3.557   3.931   0.567
 7256WAT     H129730   3.585   3.880   0.502
 7256WAT     H229731   3.509   3.991   0.527
 7256WAT    EPW29732   3.554   3.932   0.552
 7257WAT      O29733   4.627   3.641   0.362
 7257WAT     H129734   4.560   3.675   0.405
 7257WAT     H229735   4.614   3.669   0.280
 7257WAT    EPW29736   4.615   3.650   0.356
 7258WAT      O29737   3.947   4.764   0.493
 7258WAT     H129738   3.940   4.709   0.426
 7258WAT     H229739   3.925   4.841   0.459
 7258WAT    EPW29740   3.943   4.767   0.478
 7259WAT      O29741   4.171   3.272   0.690
 7259WAT     H129742   4.184   3.186   0.683
 7259WAT     H229743   4.187   3.289   0.774
 7259WAT    EPW29744   4.175   3.262   0.701
 7260WAT      O29745   3.367   4.075   1.082
 7260WAT     H129746   3.366   4.118   1.006
 7260WAT     H229747   3.420   4.007   1.067
 7260WAT    EPW29748   3.375   4.072   1.069
 7261WAT      O29749   4.531   4.250   0.946
 7261WAT     H129750   4.566   4.328   0.930
 7261WAT     H229751   4.566   4.198   0.885
 7261WAT    EPW29752   4.541   4.254   0.934
 7262WAT      O29753   3.931   4.580   1.004
 7262WAT     H129754   3.968   4.575   1.083
 7262WAT     H229755   3.907   4.498   0.988
 7262WAT    EPW29756   3.933   4.567   1.013
 7263WAT      O29757   4.021   3.578   0.374
 7263WAT     H129758   4.074   3.645   0.356
 7263WAT     H229759   4.075   3.509   0.372
 7263WAT    EPW29760   4.037   3.578   0.371
 7264WAT      O29761   4.449   4.534   0.232
 7264WAT     H129762   4.386   4.537   0.172
 7264WAT     H229763   4.464   4.618   0.251
 7264WAT    EPW29764   4.442   4.547   0.226
 7265WAT      O29765   4.254   4.405   0.031
 7265WAT     H129766   4.198   4.378   0.093
 7265WAT     H229767   4.322   4.351   0.039
 7265WAT    EPW29768   4.256   4.393   0.041
 7266WAT      O29769   4.618   4.100   0.724
 7266WAT     H129770   4.581   4.158   0.671
 7266WAT     H229771   4.703   4.118   0.718
 7266WAT    EPW29772   4.625   4.111   0.715
 7267WAT      O29773   4.314   4.679   1.156
 7267WAT     H129774   4.352   4.690   1.233
 7267WAT     H229775   4.329   4.754   1.115
 7267WAT    EPW29776   4.322   4.691   1.161
 7268WAT      O29777   4.800   3.185   1.077
 7268WAT     H129778   4.743   3.161   1.014
 7268WAT     H229779   4.774   3.139   1.146
 7268WAT    EPW29780   4.787   3.175   1.078
 7269WAT      O29781   4.250   4.126   0.645
 7269WAT     H129782   4.206   4.157   0.714
 7269WAT     H229783   4.287   4.053   0.675
 7269WAT    EPW29784   4.249   4.120   0.660
 7270WAT      O29785   4.645   4.380   0.362
 7270WAT     H129786   4.591   4.425   0.310
 7270WAT     H229787   4.591   4.333   0.412
 7270WAT    EPW29788   4.629   4.380   0.362
 7271WAT      O29789   4.085   4.312   0.245
 7271WAT     H129790   4.001   4.296   0.227
 7271WAT     H229791   4.112   4.241   0.288
 7271WAT    EPW29792   4.077   4.299   0.248
 7272WAT      O29793   3.404   4.120   0.422
 7272WAT     H129794   3.448   4.192   0.400
 7272WAT     H229795   3.366   4.096   0.347
 7272WAT    EPW29796   3.405   4.127   0.408
 7273WAT      O29797   4.722   3.963   0.463
 7273WAT     H129798   4.725   3.900   0.524
 7273WAT     H229799   4.655   4.013   0.489
 7273WAT    EPW29800   4.712   3.961   0.476
 7274WAT      O29801   3.365   4.207   0.839
 7274WAT     H129802   3.328   4.157   0.778
 7274WAT     H229803   3.334   4.287   0.822
 7274WAT    EPW29804   3.355   4.212   0.828
 7275WAT      O29805   4.938   4.061   0.327
 7275WAT     H129806   4.872   4.027   0.372
 7275WAT     H229807   4.905   4.070   0.246
 7275WAT    EPW29808   4.924   4.057   0.321
 7276WAT      O29809   4.530   3.504   0.998
 7276WAT     H129810   4.470   3.473   1.054
 7276WAT     H229811   4.534   3.443   0.936
 7276WAT    EPW29812   4.522   3.490   0.997
 7277WAT      O29813   4.954   4.667   0.355
 7277WAT     H129814   4.987   4.667   0.274
 7277WAT     H229815   5.009   4.617   0.400
 7277WAT    EPW29816   4.967   4.660   0.349
 7278WAT      O29817   4.443   3.828   1.110
 7278WAT     H129818   4.482   3.843   1.187
 7278WAT     H229819   4.389   3.895   1.101
 7278WAT    EPW29820   4.441   3.840   1.120
 7279WAT      O29821   4.680   3.856   0.942
 7279WAT     H129822   4.702   3.939   0.954
 7279WAT     H229823   4.605   3.848   0.987
 7279WAT    EPW29824   4.672   3.867   0.950
 7280WAT      O29825   4.985   3.947   1.123
 7280WAT     H129826   4.993   3.891   1.056
 7280WAT     H229827   5.061   3.990   1.122
 7280WAT    EPW29828   4.997   3.945   1.113
 7281WAT      O29829   4.886   4.182   0.714
 7281WAT     H129830   4.957   4.134   0.697
 7281WAT     H229831   4.882   4.238   0.648
 7281WAT    EPW29832   4.896   4.183   0.702
 7282WAT      O29833   3.786   4.420   0.503
 7282WAT     H129834   3.796   4.471   0.574
 7282WAT     H229835   3.824   4.466   0.440
 7282WAT    EPW29836   3.793   4.435   0.504
 7283WAT      O29837   3.633   4.274   0.814
 7283WAT     H129838   3.552   4.243   0.825
 7283WAT     H229839   3.622   4.360   0.808
 7283WAT    EPW29840   3.620   4.282   0.815
 7284WAT      O29841   4.576   3.350   0.766
 7284WAT     H129842   4.645   3.403   0.756
 7284WAT     H229843   4.518   3.382   0.708
 7284WAT    EPW29844   4.578   3.363   0.756
 7285WAT      O29845   4.119   4.083   0.405
 7285WAT     H129846   4.166   4.096   0.478
 7285WAT     H229847   4.037   4.094   0.432
 7285WAT    EPW29848   4.114   4.086   0.420
 7286WAT      O29849   3.747   3.630   0.782
 7286WAT     H129850   3.747   3.553   0.823
 7286WAT     H229851   3.766   3.609   0.699
 7286WAT    EPW29852   3.750   3.615   0.776
 7287WAT      O29853   4.659   3.107   0.534
 7287WAT     H129854   4.640   3.189   0.510
 7287WAT     H229855   4.741   3.113   0.563
 7287WAT    EPW29856   4.669   3.120   0.535
 7288WAT      O29857   3.898   3.229   0.756
 7288WAT     H129858   3.983   3.234   0.736
 7288WAT     H229859   3.889   3.147   0.785
 7288WAT    EPW29860   3.909   3.217   0.758
 7289WAT      O29861   3.881   4.573   0.290
 7289WAT     H129862   3.810   4.580   0.240
 7289WAT     H229863   3.942   4.545   0.235
 7289WAT    EPW29864   3.879   4.570   0.275
 7290WAT      O29865   4.287   4.255   1.075
 7290WAT     H129866   4.364   4.259   1.034
 7290WAT     H229867   4.230   4.270   1.011
 7290WAT    EPW29868   4.290   4.258   1.059
 7291WAT      O29869   4.619   4.512   0.908
 7291WAT     H129870   4.655   4.537   0.983
 7291WAT     H229871   4.661   4.559   0.848
 7291WAT    EPW29872   4.630   4.523   0.910
 7292WAT      O29873   3.639   3.754   0.366
 7292WAT     H129874   3.680   3.757   0.289
 7292WAT     H229875   3.686   3.697   0.412
 7292WAT    EPW29876   3.652   3.746   0.361
 7293WAT      O29877   4.374   3.670   0.835
 7293WAT     H129878   4.310   3.713   0.877
 7293WAT     H229879   4.423   3.637   0.899
 7293WAT    EPW29880   4.371   3.672   0.851
 7294WAT      O29881   4.395   3.725   0.483
 7294WAT     H129882   4.406   3.782   0.548
 7294WAT     H229883   4.378   3.650   0.525
 7294WAT    EPW29884   4.394   3.722   0.499
 7295WAT      O29885   4.078   4.801   0.910
 7295WAT     H129886   4.097   4.793   0.825
 7295WAT     H229887   4.039   4.726   0.929
 7295WAT    EPW29888   4.075   4.789   0.900
 7296WAT      O29889   3.900   3.151   0.385
 7296WAT     H129890   3.852   3.206   0.432
 7296WAT     H229891   3.840   3.107   0.338
 7296WAT    EPW29892   3.884   3.152   0.385
 7297WAT      O29893   4.108   4.261   0.858
 7297WAT     H129894   4.029   4.258   0.895
 7297WAT     H229895   4.109   4.339   0.819
 7297WAT    EPW29896   4.097   4.272   0.858
 7298WAT      O29897   3.142   3.275   1.015
 7298WAT     H129898   3.141   3.346   0.966
 7298WAT     H229899   3.065   3.238   1.000
 7298WAT    EPW29900   3.131   3.280   1.006
 7299WAT      O29901   3.671   4.838   0.312
 7299WAT     H129902   3.669   4.824   0.398
 7299WAT     H229903   3.656   4.759   0.278
 7299WAT    EPW29904   3.669   4.824   0.320
 7300WAT      O29905   4.104   4.513   0.741
 7300WAT     H129906   4.177   4.539   0.780
 7300WAT     H229907   4.127   4.507   0.657
 7300WAT    EPW29908   4.118   4.516   0.734
 7301WAT      O29909   4.966   3.773   0.910
 7301WAT     H129910   4.879   3.773   0.915
 7301WAT     H229911   4.981   3.790   0.826
 7301WAT    EPW29912   4.955   3.775   0.898
 7302WAT      O29913   4.415   3.907   0.693
 7302WAT     H129914   4.412   3.841   0.750
 7302WAT     H229915   4.489   3.948   0.714
 7302WAT    EPW29916   4.425   3.903   0.705
 7303WAT      O29917   3.304   4.898   0.929
 7303WAT     H129918   3.250   4.830   0.920
 7303WAT     H229919   3.253   4.960   0.963
 7303WAT    EPW29920   3.288   4.897   0.933
 7304WAT      O29921   4.216   4.006   1.160
 7304WAT     H129922   4.242   4.084   1.131
 7304WAT     H229923   4.135   4.020   1.188
 7304WAT    EPW29924   4.208   4.019   1.160
 7305WAT      O29925   4.502   4.802   0.310
 7305WAT     H129926   4.462   4.879   0.296
 7305WAT     H229927   4.576   4.825   0.351
 7305WAT    EPW29928   4.507   4.817   0.314
 7306WAT      O29929   4.160   4.486   0.469
 7306WAT     H129930   4.143   4.435   0.400
 7306WAT     H229931   4.247   4.487   0.473
 7306WAT    EPW29932   4.170   4.479   0.459
 7307WAT      O29933   4.751   4.598   1.134
 7307WAT     H129934   4.835   4.573   1.135
 7307WAT     H229935   4.716   4.555   1.201
 7307WAT    EPW29936   4.758   4.588   1.144
 7308WAT      O29937   3.503   3.756   0.782
 7308WAT     H129938   3.511   3.817   0.720
 7308WAT     H229939   3.581   3.717   0.783
 7308WAT    EPW29940   3.516   3.759   0.773
 7309WAT      O29941   3.332   3.577   0.656
 7309WAT     H129942   3.347   3.597   0.572
 7309WAT     H229943   3.389   3.628   0.699
 7309WAT    EPW29944   3.343   3.588   0.650
 7310WAT      O29945   3.500   3.250   0.887
 7310WAT     H129946   3.450   3.179   0.898
 7310WAT     H229947   3.488   3.272   0.804
 7310WAT    EPW29948   3.491   3.242   0.877
 7311WAT      O29949   4.718   3.781   0.675
 7311WAT     H129950   4.735   3.697   0.691
 7311WAT     H229951   4.697   3.813   0.753
 7311WAT    EPW29952   4.717   3.773   0.689
 7312WAT      O29953   3.240   4.051   0.647
 7312WAT     H129954   3.280   4.070   0.571
 7312WAT     H229955   3.216   3.967   0.636
 7312WAT    EPW29956   3.242   4.041   0.634
 7313WAT      O29957   4.211   3.288   0.962
 7313WAT     H129958   4.242   3.338   1.027
 7313WAT     H229959   4.144   3.246   0.999
 7313WAT    EPW29960   4.206   3.289   0.977
 7314WAT      O29961   4.637   3.365   0.413
 7314WAT     H129962   4.724   3.359   0.406
 7314WAT     H229963   4.622   3.450   0.403
 7314WAT    EPW29964   4.648   3.377   0.411
 7315WAT      O29965   3.762   4.041   0.718
 7315WAT     H129966   3.726   4.113   0.752
 7315WAT     H229967   3.695   4.004   0.675
 7315WAT    EPW29968   3.747   4.046   0.717
 7316WAT      O29969   3.740   3.310   0.545
 7316WAT     H129970   3.656   3.307   0.568
 7316WAT     H229971   3.781   3.282   0.617
 7316WAT    EPW29972   3.733   3.306   0.559
 7317WAT      O29973   4.921   3.166   0.625
 7317WAT     H129974   4.937   3.189   0.708
 7317WAT     H229975   4.987   3.112   0.606
 7317WAT    EPW29976   4.933   3.162   0.635
 7318WAT      O29977   4.142   3.316   0.406
 7318WAT     H129978   4.076   3.264   0.382
 7318WAT     H229979   4.145   3.306   0.492
 7318WAT    EPW29980   4.133   3.307   0.415
 7319WAT      O29981   4.409   4.508   0.625
 7319WAT     H129982   4.390   4.514   0.710
 7319WAT     H229983   4.427   4.590   0.602
 7319WAT    EPW29984   4.409   4.521   0.634
 7320WAT      O29985   4.338   4.893   0.970
 7320WAT     H129986   4.263   4.855   0.944
 7320WAT     H229987   4.317   4.977   0.978
 7320WAT    EPW29988   4.323   4.900   0.967
 7321WAT      O29989   3.915   3.839   0.849
 7321WAT     H129990   3.865   3.773   0.824
 7321WAT     H229991   3.875   3.909   0.816
 7321WAT    EPW29992   3.902   3.840   0.840
 7322WAT      O29993   4.901   4.305   0.460
 7322WAT     H129994   4.917   4.232   0.417
 7322WAT     H229995   4.827   4.334   0.424
 7322WAT    EPW29996   4.892   4.299   0.448
 7323WAT      O29997   3.764   4.827   0.865
 7323WAT     H129998   3.757   4.819   0.951
 7323WAT     H229999   3.806   4.754   0.841
 7323WAT    EPW30000   3.769   4.815   0.874
 7324WAT      O30001   4.723   4.615   0.500
 7324WAT     H130002   4.789   4.642   0.450
 7324WAT     H230003   4.694   4.544   0.459
 7324WAT    EPW30004   4.728   4.609   0.486
 7325WAT      O30005   3.473   3.329   0.626
 7325WAT     H130006   3.437   3.280   0.564
 7325WAT     H230007   3.422   3.400   0.626
 7325WAT    EPW30008   3.460   3.332   0.617
 7326WAT      O30009   4.401   3.228   0.311
 7326WAT     H130010   4.461   3.283   0.342
 7326WAT     H230011   4.326   3.264   0.337
 7326WAT    EPW30012   4.399   3.242   0.319
 7327WAT      O30013   3.475   4.702   1.046
 7327WAT     H130014   3.549   4.737   1.076
 7327WAT     H230015   3.433   4.769   1.009
 7327WAT    EPW30016   3.480   4.717   1.045
 7328WAT      O30017   3.314   4.478   0.770
 7328WAT     H130018   3.264   4.537   0.809
 7328WAT     H230019   3.395   4.508   0.782
 7328WAT    EPW30020   3.319   4.491   0.778
 7329WAT      O30021   4.803   4.103   0.980
 7329WAT     H130022   4.869   4.070   1.027
 7329WAT     H230023   4.843   4.138   0.911
 7329WAT    EPW30024   4.819   4.104   0.977
 7330WAT      O30025   4.781   3.584   1.074
 7330WAT     H130026   4.778   3.654   1.125
 7330WAT     H230027   4.698   3.559   1.067
 7330WAT    EPW30028   4.768   3.591   1.080
 7331WAT      O30029   4.895   3.647   0.444
 7331WAT     H130030   4.810   3.654   0.425
 7331WAT     H230031   4.909   3.561   0.444
 7331WAT    EPW30032   4.885   3.635   0.441
 7332WAT      O30033   3.743   3.385   0.920
 7332WAT     H130034   3.800   3.338   0.875
 7332WAT     H230035   3.669   3.340   0.914
 7332WAT    EPW30036   3.741   3.372   0.913
 7333WAT      O30037   4.585   4.142   1.201
 7333WAT     H130038   4.660   4.172   1.232
 7333WAT     H230039   4.584   4.171   1.118
 7333WAT    EPW30040   4.596   4.150   1.193
 7334WAT      O30041   3.620   4.589   0.177
 7334WAT     H130042   3.582   4.518   0.212
 7334WAT     H230043   3.582   4.596   0.099
 7334WAT    EPW30044   3.608   4.579   0.171
 7335WAT      O30045   3.257   4.970   0.664
 7335WAT     H130046   3.274   4.944   0.746
 7335WAT     H230047   3.283   4.902   0.616
 7335WAT    EPW30048   3.264   4.956   0.669
 7336WAT      O30049   4.240   1.297   7.405
 7336WAT     H130050   4.226   1.344   7.332
 7336WAT     H230051   4.326   1.290   7.408
 7336WAT    EPW30052   4.250   1.303   7.394
 7337WAT      O30053   3.211   2.428   7.402
 7337WAT     H130054   3.197   2.430   7.488
 7337WAT     H230055   3.207   2.343   7.383
 7337WAT    EPW30056   3.208   2.416   7.412
 7338WAT      O30057   4.838   2.793   7.196
 7338WAT     H130058   4.902   2.737   7.217
 7338WAT     H230059   4.781   2.744   7.152
 7338WAT    EPW30060   4.839   2.778   7.193
 7339WAT      O30061   3.172   1.769   7.035
 7339WAT     H130062   3.107   1.817   7.001
 7339WAT     H230063   3.141   1.688   7.032
 7339WAT    EPW30064   3.157   1.764   7.030
 7340WAT      O30065   3.485   2.361   6.973
 7340WAT     H130066   3.454   2.319   6.903
 7340WAT     H230067   3.497   2.298   7.031
 7340WAT    EPW30068   3.482   2.346   6.971
 7341WAT      O30069   4.448   2.142   7.512
 7341WAT     H130070   4.460   2.127   7.427
 7341WAT     H230071   4.405   2.072   7.540
 7341WAT    EPW30072   4.444   2.130   7.504
 7342WAT      O30073   3.459   2.538   7.357
 7342WAT     H130074   3.515   2.502   7.414
 7342WAT     H230075   3.384   2.496   7.372
 7342WAT    EPW30076   3.456   2.527   7.368
 7343WAT      O30077   3.874   1.440   7.341
 7343WAT     H130078   3.887   1.498   7.277
 7343WAT     H230079   3.896   1.363   7.304
 7343WAT    EPW30080   3.879   1.437   7.326
 7344WAT      O30081   3.308   2.802   6.942
 7344WAT     H130082   3.362   2.813   6.874
 7344WAT     H230083   3.350   2.744   6.992
 7344WAT    EPW30084   3.322   2.795   6.939
 7345WAT      O30085   3.421   2.154   7.530
 7345WAT     H130086   3.368   2.161   7.461
 7345WAT     H230087   3.473   2.087   7.509
 7345WAT    EPW30088   3.421   2.145   7.516
 7346WAT      O30089   3.569   1.945   7.434
 7346WAT     H130090   3.619   1.917   7.500
 7346WAT     H230091   3.498   1.895   7.440
 7346WAT    EPW30092   3.566   1.933   7.445
 7347WAT      O30093   3.901   2.594   7.635
 7347WAT     H130094   3.933   2.514   7.651
 7347WAT     H230095   3.971   2.646   7.639
 7347WAT    EPW30096   3.916   2.590   7.638
 7348WAT      O30097   3.984   2.509   7.297
 7348WAT     H130098   4.030   2.446   7.337
 7348WAT     H230099   4.006   2.500   7.213
 7348WAT    EPW30100   3.994   2.498   7.291
 7349WAT      O30101   3.612   1.495   7.425
 7349WAT     H130102   3.576   1.544   7.363
 7349WAT     H230103   3.695   1.484   7.398
 7349WAT    EPW30104   3.619   1.501   7.412
 7350WAT      O30105   3.973   1.473   7.600
 7350WAT     H130106   3.948   1.553   7.623
 7350WAT     H230107   3.943   1.464   7.519
 7350WAT    EPW30108   3.965   1.483   7.591
 7351WAT      O30109   4.376   1.623   6.832
 7351WAT     H130110   4.328   1.686   6.867
 7351WAT     H230111   4.393   1.570   6.899
 7351WAT    EPW30112   4.372   1.624   6.847
 7352WAT      O30113   3.206   1.921   7.727
 7352WAT     H130114   3.208   2.007   7.742
 7352WAT     H230115   3.203   1.886   7.807
 7352WAT    EPW30116   3.206   1.928   7.741
 7353WAT      O30117   3.184   2.878   7.576
 7353WAT     H130118   3.122   2.926   7.539
 7353WAT     H230119   3.229   2.847   7.509
 7353WAT    EPW30120   3.182   2.881   7.561
 7354WAT      O30121   3.795   2.716   7.283
 7354WAT     H130122   3.749   2.713   7.357
 7354WAT     H230123   3.856   2.655   7.294
 7354WAT    EPW30124   3.798   2.707   7.296
 7355WAT      O30125   4.402   2.898   7.076
 7355WAT     H130126   4.471   2.950   7.085
 7355WAT     H230127   4.428   2.823   7.112
 7355WAT    EPW30128   4.416   2.894   7.083
 7356WAT      O30129   4.182   2.915   7.240
 7356WAT     H130130   4.197   2.982   7.294
 7356WAT     H230131   4.250   2.917   7.186
 7356WAT    EPW30132   4.194   2.925   7.240
 7357WAT      O30133   3.340   2.789   7.363
 7357WAT     H130134   3.390   2.720   7.377
 7357WAT     H230135   3.395   2.849   7.330
 7357WAT    EPW30136   3.355   2.788   7.360
 7358WAT      O30137   4.931   1.607   7.521
 7358WAT     H130138   4.886   1.679   7.541
 7358WAT     H230139   4.869   1.548   7.503
 7358WAT    EPW30140   4.915   1.609   7.521
 7359WAT      O30141   3.494   2.592   7.700
 7359WAT     H130142   3.538   2.649   7.651
 7359WAT     H230143   3.531   2.515   7.679
 7359WAT    EPW30144   3.506   2.589   7.689
 7360WAT      O30145   3.795   2.968   7.534
 7360WAT     H130146   3.870   2.998   7.567
 7360WAT     H230147   3.736   3.029   7.557
 7360WAT    EPW30148   3.797   2.982   7.542
 7361WAT      O30149   4.113   1.860   7.454
 7361WAT     H130150   4.135   1.805   7.389
 7361WAT     H230151   4.187   1.867   7.501
 7361WAT    EPW30152   4.127   1.853   7.451
 7362WAT      O30153   4.205   1.805   6.968
 7362WAT     H130154   4.229   1.885   6.994
 7362WAT     H230155   4.128   1.818   6.928
 7362WAT    EPW30156   4.197   1.818   6.966
 7363WAT      O30157   4.607   3.091   7.071
 7363WAT     H130158   4.652   3.064   7.002
 7363WAT     H230159   4.664   3.141   7.114
 7363WAT    EPW30160   4.622   3.095   7.067
 7364WAT      O30161   4.049   2.734   6.878
 7364WAT     H130162   4.014   2.790   6.935
 7364WAT     H230163   4.129   2.767   6.864
 7364WAT    EPW30164   4.055   2.747   6.884
 7365WAT      O30165   4.415   1.450   7.046
 7365WAT     H130166   4.472   1.384   7.048
 7365WAT     H230167   4.436   1.497   7.116
 7365WAT    EPW30168   4.426   1.447   7.056
 7366WAT      O30169   3.227   1.561   7.303
 7366WAT     H130170   3.206   1.477   7.295
 7366WAT     H230171   3.176   1.588   7.369
 7366WAT    EPW30172   3.216   1.552   7.312
 7367WAT      O30173   4.187   1.704   7.231
 7367WAT     H130174   4.148   1.627   7.220
 7367WAT     H230175   4.188   1.738   7.151
 7367WAT    EPW30176   4.181   1.698   7.218
 7368WAT      O30177   4.166   1.421   7.169
 7368WAT     H130178   4.102   1.397   7.116
 7368WAT     H230179   4.236   1.424   7.117
 7368WAT    EPW30180   4.167   1.418   7.154
 7369WAT      O30181   4.883   3.025   7.486
 7369WAT     H130182   4.841   3.101   7.484
 7369WAT     H230183   4.821   2.966   7.467
 7369WAT    EPW30184   4.867   3.027   7.483
 7370WAT      O30185   3.942   1.748   7.645
 7370WAT     H130186   3.988   1.782   7.579
 7370WAT     H230187   3.984   1.776   7.716
 7370WAT    EPW30188   3.955   1.757   7.645
 7371WAT      O30189   4.609   2.597   7.484
 7371WAT     H130190   4.673   2.538   7.479
 7371WAT     H230191   4.537   2.548   7.484
 7371WAT    EPW30192   4.608   2.581   7.484
 7372WAT      O30193   3.565   1.228   7.492
 7372WAT     H130194   3.574   1.314   7.480
 7372WAT     H230195   3.539   1.200   7.414
 7372WAT    EPW30196   3.563   1.237   7.478
 7373WAT      O30197   4.507   1.260   7.456
 7373WAT     H130198   4.512   1.246   7.541
 7373WAT     H230199   4.545   1.190   7.421
 7373WAT    EPW30200   4.513   1.248   7.463
 7374WAT      O30201   3.505   1.631   7.642
 7374WAT     H130202   3.541   1.581   7.580
 7374WAT     H230203   3.434   1.585   7.667
 7374WAT    EPW30204   3.500   1.617   7.637
 7375WAT      O30205   4.799   2.386   7.056
 7375WAT     H130206   4.794   2.329   7.122
 7375WAT     H230207   4.884   2.393   7.040
 7375WAT    EPW30208   4.811   2.379   7.064
 7376WAT      O30209   3.589   2.370   7.560
 7376WAT     H130210   3.652   2.357   7.501
 7376WAT     H230211   3.537   2.301   7.550
 7376WAT    EPW30212   3.591   2.358   7.549
 7377WAT      O30213   3.382   3.002   7.727
 7377WAT     H130214   3.318   2.967   7.678
 7377WAT     H230215   3.437   3.035   7.668
 7377WAT    EPW30216   3.381   3.001   7.711
 7378WAT      O30217   4.596   2.062   6.973
 7378WAT     H130218   4.587   2.145   6.948
 7378WAT     H230219   4.564   2.061   7.055
 7378WAT    EPW30220   4.590   2.074   6.982
 7379WAT      O30221   3.760   2.341   7.346
 7379WAT     H130222   3.819   2.403   7.329
 7379WAT     H230223   3.789   2.272   7.300
 7379WAT    EPW30224   3.773   2.340   7.337
 7380WAT      O30225   4.929   1.525   6.944
 7380WAT     H130226   4.968   1.470   6.889
 7380WAT     H230227   4.889   1.582   6.890
 7380WAT    EPW30228   4.929   1.526   6.928
 7381WAT      O30229   3.237   2.480   7.683
 7381WAT     H130230   3.188   2.543   7.717
 7381WAT     H230231   3.317   2.514   7.683
 7381WAT    EPW30232   3.242   2.494   7.688
 7382WAT      O30233   3.264   2.168   7.305
 7382WAT     H130234   3.237   2.086   7.297
 7382WAT     H230235   3.334   2.172   7.253
 7382WAT    EPW30236   3.271   2.156   7.296
 7383WAT      O30237   4.806   1.419   7.172
 7383WAT     H130238   4.877   1.377   7.200
 7383WAT     H230239   4.833   1.462   7.101
 7383WAT    EPW30240   4.820   1.419   7.166
 7384WAT      O30241   4.135   2.750   7.636
 7384WAT     H130242   4.116   2.835   7.637
 7384WAT     H230243   4.159   2.736   7.554
 7384WAT    EPW30244   4.136   2.761   7.624
 7385WAT      O30245   3.160   2.629   7.219
 7385WAT     H130246   3.218   2.684   7.252
 7385WAT     H230247   3.158   2.564   7.278
 7385WAT    EPW30248   3.168   2.627   7.233
 7386WAT      O30249   4.463   1.669   7.669
 7386WAT     H130250   4.485   1.618   7.736
 7386WAT     H230251   4.400   1.623   7.628
 7386WAT    EPW30252   4.457   1.655   7.673
 7387WAT      O30253   3.176   2.464   6.989
 7387WAT     H130254   3.252   2.421   6.987
 7387WAT     H230255   3.185   2.518   7.057
 7387WAT    EPW30256   3.189   2.466   6.999
 7388WAT      O30257   3.233   2.205   7.725
 7388WAT     H130258   3.295   2.182   7.668
 7388WAT     H230259   3.239   2.292   7.729
 7388WAT    EPW30260   3.243   2.214   7.717
 7389WAT      O30261   3.902   1.613   7.130
 7389WAT     H130262   3.888   1.591   7.047
 7389WAT     H230263   3.880   1.697   7.133
 7389WAT    EPW30264   3.897   1.622   7.118
 7390WAT      O30265   3.678   2.720   7.536
 7390WAT     H130266   3.707   2.801   7.543
 7390WAT     H230267   3.742   2.671   7.570
 7390WAT    EPW30268   3.692   2.725   7.542
 7391WAT      O30269   3.527   1.886   7.085
 7391WAT     H130270   3.509   1.828   7.149
 7391WAT     H230271   3.488   1.852   7.015
 7391WAT    EPW30272   3.519   1.872   7.084
 7392WAT      O30273   3.718   2.075   7.835
 7392WAT     H130274   3.666   2.132   7.794
 7392WAT     H230275   3.705   2.001   7.791
 7392WAT    EPW30276   3.708   2.073   7.823
 7393WAT      O30277   4.443   1.601   7.273
 7393WAT     H130278   4.498   1.668   7.285
 7393WAT     H230279   4.364   1.639   7.271
 7393WAT    EPW30280   4.440   1.616   7.275
 7394WAT      O30281   4.271   2.051   7.080
 7394WAT     H130282   4.246   2.106   7.016
 7394WAT     H230283   4.210   2.065   7.142
 7394WAT    EPW30284   4.258   2.061   7.080
 7395WAT      O30285   4.802   2.391   7.468
 7395WAT     H130286   4.807   2.345   7.542
 7395WAT     H230287   4.778   2.331   7.408
 7395WAT    EPW30288   4.799   2.375   7.470
 7396WAT      O30289   4.262   2.525   7.753
 7396WAT     H130290   4.230   2.600   7.722
 7396WAT     H230291   4.307   2.551   7.824
 7396WAT    EPW30292   4.264   2.540   7.759
 7397WAT      O30293   3.794   3.028   7.265
 7397WAT     H130294   3.802   2.994   7.345
 7397WAT     H230295   3.842   2.974   7.215
 7397WAT    EPW30296   3.803   3.015   7.270
 7398WAT      O30297   3.677   1.288   7.057
 7398WAT     H130298   3.627   1.253   7.120
 7398WAT     H230299   3.638   1.364   7.041
 7398WAT    EPW30300   3.664   1.294   7.064
 7399WAT      O30301   3.965   2.914   7.072
 7399WAT     H130302   4.033   2.910   7.127
 7399WAT     H230303   3.969   2.995   7.040
 7399WAT    EPW30304   3.976   2.926   7.076
 7400WAT      O30305   3.507   2.157   7.167
 7400WAT     H130306   3.508   2.072   7.146
 7400WAT     H230307   3.574   2.165   7.222
 7400WAT    EPW30308   3.517   2.146   7.172
 7401WAT      O30309   3.132   1.294   7.278
 7401WAT     H130310   3.131   1.238   7.211
 7401WAT     H230311   3.097   1.248   7.343
 7401WAT    EPW30312   3.127   1.279   7.278
 7402WAT      O30313   4.103   2.089   7.296
 7402WAT     H130314   4.118   2.158   7.347
 7402WAT     H230315   4.102   2.022   7.352
 7402WAT    EPW30316   4.105   2.089   7.312
 7403WAT      O30317   3.568   1.531   6.989
 7403WAT     H130318   3.510   1.521   6.925
 7403WAT     H230319   3.637   1.565   6.949
 7403WAT    EPW30320   3.569   1.534   6.974
 7404WAT      O30321   4.043   2.358   7.698
 7404WAT     H130322   4.011   2.310   7.763
 7404WAT     H230323   4.110   2.400   7.734
 7404WAT    EPW30324   4.048   2.357   7.713
 7405WAT      O30325   3.687   2.939   6.858
 7405WAT     H130326   3.707   2.872   6.911
 7405WAT     H230327   3.687   3.008   6.912
 7405WAT    EPW30328   3.690   2.939   6.874
 7406WAT      O30329   3.683   1.847   7.670
 7406WAT     H130330   3.761   1.810   7.658
 7406WAT     H230331   3.629   1.780   7.676
 7406WAT    EPW30332   3.687   1.832   7.669
 7407WAT      O30333   4.998   2.964   7.055
 7407WAT     H130334   5.065   2.915   7.028
 7407WAT     H230335   4.947   2.908   7.099
 7407WAT    EPW30336   5.000   2.949   7.058
 7408WAT      O30337   3.201   1.898   7.284
 7408WAT     H130338   3.239   1.855   7.350
 7408WAT     H230339   3.209   1.843   7.217
 7408WAT    EPW30340   3.208   1.883   7.284
 7409WAT      O30341   3.694   2.054   6.879
 7409WAT     H130342   3.660   2.011   6.948
 7409WAT     H230343   3.640   2.034   6.814
 7409WAT    EPW30344   3.681   2.044   6.880
 7410WAT      O30345   4.835   2.257   7.708
 7410WAT     H130346   4.831   2.319   7.770
 7410WAT     H230347   4.920   2.233   7.709
 7410WAT    EPW30348   4.847   2.262   7.718
 7411WAT      O30349   3.805   1.874   7.110
 7411WAT     H130350   3.821   1.952   7.146
 7411WAT     H230351   3.718   1.867   7.114
 7411WAT    EPW30352   3.794   1.885   7.116
 7412WAT      O30353   3.256   1.511   7.678
 7412WAT     H130354   3.189   1.546   7.634
 7412WAT     H230355   3.239   1.426   7.676
 7412WAT    EPW30356   3.243   1.504   7.671
 7413WAT      O30357   5.063   2.728   7.863
 7413WAT     H130358   5.062   2.774   7.789
 7413WAT     H230359   5.141   2.748   7.899
 7413WAT    EPW30360   5.075   2.738   7.858
 7414WAT      O30361   4.664   2.628   7.069
 7414WAT     H130362   4.699   2.548   7.073
 7414WAT     H230363   4.589   2.620   7.113
 7414WAT    EPW30364   4.658   2.615   7.076
 7415WAT      O30365   4.703   1.784   7.572
 7415WAT     H130366   4.635   1.741   7.605
 7415WAT     H230367   4.698   1.863   7.609
 7415WAT    EPW30368   4.692   1.789   7.582
 7416WAT      O30369   4.337   2.468   6.974
 7416WAT     H130370   4.409   2.419   6.968
 7416WAT     H230371   4.308   2.472   6.892
 7416WAT    EPW30372   4.344   2.461   6.961
 7417WAT      O30373   4.056   3.048   7.607
 7417WAT     H130374   4.036   3.127   7.639
 7417WAT     H230375   4.114   3.066   7.543
 7417WAT    EPW30376   4.062   3.062   7.602
 7418WAT      O30377   4.847   1.950   6.936
 7418WAT     H130378   4.897   2.006   6.892
 7418WAT     H230379   4.768   1.988   6.937
 7418WAT    EPW30380   4.843   1.964   6.930
 7419WAT      O30381   3.903   2.227   6.936
 7419WAT     H130382   3.840   2.176   6.903
 7419WAT     H230383   3.870   2.307   6.928
 7419WAT    EPW30384   3.889   2.231   6.930
 7420WAT      O30385   4.603   1.828   7.318
 7420WAT     H130386   4.631   1.811   7.399
 7420WAT     H230387   4.676   1.853   7.277
 7420WAT    EPW30388   4.618   1.829   7.324
 7421WAT      O30389   4.731   1.428   7.440
 7421WAT     H130390   4.651   1.396   7.446
 7421WAT     H230391   4.741   1.442   7.354
 7421WAT    EPW30392   4.721   1.425   7.428
 7422WAT      O30393   4.741   2.209   7.267
 7422WAT     H130394   4.782   2.133   7.258
 7422WAT     H230395   4.657   2.188   7.260
 7422WAT    EPW30396   4.735   2.195   7.264
 7423WAT      O30397   3.482   1.648   7.231
 7423WAT     H130398   3.500   1.606   7.157
 7423WAT     H230399   3.401   1.623   7.250
 7423WAT    EPW30400   3.473   1.638   7.223
 7424WAT      O30401   4.387   2.418   7.518
 7424WAT     H130402   4.360   2.444   7.597
 7424WAT     H230403   4.413   2.336   7.531
 7424WAT    EPW30404   4.387   2.410   7.531
 7425WAT      O30405   4.136   2.325   7.437
 7425WAT     H130406   4.101   2.328   7.517
 7425WAT     H230407   4.216   2.359   7.449
 7425WAT    EPW30408   4.143   2.331   7.451
 7426WAT      O30409   4.558   3.050   7.726
 7426WAT     H130410   4.512   3.038   7.800
 7426WAT     H230411   4.632   3.006   7.741
 7426WAT    EPW30412   4.562   3.041   7.740
 7427WAT      O30413   4.827   1.952   7.213
 7427WAT     H130414   4.837   1.950   7.126
 7427WAT     H230415   4.906   1.927   7.243
 7427WAT    EPW30416   4.840   1.948   7.204
 7428WAT      O30417   4.194   2.678   7.374
 7428WAT     H130418   4.187   2.752   7.330
 7428WAT     H230419   4.125   2.631   7.348
 7428WAT    EPW30420   4.183   2.682   7.364
 7429WAT      O30421   3.388   1.779   6.865
 7429WAT     H130422   3.315   1.776   6.913
 7429WAT     H230423   3.391   1.700   6.828
 7429WAT    EPW30424   3.378   1.767   6.866
 7430WAT      O30425   4.245   1.530   7.568
 7430WAT     H130426   4.161   1.520   7.588
 7430WAT     H230427   4.261   1.464   7.513
 7430WAT    EPW30428   4.235   1.519   7.563
 7431WAT      O30429   3.710   2.710   7.018
 7431WAT     H130430   3.750   2.718   7.095
 7431WAT     H230431   3.629   2.686   7.039
 7431WAT    EPW30432   3.704   2.707   7.032
 7432WAT      O30433   4.657   2.041   7.671
 7432WAT     H130434   4.717   2.103   7.687
 7432WAT     H230435   4.599   2.081   7.620
 7432WAT    EPW30436   4.658   2.056   7.666
 7433WAT      O30437   4.670   2.859   7.405
 7433WAT     H130438   4.646   2.781   7.436
 7433WAT     H230439   4.717   2.839   7.335
 7433WAT    EPW30440   4.674   2.845   7.399
 7434WAT      O30441   3.460   2.613   7.086
 7434WAT     H130442   3.465   2.594   7.171
 7434WAT     H230443   3.467   2.535   7.048
 7434WAT    EPW30444   3.462   2.598   7.093
 7435WAT      O30445   3.748   2.459   6.890
 7435WAT     H130446   3.669   2.428   6.910
 7435WAT     H230447   3.750   2.537   6.929
 7435WAT    EPW30448   3.737   2.466   6.899
 7436WAT      O30449   3.954   1.316   7.014
 7436WAT     H130450   3.966   1.324   6.928
 7436WAT     H230451   3.867   1.318   7.023
 7436WAT    EPW30452   3.943   1.317   7.003
 7437WAT      O30453   4.331   1.913   7.626
 7437WAT     H130454   4.379   1.840   7.633
 7437WAT     H230455   4.323   1.940   7.708
 7437WAT    EPW30456   4.337   1.906   7.639
 7438WAT      O30457   3.336   1.808   7.509
 7438WAT     H130458   3.293   1.843   7.576
 7438WAT     H230459   3.382   1.744   7.546
 7438WAT    EPW30460   3.337   1.804   7.524
 7439WAT      O30461   4.493   2.072   7.243
 7439WAT     H130462   4.514   1.990   7.264
 7439WAT     H230463   4.419   2.064   7.198
 7439WAT    EPW30464   4.485   2.059   7.239
 7440WAT      O30465   3.516   2.980   7.261
 7440WAT     H130466   3.492   3.012   7.184
 7440WAT     H230467   3.603   2.973   7.255
 7440WAT    EPW30468   3.525   2.984   7.249
 7441WAT      O30469   3.854   2.134   7.191
 7441WAT     H130470   3.872   2.168   7.113
 7441WAT     H230471   3.933   2.119   7.225
 7441WAT    EPW30472   3.869   2.137   7.184
 7442WAT      O30473   4.782   2.998   6.879
 7442WAT     H130474   4.854   2.994   6.928
 7442WAT     H230475   4.764   2.914   6.861
 7442WAT    EPW30476   4.790   2.985   6.883
 7443WAT      O30477   4.411   2.638   7.184
 7443WAT     H130478   4.358   2.632   7.253
 7443WAT     H230479   4.374   2.586   7.124
 7443WAT    EPW30480   4.398   2.629   7.185
 7444WAT      O30481   3.388   2.772   7.895
 7444WAT     H130482   3.429   2.715   7.843
 7444WAT     H230483   3.398   2.848   7.854
 7444WAT    EPW30484   3.396   2.775   7.882
 7445WAT      O30485   4.066   2.503   7.038
 7445WAT     H130486   4.148   2.478   7.022
 7445WAT     H230487   4.055   2.571   6.984
 7445WAT    EPW30488   4.076   2.509   7.027
 7446WAT      O30489   4.323   1.366   5.526
 7446WAT     H130490   4.349   1.429   5.471
 7446WAT     H230491   4.397   1.336   5.560
 7446WAT    EPW30492   4.338   1.371   5.523
 7447WAT      O30493   4.189   1.955   5.978
 7447WAT     H130494   4.164   2.036   5.997
 7447WAT     H230495   4.252   1.938   6.037
 7447WAT    EPW30496   4.195   1.965   5.989
 7448WAT      O30497   3.171   2.431   5.546
 7448WAT     H130498   3.089   2.416   5.571
 7448WAT     H230499   3.191   2.361   5.498
 7448WAT    EPW30500   3.162   2.418   5.542
 7449WAT      O30501   4.812   2.783   5.268
 7449WAT     H130502   4.872   2.725   5.294
 7449WAT     H230503   4.757   2.735   5.220
 7449WAT    EPW30504   4.812   2.767   5.265
 7450WAT      O30505   3.159   1.735   5.198
 7450WAT     H130506   3.084   1.712   5.159
 7450WAT     H230507   3.171   1.674   5.258
 7450WAT    EPW30508   3.149   1.723   5.201
 7451WAT      O30509   3.439   2.374   5.069
 7451WAT     H130510   3.417   2.334   4.995
 7451WAT     H230511   3.464   2.308   5.121
 7451WAT    EPW30512   3.440   2.359   5.066
 7452WAT      O30513   4.457   2.156   5.623
 7452WAT     H130514   4.461   2.136   5.538
 7452WAT     H230515   4.410   2.091   5.657
 7452WAT    EPW30516   4.451   2.143   5.615
 7453WAT      O30517   3.423   2.571   5.544
 7453WAT     H130518   3.492   2.517   5.542
 7453WAT     H230519   3.354   2.518   5.547
 7453WAT    EPW30520   3.423   2.555   5.544
 7454WAT      O30521   3.855   1.425   5.410
 7454WAT     H130522   3.838   1.500   5.369
 7454WAT     H230523   3.939   1.410   5.390
 7454WAT    EPW30524   3.865   1.434   5.401
 7455WAT      O30525   3.247   2.540   6.158
 7455WAT     H130526   3.255   2.547   6.245
 7455WAT     H230527   3.164   2.515   6.148
 7455WAT    EPW30528   3.236   2.538   6.170
 7456WAT      O30529   3.852   2.458   6.627
 7456WAT     H130530   3.831   2.455   6.711
 7456WAT     H230531   3.783   2.424   6.586
 7456WAT    EPW30532   3.839   2.452   6.633
 7457WAT      O30533   3.398   2.223   5.641
 7457WAT     H130534   3.352   2.219   5.567
 7457WAT     H230535   3.440   2.147   5.643
 7457WAT    EPW30536   3.397   2.211   5.631
 7458WAT      O30537   3.833   1.769   6.217
 7458WAT     H130538   3.896   1.763   6.158
 7458WAT     H230539   3.793   1.691   6.213
 7458WAT    EPW30540   3.836   1.757   6.208
 7459WAT      O30541   3.768   2.714   6.378
 7459WAT     H130542   3.730   2.790   6.358
 7459WAT     H230543   3.840   2.738   6.421
 7459WAT    EPW30544   3.773   2.729   6.381
 7460WAT      O30545   3.525   1.987   5.659
 7460WAT     H130546   3.598   1.942   5.675
 7460WAT     H230547   3.464   1.926   5.654
 7460WAT    EPW30548   3.527   1.972   5.660
 7461WAT      O30549   3.983   2.619   5.809
 7461WAT     H130550   4.001   2.533   5.812
 7461WAT     H230551   4.061   2.656   5.798
 7461WAT    EPW30552   3.997   2.612   5.808
 7462WAT      O30553   4.021   2.576   5.411
 7462WAT     H130554   4.055   2.508   5.454
 7462WAT     H230555   4.066   2.578   5.337
 7462WAT    EPW30556   4.033   2.566   5.407
 7463WAT      O30557   4.186   1.992   6.673
 7463WAT     H130558   4.104   1.983   6.643
 7463WAT     H230559   4.180   2.057   6.731
 7463WAT    EPW30560   4.173   2.000   6.677
 7464WAT      O30561   3.608   1.486   5.533
 7464WAT     H130562   3.569   1.535   5.473
 7464WAT     H230563   3.691   1.481   5.503
 7464WAT    EPW30564   3.615   1.492   5.519
 7465WAT      O30565   4.605   1.233   6.471
 7465WAT     H130566   4.584   1.303   6.423
 7465WAT     H230567   4.531   1.213   6.512
 7465WAT    EPW30568   4.591   1.240   6.470
 7466WAT      O30569   3.933   1.387   5.689
 7466WAT     H130570   3.960   1.468   5.707
 7466WAT     H230571   3.901   1.394   5.608
 7466WAT    EPW30572   3.932   1.400   5.680
 7467WAT      O30573   4.370   1.675   4.917
 7467WAT     H130574   4.321   1.734   4.959
 7467WAT     H230575   4.398   1.623   4.981
 7467WAT    EPW30576   4.367   1.676   4.933
 7468WAT      O30577   3.228   1.923   5.908
 7468WAT     H130578   3.223   2.010   5.912
 7468WAT     H230579   3.157   1.897   5.953
 7468WAT    EPW30580   3.217   1.932   5.915
 7469WAT      O30581   3.223   2.891   5.708
 7469WAT     H130582   3.152   2.936   5.682
 7469WAT     H230583   3.260   2.866   5.633
 7469WAT    EPW30584   3.218   2.894   5.693
 7470WAT      O30585   3.849   2.800   5.465
 7470WAT     H130586   3.820   2.833   5.389
 7470WAT     H230587   3.893   2.729   5.440
 7470WAT    EPW30588   3.851   2.795   5.450
 7471WAT      O30589   4.432   2.946   5.132
 7471WAT     H130590   4.361   2.994   5.115
 7471WAT     H230591   4.493   3.006   5.147
 7471WAT    EPW30592   4.430   2.962   5.132
 7472WAT      O30593   3.449   1.455   5.927
 7472WAT     H130594   3.426   1.381   5.888
 7472WAT     H230595   3.510   1.430   5.985
 7472WAT    EPW30596   3.455   1.441   5.930
 7473WAT      O30597   3.807   1.605   6.855
 7473WAT     H130598   3.818   1.571   6.776
 7473WAT     H230599   3.848   1.682   6.850
 7473WAT    EPW30600   3.815   1.612   6.843
 7474WAT      O30601   3.337   2.819   5.462
 7474WAT     H130602   3.387   2.750   5.481
 7474WAT     H230603   3.385   2.865   5.406
 7474WAT    EPW30604   3.351   2.816   5.457
 7475WAT      O30605   4.951   1.619   5.652
 7475WAT     H130606   4.899   1.688   5.650
 7475WAT     H230607   4.896   1.551   5.645
 7475WAT    EPW30608   4.935   1.619   5.650
 7476WAT      O30609   3.394   1.508   6.769
 7476WAT     H130610   3.314   1.480   6.748
 7476WAT     H230611   3.446   1.467   6.713
 7476WAT    EPW30612   3.390   1.498   6.758
 7477WAT      O30613   3.863   3.018   5.865
 7477WAT     H130614   3.911   3.015   5.792
 7477WAT     H230615   3.790   3.058   5.840
 7477WAT    EPW30616   3.859   3.024   5.850
 7478WAT      O30617   4.002   1.335   6.740
 7478WAT     H130618   4.024   1.266   6.692
 7478WAT     H230619   3.943   1.377   6.691
 7478WAT    EPW30620   3.996   1.331   6.726
 7479WAT      O30621   4.198   1.861   5.043
 7479WAT     H130622   4.212   1.946   5.056
 7479WAT     H230623   4.118   1.859   5.008
 7479WAT    EPW30624   4.188   1.873   5.040
 7480WAT      O30625   4.636   3.139   5.179
 7480WAT     H130626   4.683   3.139   5.105
 7480WAT     H230627   4.697   3.143   5.242
 7480WAT    EPW30628   4.652   3.140   5.177
 7481WAT      O30629   3.628   2.953   6.356
 7481WAT     H130630   3.675   2.976   6.426
 7481WAT     H230631   3.546   2.948   6.387
 7481WAT    EPW30632   3.623   2.956   6.371
 7482WAT      O30633   4.853   1.557   6.084
 7482WAT     H130634   4.916   1.548   6.025
 7482WAT     H230635   4.871   1.496   6.143
 7482WAT    EPW30636   4.865   1.546   6.084
 7483WAT      O30637   3.107   1.651   6.506
 7483WAT     H130638   3.099   1.725   6.551
 7483WAT     H230639   3.173   1.668   6.450
 7483WAT    EPW30640   3.116   1.664   6.504
 7484WAT      O30641   4.335   2.706   6.570
 7484WAT     H130642   4.319   2.731   6.652
 7484WAT     H230643   4.422   2.698   6.568
 7484WAT    EPW30644   4.346   2.709   6.582
 7485WAT      O30645   4.081   2.794   5.006
 7485WAT     H130646   4.004   2.834   5.005
 7485WAT     H230647   4.108   2.799   4.923
 7485WAT    EPW30648   4.074   2.801   4.994
 7486WAT      O30649   4.458   1.502   5.113
 7486WAT     H130650   4.497   1.424   5.123
 7486WAT     H230651   4.446   1.529   5.195
 7486WAT    EPW30652   4.462   1.495   5.126
 7487WAT      O30653   3.210   1.555   5.401
 7487WAT     H130654   3.188   1.472   5.386
 7487WAT     H230655   3.171   1.573   5.477
 7487WAT    EPW30656   3.201   1.545   5.410
 7488WAT      O30657   3.343   2.790   6.084
 7488WAT     H130658   3.334   2.708   6.111
 7488WAT     H230659   3.419   2.790   6.041
 7488WAT    EPW30660   3.353   2.778   6.082
 7489WAT      O30661   4.168   1.698   5.275
 7489WAT     H130662   4.115   1.742   5.328
 7489WAT     H230663   4.176   1.751   5.206
 7489WAT    EPW30664   4.162   1.712   5.272
 7490WAT      O30665   4.283   3.008   6.275
 7490WAT     H130666   4.260   3.084   6.311
 7490WAT     H230667   4.206   2.969   6.258
 7490WAT    EPW30668   4.268   3.013   6.278
 7491WAT      O30669   4.107   1.421   5.303
 7491WAT     H130670   4.078   1.392   5.226
 7491WAT     H230671   4.128   1.504   5.286
 7491WAT    EPW30672   4.106   1.429   5.289
 7492WAT      O30673   4.828   3.036   5.573
 7492WAT     H130674   4.765   3.086   5.605
 7492WAT     H230675   4.786   2.966   5.542
 7492WAT    EPW30676   4.813   3.033   5.573
 7493WAT      O30677   4.020   1.647   5.733
 7493WAT     H130678   4.011   1.708   5.672
 7493WAT     H230679   4.002   1.689   5.808
 7493WAT    EPW30680   4.016   1.662   5.735
 7494WAT      O30681   4.549   2.586   5.545
 7494WAT     H130682   4.619   2.538   5.567
 7494WAT     H230683   4.482   2.543   5.581
 7494WAT    EPW30684   4.549   2.572   5.553
 7495WAT      O30685   3.548   2.638   6.527
 7495WAT     H130686   3.618   2.672   6.486
 7495WAT     H230687   3.538   2.690   6.596
 7495WAT    EPW30688   3.557   2.651   6.531
 7496WAT      O30689   3.598   1.220   5.615
 7496WAT     H130690   3.600   1.305   5.595
 7496WAT     H230691   3.582   1.182   5.539
 7496WAT    EPW30692   3.596   1.227   5.601
 7497WAT      O30693   3.768   2.260   5.922
 7497WAT     H130694   3.796   2.244   6.004
 7497WAT     H230695   3.706   2.201   5.910
 7497WAT    EPW30696   3.763   2.249   5.933
 7498WAT      O30697   4.345   1.653   6.300
 7498WAT     H130698   4.346   1.699   6.374
 7498WAT     H230699   4.280   1.597   6.311
 7498WAT    EPW30700   4.336   1.652   6.312
 7499WAT      O30701   3.873   2.274   6.180
 7499WAT     H130702   3.859   2.360   6.189
 7499WAT     H230703   3.854   2.242   6.259
 7499WAT    EPW30704   3.868   2.282   6.193
 7500WAT      O30705   4.489   2.394   6.198
 7500WAT     H130706   4.411   2.368   6.226
 7500WAT     H230707   4.487   2.481   6.206
 7500WAT    EPW30708   4.477   2.403   6.203
 7501WAT      O30709   4.545   1.262   5.649
 7501WAT     H130710   4.537   1.242   5.734
 7501WAT     H230711   4.574   1.187   5.614
 7501WAT    EPW30712   4.548   1.248   5.657
 7502WAT      O30713   3.112   2.669   6.795
 7502WAT     H130714   3.170   2.716   6.839
 7502WAT     H230715   3.120   2.589   6.829
 7502WAT    EPW30716   3.122   2.664   6.807
 7503WAT      O30717   4.727   1.697   6.410
 7503WAT     H130718   4.810   1.680   6.432
 7503WAT     H230719   4.684   1.689   6.486
 7503WAT    EPW30720   4.733   1.693   6.425
 7504WAT      O30721   3.528   1.645   5.741
 7504WAT     H130722   3.553   1.591   5.678
 7504WAT     H230723   3.509   1.593   5.807
 7504WAT    EPW30724   3.529   1.630   5.741
 7505WAT      O30725   4.718   2.365   5.166
 7505WAT     H130726   4.746   2.342   5.246
 7505WAT     H230727   4.791   2.388   5.124
 7505WAT    EPW30728   4.733   2.365   5.172
 7506WAT      O30729   3.618   2.397   5.632
 7506WAT     H130730   3.678   2.384   5.570
 7506WAT     H230731   3.569   2.325   5.628
 7506WAT    EPW30732   3.620   2.384   5.622
 7507WAT      O30733   3.449   3.045   5.774
 7507WAT     H130734   3.370   3.013   5.755
 7507WAT     H230735   3.452   3.121   5.731
 7507WAT    EPW30736   3.438   3.052   5.765
 7508WAT      O30737   3.405   1.794   6.087
 7508WAT     H130738   3.486   1.803   6.055
 7508WAT     H230739   3.355   1.829   6.025
 7508WAT    EPW30740   3.410   1.801   6.073
 7509WAT      O30741   5.029   2.807   6.577
 7509WAT     H130742   4.954   2.812   6.533
 7509WAT     H230743   5.010   2.759   6.647
 7509WAT    EPW30744   5.015   2.801   6.581
 7510WAT      O30745   4.571   2.134   5.106
 7510WAT     H130746   4.610   2.210   5.124
 7510WAT     H230747   4.532   2.112   5.181
 7510WAT    EPW30748   4.571   2.142   5.120
 7511WAT      O30749   3.792   2.387   5.418
 7511WAT     H130750   3.848   2.453   5.406
 7511WAT     H230751   3.821   2.325   5.364
 7511WAT    EPW30752   3.804   2.388   5.408
 7512WAT      O30753   4.919   1.575   5.133
 7512WAT     H130754   4.970   1.518   5.091
 7512WAT     H230755   4.880   1.619   5.068
 7512WAT    EPW30756   4.921   1.573   5.117
 7513WAT      O30757   3.249   2.508   5.824
 7513WAT     H130758   3.209   2.490   5.748
 7513WAT     H230759   3.197   2.567   5.861
 7513WAT    EPW30760   3.235   2.514   5.818
 7514WAT      O30761   3.943   1.848   6.863
 7514WAT     H130762   3.895   1.878   6.929
 7514WAT     H230763   3.925   1.902   6.797
 7514WAT    EPW30764   3.933   1.860   6.863
 7515WAT      O30765   5.033   1.947   6.298
 7515WAT     H130766   5.087   1.879   6.297
 7515WAT     H230767   4.973   1.927   6.237
 7515WAT    EPW30768   5.032   1.934   6.288
 7516WAT      O30769   3.262   2.203   5.404
 7516WAT     H130770   3.239   2.119   5.408
 7516WAT     H230771   3.332   2.203   5.352
 7516WAT    EPW30772   3.269   2.191   5.397
 7517WAT      O30773   4.786   1.412   5.319
 7517WAT     H130774   4.860   1.370   5.336
 7517WAT     H230775   4.810   1.478   5.267
 7517WAT    EPW30776   4.800   1.416   5.314
 7518WAT      O30777   4.199   2.794   5.776
 7518WAT     H130778   4.147   2.863   5.761
 7518WAT     H230779   4.228   2.773   5.696
 7518WAT    EPW30780   4.196   2.801   5.762
 7519WAT      O30781   3.155   2.635   5.359
 7519WAT     H130782   3.211   2.696   5.385
 7519WAT     H230783   3.157   2.576   5.424
 7519WAT    EPW30784   3.163   2.635   5.373
 7520WAT      O30785   3.602   2.453   6.026
 7520WAT     H130786   3.659   2.493   6.079
 7520WAT     H230787   3.651   2.392   5.987
 7520WAT    EPW30788   3.618   2.450   6.028
 7521WAT      O30789   4.487   1.692   5.762
 7521WAT     H130790   4.519   1.660   5.837
 7521WAT     H230791   4.420   1.638   5.744
 7521WAT    EPW30792   4.482   1.679   5.770
 7522WAT      O30793   3.186   2.473   5.135
 7522WAT     H130794   3.267   2.444   5.122
 7522WAT     H230795   3.193   2.525   5.204
 7522WAT    EPW30796   3.199   2.476   5.143
 7523WAT      O30797   3.226   2.215   5.867
 7523WAT     H130798   3.277   2.213   5.796
 7523WAT     H230799   3.236   2.296   5.898
 7523WAT    EPW30800   3.235   2.227   5.861
 7524WAT      O30801   3.785   1.645   5.269
 7524WAT     H130802   3.805   1.659   5.185
 7524WAT     H230803   3.819   1.713   5.310
 7524WAT    EPW30804   3.793   1.657   5.263
 7525WAT      O30805   4.787   2.821   6.425
 7525WAT     H130806   4.747   2.898   6.433
 7525WAT     H230807   4.790   2.809   6.339
 7525WAT    EPW30808   4.781   2.830   6.413
 7526WAT      O30809   3.739   2.715   5.715
 7526WAT     H130810   3.758   2.745   5.635
 7526WAT     H230811   3.814   2.680   5.742
 7526WAT    EPW30812   3.753   2.714   5.707
 7527WAT      O30813   3.487   1.982   6.706
 7527WAT     H130814   3.450   1.917   6.750
 7527WAT     H230815   3.500   1.948   6.626
 7527WAT    EPW30816   3.483   1.968   6.700
 7528WAT      O30817   3.512   1.892   5.231
 7528WAT     H130818   3.508   1.824   5.286
 7528WAT     H230819   3.471   1.863   5.160
 7528WAT    EPW30820   3.505   1.878   5.229
 7529WAT      O30821   3.546   2.094   5.914
 7529WAT     H130822   3.530   2.066   5.833
 7529WAT     H230823   3.582   2.025   5.953
 7529WAT    EPW30824   3.549   2.080   5.908
 7530WAT      O30825   3.591   2.043   6.259
 7530WAT     H130826   3.614   1.994   6.190
 7530WAT     H230827   3.539   2.104   6.225
 7530WAT    EPW30828   3.587   2.045   6.244
 7531WAT      O30829   4.623   1.880   6.009
 7531WAT     H130830   4.551   1.902   6.053
 7531WAT     H230831   4.619   1.930   5.937
 7531WAT    EPW30832   4.612   1.891   6.005
 7532WAT      O30833   4.030   2.873   6.255
 7532WAT     H130834   3.995   2.847   6.179
 7532WAT     H230835   3.984   2.944   6.276
 7532WAT    EPW30836   4.018   2.880   6.247
 7533WAT      O30837   4.176   1.449   6.392
 7533WAT     H130838   4.193   1.366   6.368
 7533WAT     H230839   4.201   1.451   6.476
 7533WAT    EPW30840   4.182   1.437   6.401
 7534WAT      O30841   4.408   1.594   5.372
 7534WAT     H130842   4.463   1.660   5.388
 7534WAT     H230843   4.334   1.634   5.351
 7534WAT    EPW30844   4.405   1.610   5.372
 7535WAT      O30845   3.368   2.223   6.764
 7535WAT     H130846   3.357   2.262   6.687
 7535WAT     H230847   3.411   2.150   6.745
 7535WAT    EPW30848   3.373   2.218   6.750
 7536WAT      O30849   4.518   2.412   6.644
 7536WAT     H130850   4.552   2.490   6.623
 7536WAT     H230851   4.547   2.360   6.580
 7536WAT    EPW30852   4.528   2.416   6.632
 7537WAT      O30853   3.952   2.716   6.620
 7537WAT     H130854   3.983   2.722   6.702
 7537WAT     H230855   3.918   2.636   6.616
 7537WAT    EPW30856   3.951   2.705   6.632
 7538WAT      O30857   3.998   1.753   5.994
 7538WAT     H130858   4.061   1.814   5.991
 7538WAT     H230859   4.040   1.682   6.023
 7538WAT    EPW30860   4.014   1.751   5.998
 7539WAT      O30861   4.213   2.147   5.102
 7539WAT     H130862   4.267   2.215   5.103
 7539WAT     H230863   4.188   2.140   5.186
 7539WAT    EPW30864   4.217   2.156   5.115
 7540WAT      O30865   4.745   2.409   5.644
 7540WAT     H130866   4.767   2.360   5.712
 7540WAT     H230867   4.766   2.360   5.575
 7540WAT    EPW30868   4.751   2.395   5.644
 7541WAT      O30869   4.401   2.833   5.974
 7541WAT     H130870   4.335   2.811   5.921
 7541WAT     H230871   4.435   2.904   5.937
 7541WAT    EPW30872   4.396   2.840   5.961
 7542WAT      O30873   4.397   2.475   5.942
 7542WAT     H130874   4.322   2.507   5.974
 7542WAT     H230875   4.428   2.426   6.007
 7542WAT    EPW30876   4.390   2.473   5.956
 7543WAT      O30877   3.689   1.306   5.206
 7543WAT     H130878   3.736   1.335   5.274
 7543WAT     H230879   3.643   1.376   5.182
 7543WAT    EPW30880   3.689   1.321   5.213
 7544WAT      O30881   4.601   2.270   6.421
 7544WAT     H130882   4.571   2.317   6.354
 7544WAT     H230883   4.687   2.283   6.418
 7544WAT    EPW30884   4.610   2.279   6.411
 7545WAT      O30885   4.300   2.838   6.822
 7545WAT     H130886   4.339   2.856   6.899
 7545WAT     H230887   4.324   2.904   6.771
 7545WAT    EPW30888   4.310   2.850   6.826
 7546WAT      O30889   4.733   1.373   6.672
 7546WAT     H130890   4.696   1.326   6.608
 7546WAT     H230891   4.737   1.317   6.738
 7546WAT    EPW30892   4.728   1.358   6.672
 7547WAT      O30893   3.504   2.174   5.260
 7547WAT     H130894   3.506   2.087   5.253
 7547WAT     H230895   3.584   2.195   5.286
 7547WAT    EPW30896   3.516   2.164   5.263
 7548WAT      O30897   4.252   2.284   6.290
 7548WAT     H130898   4.203   2.318   6.353
 7548WAT     H230899   4.287   2.213   6.327
 7548WAT    EPW30900   4.250   2.278   6.305
 7549WAT      O30901   3.109   1.300   5.347
 7549WAT     H130902   3.117   1.239   5.286
 7549WAT     H230903   3.082   1.256   5.417
 7549WAT    EPW30904   3.106   1.285   5.348
 7550WAT      O30905   4.133   2.127   5.372
 7550WAT     H130906   4.132   2.190   5.432
 7550WAT     H230907   4.092   2.061   5.411
 7550WAT    EPW30908   4.127   2.126   5.386
 7551WAT      O30909   4.663   2.578   5.979
 7551WAT     H130910   4.704   2.589   5.903
 7551WAT     H230911   4.581   2.560   5.955
 7551WAT    EPW30912   4.657   2.577   5.964
 7552WAT      O30913   3.545   1.521   5.108
 7552WAT     H130914   3.486   1.520   5.044
 7552WAT     H230915   3.612   1.564   5.072
 7552WAT    EPW30916   3.546   1.528   5.093
 7553WAT      O30917   4.013   2.339   5.810
 7553WAT     H130918   3.932   2.312   5.828
 7553WAT     H230919   4.062   2.300   5.870
 7553WAT    EPW30920   4.008   2.329   5.822
 7554WAT      O30921   3.433   2.237   6.128
 7554WAT     H130922   3.466   2.317   6.115
 7554WAT     H230923   3.445   2.197   6.052
 7554WAT    EPW30924   3.440   2.243   6.115
 7555WAT      O30925   3.735   1.838   5.754
 7555WAT     H130926   3.793   1.838   5.688
 7555WAT     H230927   3.691   1.764   5.742
 7555WAT    EPW30928   3.737   1.827   5.742
 7556WAT      O30929   4.977   2.987   5.158
 7556WAT     H130930   5.050   2.950   5.129
 7556WAT     H230931   4.928   2.919   5.183
 7556WAT    EPW30932   4.981   2.971   5.157
 7557WAT      O30933   3.209   1.926   5.423
 7557WAT     H130934   3.236   1.887   5.496
 7557WAT     H230935   3.232   1.870   5.360
 7557WAT    EPW30936   3.217   1.912   5.424
 7558WAT      O30937   4.728   2.217   6.128
 7558WAT     H130938   4.726   2.145   6.179
 7558WAT     H230939   4.650   2.254   6.143
 7558WAT    EPW30940   4.716   2.212   6.138
 7559WAT      O30941   3.708   2.109   4.944
 7559WAT     H130942   3.722   2.058   5.014
 7559WAT     H230943   3.634   2.078   4.911
 7559WAT    EPW30944   3.699   2.097   4.950
 7560WAT      O30945   3.335   2.325   6.511
 7560WAT     H130946   3.297   2.279   6.447
 7560WAT     H230947   3.313   2.408   6.493
 7560WAT    EPW30948   3.326   2.331   6.499
 7561WAT      O30949   4.824   2.238   5.863
 7561WAT     H130950   4.797   2.233   5.945
 7561WAT     H230951   4.911   2.226   5.870
 7561WAT    EPW30952   4.833   2.236   5.876
 7562WAT      O30953   3.775   1.941   5.152
 7562WAT     H130954   3.810   1.993   5.212
 7562WAT     H230955   3.699   1.916   5.188
 7562WAT    EPW30956   3.769   1.945   5.166
 7563WAT      O30957   4.599   1.627   6.657
 7563WAT     H130958   4.530   1.629   6.711
 7563WAT     H230959   4.628   1.545   6.664
 7563WAT    EPW30960   4.594   1.615   6.666
 7564WAT      O30961   3.185   1.571   5.898
 7564WAT     H130962   3.169   1.570   5.812
 7564WAT     H230963   3.267   1.540   5.904
 7564WAT    EPW30964   3.195   1.566   5.886
 7565WAT      O30965   4.954   2.738   5.940
 7565WAT     H130966   4.981   2.789   5.875
 7565WAT     H230967   5.020   2.738   5.996
 7565WAT    EPW30968   4.968   2.745   5.938
 7566WAT      O30969   4.477   1.952   6.746
 7566WAT     H130970   4.501   1.979   6.825
 7566WAT     H230971   4.392   1.974   6.742
 7566WAT    EPW30972   4.468   1.959   6.757
 7567WAT      O30973   4.703   2.017   6.595
 7567WAT     H130974   4.720   2.098   6.622
 7567WAT     H230975   4.631   1.995   6.640
 7567WAT    EPW30976   4.695   2.025   6.606
 7568WAT      O30977   4.604   2.624   5.158
 7568WAT     H130978   4.632   2.541   5.155
 7568WAT     H230979   4.582   2.641   5.076
 7568WAT    EPW30980   4.605   2.614   5.146
 7569WAT      O30981   4.721   1.792   5.651
 7569WAT     H130982   4.656   1.747   5.688
 7569WAT     H230983   4.715   1.871   5.687
 7569WAT    EPW30984   4.711   1.797   5.662
 7570WAT      O30985   5.011   2.102   6.775
 7570WAT     H130986   5.016   2.047   6.708
 7570WAT     H230987   5.090   2.139   6.779
 7570WAT    EPW30988   5.023   2.100   6.766
 7571WAT      O30989   4.871   2.349   6.423
 7571WAT     H130990   4.939   2.303   6.394
 7571WAT     H230991   4.864   2.413   6.364
 7571WAT    EPW30992   4.880   2.352   6.410
 7572WAT      O30993   4.304   2.429   5.023
 7572WAT     H130994   4.390   2.429   5.006
 7572WAT     H230995   4.270   2.471   4.955
 7572WAT    EPW30996   4.312   2.435   5.011
 7573WAT      O30997   3.823   2.553   6.165
 7573WAT     H130998   3.803   2.597   6.238
 7573WAT     H230999   3.855   2.615   6.112
 7573WAT    EPW31000   3.825   2.569   6.168
 7574WAT      O31001   3.613   2.371   6.503
 7574WAT     H131002   3.534   2.335   6.504
 7574WAT     H231003   3.596   2.457   6.509
 7574WAT    EPW31004   3.599   2.379   6.504
 7575WAT      O31005   4.567   1.481   6.325
 7575WAT     H131006   4.626   1.544   6.340
 7575WAT     H231007   4.493   1.524   6.311
 7575WAT    EPW31008   4.565   1.496   6.325
 7576WAT      O31009   4.115   2.223   6.056
 7576WAT     H131010   4.170   2.236   6.122
 7576WAT     H231011   4.036   2.224   6.093
 7576WAT    EPW31012   4.111   2.225   6.071
 7577WAT      O31013   3.788   1.759   6.492
 7577WAT     H131014   3.801   1.676   6.517
 7577WAT     H231015   3.813   1.760   6.409
 7577WAT    EPW31016   3.793   1.747   6.484
 7578WAT      O31017   4.015   2.971   5.623
 7578WAT     H131018   4.022   3.050   5.587
 7578WAT     H231019   3.955   2.930   5.574
 7578WAT    EPW31020   4.007   2.976   5.611
 7579WAT      O31021   4.652   1.276   6.155
 7579WAT     H131022   4.621   1.349   6.191
 7579WAT     H231023   4.736   1.277   6.178
 7579WAT    EPW31024   4.660   1.287   6.164
 7580WAT      O31025   3.907   1.380   6.347
 7580WAT     H131026   3.988   1.412   6.342
 7580WAT     H231027   3.915   1.299   6.315
 7580WAT    EPW31028   3.920   1.373   6.342
 7581WAT      O31029   3.908   2.785   6.019
 7581WAT     H131030   3.887   2.858   5.975
 7581WAT     H231031   3.943   2.734   5.958
 7581WAT    EPW31032   3.910   2.788   6.003
 7582WAT      O31033   4.252   2.413   6.714
 7582WAT     H131034   4.334   2.413   6.684
 7582WAT     H231035   4.203   2.421   6.642
 7582WAT    EPW31036   4.257   2.414   6.699
 7583WAT      O31037   4.612   2.669   6.584
 7583WAT     H131038   4.647   2.692   6.661
 7583WAT     H231039   4.666   2.706   6.526
 7583WAT    EPW31040   4.625   2.678   6.587
 7584WAT      O31041   4.823   2.003   5.054
 7584WAT     H131042   4.871   2.055   5.004
 7584WAT     H231043   4.745   2.041   5.056
 7584WAT    EPW31044   4.819   2.016   5.047
 7585WAT      O31045   3.900   2.304   4.977
 7585WAT     H131046   3.839   2.245   4.956
 7585WAT     H231047   3.855   2.379   4.979
 7585WAT    EPW31048   3.884   2.307   4.974
 7586WAT      O31049   3.672   1.878   6.026
 7586WAT     H131050   3.708   1.859   5.949
 7586WAT     H231051   3.727   1.842   6.083
 7586WAT    EPW31052   3.685   1.870   6.023
 7587WAT      O31053   4.354   1.826   6.519
 7587WAT     H131054   4.288   1.863   6.562
 7587WAT     H231055   4.416   1.817   6.580
 7587WAT    EPW31056   4.353   1.830   6.534
 7588WAT      O31057   4.389   1.895   6.158
 7588WAT     H131058   4.397   1.948   6.226
 7588WAT     H231059   4.375   1.817   6.195
 7588WAT    EPW31060   4.388   1.891   6.174
 7589WAT      O31061   4.094   2.960   6.559
 7589WAT     H131062   4.049   2.993   6.491
 7589WAT     H231063   4.061   2.879   6.567
 7589WAT    EPW31064   4.082   2.953   6.550
 7590WAT      O31065   4.571   1.827   5.417
 7590WAT     H131066   4.606   1.810   5.495
 7590WAT     H231067   4.636   1.868   5.374
 7590WAT    EPW31068   4.586   1.831   5.422
 7591WAT      O31069   3.907   1.329   5.975
 7591WAT     H131070   3.822   1.326   5.996
 7591WAT     H231071   3.906   1.337   5.888
 7591WAT    EPW31072   3.894   1.330   5.965
 7592WAT      O31073   4.765   1.421   5.597
 7592WAT     H131074   4.688   1.386   5.620
 7592WAT     H231075   4.757   1.432   5.511
 7592WAT    EPW31076   4.752   1.417   5.588
 7593WAT      O31077   4.810   2.260   5.409
 7593WAT     H131078   4.897   2.256   5.410
 7593WAT     H231079   4.786   2.177   5.397
 7593WAT    EPW31080   4.819   2.247   5.407
 7594WAT      O31081   4.098   2.425   6.481
 7594WAT     H131082   4.020   2.429   6.520
 7594WAT     H231083   4.108   2.504   6.447
 7594WAT    EPW31084   4.088   2.437   6.482
 7595WAT      O31085   3.125   1.431   6.678
 7595WAT     H131086   3.126   1.502   6.627
 7595WAT     H231087   3.041   1.409   6.681
 7595WAT    EPW31088   3.113   1.438   6.671
 7596WAT      O31089   3.618   3.037   6.085
 7596WAT     H131090   3.626   3.011   6.168
 7596WAT     H231091   3.611   2.962   6.041
 7596WAT    EPW31092   3.618   3.022   6.091
 7597WAT      O31093   3.469   1.640   5.351
 7597WAT     H131094   3.491   1.602   5.276
 7597WAT     H231095   3.389   1.610   5.367
 7597WAT    EPW31096   3.461   1.630   5.342
 7598WAT      O31097   4.365   2.416   5.668
 7598WAT     H131098   4.373   2.432   5.753
 7598WAT     H231099   4.403   2.338   5.658
 7598WAT    EPW31100   4.372   2.406   5.679
 7599WAT      O31101   4.123   2.352   5.548
 7599WAT     H131102   4.074   2.337   5.619
 7599WAT     H231103   4.201   2.372   5.580
 7599WAT    EPW31104   4.127   2.353   5.563
 7600WAT      O31105   4.187   2.660   6.344
 7600WAT     H131106   4.230   2.680   6.417
 7600WAT     H231107   4.140   2.731   6.327
 7600WAT    EPW31108   4.187   2.673   6.352
 7601WAT      O31109   4.966   1.924   6.566
 7601WAT     H131110   4.880   1.939   6.573
 7601WAT     H231111   4.982   1.940   6.482
 7601WAT    EPW31112   4.956   1.928   6.554
 7602WAT      O31113   4.400   2.066   6.378
 7602WAT     H131114   4.392   2.000   6.434
 7602WAT     H231115   4.476   2.103   6.400
 7602WAT    EPW31116   4.410   2.062   6.389
 7603WAT      O31117   3.375   2.954   6.493
 7603WAT     H131118   3.298   2.917   6.511
 7603WAT     H231119   3.366   3.035   6.524
 7603WAT    EPW31120   3.362   2.961   6.500
 7604WAT      O31121   4.169   2.192   6.863
 7604WAT     H131122   4.195   2.263   6.820
 7604WAT     H231123   4.086   2.208   6.882
 7604WAT    EPW31124   4.161   2.205   6.859
 7605WAT      O31125   4.500   3.079   5.884
 7605WAT     H131126   4.433   3.135   5.888
 7605WAT     H231127   4.569   3.129   5.901
 7605WAT    EPW31128   4.500   3.095   5.887
 7606WAT      O31129   4.161   2.540   6.080
 7606WAT     H131130   4.116   2.466   6.085
 7606WAT     H231131   4.162   2.569   6.163
 7606WAT    EPW31132   4.155   2.533   6.093
 7607WAT      O31133   4.736   2.733   6.824
 7607WAT     H131134   4.818   2.703   6.823
 7607WAT     H231135   4.702   2.697   6.896
 7607WAT    EPW31136   4.743   2.723   6.834
 7608WAT      O31137   3.530   1.861   6.460
 7608WAT     H131138   3.546   1.920   6.398
 7608WAT     H231139   3.608   1.824   6.472
 7608WAT    EPW31140   3.544   1.865   6.453
 7609WAT      O31141   3.328   1.718   6.337
 7609WAT     H131142   3.351   1.730   6.254
 7609WAT     H231143   3.391   1.759   6.382
 7609WAT    EPW31144   3.341   1.726   6.332
 7610WAT      O31145   4.785   1.989   5.335
 7610WAT     H131146   4.807   1.992   5.251
 7610WAT     H231147   4.856   1.958   5.374
 7610WAT    EPW31148   4.798   1.985   5.328
 7611WAT      O31149   3.568   1.378   6.589
 7611WAT     H131150   3.591   1.295   6.574
 7611WAT     H231151   3.534   1.404   6.513
 7611WAT    EPW31152   3.566   1.369   6.575
 7612WAT      O31153   4.206   2.781   5.494
 7612WAT     H131154   4.160   2.853   5.509
 7612WAT     H231155   4.146   2.721   5.473
 7612WAT    EPW31156   4.191   2.782   5.493
 7613WAT      O31157   4.711   1.987   6.314
 7613WAT     H131158   4.712   1.899   6.312
 7613WAT     H231159   4.706   2.006   6.399
 7613WAT    EPW31160   4.710   1.977   6.326
 7614WAT      O31161   3.209   2.206   6.297
 7614WAT     H131162   3.269   2.220   6.235
 7614WAT     H231163   3.194   2.120   6.292
 7614WAT    EPW31164   3.216   2.195   6.287
 7615WAT      O31165   3.359   1.797   5.014
 7615WAT     H131166   3.292   1.783   5.067
 7615WAT     H231167   3.368   1.721   4.971
 7615WAT    EPW31168   3.350   1.784   5.015
 7616WAT      O31169   4.248   1.445   6.661
 7616WAT     H131170   4.282   1.507   6.712
 7616WAT     H231171   4.173   1.424   6.702
 7616WAT    EPW31172   4.242   1.451   6.675
 7617WAT      O31173   4.268   1.523   5.745
 7617WAT     H131174   4.192   1.564   5.736
 7617WAT     H231175   4.273   1.474   5.673
 7617WAT    EPW31176   4.258   1.522   5.733
 7618WAT      O31177   4.583   1.604   6.008
 7618WAT     H131178   4.662   1.572   6.026
 7618WAT     H231179   4.591   1.689   6.022
 7618WAT    EPW31180   4.596   1.612   6.013
 7619WAT      O31181   3.783   2.163   6.421
 7619WAT     H131182   3.733   2.227   6.453
 7619WAT     H231183   3.727   2.116   6.373
 7619WAT    EPW31184   3.767   2.165   6.419
 7620WAT      O31185   4.661   2.034   5.774
 7620WAT     H131186   4.717   2.098   5.796
 7620WAT     H231187   4.600   2.076   5.727
 7620WAT    EPW31188   4.660   2.050   5.770
 7621WAT      O31189   4.636   2.842   5.474
 7621WAT     H131190   4.624   2.765   5.512
 7621WAT     H231191   4.692   2.826   5.410
 7621WAT    EPW31192   4.643   2.828   5.470
 7622WAT      O31193   3.686   2.501   4.972
 7622WAT     H131194   3.613   2.469   5.006
 7622WAT     H231195   3.683   2.586   4.993
 7622WAT    EPW31196   3.675   2.509   4.980
 7623WAT      O31197   3.702   1.532   6.234
 7623WAT     H131198   3.626   1.505   6.267
 7623WAT     H231199   3.759   1.474   6.263
 7623WAT    EPW31200   3.699   1.520   6.243
 7624WAT      O31201   4.903   1.353   6.273
 7624WAT     H131202   4.886   1.376   6.356
 7624WAT     H231203   4.984   1.322   6.277
 7624WAT    EPW31204   4.912   1.352   6.286
 7625WAT      O31205   4.094   1.511   6.082
 7625WAT     H131206   4.040   1.452   6.049
 7625WAT     H231207   4.173   1.479   6.064
 7625WAT    EPW31208   4.098   1.498   6.074
 7626WAT      O31209   4.438   2.677   6.207
 7626WAT     H131210   4.362   2.678   6.249
 7626WAT     H231211   4.418   2.706   6.127
 7626WAT    EPW31212   4.424   2.681   6.202
 7627WAT      O31213   4.366   3.024   6.625
 7627WAT     H131214   4.297   2.993   6.582
 7627WAT     H231215   4.341   3.105   6.647
 7627WAT    EPW31216   4.352   3.032   6.622
 7628WAT      O31217   3.912   1.980   6.607
 7628WAT     H131218   3.876   1.909   6.571
 7628WAT     H231219   3.880   2.045   6.559
 7628WAT    EPW31220   3.902   1.979   6.594
 7629WAT      O31221   3.958   1.297   5.102
 7629WAT     H131222   3.971   1.313   5.017
 7629WAT     H231223   3.872   1.310   5.111
 7629WAT    EPW31224   3.947   1.301   5.091
 7630WAT      O31225   4.853   2.473   6.166
 7630WAT     H131226   4.838   2.388   6.153
 7630WAT     H231227   4.796   2.512   6.112
 7630WAT    EPW31228   4.842   2.466   6.156
 7631WAT      O31229   3.778   2.930   6.595
 7631WAT     H131230   3.752   2.957   6.674
 7631WAT     H231231   3.828   2.861   6.612
 7631WAT    EPW31232   3.782   2.924   6.609
 7632WAT      O31233   4.746   2.793   6.140
 7632WAT     H131234   4.816   2.805   6.089
 7632WAT     H231235   4.705   2.726   6.103
 7632WAT    EPW31236   4.751   2.785   6.127
 7633WAT      O31237   3.456   1.470   6.354
 7633WAT     H131238   3.401   1.407   6.329
 7633WAT     H231239   3.409   1.543   6.346
 7633WAT    EPW31240   3.441   1.472   6.349
 7634WAT      O31241   4.351   1.435   5.992
 7634WAT     H131242   4.416   1.489   6.012
 7634WAT     H231243   4.325   1.463   5.914
 7634WAT    EPW31244   4.357   1.447   5.983
 7635WAT      O31245   3.476   2.825   6.722
 7635WAT     H131246   3.544   2.866   6.758
 7635WAT     H231247   3.454   2.876   6.654
 7635WAT    EPW31248   3.483   2.838   6.717
 7636WAT      O31249   4.341   1.936   5.740
 7636WAT     H131250   4.386   1.861   5.750
 7636WAT     H231251   4.288   1.937   5.809
 7636WAT    EPW31252   4.340   1.925   5.752
 7637WAT      O31253   3.313   1.812   5.663
 7637WAT     H131254   3.277   1.837   5.738
 7637WAT     H231255   3.366   1.747   5.686
 7637WAT    EPW31256   3.316   1.806   5.677
 7638WAT      O31257   3.293   2.589   6.429
 7638WAT     H131258   3.242   2.653   6.461
 7638WAT     H231259   3.373   2.613   6.453
 7638WAT    EPW31260   3.297   2.602   6.438
 7639WAT      O31261   4.432   2.065   5.355
 7639WAT     H131262   4.460   1.986   5.377
 7639WAT     H231263   4.345   2.059   5.364
 7639WAT    EPW31264   4.423   2.053   5.360
 7640WAT      O31265   3.884   2.194   5.243
 7640WAT     H131266   3.902   2.231   5.166
 7640WAT     H231267   3.963   2.175   5.275
 7640WAT    EPW31268   3.899   2.197   5.236
 7641WAT      O31269   4.823   3.133   4.972
 7641WAT     H131270   4.883   3.099   5.026
 7641WAT     H231271   4.794   3.064   4.928
 7641WAT    EPW31272   4.828   3.118   4.974
 7642WAT      O31273   4.801   2.262   6.685
 7642WAT     H131274   4.873   2.225   6.718
 7642WAT     H231275   4.830   2.303   6.614
 7642WAT    EPW31276   4.816   2.262   6.679
 7643WAT      O31277   4.829   1.718   6.779
 7643WAT     H131278   4.820   1.797   6.814
 7643WAT     H231279   4.751   1.702   6.743
 7643WAT    EPW31280   4.816   1.728   6.779
 7644WAT      O31281   4.888   1.838   6.081
 7644WAT     H131282   4.806   1.862   6.063
 7644WAT     H231283   4.883   1.751   6.087
 7644WAT    EPW31284   4.875   1.829   6.080
 7645WAT      O31285   3.820   1.489   6.587
 7645WAT     H131286   3.851   1.456   6.513
 7645WAT     H231287   3.738   1.457   6.591
 7645WAT    EPW31288   3.812   1.479   6.577
 7646WAT      O31289   4.570   2.326   6.908
 7646WAT     H131290   4.649   2.349   6.936
 7646WAT     H231291   4.571   2.345   6.823
 7646WAT    EPW31292   4.582   2.332   6.899
 7647WAT      O31293   3.565   2.830   5.902
 7647WAT     H131294   3.636   2.814   5.855
 7647WAT     H231295   3.527   2.898   5.861
 7647WAT    EPW31296   3.570   2.838   5.889
 7648WAT      O31297   4.198   2.625   5.197
 7648WAT     H131298   4.229   2.561   5.146
 7648WAT     H231299   4.158   2.678   5.141
 7648WAT    EPW31300   4.197   2.623   5.181
 7649WAT      O31301   3.248   3.000   6.242
 7649WAT     H131302   3.295   2.988   6.313
 7649WAT     H231303   3.276   2.938   6.187
 7649WAT    EPW31304   3.259   2.989   6.244
 7650WAT      O31305   4.242   1.297   3.638
 7650WAT     H131306   4.244   1.346   3.566
 7650WAT     H231307   4.326   1.278   3.652
 7650WAT    EPW31308   4.255   1.301   3.630
 7651WAT      O31309   4.227   1.967   4.073
 7651WAT     H131310   4.194   2.047   4.064
 7651WAT     H231311   4.289   1.977   4.134
 7651WAT    EPW31312   4.231   1.980   4.081
 7652WAT      O31313   3.133   1.760   3.274
 7652WAT     H131314   3.070   1.731   3.222
 7652WAT     H231315   3.147   1.692   3.328
 7652WAT    EPW31316   3.126   1.746   3.275
 7653WAT      O31317   4.497   2.065   3.803
 7653WAT     H131318   4.444   2.134   3.808
 7653WAT     H231319   4.442   1.997   3.806
 7653WAT    EPW31320   4.481   2.065   3.804
 7654WAT      O31321   3.861   1.451   3.516
 7654WAT     H131322   3.878   1.521   3.467
 7654WAT     H231323   3.938   1.410   3.521
 7654WAT    EPW31324   3.875   1.455   3.509
 7655WAT      O31325   3.738   2.474   4.691
 7655WAT     H131326   3.715   2.503   4.770
 7655WAT     H231327   3.704   2.533   4.637
 7655WAT    EPW31328   3.730   2.487   4.695
 7656WAT      O31329   3.824   1.784   4.223
 7656WAT     H131330   3.809   1.768   4.138
 7656WAT     H231331   3.786   1.717   4.263
 7656WAT    EPW31332   3.816   1.772   4.216
 7657WAT      O31333   3.503   2.161   3.659
 7657WAT     H131334   3.511   2.233   3.708
 7657WAT     H231335   3.476   2.101   3.716
 7657WAT    EPW31336   3.500   2.163   3.675
 7658WAT      O31337   3.990   2.417   3.440
 7658WAT     H131338   3.945   2.462   3.500
 7658WAT     H231339   3.991   2.470   3.371
 7658WAT    EPW31340   3.984   2.431   3.439
 7659WAT      O31341   4.138   2.018   4.701
 7659WAT     H131342   4.055   1.993   4.697
 7659WAT     H231343   4.145   2.074   4.634
 7659WAT    EPW31344   4.127   2.023   4.690
 7660WAT      O31345   3.597   1.549   3.601
 7660WAT     H131346   3.565   1.608   3.545
 7660WAT     H231347   3.679   1.538   3.574
 7660WAT    EPW31348   3.605   1.556   3.589
 7661WAT      O31349   4.603   1.250   4.585
 7661WAT     H131350   4.580   1.318   4.535
 7661WAT     H231351   4.531   1.230   4.628
 7661WAT    EPW31352   4.589   1.257   4.584
 7662WAT      O31353   3.872   1.407   3.824
 7662WAT     H131354   3.920   1.480   3.823
 7662WAT     H231355   3.838   1.405   3.743
 7662WAT    EPW31356   3.874   1.418   3.812
 7663WAT      O31357   4.346   1.651   3.040
 7663WAT     H131358   4.303   1.721   3.069
 7663WAT     H231359   4.360   1.603   3.111
 7663WAT    EPW31360   4.342   1.654   3.055
 7664WAT      O31361   3.220   1.975   4.025
 7664WAT     H131362   3.190   2.055   4.007
 7664WAT     H231363   3.151   1.934   4.059
 7664WAT    EPW31364   3.206   1.981   4.028
 7665WAT      O31365   3.441   1.463   4.010
 7665WAT     H131366   3.418   1.394   3.961
 7665WAT     H231367   3.491   1.429   4.072
 7665WAT    EPW31368   3.445   1.448   4.012
 7666WAT      O31369   3.777   1.619   4.972
 7666WAT     H131370   3.787   1.571   4.900
 7666WAT     H231371   3.828   1.688   4.957
 7666WAT    EPW31372   3.786   1.622   4.959
 7667WAT      O31373   4.917   1.651   3.740
 7667WAT     H131374   4.876   1.728   3.744
 7667WAT     H231375   4.854   1.595   3.716
 7667WAT    EPW31376   4.901   1.654   3.737
 7668WAT      O31377   3.370   1.542   4.889
 7668WAT     H131378   3.293   1.505   4.874
 7668WAT     H231379   3.421   1.511   4.825
 7668WAT    EPW31380   3.366   1.532   4.878
 7669WAT      O31381   4.001   1.351   4.836
 7669WAT     H131382   4.024   1.281   4.789
 7669WAT     H231383   3.929   1.379   4.796
 7669WAT    EPW31384   3.994   1.345   4.823
 7670WAT      O31385   4.113   1.872   3.662
 7670WAT     H131386   4.131   1.846   3.581
 7670WAT     H231387   4.189   1.861   3.705
 7670WAT    EPW31388   4.127   1.867   3.657
 7671WAT      O31389   4.167   1.874   3.131
 7671WAT     H131390   4.193   1.954   3.107
 7671WAT     H231391   4.083   1.873   3.109
 7671WAT    EPW31392   4.159   1.886   3.125
 7672WAT      O31393   4.850   1.569   4.185
 7672WAT     H131394   4.908   1.559   4.121
 7672WAT     H231395   4.874   1.509   4.244
 7672WAT    EPW31396   4.862   1.559   4.184
 7673WAT      O31397   3.093   1.637   4.605
 7673WAT     H131398   3.085   1.690   4.674
 7673WAT     H231399   3.159   1.672   4.561
 7673WAT    EPW31400   3.101   1.650   4.609
 7674WAT      O31401   3.906   2.692   3.031
 7674WAT     H131402   3.840   2.693   3.087
 7674WAT     H231403   3.893   2.762   2.981
 7674WAT    EPW31404   3.895   2.702   3.032
 7675WAT      O31405   4.391   1.495   3.268
 7675WAT     H131406   4.448   1.430   3.286
 7675WAT     H231407   4.427   1.564   3.307
 7675WAT    EPW31408   4.405   1.495   3.276
 7676WAT      O31409   3.207   1.583   3.480
 7676WAT     H131410   3.190   1.498   3.471
 7676WAT     H231411   3.181   1.600   3.562
 7676WAT    EPW31412   3.200   1.573   3.491
 7677WAT      O31413   4.173   1.783   3.400
 7677WAT     H131414   4.110   1.723   3.392
 7677WAT     H231415   4.176   1.821   3.321
 7677WAT    EPW31416   4.164   1.780   3.387
 7678WAT      O31417   4.160   1.415   3.400
 7678WAT     H131418   4.108   1.388   3.336
 7678WAT     H231419   4.229   1.447   3.357
 7678WAT    EPW31420   4.162   1.416   3.384
 7679WAT      O31421   4.011   1.660   3.826
 7679WAT     H131422   4.034   1.729   3.777
 7679WAT     H231423   4.044   1.679   3.904
 7679WAT    EPW31424   4.019   1.673   3.830
 7680WAT      O31425   3.430   1.326   3.596
 7680WAT     H131426   3.484   1.394   3.592
 7680WAT     H231427   3.465   1.268   3.541
 7680WAT    EPW31428   3.443   1.328   3.587
 7681WAT      O31429   3.830   2.227   4.167
 7681WAT     H131430   3.822   2.288   4.229
 7681WAT     H231431   3.767   2.247   4.111
 7681WAT    EPW31432   3.820   2.239   4.168
 7682WAT      O31433   4.281   1.715   4.430
 7682WAT     H131434   4.304   1.746   4.509
 7682WAT     H231435   4.247   1.637   4.448
 7682WAT    EPW31436   4.280   1.708   4.444
 7683WAT      O31437   3.796   2.400   4.379
 7683WAT     H131438   3.759   2.476   4.396
 7683WAT     H231439   3.794   2.358   4.455
 7683WAT    EPW31440   3.791   2.405   4.393
 7684WAT      O31441   4.446   1.149   3.759
 7684WAT     H131442   4.483   1.189   3.827
 7684WAT     H231443   4.513   1.114   3.717
 7684WAT    EPW31444   4.461   1.150   3.763
 7685WAT      O31445   3.152   2.682   4.955
 7685WAT     H131446   3.220   2.682   4.901
 7685WAT     H231447   3.163   2.610   5.002
 7685WAT    EPW31448   3.164   2.671   4.954
 7686WAT      O31449   4.689   1.720   4.514
 7686WAT     H131450   4.774   1.704   4.518
 7686WAT     H231451   4.661   1.706   4.596
 7686WAT    EPW31452   4.697   1.716   4.527
 7687WAT      O31453   3.527   1.677   3.845
 7687WAT     H131454   3.547   1.634   3.771
 7687WAT     H231455   3.499   1.614   3.898
 7687WAT    EPW31456   3.526   1.661   3.842
 7688WAT      O31457   3.372   1.917   4.255
 7688WAT     H131458   3.454   1.943   4.242
 7688WAT     H231459   3.333   1.935   4.179
 7688WAT    EPW31460   3.378   1.924   4.242
 7689WAT      O31461   5.033   2.830   4.648
 7689WAT     H131462   4.962   2.879   4.634
 7689WAT     H231463   5.016   2.791   4.725
 7689WAT    EPW31464   5.020   2.831   4.657
 7690WAT      O31465   4.599   2.130   3.174
 7690WAT     H131466   4.599   2.211   3.143
 7690WAT     H231467   4.555   2.136   3.249
 7690WAT    EPW31468   4.593   2.143   3.180
 7691WAT      O31469   5.009   1.588   3.118
 7691WAT     H131470   4.958   1.548   3.177
 7691WAT     H231471   4.952   1.632   3.068
 7691WAT    EPW31472   4.993   1.588   3.119
 7692WAT      O31473   3.934   1.849   4.947
 7692WAT     H131474   3.886   1.885   5.010
 7692WAT     H231475   3.908   1.891   4.875
 7692WAT    EPW31476   3.923   1.860   4.946
 7693WAT      O31477   4.939   1.994   4.414
 7693WAT     H131478   4.950   1.946   4.342
 7693WAT     H231479   4.854   2.012   4.413
 7693WAT    EPW31480   4.928   1.989   4.403
 7694WAT      O31481   3.177   2.148   3.499
 7694WAT     H131482   3.216   2.072   3.519
 7694WAT     H231483   3.244   2.201   3.481
 7694WAT    EPW31484   3.193   2.145   3.499
 7695WAT      O31485   4.849   1.476   3.319
 7695WAT     H131486   4.899   1.422   3.366
 7695WAT     H231487   4.789   1.503   3.376
 7695WAT    EPW31488   4.848   1.472   3.334
 7696WAT      O31489   4.534   1.672   3.843
 7696WAT     H131490   4.562   1.640   3.920
 7696WAT     H231491   4.552   1.608   3.787
 7696WAT    EPW31492   4.540   1.658   3.846
 7697WAT      O31493   3.231   2.398   3.184
 7697WAT     H131494   3.258   2.342   3.122
 7697WAT     H231495   3.294   2.392   3.244
 7697WAT    EPW31496   3.245   2.389   3.183
 7698WAT      O31497   3.911   1.663   3.350
 7698WAT     H131498   3.885   1.653   3.267
 7698WAT     H231499   3.886   1.744   3.369
 7698WAT    EPW31500   3.903   1.673   3.340
 7699WAT      O31501   3.465   2.002   4.855
 7699WAT     H131502   3.427   1.943   4.906
 7699WAT     H231503   3.473   1.961   4.778
 7699WAT    EPW31504   3.460   1.988   4.851
 7700WAT      O31505   3.567   2.010   3.420
 7700WAT     H131506   3.552   2.054   3.494
 7700WAT     H231507   3.519   1.938   3.430
 7700WAT    EPW31508   3.558   2.006   3.433
 7701WAT      O31509   3.576   2.263   4.049
 7701WAT     H131510   3.561   2.314   3.981
 7701WAT     H231511   3.538   2.187   4.027
 7701WAT    EPW31512   3.568   2.259   4.036
 7702WAT      O31513   3.552   2.110   4.465
 7702WAT     H131514   3.592   2.073   4.397
 7702WAT     H231515   3.504   2.173   4.428
 7702WAT    EPW31516   3.551   2.114   4.449
 7703WAT      O31517   4.617   1.904   4.138
 7703WAT     H131518   4.556   1.928   4.196
 7703WAT     H231519   4.631   1.977   4.092
 7703WAT    EPW31520   4.610   1.919   4.140
 7704WAT      O31521   4.168   1.472   4.500
 7704WAT     H131522   4.189   1.391   4.473
 7704WAT     H231523   4.192   1.472   4.584
 7704WAT    EPW31524   4.174   1.460   4.508
 7705WAT      O31525   4.462   1.746   3.358
 7705WAT     H131526   4.522   1.794   3.399
 7705WAT     H231527   4.387   1.771   3.393
 7705WAT    EPW31528   4.460   1.756   3.369
 7706WAT      O31529   3.356   2.255   4.830
 7706WAT     H131530   3.396   2.296   4.764
 7706WAT     H231531   3.396   2.177   4.832
 7706WAT    EPW31532   3.368   2.249   4.820
 7707WAT      O31533   4.446   2.571   4.649
 7707WAT     H131534   4.465   2.647   4.611
 7707WAT     H231535   4.473   2.511   4.591
 7707WAT    EPW31536   4.453   2.573   4.635
 7708WAT      O31537   3.709   1.343   3.292
 7708WAT     H131538   3.739   1.363   3.371
 7708WAT     H231539   3.658   1.412   3.272
 7708WAT    EPW31540   3.706   1.356   3.301
 7709WAT      O31541   4.548   2.341   4.516
 7709WAT     H131542   4.555   2.323   4.431
 7709WAT     H231543   4.629   2.367   4.538
 7709WAT    EPW31544   4.561   2.343   4.507
 7710WAT      O31545   4.508   2.755   4.923
 7710WAT     H131546   4.475   2.822   4.968
 7710WAT     H231547   4.480   2.768   4.842
 7710WAT    EPW31548   4.499   2.767   4.918
 7711WAT      O31549   4.744   1.385   4.783
 7711WAT     H131550   4.706   1.339   4.720
 7711WAT     H231551   4.750   1.329   4.849
 7711WAT    EPW31552   4.739   1.370   4.784
 7712WAT      O31553   3.367   2.340   3.435
 7712WAT     H131554   3.441   2.294   3.446
 7712WAT     H231555   3.369   2.397   3.501
 7712WAT    EPW31556   3.378   2.341   3.447
 7713WAT      O31557   4.108   2.262   4.555
 7713WAT     H131558   4.073   2.342   4.552
 7713WAT     H231559   4.188   2.274   4.522
 7713WAT    EPW31560   4.115   2.276   4.550
 7714WAT      O31561   3.172   1.303   3.498
 7714WAT     H131562   3.174   1.253   3.426
 7714WAT     H231563   3.256   1.309   3.520
 7714WAT    EPW31564   3.185   1.296   3.490
 7715WAT      O31565   4.227   2.136   3.607
 7715WAT     H131566   4.241   2.178   3.682
 7715WAT     H231567   4.178   2.068   3.631
 7715WAT    EPW31568   4.222   2.132   3.622
 7716WAT      O31569   3.560   1.569   3.221
 7716WAT     H131570   3.500   1.555   3.159
 7716WAT     H231571   3.626   1.605   3.177
 7716WAT    EPW31572   3.561   1.572   3.205
 7717WAT      O31573   4.114   2.229   4.059
 7717WAT     H131574   4.027   2.231   4.069
 7717WAT     H231575   4.142   2.298   4.105
 7717WAT    EPW31576   4.105   2.240   4.068
 7718WAT      O31577   3.427   2.298   4.303
 7718WAT     H131578   3.438   2.369   4.352
 7718WAT     H231579   3.480   2.311   4.235
 7718WAT    EPW31580   3.436   2.311   4.300
 7719WAT      O31581   3.774   1.739   3.959
 7719WAT     H131582   3.832   1.718   3.898
 7719WAT     H231583   3.697   1.724   3.921
 7719WAT    EPW31584   3.771   1.734   3.945
 7720WAT      O31585   3.265   1.897   3.579
 7720WAT     H131586   3.306   1.904   3.655
 7720WAT     H231587   3.318   1.846   3.532
 7720WAT    EPW31588   3.279   1.890   3.583
 7721WAT      O31589   4.605   2.223   4.269
 7721WAT     H131590   4.631   2.152   4.312
 7721WAT     H231591   4.616   2.202   4.185
 7721WAT    EPW31592   4.611   2.210   4.263
 7722WAT      O31593   3.678   2.034   3.146
 7722WAT     H131594   3.637   2.036   3.223
 7722WAT     H231595   3.613   2.031   3.088
 7722WAT    EPW31596   3.663   2.034   3.149
 7723WAT      O31597   4.696   2.413   3.897
 7723WAT     H131598   4.611   2.433   3.907
 7723WAT     H231599   4.717   2.450   3.821
 7723WAT    EPW31600   4.686   2.421   3.887
 7724WAT      O31601   3.833   1.919   3.409
 7724WAT     H131602   3.879   1.989   3.386
 7724WAT     H231603   3.752   1.949   3.417
 7724WAT    EPW31604   3.828   1.934   3.407
 7725WAT      O31605   4.621   1.641   4.775
 7725WAT     H131606   4.547   1.642   4.821
 7725WAT     H231607   4.650   1.559   4.784
 7725WAT    EPW31608   4.614   1.629   4.783
 7726WAT      O31609   3.165   1.527   4.007
 7726WAT     H131610   3.157   1.555   3.925
 7726WAT     H231611   3.251   1.516   4.017
 7726WAT    EPW31612   3.177   1.529   3.997
 7727WAT      O31613   4.871   2.917   3.848
 7727WAT     H131614   4.856   2.849   3.795
 7727WAT     H231615   4.861   2.986   3.795
 7727WAT    EPW31616   4.867   2.917   3.833
 7728WAT      O31617   4.433   2.172   4.860
 7728WAT     H131618   4.463   2.146   4.938
 7728WAT     H231619   4.466   2.252   4.852
 7728WAT    EPW31620   4.442   2.180   4.871
 7729WAT      O31621   4.657   2.070   4.712
 7729WAT     H131622   4.696   2.148   4.720
 7729WAT     H231623   4.584   2.079   4.759
 7729WAT    EPW31624   4.652   2.083   4.720
 7730WAT      O31625   4.712   1.862   3.751
 7730WAT     H131626   4.656   1.802   3.781
 7730WAT     H231627   4.675   1.938   3.775
 7730WAT    EPW31628   4.698   1.864   3.759
 7731WAT      O31629   4.976   2.142   4.859
 7731WAT     H131630   4.973   2.075   4.803
 7731WAT     H231631   5.055   2.175   4.846
 7731WAT    EPW31632   4.987   2.137   4.849
 7732WAT      O31633   4.817   2.456   4.510
 7732WAT     H131634   4.894   2.497   4.509
 7732WAT     H231635   4.782   2.476   4.433
 7732WAT    EPW31636   4.824   2.465   4.499
 7733WAT      O31637   4.357   2.411   3.186
 7733WAT     H131638   4.441   2.434   3.193
 7733WAT     H231639   4.344   2.404   3.100
 7733WAT    EPW31640   4.368   2.413   3.175
 7734WAT      O31641   4.542   1.494   4.432
 7734WAT     H131642   4.592   1.563   4.451
 7734WAT     H231643   4.469   1.530   4.400
 7734WAT    EPW31644   4.539   1.509   4.430
 7735WAT      O31645   4.003   2.080   4.352
 7735WAT     H131646   4.020   2.137   4.415
 7735WAT     H231647   3.951   2.124   4.298
 7735WAT    EPW31648   3.998   2.095   4.353
 7736WAT      O31649   3.729   1.737   4.598
 7736WAT     H131650   3.745   1.670   4.652
 7736WAT     H231651   3.726   1.699   4.520
 7736WAT    EPW31652   3.731   1.722   4.595
 7737WAT      O31653   4.654   1.299   4.266
 7737WAT     H131654   4.620   1.370   4.304
 7737WAT     H231655   4.738   1.301   4.290
 7737WAT    EPW31656   4.661   1.310   4.275
 7738WAT      O31657   3.898   1.397   4.475
 7738WAT     H131658   3.981   1.423   4.479
 7738WAT     H231659   3.901   1.320   4.434
 7738WAT    EPW31660   3.910   1.390   4.470
 7739WAT      O31661   4.208   2.505   4.776
 7739WAT     H131662   4.277   2.533   4.731
 7739WAT     H231663   4.141   2.529   4.726
 7739WAT    EPW31664   4.208   2.513   4.762
 7740WAT      O31665   4.850   2.000   3.165
 7740WAT     H131666   4.888   2.044   3.100
 7740WAT     H231667   4.772   2.038   3.171
 7740WAT    EPW31668   4.844   2.012   3.156
 7741WAT      O31669   3.985   2.292   3.076
 7741WAT     H131670   3.930   2.318   3.014
 7741WAT     H231671   4.011   2.366   3.114
 7741WAT    EPW31672   3.981   2.306   3.072
 7742WAT      O31673   3.654   2.003   4.234
 7742WAT     H131674   3.703   2.070   4.206
 7742WAT     H231675   3.708   1.935   4.230
 7742WAT    EPW31676   3.669   2.003   4.229
 7743WAT      O31677   4.348   1.841   4.669
 7743WAT     H131678   4.279   1.890   4.691
 7743WAT     H231679   4.366   1.797   4.742
 7743WAT    EPW31680   4.340   1.842   4.683
 7744WAT      O31681   4.386   1.945   4.300
 7744WAT     H131682   4.391   2.005   4.363
 7744WAT     H231683   4.377   1.870   4.344
 7744WAT    EPW31684   4.386   1.943   4.315
 7745WAT      O31685   4.650   1.926   3.487
 7745WAT     H131686   4.662   1.894   3.567
 7745WAT     H231687   4.727   1.963   3.468
 7745WAT    EPW31688   4.663   1.927   3.496
 7746WAT      O31689   3.874   1.392   4.110
 7746WAT     H131690   3.790   1.379   4.132
 7746WAT     H231691   3.871   1.396   4.023
 7746WAT    EPW31692   3.861   1.390   4.101
 7747WAT      O31693   3.996   2.525   4.599
 7747WAT     H131694   3.917   2.513   4.634
 7747WAT     H231695   3.983   2.591   4.543
 7747WAT    EPW31696   3.982   2.533   4.596
 7748WAT      O31697   3.146   1.417   4.765
 7748WAT     H131698   3.133   1.482   4.708
 7748WAT     H231699   3.065   1.397   4.792
 7748WAT    EPW31700   3.132   1.424   4.761
 7749WAT      O31701   3.446   1.720   3.435
 7749WAT     H131702   3.480   1.693   3.359
 7749WAT     H231703   3.375   1.670   3.444
 7749WAT    EPW31704   3.441   1.709   3.425
 7750WAT      O31705   4.306   2.270   3.847
 7750WAT     H131706   4.243   2.260   3.907
 7750WAT     H231707   4.349   2.341   3.874
 7750WAT    EPW31708   4.303   2.279   3.860
 7751WAT      O31709   4.918   1.933   4.681
 7751WAT     H131710   4.834   1.953   4.690
 7751WAT     H231711   4.937   1.958   4.600
 7751WAT    EPW31712   4.908   1.940   4.671
 7752WAT      O31713   4.372   2.120   4.525
 7752WAT     H131714   4.394   2.063   4.588
 7752WAT     H231715   4.432   2.183   4.533
 7752WAT    EPW31716   4.384   2.121   4.536
 7753WAT      O31717   4.759   2.876   4.890
 7753WAT     H131718   4.823   2.817   4.898
 7753WAT     H231719   4.686   2.828   4.895
 7753WAT    EPW31720   4.758   2.860   4.892
 7754WAT      O31721   3.492   1.882   4.610
 7754WAT     H131722   3.508   1.953   4.563
 7754WAT     H231723   3.567   1.838   4.608
 7754WAT    EPW31724   3.505   1.886   4.603
 7755WAT      O31725   3.313   1.734   4.461
 7755WAT     H131726   3.321   1.776   4.385
 7755WAT     H231727   3.366   1.779   4.515
 7755WAT    EPW31728   3.322   1.747   4.458
 7756WAT      O31729   4.906   2.035   3.441
 7756WAT     H131730   4.901   2.027   3.354
 7756WAT     H231731   4.962   1.972   3.464
 7756WAT    EPW31732   4.914   2.025   3.431
 7757WAT      O31733   3.511   1.409   4.687
 7757WAT     H131734   3.476   1.330   4.687
 7757WAT     H231735   3.498   1.439   4.606
 7757WAT    EPW31736   3.504   1.402   4.675
 7758WAT      O31737   4.663   1.998   4.444
 7758WAT     H131738   4.664   1.911   4.451
 7758WAT     H231739   4.653   2.025   4.526
 7758WAT    EPW31740   4.662   1.989   4.457
 7759WAT      O31741   3.158   2.257   4.252
 7759WAT     H131742   3.243   2.271   4.267
 7759WAT     H231743   3.140   2.188   4.302
 7759WAT    EPW31744   3.168   2.248   4.262
 7760WAT      O31745   3.345   1.796   3.093
 7760WAT     H131746   3.280   1.794   3.151
 7760WAT     H231747   3.348   1.714   3.063
 7760WAT    EPW31748   3.336   1.784   3.097
 7761WAT      O31749   4.243   1.472   4.767
 7761WAT     H131750   4.274   1.536   4.819
 7761WAT     H231751   4.170   1.448   4.807
 7761WAT    EPW31752   4.237   1.478   4.780
 7762WAT      O31753   4.238   1.493   3.835
 7762WAT     H131754   4.171   1.545   3.811
 7762WAT     H231755   4.241   1.433   3.771
 7762WAT    EPW31756   4.228   1.492   3.822
 7763WAT      O31757   4.585   1.625   4.114
 7763WAT     H131758   4.664   1.595   4.135
 7763WAT     H231759   4.592   1.711   4.123
 7763WAT    EPW31760   4.597   1.633   4.118
 7764WAT      O31761   3.770   2.211   4.604
 7764WAT     H131762   3.751   2.285   4.647
 7764WAT     H231763   3.695   2.190   4.564
 7764WAT    EPW31764   3.756   2.219   4.604
 7765WAT      O31765   4.659   2.153   4.005
 7765WAT     H131766   4.692   2.228   3.977
 7765WAT     H231767   4.607   2.127   3.940
 7765WAT    EPW31768   4.656   2.160   3.991
 7766WAT      O31769   3.713   1.579   4.371
 7766WAT     H131770   3.633   1.544   4.376
 7766WAT     H231771   3.766   1.514   4.392
 7766WAT    EPW31772   3.709   1.564   4.375
 7767WAT      O31773   4.908   1.375   4.381
 7767WAT     H131774   4.908   1.418   4.457
 7767WAT     H231775   4.986   1.335   4.380
 7767WAT    EPW31776   4.920   1.376   4.392
 7768WAT      O31777   4.086   1.604   4.115
 7768WAT     H131778   4.025   1.543   4.124
 7768WAT     H231779   4.160   1.559   4.113
 7768WAT    EPW31780   4.088   1.588   4.116
 7769WAT      O31781   3.870   1.962   4.698
 7769WAT     H131782   3.825   1.902   4.654
 7769WAT     H231783   3.833   2.037   4.674
 7769WAT    EPW31784   3.858   1.964   4.688
 7770WAT      O31785   3.975   1.310   3.217
 7770WAT     H131786   3.987   1.324   3.132
 7770WAT     H231787   3.892   1.332   3.230
 7770WAT    EPW31788   3.964   1.315   3.206
 7771WAT      O31789   4.704   2.498   4.257
 7771WAT     H131790   4.674   2.417   4.241
 7771WAT     H231791   4.641   2.550   4.226
 7771WAT    EPW31792   4.690   2.493   4.250
 7772WAT      O31793   3.452   1.495   4.431
 7772WAT     H131794   3.395   1.433   4.409
 7772WAT     H231795   3.403   1.568   4.434
 7772WAT    EPW31796   3.436   1.497   4.428
 7773WAT      O31797   4.343   1.478   4.087
 7773WAT     H131798   4.415   1.527   4.095
 7773WAT     H231799   4.322   1.486   4.003
 7773WAT    EPW31800   4.351   1.487   4.076
 7774WAT      O31801   4.324   1.852   3.833
 7774WAT     H131802   4.381   1.787   3.844
 7774WAT     H231803   4.301   1.873   3.915
 7774WAT    EPW31804   4.329   1.845   3.847
 7775WAT      O31805   3.405   1.932   3.815
 7775WAT     H131806   3.347   1.939   3.881
 7775WAT     H231807   3.445   1.857   3.831
 7775WAT    EPW31808   3.402   1.922   3.827
 7776WAT      O31809   4.443   2.103   3.426
 7776WAT     H131810   4.509   2.051   3.447
 7776WAT     H231811   4.393   2.102   3.497
 7776WAT    EPW31812   4.445   2.095   3.439
 7777WAT      O31813   3.963   2.157   3.327
 7777WAT     H131814   3.941   2.179   3.245
 7777WAT     H231815   3.938   2.226   3.374
 7777WAT    EPW31816   3.956   2.171   3.322
 7778WAT      O31817   4.780   2.315   4.755
 7778WAT     H131818   4.852   2.279   4.789
 7778WAT     H231819   4.811   2.359   4.685
 7778WAT    EPW31820   4.796   2.317   4.749
 7779WAT      O31821   4.821   1.740   4.940
 7779WAT     H131822   4.808   1.825   4.958
 7779WAT     H231823   4.756   1.721   4.885
 7779WAT    EPW31824   4.809   1.750   4.934
 7780WAT      O31825   4.891   1.849   4.177
 7780WAT     H131826   4.806   1.869   4.166
 7780WAT     H231827   4.890   1.762   4.184
 7780WAT    EPW31828   4.878   1.839   4.176
 7781WAT      O31829   3.780   1.479   4.716
 7781WAT     H131830   3.815   1.451   4.641
 7781WAT     H231831   3.699   1.446   4.714
 7781WAT    EPW31832   3.773   1.470   4.704
 7782WAT      O31833   4.548   2.426   4.871
 7782WAT     H131834   4.629   2.402   4.847
 7782WAT     H231835   4.526   2.485   4.810
 7782WAT    EPW31836   4.557   2.431   4.858
 7783WAT      O31837   4.070   2.529   3.193
 7783WAT     H131838   4.151   2.559   3.185
 7783WAT     H231839   4.021   2.588   3.152
 7783WAT    EPW31840   4.074   2.542   3.186
 7784WAT      O31841   4.259   1.350   1.759
 7784WAT     H131842   4.258   1.400   1.687
 7784WAT     H231843   4.343   1.333   1.771
 7784WAT    EPW31844   4.271   1.355   1.750
 7785WAT      O31845   4.210   1.988   2.218
 7785WAT     H131846   4.186   2.067   2.246
 7785WAT     H231847   4.267   1.961   2.278
 7785WAT    EPW31848   4.215   1.996   2.231
 7786WAT      O31849   3.193   2.399   1.707
 7786WAT     H131850   3.110   2.399   1.735
 7786WAT     H231851   3.200   2.323   1.666
 7786WAT    EPW31852   3.182   2.388   1.705
 7787WAT      O31853   4.833   2.820   1.548
 7787WAT     H131854   4.900   2.766   1.561
 7787WAT     H231855   4.776   2.770   1.504
 7787WAT    EPW31856   4.834   2.804   1.543
 7788WAT      O31857   3.161   1.746   1.350
 7788WAT     H131858   3.096   1.794   1.317
 7788WAT     H231859   3.131   1.664   1.345
 7788WAT    EPW31860   3.147   1.741   1.344
 7789WAT      O31861   3.429   2.348   1.325
 7789WAT     H131862   3.413   2.311   1.248
 7789WAT     H231863   3.456   2.282   1.375
 7789WAT    EPW31864   3.431   2.333   1.321
 7790WAT      O31865   4.459   2.147   1.870
 7790WAT     H131866   4.461   2.134   1.783
 7790WAT     H231867   4.402   2.087   1.898
 7790WAT    EPW31868   4.451   2.136   1.861
 7791WAT      O31869   3.463   2.523   1.687
 7791WAT     H131870   3.533   2.477   1.709
 7791WAT     H231871   3.396   2.473   1.712
 7791WAT    EPW31872   3.464   2.509   1.694
 7792WAT      O31873   3.922   1.478   1.652
 7792WAT     H131874   3.907   1.548   1.602
 7792WAT     H231875   3.995   1.444   1.618
 7792WAT    EPW31876   3.930   1.483   1.639
 7793WAT      O31877   3.360   2.805   1.283
 7793WAT     H131878   3.409   2.816   1.211
 7793WAT     H231879   3.397   2.736   1.322
 7793WAT    EPW31880   3.373   2.797   1.278
 7794WAT      O31881   3.205   2.449   2.408
 7794WAT     H131882   3.244   2.505   2.462
 7794WAT     H231883   3.120   2.465   2.420
 7794WAT    EPW31884   3.198   2.459   2.418
 7795WAT      O31885   3.864   2.461   2.882
 7795WAT     H131886   3.878   2.534   2.927
 7795WAT     H231887   3.779   2.464   2.863
 7795WAT    EPW31888   3.854   2.473   2.886
 7796WAT      O31889   3.351   2.153   1.863
 7796WAT     H131890   3.312   2.157   1.786
 7796WAT     H231891   3.412   2.091   1.852
 7796WAT    EPW31892   3.355   2.144   1.850
 7797WAT      O31893   3.778   1.853   2.376
 7797WAT     H131894   3.856   1.845   2.339
 7797WAT     H231895   3.760   1.772   2.404
 7797WAT    EPW31896   3.786   1.840   2.375
 7798WAT      O31897   3.539   1.963   1.798
 7798WAT     H131898   3.607   1.923   1.834
 7798WAT     H231899   3.475   1.903   1.802
 7798WAT    EPW31900   3.539   1.949   1.804
 7799WAT      O31901   4.004   2.634   2.086
 7799WAT     H131902   4.023   2.549   2.087
 7799WAT     H231903   4.081   2.672   2.070
 7799WAT    EPW31904   4.019   2.627   2.084
 7800WAT      O31905   4.159   2.018   2.768
 7800WAT     H131906   4.073   2.002   2.760
 7800WAT     H231907   4.165   2.060   2.844
 7800WAT    EPW31908   4.147   2.022   2.778
 7801WAT      O31909   3.647   1.467   1.724
 7801WAT     H131910   3.605   1.518   1.666
 7801WAT     H231911   3.730   1.474   1.701
 7801WAT    EPW31912   3.653   1.476   1.712
 7802WAT      O31913   4.574   1.253   2.735
 7802WAT     H131914   4.558   1.320   2.681
 7802WAT     H231915   4.497   1.237   2.771
 7802WAT    EPW31916   4.561   1.261   2.732
 7803WAT      O31917   3.954   1.409   1.928
 7803WAT     H131918   3.955   1.491   1.959
 7803WAT     H231919   3.940   1.419   1.843
 7803WAT    EPW31920   3.952   1.423   1.920
 7804WAT      O31921   4.341   1.646   1.154
 7804WAT     H131922   4.302   1.713   1.194
 7804WAT     H231923   4.359   1.591   1.219
 7804WAT    EPW31924   4.338   1.648   1.169
 7805WAT      O31925   3.180   1.884   2.070
 7805WAT     H131926   3.168   1.970   2.064
 7805WAT     H231927   3.117   1.859   2.125
 7805WAT    EPW31928   3.169   1.893   2.077
 7806WAT      O31929   3.260   2.931   1.954
 7806WAT     H131930   3.189   2.964   1.915
 7806WAT     H231931   3.295   2.879   1.892
 7806WAT    EPW31932   3.255   2.928   1.939
 7807WAT      O31933   3.718   2.730   1.682
 7807WAT     H131934   3.735   2.731   1.768
 7807WAT     H231935   3.782   2.681   1.649
 7807WAT    EPW31936   3.730   2.723   1.690
 7808WAT      O31937   4.363   2.920   1.427
 7808WAT     H131938   4.433   2.964   1.456
 7808WAT     H231939   4.379   2.838   1.449
 7808WAT    EPW31940   4.376   2.915   1.434
 7809WAT      O31941   4.214   2.972   1.652
 7809WAT     H131942   4.253   3.038   1.693
 7809WAT     H231943   4.261   2.962   1.579
 7809WAT    EPW31944   4.227   2.980   1.647
 7810WAT      O31945   3.444   1.440   2.141
 7810WAT     H131946   3.430   1.365   2.098
 7810WAT     H231947   3.500   1.416   2.203
 7810WAT    EPW31948   3.450   1.425   2.144
 7811WAT      O31949   3.796   1.643   3.088
 7811WAT     H131950   3.806   1.599   3.013
 7811WAT     H231951   3.824   1.723   3.068
 7811WAT    EPW31952   3.801   1.648   3.074
 7812WAT      O31953   3.366   2.787   1.733
 7812WAT     H131954   3.419   2.718   1.734
 7812WAT     H231955   3.402   2.839   1.673
 7812WAT    EPW31956   3.379   2.785   1.724
 7813WAT      O31957   4.936   1.608   1.860
 7813WAT     H131958   4.888   1.680   1.874
 7813WAT     H231959   4.876   1.548   1.839
 7813WAT    EPW31960   4.920   1.610   1.859
 7814WAT      O31961   3.371   1.528   3.007
 7814WAT     H131962   3.292   1.498   2.986
 7814WAT     H231963   3.422   1.501   2.941
 7814WAT    EPW31964   3.367   1.520   2.994
 7815WAT      O31965   3.550   2.661   2.054
 7815WAT     H131966   3.621   2.684   2.010
 7815WAT     H231967   3.579   2.603   2.112
 7815WAT    EPW31968   3.565   2.656   2.056
 7816WAT      O31969   3.859   2.990   2.057
 7816WAT     H131970   3.944   3.002   2.041
 7816WAT     H231971   3.854   2.997   2.144
 7816WAT    EPW31972   3.871   2.992   2.068
 7817WAT      O31973   3.992   1.354   2.947
 7817WAT     H131974   4.008   1.285   2.896
 7817WAT     H231975   3.920   1.389   2.912
 7817WAT    EPW31976   3.984   1.349   2.934
 7818WAT      O31977   4.110   1.827   1.809
 7818WAT     H131978   4.142   1.796   1.734
 7818WAT     H231979   4.180   1.857   1.850
 7818WAT    EPW31980   4.125   1.827   1.804
 7819WAT      O31981   4.199   1.851   1.292
 7819WAT     H131982   4.212   1.929   1.329
 7819WAT     H231983   4.124   1.861   1.250
 7819WAT    EPW31984   4.190   1.864   1.291
 7820WAT      O31985   4.586   3.040   1.536
 7820WAT     H131986   4.593   3.125   1.556
 7820WAT     H231987   4.605   3.000   1.611
 7820WAT    EPW31988   4.590   3.047   1.550
 7821WAT      O31989   4.862   1.546   2.313
 7821WAT     H131990   4.924   1.537   2.253
 7821WAT     H231991   4.880   1.484   2.371
 7821WAT    EPW31992   4.874   1.536   2.313
 7822WAT      O31993   3.100   1.624   2.667
 7822WAT     H131994   3.089   1.695   2.716
 7822WAT     H231995   3.167   1.645   2.615
 7822WAT    EPW31996   3.108   1.638   2.666
 7823WAT      O31997   4.500   2.767   2.607
 7823WAT     H131998   4.437   2.819   2.574
 7823WAT     H231999   4.564   2.823   2.624
 7823WAT    EPW32000   4.500   2.783   2.604
 7824WAT      O32001   3.967   2.722   1.335
 7824WAT     H132002   3.980   2.797   1.377
 7824WAT     H232003   3.980   2.662   1.397
 7824WAT    EPW32004   3.971   2.724   1.350
 7825WAT      O32005   4.393   1.464   1.359
 7825WAT     H132006   4.454   1.401   1.356
 7825WAT     H232007   4.415   1.510   1.430
 7825WAT    EPW32008   4.405   1.461   1.369
 7826WAT      O32009   3.236   1.552   1.631
 7826WAT     H132010   3.208   1.470   1.617
 7826WAT     H232011   3.189   1.578   1.700
 7826WAT    EPW32012   3.225   1.544   1.639
 7827WAT      O32013   3.338   2.823   2.382
 7827WAT     H132014   3.279   2.802   2.321
 7827WAT     H232015   3.407   2.848   2.336
 7827WAT    EPW32016   3.339   2.823   2.366
 7828WAT      O32017   4.170   1.736   1.547
 7828WAT     H132018   4.094   1.697   1.531
 7828WAT     H232019   4.188   1.779   1.473
 7828WAT    EPW32020   4.162   1.737   1.534
 7829WAT      O32021   4.151   1.409   1.494
 7829WAT     H132022   4.092   1.379   1.437
 7829WAT     H232023   4.221   1.425   1.445
 7829WAT    EPW32024   4.153   1.407   1.478
 7830WAT      O32025   4.827   3.120   1.845
 7830WAT     H132026   4.777   3.179   1.886
 7830WAT     H232027   4.773   3.052   1.833
 7830WAT    EPW32028   4.811   3.119   1.850
 7831WAT      O32029   3.960   1.679   1.987
 7831WAT     H132030   4.009   1.725   1.931
 7831WAT     H232031   3.977   1.717   2.064
 7831WAT    EPW32032   3.970   1.692   1.991
 7832WAT      O32033   4.656   2.621   1.882
 7832WAT     H132034   4.719   2.561   1.873
 7832WAT     H232035   4.584   2.573   1.890
 7832WAT    EPW32036   4.655   2.605   1.882
 7833WAT      O32037   3.593   1.205   1.782
 7833WAT     H132038   3.610   1.289   1.765
 7833WAT     H232039   3.569   1.173   1.704
 7833WAT    EPW32040   3.592   1.212   1.768
 7834WAT      O32041   3.810   2.292   2.236
 7834WAT     H132042   3.839   2.288   2.318
 7834WAT     H232043   3.747   2.231   2.233
 7834WAT    EPW32044   3.805   2.282   2.248
 7835WAT      O32045   4.328   1.654   2.525
 7835WAT     H132046   4.331   1.691   2.604
 7835WAT     H232047   4.265   1.595   2.533
 7835WAT    EPW32048   4.319   1.651   2.538
 7836WAT      O32049   3.918   2.299   2.489
 7836WAT     H132050   3.929   2.384   2.505
 7836WAT     H232051   3.872   2.271   2.558
 7836WAT    EPW32052   3.913   2.308   2.502
 7837WAT      O32053   4.517   1.263   1.811
 7837WAT     H132054   4.518   1.244   1.896
 7837WAT     H232055   4.546   1.189   1.773
 7837WAT    EPW32056   4.521   1.249   1.818
 7838WAT      O32057   3.244   2.639   3.034
 7838WAT     H132058   3.331   2.646   3.030
 7838WAT     H232059   3.231   2.566   3.080
 7838WAT    EPW32060   3.255   2.629   3.040
 7839WAT      O32061   4.707   1.693   2.653
 7839WAT     H132062   4.792   1.676   2.664
 7839WAT     H232063   4.674   1.687   2.734
 7839WAT    EPW32064   4.714   1.689   2.667
 7840WAT      O32065   3.515   1.602   1.929
 7840WAT     H132066   3.551   1.547   1.872
 7840WAT     H232067   3.499   1.552   1.999
 7840WAT    EPW32068   3.518   1.587   1.931
 7841WAT      O32069   4.786   2.398   1.418
 7841WAT     H132070   4.786   2.349   1.490
 7841WAT     H232071   4.871   2.411   1.402
 7841WAT    EPW32072   4.799   2.393   1.426
 7842WAT      O32073   3.545   2.314   1.977
 7842WAT     H132074   3.604   2.336   1.918
 7842WAT     H232075   3.484   2.272   1.931
 7842WAT    EPW32076   3.544   2.311   1.962
 7843WAT      O32077   3.506   3.075   2.000
 7843WAT     H132078   3.424   3.048   1.986
 7843WAT     H232079   3.497   3.139   2.059
 7843WAT    EPW32080   3.492   3.080   2.007
 7844WAT      O32081   3.351   1.844   2.290
 7844WAT     H132082   3.430   1.848   2.253
 7844WAT     H232083   3.297   1.850   2.222
 7844WAT    EPW32084   3.355   1.845   2.275
 7845WAT      O32085   4.575   2.072   1.321
 7845WAT     H132086   4.576   2.155   1.294
 7845WAT     H232087   4.547   2.077   1.403
 7845WAT    EPW32088   4.571   2.085   1.329
 7846WAT      O32089   3.698   2.370   1.740
 7846WAT     H132090   3.766   2.423   1.728
 7846WAT     H232091   3.719   2.300   1.692
 7846WAT    EPW32092   3.711   2.367   1.731
 7847WAT      O32093   4.922   1.541   1.263
 7847WAT     H132094   4.957   1.486   1.206
 7847WAT     H232095   4.877   1.597   1.213
 7847WAT    EPW32096   4.920   1.541   1.247
 7848WAT      O32097   3.292   2.551   2.063
 7848WAT     H132098   3.244   2.616   2.097
 7848WAT     H232099   3.366   2.591   2.039
 7848WAT    EPW32100   3.296   2.567   2.064
 7849WAT      O32101   3.898   1.897   3.047
 7849WAT     H132102   3.836   1.943   3.087
 7849WAT     H232103   3.894   1.926   2.964
 7849WAT    EPW32104   3.888   1.908   3.040
 7850WAT      O32105   5.086   1.952   2.467
 7850WAT     H132106   5.153   1.899   2.448
 7850WAT     H232107   5.019   1.918   2.423
 7850WAT    EPW32108   5.086   1.939   2.458
 7851WAT      O32109   3.251   2.146   1.605
 7851WAT     H132110   3.229   2.062   1.603
 7851WAT     H232111   3.330   2.148   1.568
 7851WAT    EPW32112   3.259   2.134   1.599
 7852WAT      O32113   4.791   1.431   1.488
 7852WAT     H132114   4.863   1.392   1.518
 7852WAT     H232115   4.819   1.476   1.419
 7852WAT    EPW32116   4.806   1.432   1.482
 7853WAT      O32117   4.237   2.776   2.008
 7853WAT     H132118   4.200   2.853   1.992
 7853WAT     H232119   4.253   2.744   1.929
 7853WAT    EPW32120   4.234   2.782   1.994
 7854WAT      O32121   3.190   2.640   1.574
 7854WAT     H132122   3.244   2.691   1.620
 7854WAT     H232123   3.186   2.566   1.621
 7854WAT    EPW32124   3.197   2.637   1.588
 7855WAT      O32125   3.632   2.500   2.262
 7855WAT     H132126   3.679   2.567   2.291
 7855WAT     H232127   3.691   2.437   2.248
 7855WAT    EPW32128   3.647   2.500   2.264
 7856WAT      O32129   4.479   1.698   2.007
 7856WAT     H132130   4.515   1.664   2.078
 7856WAT     H232131   4.416   1.641   1.986
 7856WAT    EPW32132   4.475   1.685   2.014
 7857WAT      O32133   3.177   2.478   1.342
 7857WAT     H132134   3.251   2.431   1.340
 7857WAT     H232135   3.189   2.531   1.410
 7857WAT    EPW32136   3.190   2.479   1.351
 7858WAT      O32137   3.197   2.290   2.051
 7858WAT     H132138   3.239   2.248   1.988
 7858WAT     H232139   3.213   2.374   2.034
 7858WAT    EPW32140   3.206   2.296   2.040
 7859WAT      O32141   3.898   1.681   1.462
 7859WAT     H132142   3.879   1.647   1.383
 7859WAT     H232143   3.866   1.762   1.457
 7859WAT    EPW32144   3.890   1.688   1.449
 7860WAT      O32145   3.790   2.747   1.948
 7860WAT     H132146   3.806   2.824   1.986
 7860WAT     H232147   3.856   2.696   1.975
 7860WAT    EPW32148   3.802   2.751   1.958
 7861WAT      O32149   3.470   1.999   2.956
 7861WAT     H132150   3.429   1.935   3.000
 7861WAT     H232151   3.473   1.969   2.874
 7861WAT    EPW32152   3.464   1.985   2.951
 7862WAT      O32153   3.514   1.869   1.422
 7862WAT     H132154   3.504   1.802   1.476
 7862WAT     H232155   3.475   1.842   1.349
 7862WAT    EPW32156   3.507   1.855   1.419
 7863WAT      O32157   3.572   2.153   2.199
 7863WAT     H132158   3.575   2.189   2.120
 7863WAT     H232159   3.576   2.068   2.183
 7863WAT    EPW32160   3.573   2.146   2.185
 7864WAT      O32161   3.602   2.047   2.498
 7864WAT     H132162   3.660   1.995   2.458
 7864WAT     H232163   3.552   2.076   2.433
 7864WAT    EPW32164   3.603   2.044   2.482
 7865WAT      O32165   4.625   1.878   2.265
 7865WAT     H132166   4.549   1.891   2.306
 7865WAT     H232167   4.615   1.919   2.189
 7865WAT    EPW32168   4.613   1.886   2.260
 7866WAT      O32169   4.160   1.432   2.588
 7866WAT     H132170   4.184   1.350   2.571
 7866WAT     H232171   4.185   1.444   2.670
 7866WAT    EPW32172   4.167   1.422   2.597
 7867WAT      O32173   4.419   1.613   1.589
 7867WAT     H132174   4.477   1.676   1.606
 7867WAT     H232175   4.343   1.655   1.585
 7867WAT    EPW32176   4.417   1.628   1.591
 7868WAT      O32177   3.301   2.219   2.977
 7868WAT     H132178   3.306   2.260   2.900
 7868WAT     H232179   3.366   2.161   2.974
 7868WAT    EPW32180   3.311   2.216   2.965
 7869WAT      O32181   4.522   2.513   2.775
 7869WAT     H132182   4.515   2.594   2.743
 7869WAT     H232183   4.557   2.468   2.709
 7869WAT    EPW32184   4.526   2.518   2.760
 7870WAT      O32185   4.012   1.791   2.237
 7870WAT     H132186   4.076   1.851   2.233
 7870WAT     H232187   4.055   1.717   2.256
 7870WAT    EPW32188   4.028   1.789   2.239
 7871WAT      O32189   4.228   2.057   1.492
 7871WAT     H132190   4.220   2.141   1.471
 7871WAT     H232191   4.163   2.044   1.549
 7871WAT    EPW32192   4.217   2.067   1.498
 7872WAT      O32193   4.824   2.389   1.864
 7872WAT     H132194   4.815   2.345   1.939
 7872WAT     H232195   4.787   2.336   1.805
 7872WAT    EPW32196   4.818   2.375   1.866
 7873WAT      O32197   4.433   2.784   2.212
 7873WAT     H132198   4.381   2.810   2.147
 7873WAT     H232199   4.504   2.834   2.202
 7873WAT    EPW32200   4.436   2.795   2.201
 7874WAT      O32201   4.337   2.517   2.176
 7874WAT     H132202   4.366   2.597   2.156
 7874WAT     H232203   4.266   2.532   2.225
 7874WAT    EPW32204   4.331   2.531   2.180
 7875WAT      O32205   3.743   2.989   1.607
 7875WAT     H132206   3.729   2.907   1.631
 7875WAT     H232207   3.821   2.987   1.569
 7875WAT    EPW32208   3.752   2.977   1.605
 7876WAT      O32209   3.671   1.266   1.347
 7876WAT     H132210   3.626   1.229   1.412
 7876WAT     H232211   3.633   1.344   1.338
 7876WAT    EPW32212   3.659   1.272   1.355
 7877WAT      O32213   3.990   2.960   1.484
 7877WAT     H132214   4.056   2.962   1.540
 7877WAT     H232215   4.004   3.030   1.433
 7877WAT    EPW32216   4.002   2.971   1.485
 7878WAT      O32217   4.636   2.388   2.540
 7878WAT     H132218   4.631   2.315   2.492
 7878WAT     H232219   4.721   2.394   2.559
 7878WAT    EPW32220   4.648   2.378   2.536
 7879WAT      O32221   4.718   1.391   2.926
 7879WAT     H132222   4.672   1.342   2.869
 7879WAT     H232223   4.725   1.340   2.996
 7879WAT    EPW32224   4.712   1.376   2.928
 7880WAT      O32225   3.506   2.139   1.495
 7880WAT     H132226   3.502   2.055   1.473
 7880WAT     H232227   3.584   2.148   1.532
 7880WAT    EPW32228   3.517   2.128   1.497
 7881WAT      O32229   4.295   2.377   2.535
 7881WAT     H132230   4.236   2.403   2.593
 7881WAT     H232231   4.317   2.297   2.562
 7881WAT    EPW32232   4.290   2.369   2.547
 7882WAT      O32233   3.134   1.291   1.587
 7882WAT     H132234   3.132   1.237   1.519
 7882WAT     H232235   3.104   1.243   1.653
 7882WAT    EPW32236   3.129   1.276   1.586
 7883WAT      O32237   4.017   2.054   1.679
 7883WAT     H132238   4.039   2.120   1.731
 7883WAT     H232239   4.032   1.983   1.728
 7883WAT    EPW32240   4.022   2.053   1.694
 7884WAT      O32241   4.680   2.600   2.242
 7884WAT     H132242   4.685   2.687   2.243
 7884WAT     H232243   4.663   2.582   2.159
 7884WAT    EPW32244   4.679   2.610   2.230
 7885WAT      O32245   3.566   1.518   1.305
 7885WAT     H132246   3.507   1.520   1.240
 7885WAT     H232247   3.633   1.564   1.273
 7885WAT    EPW32248   3.567   1.525   1.291
 7886WAT      O32249   4.041   2.357   2.096
 7886WAT     H132250   3.962   2.335   2.126
 7886WAT     H232251   4.096   2.328   2.158
 7886WAT    EPW32252   4.038   2.350   2.110
 7887WAT      O32253   3.707   2.983   1.151
 7887WAT     H132254   3.715   2.907   1.193
 7887WAT     H232255   3.712   3.042   1.215
 7887WAT    EPW32256   3.709   2.981   1.167
 7888WAT      O32257   3.712   1.794   1.938
 7888WAT     H132258   3.790   1.757   1.949
 7888WAT     H232259   3.658   1.726   1.933
 7888WAT    EPW32260   3.716   1.778   1.939
 7889WAT      O32261   4.988   3.010   1.424
 7889WAT     H132262   5.055   2.970   1.385
 7889WAT     H232263   4.948   2.945   1.467
 7889WAT    EPW32264   4.992   2.994   1.424
 7890WAT      O32265   3.197   1.872   1.608
 7890WAT     H132266   3.234   1.834   1.678
 7890WAT     H232267   3.208   1.812   1.546
 7890WAT    EPW32268   3.204   1.857   1.609
 7891WAT      O32269   4.691   2.159   2.373
 7891WAT     H132270   4.719   2.104   2.435
 7891WAT     H232271   4.638   2.110   2.324
 7891WAT    EPW32272   4.687   2.143   2.375
 7892WAT      O32273   3.669   2.125   1.198
 7892WAT     H132274   3.702   2.064   1.251
 7892WAT     H232275   3.623   2.078   1.140
 7892WAT    EPW32276   3.667   2.109   1.197
 7893WAT      O32277   3.302   2.336   2.721
 7893WAT     H132278   3.319   2.287   2.650
 7893WAT     H232279   3.353   2.405   2.711
 7893WAT    EPW32280   3.312   2.339   2.709
 7894WAT      O32281   4.831   2.240   2.119
 7894WAT     H132282   4.803   2.239   2.201
 7894WAT     H232283   4.917   2.249   2.127
 7894WAT    EPW32284   4.840   2.241   2.132
 7895WAT      O32285   3.777   1.935   1.390
 7895WAT     H132286   3.789   2.000   1.447
 7895WAT     H232287   3.695   1.909   1.405
 7895WAT    EPW32288   3.767   1.941   1.401
 7896WAT      O32289   4.603   1.646   2.913
 7896WAT     H132290   4.526   1.650   2.955
 7896WAT     H232291   4.630   1.564   2.927
 7896WAT    EPW32292   4.596   1.635   2.921
 7897WAT      O32293   3.164   1.512   2.100
 7897WAT     H132294   3.153   1.544   2.019
 7897WAT     H232295   3.250   1.504   2.107
 7897WAT    EPW32296   3.175   1.515   2.089
 7898WAT      O32297   4.977   2.841   2.156
 7898WAT     H132298   5.015   2.902   2.105
 7898WAT     H232299   5.018   2.851   2.232
 7898WAT    EPW32300   4.989   2.852   2.159
 7899WAT      O32301   4.453   1.993   2.977
 7899WAT     H132302   4.502   2.016   3.045
 7899WAT     H232303   4.378   2.035   2.990
 7899WAT    EPW32304   4.449   2.002   2.989
 7900WAT      O32305   4.574   2.109   2.757
 7900WAT     H132306   4.634   2.165   2.785
 7900WAT     H232307   4.545   2.072   2.831
 7900WAT    EPW32308   4.579   2.112   2.772
 7901WAT      O32309   4.671   2.650   1.407
 7901WAT     H132310   4.702   2.569   1.419
 7901WAT     H232311   4.593   2.647   1.446
 7901WAT    EPW32312   4.664   2.638   1.415
 7902WAT      O32313   4.716   1.796   1.895
 7902WAT     H132314   4.649   1.752   1.929
 7902WAT     H232315   4.712   1.873   1.936
 7902WAT    EPW32316   4.706   1.801   1.906
 7903WAT      O32317   4.981   2.107   2.947
 7903WAT     H132318   4.985   2.049   2.881
 7903WAT     H232319   5.061   2.142   2.947
 7903WAT    EPW32320   4.993   2.104   2.937
 7904WAT      O32321   4.914   2.383   2.583
 7904WAT     H132322   4.972   2.321   2.567
 7904WAT     H232323   4.922   2.438   2.516
 7904WAT    EPW32324   4.923   2.382   2.571
 7905WAT      O32325   4.367   2.474   1.298
 7905WAT     H132326   4.442   2.432   1.280
 7905WAT     H232327   4.322   2.468   1.223
 7905WAT    EPW32328   4.372   2.467   1.284
 7906WAT      O32329   3.947   2.577   2.505
 7906WAT     H132330   3.964   2.634   2.568
 7906WAT     H232331   3.899   2.622   2.448
 7906WAT    EPW32332   3.942   2.592   2.506
 7907WAT      O32333   3.590   2.489   2.826
 7907WAT     H132334   3.566   2.523   2.903
 7907WAT     H232335   3.583   2.556   2.770
 7907WAT    EPW32336   3.585   2.504   2.829
 7908WAT      O32337   4.545   1.482   2.567
 7908WAT     H132338   4.604   1.543   2.587
 7908WAT     H232339   4.474   1.528   2.546
 7908WAT    EPW32340   4.544   1.498   2.567
 7909WAT      O32341   4.148   2.242   2.332
 7909WAT     H132342   4.206   2.284   2.382
 7909WAT     H232343   4.075   2.245   2.380
 7909WAT    EPW32344   4.146   2.249   2.347
 7910WAT      O32345   3.726   1.748   2.714
 7910WAT     H132346   3.741   1.680   2.768
 7910WAT     H232347   3.728   1.712   2.635
 7910WAT    EPW32348   3.728   1.733   2.710
 7911WAT      O32349   4.110   3.012   1.928
 7911WAT     H132350   4.168   3.077   1.941
 7911WAT     H232351   4.118   2.995   1.843
 7911WAT    EPW32352   4.120   3.019   1.917
 7912WAT      O32353   4.641   1.274   2.408
 7912WAT     H132354   4.608   1.345   2.446
 7912WAT     H232355   4.726   1.280   2.423
 7912WAT    EPW32356   4.648   1.285   2.416
 7913WAT      O32357   3.883   1.409   2.591
 7913WAT     H132358   3.970   1.417   2.584
 7913WAT     H232359   3.869   1.325   2.572
 7913WAT    EPW32360   3.894   1.398   2.587
 7914WAT      O32361   3.823   2.702   2.295
 7914WAT     H132362   3.821   2.788   2.309
 7914WAT     H232363   3.884   2.693   2.233
 7914WAT    EPW32364   3.832   2.713   2.288
 7915WAT      O32365   4.313   2.381   2.910
 7915WAT     H132366   4.382   2.412   2.867
 7915WAT     H232367   4.245   2.414   2.868
 7915WAT    EPW32368   4.313   2.390   2.898
 7916WAT      O32369   4.821   1.954   1.276
 7916WAT     H132370   4.867   2.013   1.231
 7916WAT     H232371   4.742   1.990   1.284
 7916WAT    EPW32372   4.816   1.968   1.270
 7917WAT      O32373   3.964   2.215   1.329
 7917WAT     H132374   3.914   2.277   1.293
 7917WAT     H232375   4.028   2.260   1.369
 7917WAT    EPW32376   3.966   2.231   1.330
 7918WAT      O32377   3.600   1.883   2.172
 7918WAT     H132378   3.635   1.856   2.097
 7918WAT     H232379   3.661   1.867   2.231
 7918WAT    EPW32380   3.614   1.877   2.169
 7919WAT      O32381   4.342   1.807   2.755
 7919WAT     H132382   4.279   1.867   2.763
 7919WAT     H232383   4.391   1.820   2.826
 7919WAT    EPW32384   4.340   1.818   2.767
 7920WAT      O32385   4.390   1.903   2.405
 7920WAT     H132386   4.382   1.961   2.470
 7920WAT     H232387   4.371   1.827   2.443
 7920WAT    EPW32388   4.386   1.900   2.420
 7921WAT      O32389   4.599   1.831   1.645
 7921WAT     H132390   4.627   1.814   1.726
 7921WAT     H232391   4.670   1.862   1.605
 7921WAT    EPW32392   4.613   1.833   1.651
 7922WAT      O32393   3.907   1.334   2.210
 7922WAT     H132394   3.822   1.335   2.231
 7922WAT     H232395   3.906   1.340   2.123
 7922WAT    EPW32396   3.894   1.335   2.201
 7923WAT      O32397   4.734   1.436   1.767
 7923WAT     H132398   4.656   1.400   1.783
 7923WAT     H232399   4.732   1.452   1.681
 7923WAT    EPW32400   4.722   1.433   1.757
 7924WAT      O32401   4.735   2.231   1.640
 7924WAT     H132402   4.774   2.155   1.622
 7924WAT     H232403   4.650   2.212   1.634
 7924WAT    EPW32404   4.728   2.217   1.636
 7925WAT      O32405   4.115   2.481   2.749
 7925WAT     H132406   4.035   2.463   2.779
 7925WAT     H232407   4.113   2.567   2.736
 7925WAT    EPW32408   4.103   2.491   2.751
 7926WAT      O32409   3.143   1.426   2.862
 7926WAT     H132410   3.141   1.490   2.802
 7926WAT     H232411   3.058   1.408   2.875
 7926WAT    EPW32412   3.130   1.433   2.855
 7927WAT      O32413   3.783   2.975   2.340
 7927WAT     H132414   3.785   2.974   2.427
 7927WAT     H232415   3.700   2.957   2.321
 7927WAT    EPW32416   3.771   2.972   2.350
 7928WAT      O32417   3.493   1.623   1.553
 7928WAT     H132418   3.504   1.584   1.476
 7928WAT     H232419   3.412   1.602   1.576
 7928WAT    EPW32420   3.483   1.614   1.545
 7929WAT      O32421   4.462   2.425   1.939
 7929WAT     H132422   4.410   2.437   2.008
 7929WAT     H232423   4.451   2.341   1.919
 7929WAT    EPW32424   4.453   2.414   1.946
 7930WAT      O32425   4.077   2.275   1.830
 7930WAT     H132426   4.070   2.299   1.913
 7930WAT     H232427   4.060   2.349   1.786
 7930WAT    EPW32428   4.074   2.289   1.836
 7931WAT      O32429   4.070   2.753   2.688
 7931WAT     H132430   4.120   2.817   2.655
 7931WAT     H232431   4.011   2.796   2.736
 7931WAT    EPW32432   4.069   2.769   2.690
 7932WAT      O32433   4.970   1.949   2.720
 7932WAT     H132434   4.889   1.955   2.687
 7932WAT     H232435   5.021   1.950   2.649
 7932WAT    EPW32436   4.966   1.950   2.704
 7933WAT      O32437   4.353   2.111   2.591
 7933WAT     H132438   4.289   2.083   2.642
 7933WAT     H232439   4.423   2.111   2.643
 7933WAT    EPW32440   4.354   2.107   2.606
 7934WAT      O32441   4.211   2.144   3.012
 7934WAT     H132442   4.253   2.213   2.979
 7934WAT     H232443   4.133   2.177   3.033
 7934WAT    EPW32444   4.206   2.159   3.010
 7935WAT      O32445   4.190   2.637   2.383
 7935WAT     H132446   4.116   2.615   2.424
 7935WAT     H232447   4.197   2.723   2.400
 7935WAT    EPW32448   4.180   2.647   2.392
 7936WAT      O32449   3.485   1.887   2.695
 7936WAT     H132450   3.511   1.945   2.635
 7936WAT     H232451   3.557   1.839   2.710
 7936WAT    EPW32452   3.500   1.888   2.688
 7937WAT      O32453   3.324   1.719   2.535
 7937WAT     H132454   3.330   1.757   2.456
 7937WAT     H232455   3.367   1.775   2.587
 7937WAT    EPW32456   3.331   1.733   2.531
 7938WAT      O32457   4.819   1.977   1.555
 7938WAT     H132458   4.830   1.973   1.469
 7938WAT     H232459   4.895   1.949   1.587
 7938WAT    EPW32460   4.832   1.972   1.547
 7939WAT      O32461   3.515   1.410   2.797
 7939WAT     H132462   3.481   1.330   2.796
 7939WAT     H232463   3.505   1.438   2.714
 7939WAT    EPW32464   3.508   1.403   2.784
 7940WAT      O32465   4.254   2.705   1.735
 7940WAT     H132466   4.237   2.787   1.709
 7940WAT     H232467   4.181   2.661   1.715
 7940WAT    EPW32468   4.241   2.711   1.729
 7941WAT      O32469   4.729   1.966   2.581
 7941WAT     H132470   4.711   1.881   2.588
 7941WAT     H232471   4.674   2.003   2.638
 7941WAT    EPW32472   4.718   1.959   2.591
 7942WAT      O32473   3.303   2.199   2.470
 7942WAT     H132474   3.250   2.267   2.456
 7942WAT     H232475   3.248   2.132   2.479
 7942WAT    EPW32476   3.287   2.199   2.470
 7943WAT      O32477   3.380   1.788   1.189
 7943WAT     H132478   3.307   1.781   1.236
 7943WAT     H232479   3.387   1.711   1.150
 7943WAT    EPW32480   3.370   1.776   1.190
 7944WAT      O32481   4.226   1.478   2.855
 7944WAT     H132482   4.262   1.540   2.904
 7944WAT     H232483   4.153   1.457   2.898
 7944WAT    EPW32484   4.220   1.484   2.869
 7945WAT      O32485   4.270   1.516   1.986
 7945WAT     H132486   4.194   1.527   2.026
 7945WAT     H232487   4.250   1.465   1.918
 7945WAT    EPW32488   4.256   1.510   1.982
 7946WAT      O32489   3.695   2.744   1.284
 7946WAT     H132490   3.777   2.724   1.309
 7946WAT     H232491   3.645   2.696   1.337
 7946WAT    EPW32492   3.700   2.734   1.296
 7947WAT      O32493   4.595   1.599   2.239
 7947WAT     H132494   4.673   1.565   2.256
 7947WAT     H232495   4.603   1.682   2.265
 7947WAT    EPW32496   4.608   1.606   2.245
 7948WAT      O32497   3.741   2.202   2.686
 7948WAT     H132498   3.691   2.260   2.729
 7948WAT     H232499   3.685   2.164   2.630
 7948WAT    EPW32500   3.725   2.205   2.684
 7949WAT      O32501   4.657   2.036   2.033
 7949WAT     H132502   4.715   2.098   2.052
 7949WAT     H232503   4.599   2.077   1.983
 7949WAT    EPW32504   4.657   2.051   2.029
 7950WAT      O32505   4.681   2.891   1.764
 7950WAT     H132506   4.661   2.819   1.810
 7950WAT     H232507   4.735   2.861   1.703
 7950WAT    EPW32508   4.686   2.876   1.762
 7951WAT      O32509   3.498   2.599   1.417
 7951WAT     H132510   3.493   2.589   1.503
 7951WAT     H232511   3.477   2.520   1.386
 7951WAT    EPW32512   3.494   2.586   1.425
 7952WAT      O32513   3.766   2.380   1.220
 7952WAT     H132514   3.727   2.303   1.208
 7952WAT     H232515   3.707   2.427   1.263
 7952WAT    EPW32516   3.752   2.375   1.225
 7953WAT      O32517   3.718   1.602   2.477
 7953WAT     H132518   3.642   1.561   2.481
 7953WAT     H232519   3.776   1.540   2.497
 7953WAT    EPW32520   3.715   1.587   2.481
 7954WAT      O32521   4.904   1.338   2.500
 7954WAT     H132522   4.904   1.358   2.585
 7954WAT     H232523   4.982   1.301   2.487
 7954WAT    EPW32524   4.916   1.336   2.510
 7955WAT      O32525   4.116   1.528   2.240
 7955WAT     H132526   4.055   1.466   2.245
 7955WAT     H232527   4.189   1.487   2.265
 7955WAT    EPW32528   4.118   1.513   2.244
 7956WAT      O32529   4.306   2.890   2.436
 7956WAT     H132530   4.295   2.976   2.426
 7956WAT     H232531   4.350   2.866   2.365
 7956WAT    EPW32532   4.311   2.899   2.424
 7957WAT      O32533   3.883   1.976   2.779
 7957WAT     H132534   3.835   1.910   2.748
 7957WAT     H232535   3.837   2.047   2.756
 7957WAT    EPW32536   3.869   1.976   2.771
 7958WAT      O32537   3.949   1.305   1.334
 7958WAT     H132538   3.959   1.321   1.249
 7958WAT     H232539   3.862   1.303   1.344
 7958WAT    EPW32540   3.938   1.307   1.323
 7959WAT      O32541   4.930   2.531   2.344
 7959WAT     H132542   4.979   2.527   2.271
 7959WAT     H232543   4.850   2.548   2.313
 7959WAT    EPW32544   4.925   2.533   2.328
 7960WAT      O32545   4.701   2.880   2.238
 7960WAT     H132546   4.782   2.884   2.208
 7960WAT     H232547   4.694   2.951   2.289
 7960WAT    EPW32548   4.712   2.891   2.241
 7961WAT      O32549   3.470   1.486   2.533
 7961WAT     H132550   3.416   1.421   2.512
 7961WAT     H232551   3.420   1.557   2.528
 7961WAT    EPW32552   3.455   1.487   2.529
 7962WAT      O32553   4.384   1.411   2.221
 7962WAT     H132554   4.447   1.467   2.241
 7962WAT     H232555   4.357   1.438   2.142
 7962WAT    EPW32556   4.389   1.423   2.212
 7963WAT      O32557   4.317   1.926   1.966
 7963WAT     H132558   4.370   1.860   1.985
 7963WAT     H232559   4.282   1.947   2.043
 7963WAT    EPW32560   4.320   1.919   1.980
 7964WAT      O32561   3.326   1.791   1.844
 7964WAT     H132562   3.279   1.811   1.915
 7964WAT     H232563   3.375   1.723   1.870
 7964WAT    EPW32564   3.327   1.784   1.858
 7965WAT      O32565   3.353   2.612   2.572
 7965WAT     H132566   3.298   2.641   2.633
 7965WAT     H232567   3.363   2.680   2.519
 7965WAT    EPW32568   3.346   2.626   2.573
 7966WAT      O32569   4.485   2.080   1.594
 7966WAT     H132570   4.511   1.999   1.613
 7966WAT     H232571   4.402   2.070   1.569
 7966WAT    EPW32572   4.477   2.067   1.593
 7967WAT      O32573   3.465   2.939   1.522
 7967WAT     H132574   3.453   2.907   1.442
 7967WAT     H232575   3.551   2.953   1.526
 7967WAT    EPW32576   3.476   2.937   1.511
 7968WAT      O32577   3.792   2.160   1.556
 7968WAT     H132578   3.838   2.198   1.493
 7968WAT     H232579   3.853   2.125   1.608
 7968WAT    EPW32580   3.807   2.161   1.555
 7969WAT      O32581   4.742   3.022   1.296
 7969WAT     H132582   4.822   3.025   1.332
 7969WAT     H232583   4.689   3.034   1.365
 7969WAT    EPW32584   4.746   3.024   1.312
 7970WAT      O32585   4.795   2.271   2.827
 7970WAT     H132586   4.858   2.224   2.863
 7970WAT     H232587   4.835   2.312   2.761
 7970WAT    EPW32588   4.810   2.270   2.823
 7971WAT      O32589   4.414   2.662   1.505
 7971WAT     H132590   4.372   2.652   1.581
 7971WAT     H232591   4.379   2.602   1.453
 7971WAT    EPW32592   4.403   2.652   1.509
 7972WAT      O32593   4.838   1.769   2.995
 7972WAT     H132594   4.821   1.837   3.047
 7972WAT     H232595   4.759   1.737   2.976
 7972WAT    EPW32596   4.824   1.774   3.000
 7973WAT      O32597   4.899   1.824   2.304
 7973WAT     H132598   4.815   1.849   2.299
 7973WAT     H232599   4.893   1.738   2.315
 7973WAT    EPW32600   4.885   1.815   2.305
 7974WAT      O32601   3.778   1.496   2.834
 7974WAT     H132602   3.813   1.472   2.757
 7974WAT     H232603   3.698   1.461   2.832
 7974WAT    EPW32604   3.771   1.487   2.822
 7975WAT      O32605   4.619   2.377   3.018
 7975WAT     H132606   4.686   2.345   2.973
 7975WAT     H232607   4.585   2.437   2.965
 7975WAT    EPW32608   4.624   2.381   3.004
 7976WAT      O32609   3.546   2.892   2.209
 7976WAT     H132610   3.548   2.816   2.166
 7976WAT     H232611   3.532   2.951   2.146
 7976WAT    EPW32612   3.544   2.890   2.193
 7977WAT      O32613   4.188   2.325   1.446
 7977WAT     H132614   4.246   2.374   1.402
 7977WAT     H232615   4.150   2.382   1.500
 7977WAT    EPW32616   4.191   2.341   1.447
 7978WAT      O32617   3.233   3.061   2.484
 7978WAT     H132618   3.231   3.047   2.571
 7978WAT     H232619   3.265   2.987   2.453
 7978WAT    EPW32620   3.237   3.048   2.492
 7979WAT      O32621   4.198   1.960   0.346
 7979WAT     H132622   4.168   2.037   0.371
 7979WAT     H232623   4.262   1.943   0.403
 7979WAT    EPW32624   4.203   1.969   0.358
 7980WAT      O32625   3.248   2.651   0.499
 7980WAT     H132626   3.270   2.644   0.583
 7980WAT     H232627   3.192   2.585   0.486
 7980WAT    EPW32628   3.243   2.640   0.510
 7981WAT      O32629   3.853   2.475   0.976
 7981WAT     H132630   3.832   2.444   1.055
 7981WAT     H232631   3.781   2.463   0.929
 7981WAT    EPW32632   3.839   2.468   0.981
 7982WAT      O32633   3.793   1.743   0.542
 7982WAT     H132634   3.871   1.751   0.502
 7982WAT     H232635   3.774   1.658   0.534
 7982WAT    EPW32636   3.802   1.732   0.535
 7983WAT      O32637   3.854   2.763   0.739
 7983WAT     H132638   3.871   2.818   0.673
 7983WAT     H232639   3.933   2.731   0.759
 7983WAT    EPW32640   3.868   2.767   0.733
 7984WAT      O32641   4.115   2.029   0.904
 7984WAT     H132642   4.028   2.017   0.902
 7984WAT     H232643   4.129   2.067   0.981
 7984WAT    EPW32644   4.104   2.033   0.915
 7985WAT      O32645   4.565   1.214   0.806
 7985WAT     H132646   4.558   1.296   0.776
 7985WAT     H232647   4.499   1.207   0.863
 7985WAT    EPW32648   4.554   1.225   0.810
 7986WAT      O32649   3.181   1.986   0.311
 7986WAT     H132650   3.136   2.061   0.319
 7986WAT     H232651   3.124   1.925   0.337
 7986WAT    EPW32652   3.166   1.988   0.316
 7987WAT      O32653   3.456   1.376   0.356
 7987WAT     H132654   3.455   1.429   0.287
 7987WAT     H232655   3.516   1.316   0.335
 7987WAT    EPW32656   3.465   1.375   0.343
 7988WAT      O32657   3.797   1.634   1.190
 7988WAT     H132658   3.796   1.596   1.111
 7988WAT     H232659   3.841   1.708   1.176
 7988WAT    EPW32660   3.804   1.639   1.176
 7989WAT      O32661   4.418   2.957   0.578
 7989WAT     H132662   4.493   2.994   0.605
 7989WAT     H232663   4.421   2.966   0.491
 7989WAT    EPW32664   4.430   2.964   0.569
 7990WAT      O32665   3.388   1.527   1.089
 7990WAT     H132666   3.306   1.498   1.080
 7990WAT     H232667   3.429   1.496   1.019
 7990WAT    EPW32668   3.382   1.518   1.078
 7991WAT      O32669   3.979   1.353   1.064
 7991WAT     H132670   3.997   1.282   1.017
 7991WAT     H232671   3.906   1.384   1.027
 7991WAT    EPW32672   3.971   1.347   1.051
 7992WAT      O32673   3.651   2.983   0.633
 7992WAT     H132674   3.670   2.994   0.718
 7992WAT     H232675   3.571   2.948   0.635
 7992WAT    EPW32676   3.642   2.979   0.646
 7993WAT      O32677   4.910   1.532   0.463
 7993WAT     H132678   4.972   1.493   0.416
 7993WAT     H232679   4.906   1.482   0.535
 7993WAT    EPW32680   4.919   1.519   0.467
 7994WAT      O32681   3.128   1.646   0.839
 7994WAT     H132682   3.115   1.723   0.878
 7994WAT     H232683   3.187   1.665   0.777
 7994WAT    EPW32684   3.135   1.660   0.835
 7995WAT      O32685   4.366   2.699   0.882
 7995WAT     H132686   4.327   2.738   0.950
 7995WAT     H232687   4.451   2.709   0.899
 7995WAT    EPW32688   4.373   2.706   0.895
 7996WAT      O32689   3.394   2.900   0.530
 7996WAT     H132690   3.355   2.824   0.509
 7996WAT     H232691   3.396   2.943   0.454
 7996WAT    EPW32692   3.388   2.895   0.516
 7997WAT      O32693   4.170   2.995   0.691
 7997WAT     H132694   4.247   2.976   0.656
 7997WAT     H232695   4.113   2.962   0.634
 7997WAT    EPW32696   4.173   2.987   0.678
 7998WAT      O32697   3.581   2.714   0.820
 7998WAT     H132698   3.662   2.741   0.798
 7998WAT     H232699   3.565   2.757   0.894
 7998WAT    EPW32700   3.591   2.725   0.828
 7999WAT      O32701   3.789   2.342   0.267
 7999WAT     H132702   3.804   2.309   0.346
 7999WAT     H232703   3.782   2.272   0.215
 7999WAT    EPW32704   3.790   2.327   0.271
 8000WAT      O32705   4.343   1.660   0.669
 8000WAT     H132706   4.330   1.709   0.740
 8000WAT     H232707   4.274   1.607   0.668
 8000WAT    EPW32708   4.331   1.659   0.679
 8001WAT      O32709   3.856   2.289   0.531
 8001WAT     H132710   3.847   2.374   0.549
 8001WAT     H232711   3.826   2.250   0.604
 8001WAT    EPW32712   3.850   2.296   0.545
 8002WAT      O32713   4.419   2.418   0.456
 8002WAT     H132714   4.378   2.373   0.518
 8002WAT     H232715   4.412   2.501   0.483
 8002WAT    EPW32716   4.412   2.423   0.469
 8003WAT      O32717   3.148   2.680   1.142
 8003WAT     H132718   3.210   2.726   1.183
 8003WAT     H232719   3.149   2.604   1.185
 8003WAT    EPW32720   3.158   2.675   1.155
 8004WAT      O32721   4.741   1.694   0.758
 8004WAT     H132722   4.823   1.678   0.782
 8004WAT     H232723   4.698   1.700   0.833
 8004WAT    EPW32724   4.747   1.693   0.773
 8005WAT      O32725   3.382   1.806   0.391
 8005WAT     H132726   3.462   1.838   0.375
 8005WAT     H232727   3.329   1.867   0.357
 8005WAT    EPW32728   3.386   1.820   0.383
 8006WAT      O32729   5.028   2.805   0.910
 8006WAT     H132730   4.954   2.823   0.867
 8006WAT     H232731   5.001   2.771   0.985
 8006WAT    EPW32732   5.013   2.802   0.915
 8007WAT      O32733   3.941   1.874   1.172
 8007WAT     H132734   3.896   1.909   1.238
 8007WAT     H232735   3.914   1.919   1.103
 8007WAT    EPW32736   3.930   1.886   1.172
 8008WAT      O32737   5.022   1.944   0.648
 8008WAT     H132738   5.082   1.880   0.648
 8008WAT     H232739   4.965   1.917   0.588
 8008WAT    EPW32740   5.023   1.930   0.639
 8009WAT      O32741   3.579   2.490   0.381
 8009WAT     H132742   3.625   2.514   0.450
 8009WAT     H232743   3.636   2.446   0.332
 8009WAT    EPW32744   3.594   2.487   0.384
 8010WAT      O32745   4.785   2.862   0.785
 8010WAT     H132746   4.743   2.938   0.797
 8010WAT     H232747   4.768   2.843   0.702
 8010WAT    EPW32748   4.776   2.871   0.774
 8011WAT      O32749   3.483   1.994   1.032
 8011WAT     H132750   3.447   1.929   1.079
 8011WAT     H232751   3.483   1.963   0.951
 8011WAT    EPW32752   3.478   1.980   1.027
 8012WAT      O32753   3.556   2.077   0.575
 8012WAT     H132754   3.588   2.030   0.508
 8012WAT     H232755   3.506   2.137   0.536
 8012WAT    EPW32756   3.553   2.079   0.559
 8013WAT      O32757   4.613   1.806   0.364
 8013WAT     H132758   4.552   1.836   0.419
 8013WAT     H232759   4.579   1.821   0.286
 8013WAT    EPW32760   4.599   1.813   0.361
 8014WAT      O32761   3.961   2.915   0.527
 8014WAT     H132762   3.957   2.854   0.464
 8014WAT     H232763   3.938   2.989   0.485
 8014WAT    EPW32764   3.957   2.917   0.511
 8015WAT      O32765   4.154   1.444   0.699
 8015WAT     H132766   4.179   1.362   0.685
 8015WAT     H232767   4.174   1.457   0.783
 8015WAT    EPW32768   4.161   1.434   0.709
 8016WAT      O32769   3.353   2.231   1.088
 8016WAT     H132770   3.353   2.278   1.015
 8016WAT     H232771   3.401   2.161   1.067
 8016WAT    EPW32772   3.360   2.227   1.074
 8017WAT      O32773   4.485   2.435   0.895
 8017WAT     H132774   4.437   2.499   0.861
 8017WAT     H232775   4.514   2.392   0.825
 8017WAT    EPW32776   4.483   2.438   0.880
 8018WAT      O32777   3.960   2.728   1.049
 8018WAT     H132778   3.965   2.723   1.135
 8018WAT     H232779   3.927   2.651   1.025
 8018WAT    EPW32780   3.956   2.716   1.058
 8019WAT      O32781   4.022   1.750   0.393
 8019WAT     H132782   4.079   1.812   0.371
 8019WAT     H232783   4.069   1.676   0.386
 8019WAT    EPW32784   4.037   1.748   0.389
 8020WAT      O32785   4.531   2.703   0.239
 8020WAT     H132786   4.458   2.672   0.204
 8020WAT     H232787   4.521   2.789   0.237
 8020WAT    EPW32788   4.519   2.711   0.234
 8021WAT      O32789   4.314   2.520   0.209
 8021WAT     H132790   4.229   2.499   0.214
 8021WAT     H232791   4.350   2.473   0.273
 8021WAT    EPW32792   4.307   2.510   0.219
 8022WAT      O32793   4.622   2.301   0.692
 8022WAT     H132794   4.622   2.262   0.614
 8022WAT     H232795   4.706   2.313   0.709
 8022WAT    EPW32796   4.634   2.297   0.683
 8023WAT      O32797   4.440   2.874   1.162
 8023WAT     H132798   4.402   2.891   1.238
 8023WAT     H232799   4.422   2.944   1.113
 8023WAT    EPW32800   4.431   2.887   1.166
 8024WAT      O32801   4.804   1.280   0.933
 8024WAT     H132802   4.726   1.263   0.898
 8024WAT     H232803   4.800   1.244   1.012
 8024WAT    EPW32804   4.792   1.272   0.939
 8025WAT      O32805   4.264   2.288   0.652
 8025WAT     H132806   4.208   2.314   0.713
 8025WAT     H232807   4.304   2.220   0.688
 8025WAT    EPW32808   4.262   2.282   0.666
 8026WAT      O32809   4.676   2.524   0.395
 8026WAT     H132810   4.644   2.574   0.331
 8026WAT     H232811   4.608   2.474   0.418
 8026WAT    EPW32812   4.661   2.524   0.389
 8027WAT      O32813   4.055   2.442   0.293
 8027WAT     H132814   3.973   2.425   0.270
 8027WAT     H232815   4.081   2.370   0.334
 8027WAT    EPW32816   4.047   2.429   0.295
 8028WAT      O32817   3.402   2.272   0.442
 8028WAT     H132818   3.446   2.346   0.429
 8028WAT     H232819   3.366   2.256   0.364
 8028WAT    EPW32820   3.403   2.280   0.428
 8029WAT      O32821   4.658   2.142   0.462
 8029WAT     H132822   4.674   2.076   0.517
 8029WAT     H232823   4.580   2.123   0.428
 8029WAT    EPW32824   4.649   2.130   0.465
 8030WAT      O32825   3.354   2.368   0.848
 8030WAT     H132826   3.318   2.316   0.789
 8030WAT     H232827   3.325   2.447   0.826
 8030WAT    EPW32828   3.345   2.372   0.836
 8031WAT      O32829   4.896   2.219   0.336
 8031WAT     H132830   4.823   2.193   0.376
 8031WAT     H232831   4.868   2.252   0.260
 8031WAT    EPW32832   4.881   2.220   0.331
 8032WAT      O32833   4.560   1.655   0.980
 8032WAT     H132834   4.491   1.656   1.034
 8032WAT     H232835   4.542   1.590   0.925
 8032WAT    EPW32836   4.547   1.646   0.980
 8033WAT      O32837   4.949   2.818   0.378
 8033WAT     H132838   4.982   2.823   0.297
 8033WAT     H232839   5.011   2.774   0.422
 8033WAT    EPW32840   4.963   2.812   0.372
 8034WAT      O32841   4.428   1.999   1.093
 8034WAT     H132842   4.469   2.005   1.170
 8034WAT     H232843   4.350   2.036   1.109
 8034WAT    EPW32844   4.422   2.006   1.107
 8035WAT      O32845   4.643   2.050   0.914
 8035WAT     H132846   4.671   2.130   0.938
 8035WAT     H232847   4.580   2.033   0.972
 8035WAT    EPW32848   4.638   2.060   0.926
 8036WAT      O32849   4.965   2.124   1.112
 8036WAT     H132850   4.970   2.067   1.046
 8036WAT     H232851   5.045   2.159   1.114
 8036WAT    EPW32852   4.978   2.121   1.102
 8037WAT      O32853   4.889   2.354   0.746
 8037WAT     H132854   4.953   2.296   0.733
 8037WAT     H232855   4.895   2.407   0.678
 8037WAT    EPW32856   4.900   2.353   0.734
 8038WAT      O32857   3.799   2.563   0.546
 8038WAT     H132858   3.810   2.616   0.615
 8038WAT     H232859   3.833   2.610   0.480
 8038WAT    EPW32860   3.806   2.578   0.546
 8039WAT      O32861   3.621   2.437   0.824
 8039WAT     H132862   3.540   2.408   0.837
 8039WAT     H232863   3.611   2.523   0.815
 8039WAT    EPW32864   3.607   2.445   0.825
 8040WAT      O32865   4.547   1.487   0.749
 8040WAT     H132866   4.619   1.531   0.725
 8040WAT     H232867   4.482   1.533   0.713
 8040WAT    EPW32868   4.548   1.500   0.740
 8041WAT      O32869   4.106   2.211   0.440
 8041WAT     H132870   4.160   2.232   0.506
 8041WAT     H232871   4.027   2.220   0.474
 8041WAT    EPW32872   4.102   2.216   0.455
 8042WAT      O32873   3.736   1.762   0.812
 8042WAT     H132874   3.745   1.683   0.846
 8042WAT     H232875   3.765   1.753   0.730
 8042WAT    EPW32876   3.742   1.749   0.805
 8043WAT      O32877   4.668   1.259   0.498
 8043WAT     H132878   4.642   1.340   0.480
 8043WAT     H232879   4.740   1.270   0.547
 8043WAT    EPW32880   4.675   1.272   0.503
 8044WAT      O32881   3.886   1.356   0.744
 8044WAT     H132882   3.971   1.367   0.730
 8044WAT     H232883   3.879   1.271   0.761
 8044WAT    EPW32884   3.897   1.345   0.744
 8045WAT      O32885   3.869   2.725   0.328
 8045WAT     H132886   3.791   2.735   0.291
 8045WAT     H232887   3.920   2.697   0.263
 8045WAT    EPW32888   3.865   2.723   0.313
 8046WAT      O32889   4.262   2.384   1.054
 8046WAT     H132890   4.339   2.388   1.012
 8046WAT     H232891   4.204   2.397   0.991
 8046WAT    EPW32892   4.265   2.387   1.039
 8047WAT      O32893   4.641   2.680   0.936
 8047WAT     H132894   4.638   2.597   0.910
 8047WAT     H232895   4.686   2.720   0.873
 8047WAT    EPW32896   4.647   2.674   0.923
 8048WAT      O32897   3.647   1.904   0.373
 8048WAT     H132898   3.688   1.898   0.296
 8048WAT     H232899   3.693   1.851   0.425
 8048WAT    EPW32900   3.660   1.895   0.369
 8049WAT      O32901   4.313   1.844   0.875
 8049WAT     H132902   4.239   1.890   0.885
 8049WAT     H232903   4.355   1.857   0.951
 8049WAT    EPW32904   4.308   1.853   0.888
 8050WAT      O32905   4.404   1.891   0.521
 8050WAT     H132906   4.414   1.948   0.587
 8050WAT     H232907   4.381   1.817   0.561
 8050WAT    EPW32908   4.402   1.889   0.537
 8051WAT      O32909   4.155   2.901   0.956
 8051WAT     H132910   4.145   2.909   0.870
 8051WAT     H232911   4.097   2.839   0.978
 8051WAT    EPW32912   4.145   2.893   0.946
 8052WAT      O32913   3.894   1.336   0.359
 8052WAT     H132914   3.844   1.384   0.412
 8052WAT     H232915   3.838   1.298   0.305
 8052WAT    EPW32916   3.879   1.338   0.359
 8053WAT      O32917   4.090   2.412   0.839
 8053WAT     H132918   4.012   2.413   0.879
 8053WAT     H232919   4.098   2.493   0.809
 8053WAT    EPW32920   4.080   2.424   0.841
 8054WAT      O32921   3.140   1.418   0.997
 8054WAT     H132922   3.135   1.491   0.950
 8054WAT     H232923   3.063   1.379   0.981
 8054WAT    EPW32924   3.128   1.423   0.988
 8055WAT      O32925   3.655   3.004   0.355
 8055WAT     H132926   3.664   2.992   0.441
 8055WAT     H232927   3.636   2.924   0.325
 8055WAT    EPW32928   3.654   2.990   0.363
 8056WAT      O32929   4.118   2.669   0.749
 8056WAT     H132930   4.199   2.685   0.777
 8056WAT     H232931   4.127   2.664   0.662
 8056WAT    EPW32932   4.132   2.671   0.740
 8057WAT      O32933   4.925   1.945   0.905
 8057WAT     H132934   4.838   1.954   0.904
 8057WAT     H232935   4.948   1.954   0.822
 8057WAT    EPW32936   4.915   1.948   0.893
 8058WAT      O32937   4.410   2.068   0.736
 8058WAT     H132938   4.375   2.007   0.788
 8058WAT     H232939   4.482   2.092   0.779
 8058WAT    EPW32940   4.415   2.063   0.750
 8059WAT      O32941   3.296   3.051   0.931
 8059WAT     H132942   3.242   2.984   0.922
 8059WAT     H232943   3.246   3.114   0.964
 8059WAT    EPW32944   3.281   3.051   0.935
 8060WAT      O32945   4.179   2.138   1.150
 8060WAT     H132946   4.205   2.219   1.128
 8060WAT     H232947   4.110   2.152   1.202
 8060WAT    EPW32948   4.173   2.152   1.154
 8061WAT      O32949   4.510   2.974   0.314
 8061WAT     H132950   4.473   3.051   0.297
 8061WAT     H232951   4.579   2.994   0.363
 8061WAT    EPW32952   4.515   2.989   0.319
 8062WAT      O32953   4.134   2.647   0.476
 8062WAT     H132954   4.113   2.583   0.420
 8062WAT     H232955   4.219   2.660   0.462
 8062WAT    EPW32956   4.144   2.640   0.466
 8063WAT      O32957   3.494   1.890   0.774
 8063WAT     H132958   3.510   1.951   0.714
 8063WAT     H232959   3.571   1.850   0.784
 8063WAT    EPW32960   3.508   1.893   0.767
 8064WAT      O32961   3.323   1.721   0.642
 8064WAT     H132962   3.339   1.741   0.559
 8064WAT     H232963   3.380   1.769   0.687
 8064WAT    EPW32964   3.333   1.731   0.637
 8065WAT      O32965   3.508   1.396   0.877
 8065WAT     H132966   3.462   1.322   0.881
 8065WAT     H232967   3.497   1.422   0.794
 8065WAT    EPW32968   3.500   1.389   0.865
 8066WAT      O32969   4.702   1.952   0.657
 8066WAT     H132970   4.714   1.868   0.673
 8066WAT     H232971   4.678   1.984   0.735
 8066WAT    EPW32972   4.700   1.945   0.671
 8067WAT      O32973   3.236   2.201   0.659
 8067WAT     H132974   3.279   2.221   0.586
 8067WAT     H232975   3.212   2.118   0.647
 8067WAT    EPW32976   3.239   2.191   0.646
 8068WAT      O32977   4.212   1.478   0.970
 8068WAT     H132978   4.245   1.538   1.023
 8068WAT     H232979   4.139   1.452   1.012
 8068WAT    EPW32980   4.206   1.483   0.984
 8069WAT      O32981   4.631   1.531   0.415
 8069WAT     H132982   4.718   1.527   0.419
 8069WAT     H232983   4.616   1.616   0.403
 8069WAT    EPW32984   4.642   1.543   0.414
 8070WAT      O32985   3.733   2.185   0.759
 8070WAT     H132986   3.699   2.262   0.783
 8070WAT     H232987   3.673   2.152   0.706
 8070WAT    EPW32988   3.719   2.192   0.755
 8071WAT      O32989   3.740   1.475   0.542
 8071WAT     H132990   3.654   1.467   0.557
 8071WAT     H232991   3.777   1.430   0.607
 8071WAT    EPW32992   3.733   1.467   0.553
 8072WAT      O32993   4.885   1.334   0.661
 8072WAT     H132994   4.871   1.318   0.746
 8072WAT     H232995   4.961   1.295   0.646
 8072WAT    EPW32996   4.894   1.326   0.671
 8073WAT      O32997   4.135   1.489   0.412
 8073WAT     H132998   4.069   1.441   0.382
 8073WAT     H232999   4.131   1.478   0.498
 8073WAT    EPW33000   4.125   1.480   0.420
 8074WAT      O33001   4.410   2.691   0.491
 8074WAT     H133002   4.424   2.763   0.538
 8074WAT     H233003   4.454   2.705   0.418
 8074WAT    EPW33004   4.418   2.704   0.487
 8075WAT      O33005   4.381   3.065   0.968
 8075WAT     H133006   4.316   3.009   0.951
 8075WAT     H233007   4.341   3.143   0.969
 8075WAT    EPW33008   4.365   3.068   0.966
 8076WAT      O33009   3.843   1.989   0.932
 8076WAT     H133010   3.809   1.919   0.893
 8076WAT     H233011   3.807   2.056   0.889
 8076WAT    EPW33012   3.832   1.988   0.920
 8077WAT      O33013   4.925   2.453   0.486
 8077WAT     H133014   4.933   2.376   0.446
 8077WAT     H233015   4.850   2.485   0.456
 8077WAT    EPW33016   4.915   2.447   0.476
 8078WAT      O33017   3.809   2.997   0.893
 8078WAT     H133018   3.774   2.985   0.972
 8078WAT     H233019   3.836   2.917   0.871
 8078WAT    EPW33020   3.808   2.983   0.901
 8079WAT      O33021   4.724   2.771   0.532
 8079WAT     H133022   4.790   2.795   0.479
 8079WAT     H233023   4.701   2.693   0.500
 8079WAT    EPW33024   4.731   2.763   0.519
 8080WAT      O33025   3.469   1.479   0.617
 8080WAT     H133026   3.445   1.438   0.544
 8080WAT     H233027   3.418   1.550   0.618
 8080WAT    EPW33028   3.458   1.484   0.606
 8081WAT      O33029   4.389   1.386   0.331
 8081WAT     H133030   4.451   1.444   0.354
 8081WAT     H233031   4.315   1.427   0.351
 8081WAT    EPW33032   4.387   1.401   0.337
 8082WAT      O33033   3.484   2.869   1.037
 8082WAT     H133034   3.550   2.914   1.073
 8082WAT     H233035   3.430   2.931   1.008
 8082WAT    EPW33036   3.486   2.885   1.038
 8083WAT      O33037   3.315   2.636   0.766
 8083WAT     H133038   3.263   2.694   0.805
 8083WAT     H233039   3.395   2.669   0.778
 8083WAT    EPW33040   3.319   2.649   0.773
 8084WAT      O33041   4.771   2.287   1.000
 8084WAT     H133042   4.837   2.245   1.040
 8084WAT     H233043   4.808   2.321   0.929
 8084WAT    EPW33044   4.786   2.286   0.996
 8085WAT      O33045   4.797   1.725   1.107
 8085WAT     H133046   4.787   1.801   1.149
 8085WAT     H233047   4.716   1.708   1.078
 8085WAT    EPW33048   4.783   1.734   1.109
 8086WAT      O33049   4.888   1.813   0.435
 8086WAT     H133050   4.803   1.819   0.416
 8086WAT     H233051   4.900   1.727   0.446
 8086WAT    EPW33052   4.877   1.801   0.434
 8087WAT      O33053   3.761   1.502   0.936
 8087WAT     H133054   3.805   1.465   0.870
 8087WAT     H233055   3.681   1.468   0.930
 8087WAT    EPW33056   3.756   1.492   0.925
 8088WAT      O33057   4.600   2.332   1.226
 8088WAT     H133058   4.664   2.354   1.280
 8088WAT     H233059   4.638   2.331   1.148
 8088WAT    EPW33060   4.615   2.335   1.223
 8089WAT      O33061   3.598   2.743   0.251
 8089WAT     H133062   3.574   2.670   0.291
 8089WAT     H233063   3.556   2.740   0.174
 8089WAT    EPW33064   3.588   2.732   0.245
 8090WAT      O33065   3.245   3.097   0.660
 8090WAT     H133066   3.268   3.082   0.742
 8090WAT     H233067   3.284   3.033   0.615
 8090WAT    EPW33068   3.254   3.085   0.666
 8091WAT      O33069   3.248   0.584   7.440
 8091WAT     H133070   3.238   0.607   7.523
 8091WAT     H233071   3.223   0.500   7.438
 8091WAT    EPW33072   3.243   0.575   7.452
 8092WAT      O33073   4.824   0.944   7.189
 8092WAT     H133074   4.884   0.888   7.219
 8092WAT     H233075   4.774   0.896   7.137
 8092WAT    EPW33076   4.826   0.929   7.186
 8093WAT      O33077   3.435   0.534   6.997
 8093WAT     H133078   3.404   0.484   6.932
 8093WAT     H233079   3.442   0.478   7.064
 8093WAT    EPW33080   3.431   0.518   6.998
 8094WAT      O33081   4.534   0.225   7.485
 8094WAT     H133082   4.559   0.239   7.403
 8094WAT     H233083   4.512   0.141   7.486
 8094WAT    EPW33084   4.534   0.214   7.473
 8095WAT      O33085   3.473   0.752   7.394
 8095WAT     H133086   3.534   0.754   7.457
 8095WAT     H233087   3.421   0.686   7.419
 8095WAT    EPW33088   3.474   0.742   7.407
 8096WAT      O33089   3.346   1.018   7.023
 8096WAT     H133090   3.362   1.018   6.937
 8096WAT     H233091   3.369   0.937   7.047
 8096WAT    EPW33092   3.351   1.006   7.014
 8097WAT      O33093   3.353   0.278   7.577
 8097WAT     H133094   3.310   0.268   7.502
 8097WAT     H233095   3.364   0.197   7.606
 8097WAT    EPW33096   3.348   0.265   7.570
 8098WAT      O33097   3.931   0.722   7.653
 8098WAT     H133098   3.972   0.651   7.681
 8098WAT     H233099   3.993   0.784   7.653
 8098WAT    EPW33100   3.946   0.721   7.657
 8099WAT      O33101   4.049   0.666   7.317
 8099WAT     H133102   4.076   0.595   7.360
 8099WAT     H233103   4.069   0.649   7.234
 8099WAT    EPW33104   4.056   0.653   7.311
 8100WAT      O33105   3.197   1.070   7.615
 8100WAT     H133106   3.124   1.110   7.587
 8100WAT     H233107   3.231   1.037   7.542
 8100WAT    EPW33108   3.191   1.071   7.600
 8101WAT      O33109   3.784   0.737   7.327
 8101WAT     H133110   3.767   0.761   7.409
 8101WAT     H233111   3.868   0.716   7.329
 8101WAT    EPW33112   3.794   0.738   7.339
 8102WAT      O33113   4.410   1.054   7.084
 8102WAT     H133114   4.479   1.106   7.094
 8102WAT     H233115   4.436   0.977   7.114
 8102WAT    EPW33116   4.424   1.050   7.090
 8103WAT      O33117   4.197   1.070   7.255
 8103WAT     H133118   4.210   1.141   7.303
 8103WAT     H233119   4.264   1.072   7.199
 8103WAT    EPW33120   4.209   1.081   7.254
 8104WAT      O33121   3.317   0.978   7.381
 8104WAT     H133122   3.373   0.912   7.396
 8104WAT     H233123   3.366   1.036   7.337
 8104WAT    EPW33124   3.333   0.977   7.376
 8105WAT      O33125   3.523   0.710   7.772
 8105WAT     H133126   3.570   0.762   7.721
 8105WAT     H233127   3.539   0.630   7.741
 8105WAT    EPW33128   3.532   0.706   7.760
 8106WAT      O33129   3.793   1.068   7.539
 8106WAT     H133130   3.867   1.112   7.552
 8106WAT     H233131   3.734   1.131   7.527
 8106WAT    EPW33132   3.795   1.084   7.539
 8107WAT      O33133   4.609   1.250   7.074
 8107WAT     H133134   4.654   1.226   7.003
 8107WAT     H233135   4.665   1.300   7.118
 8107WAT    EPW33136   4.624   1.254   7.070
 8108WAT      O33137   4.080   0.878   6.905
 8108WAT     H133138   4.045   0.934   6.962
 8108WAT     H233139   4.154   0.918   6.880
 8108WAT    EPW33140   4.085   0.892   6.910
 8109WAT      O33141   4.867   1.188   7.482
 8109WAT     H133142   4.826   1.265   7.480
 8109WAT     H233143   4.805   1.132   7.457
 8109WAT    EPW33144   4.852   1.191   7.478
 8110WAT      O33145   4.577   0.791   7.492
 8110WAT     H133146   4.648   0.740   7.486
 8110WAT     H233147   4.512   0.733   7.502
 8110WAT    EPW33148   4.578   0.775   7.493
 8111WAT      O33149   4.790   0.547   7.037
 8111WAT     H133150   4.804   0.512   7.116
 8111WAT     H233151   4.871   0.566   7.010
 8111WAT    EPW33152   4.804   0.544   7.045
 8112WAT      O33153   3.544   0.487   7.600
 8112WAT     H133154   3.591   0.480   7.526
 8112WAT     H233155   3.489   0.419   7.595
 8112WAT    EPW33156   3.543   0.476   7.588
 8113WAT      O33157   3.450   1.106   7.731
 8113WAT     H133158   3.369   1.103   7.698
 8113WAT     H233159   3.496   1.146   7.668
 8113WAT    EPW33160   3.444   1.112   7.717
 8114WAT      O33161   4.548   0.138   6.962
 8114WAT     H133162   4.569   0.214   6.924
 8114WAT     H233163   4.471   0.155   6.999
 8114WAT    EPW33164   4.540   0.152   6.962
 8115WAT      O33165   3.669   0.482   7.342
 8115WAT     H133166   3.698   0.563   7.331
 8115WAT     H233167   3.735   0.433   7.311
 8115WAT    EPW33168   3.683   0.486   7.336
 8116WAT      O33169   3.257   0.667   7.707
 8116WAT     H133170   3.217   0.735   7.745
 8116WAT     H233171   3.341   0.681   7.725
 8116WAT    EPW33172   3.263   0.679   7.715
 8117WAT      O33173   3.215   0.289   7.327
 8117WAT     H133174   3.208   0.205   7.303
 8117WAT     H233175   3.287   0.316   7.285
 8117WAT    EPW33176   3.225   0.280   7.318
 8118WAT      O33177   4.138   0.918   7.645
 8118WAT     H133178   4.108   1.000   7.637
 8118WAT     H233179   4.174   0.902   7.567
 8118WAT    EPW33180   4.139   0.928   7.632
 8119WAT      O33181   3.160   0.781   7.257
 8119WAT     H133182   3.209   0.845   7.290
 8119WAT     H233183   3.169   0.717   7.316
 8119WAT    EPW33184   3.169   0.781   7.271
 8120WAT      O33185   3.174   0.675   6.999
 8120WAT     H133186   3.249   0.629   6.996
 8120WAT     H233187   3.174   0.710   7.078
 8120WAT    EPW33188   3.185   0.673   7.010
 8121WAT      O33189   3.179   0.405   7.756
 8121WAT     H133190   3.233   0.357   7.707
 8121WAT     H233191   3.213   0.485   7.751
 8121WAT    EPW33192   3.192   0.410   7.748
 8122WAT      O33193   3.689   0.817   7.576
 8122WAT     H133194   3.712   0.901   7.569
 8122WAT     H233195   3.759   0.779   7.611
 8122WAT    EPW33196   3.702   0.824   7.580
 8123WAT      O33197   3.381   0.026   7.691
 8123WAT     H133198   3.409   0.030   7.774
 8123WAT     H233199   3.379  -0.059   7.674
 8123WAT    EPW33200   3.384   0.014   7.701
 8124WAT      O33201   4.326   0.256   7.103
 8124WAT     H133202   4.283   0.281   7.032
 8124WAT     H233203   4.264   0.249   7.163
 8124WAT    EPW33204   4.310   0.259   7.101
 8125WAT      O33205   4.796   0.623   7.478
 8125WAT     H133206   4.803   0.579   7.554
 8125WAT     H233207   4.806   0.561   7.418
 8125WAT    EPW33208   4.799   0.607   7.481
 8126WAT      O33209   4.269   0.708   7.774
 8126WAT     H133210   4.232   0.782   7.746
 8126WAT     H233211   4.318   0.733   7.841
 8126WAT    EPW33212   4.271   0.722   7.779
 8127WAT      O33213   3.741   0.986   7.214
 8127WAT     H133214   3.757   0.911   7.256
 8127WAT     H233215   3.821   1.014   7.191
 8127WAT    EPW33216   3.755   0.979   7.217
 8128WAT      O33217   3.979   1.054   7.093
 8128WAT     H133218   4.046   1.057   7.148
 8128WAT     H233219   3.974   1.135   7.062
 8128WAT    EPW33220   3.988   1.066   7.097
 8129WAT      O33221   3.463   0.354   7.208
 8129WAT     H133222   3.508   0.285   7.179
 8129WAT     H233223   3.520   0.397   7.257
 8129WAT    EPW33224   3.478   0.350   7.211
 8130WAT      O33225   4.121   0.245   7.300
 8130WAT     H133226   4.137   0.312   7.354
 8130WAT     H233227   4.117   0.176   7.354
 8130WAT    EPW33228   4.123   0.245   7.316
 8131WAT      O33229   4.082   0.503   7.741
 8131WAT     H133230   4.062   0.465   7.817
 8131WAT     H233231   4.148   0.557   7.762
 8131WAT    EPW33232   4.089   0.505   7.755
 8132WAT      O33233   3.667   1.111   6.840
 8132WAT     H133234   3.683   1.034   6.877
 8132WAT     H233235   3.673   1.168   6.906
 8132WAT    EPW33236   3.670   1.108   6.855
 8133WAT      O33237   4.980   1.119   7.046
 8133WAT     H133238   5.043   1.069   7.011
 8133WAT     H233239   4.931   1.062   7.090
 8133WAT    EPW33240   4.982   1.103   7.047
 8134WAT      O33241   3.487   0.138   6.793
 8134WAT     H133242   3.474   0.056   6.817
 8134WAT     H233243   3.570   0.138   6.764
 8134WAT    EPW33244   3.497   0.126   6.792
 8135WAT      O33245   4.810   0.500   7.731
 8135WAT     H133246   4.818   0.565   7.788
 8135WAT     H233247   4.886   0.457   7.739
 8135WAT    EPW33248   4.823   0.503   7.740
 8136WAT      O33249   5.055   0.893   7.841
 8136WAT     H133250   5.057   0.951   7.776
 8136WAT     H233251   5.127   0.911   7.887
 8136WAT    EPW33252   5.066   0.904   7.838
 8137WAT      O33253   4.663   0.790   7.033
 8137WAT     H133254   4.699   0.711   7.033
 8137WAT     H233255   4.591   0.780   7.081
 8137WAT    EPW33256   4.658   0.777   7.040
 8138WAT      O33257   4.376   0.583   6.980
 8138WAT     H133258   4.441   0.525   6.979
 8138WAT     H233259   4.349   0.585   6.897
 8138WAT    EPW33260   4.382   0.575   6.968
 8139WAT      O33261   4.046   1.193   7.586
 8139WAT     H133262   4.020   1.268   7.621
 8139WAT     H233263   4.108   1.218   7.529
 8139WAT    EPW33264   4.052   1.208   7.583
 8140WAT      O33265   3.934   0.446   6.967
 8140WAT     H133266   3.862   0.489   6.940
 8140WAT     H233267   3.987   0.510   6.993
 8140WAT    EPW33268   3.931   0.462   6.967
 8141WAT      O33269   4.832   0.422   7.285
 8141WAT     H133270   4.903   0.372   7.291
 8141WAT     H233271   4.767   0.364   7.272
 8141WAT    EPW33272   4.833   0.406   7.284
 8142WAT      O33273   4.391   0.587   7.552
 8142WAT     H133274   4.354   0.631   7.618
 8142WAT     H233275   4.443   0.530   7.592
 8142WAT    EPW33276   4.393   0.585   7.568
 8143WAT      O33277   4.158   0.459   7.471
 8143WAT     H133278   4.122   0.460   7.551
 8143WAT     H233279   4.238   0.492   7.484
 8143WAT    EPW33280   4.164   0.464   7.485
 8144WAT      O33281   4.545   1.197   7.723
 8144WAT     H133282   4.488   1.153   7.771
 8144WAT     H233283   4.619   1.153   7.733
 8144WAT    EPW33284   4.548   1.184   7.731
 8145WAT      O33285   4.242   0.843   7.400
 8145WAT     H133286   4.228   0.914   7.352
 8145WAT     H233287   4.179   0.788   7.375
 8145WAT    EPW33288   4.231   0.845   7.389
 8146WAT      O33289   3.688   0.865   6.969
 8146WAT     H133290   3.734   0.896   7.037
 8146WAT     H233291   3.611   0.845   7.004
 8146WAT    EPW33292   3.683   0.867   6.985
 8147WAT      O33293   4.546   0.410   7.694
 8147WAT     H133294   4.630   0.430   7.707
 8147WAT     H233295   4.549   0.346   7.635
 8147WAT    EPW33296   4.559   0.404   7.687
 8148WAT      O33297   4.653   1.034   7.385
 8148WAT     H133298   4.623   0.960   7.422
 8148WAT     H233299   4.701   1.006   7.318
 8148WAT    EPW33300   4.656   1.019   7.381
 8149WAT      O33301   3.466   0.785   7.113
 8149WAT     H133302   3.477   0.772   7.199
 8149WAT     H233303   3.454   0.704   7.082
 8149WAT    EPW33304   3.466   0.771   7.121
 8150WAT      O33305   3.711   0.598   6.893
 8150WAT     H133306   3.631   0.572   6.917
 8150WAT     H233307   3.713   0.682   6.917
 8150WAT    EPW33308   3.700   0.607   6.900
 8151WAT      O33309   4.600   0.267   7.215
 8151WAT     H133310   4.617   0.212   7.149
 8151WAT     H233311   4.521   0.299   7.194
 8151WAT    EPW33312   4.591   0.263   7.202
 8152WAT      O33313   3.506   1.128   7.227
 8152WAT     H133314   3.459   1.104   7.157
 8152WAT     H233315   3.575   1.075   7.224
 8152WAT    EPW33316   3.509   1.117   7.216
 8153WAT      O33317   3.866   0.333   7.212
 8153WAT     H133318   3.884   0.364   7.133
 8153WAT     H233319   3.942   0.300   7.239
 8153WAT    EPW33320   3.880   0.332   7.205
 8154WAT      O33321   4.774   1.180   6.866
 8154WAT     H133322   4.845   1.165   6.915
 8154WAT     H233323   4.750   1.100   6.839
 8154WAT    EPW33324   4.781   1.166   6.869
 8155WAT      O33325   4.427   0.790   7.175
 8155WAT     H133326   4.391   0.782   7.254
 8155WAT     H233327   4.393   0.722   7.131
 8155WAT    EPW33328   4.417   0.779   7.180
 8156WAT      O33329   3.436   0.928   7.953
 8156WAT     H133330   3.467   0.856   7.915
 8156WAT     H233331   3.453   0.990   7.895
 8156WAT    EPW33332   3.443   0.926   7.939
 8157WAT      O33333   4.112   0.640   7.049
 8157WAT     H133334   4.193   0.613   7.030
 8157WAT     H233335   4.103   0.713   7.002
 8157WAT    EPW33336   4.123   0.647   7.039
 8158WAT      O33337   3.225   0.566   5.524
 8158WAT     H133338   3.221   0.596   5.606
 8158WAT     H233339   3.238   0.481   5.534
 8158WAT    EPW33340   3.226   0.558   5.537
 8159WAT      O33341   4.817   0.961   5.316
 8159WAT     H133342   4.879   0.906   5.342
 8159WAT     H233343   4.771   0.914   5.258
 8159WAT    EPW33344   4.819   0.946   5.312
 8160WAT      O33345   3.450   0.527   5.093
 8160WAT     H133346   3.418   0.481   5.026
 8160WAT     H233347   3.462   0.468   5.155
 8160WAT    EPW33348   3.447   0.512   5.092
 8161WAT      O33349   4.512   0.290   5.627
 8161WAT     H133350   4.537   0.277   5.544
 8161WAT     H233351   4.463   0.219   5.644
 8161WAT    EPW33352   4.508   0.277   5.617
 8162WAT      O33353   3.457   0.708   5.476
 8162WAT     H133354   3.508   0.674   5.538
 8162WAT     H233355   3.384   0.661   5.481
 8162WAT    EPW33356   3.454   0.696   5.486
 8163WAT      O33357   3.290   0.938   5.045
 8163WAT     H133358   3.345   0.959   4.981
 8163WAT     H233359   3.338   0.890   5.099
 8163WAT    EPW33360   3.305   0.934   5.044
 8164WAT      O33361   3.234   0.795   6.184
 8164WAT     H133362   3.253   0.780   6.268
 8164WAT     H233363   3.165   0.743   6.169
 8164WAT    EPW33364   3.226   0.785   6.194
 8165WAT      O33365   3.841   0.643   6.643
 8165WAT     H133366   3.811   0.623   6.722
 8165WAT     H233367   3.772   0.634   6.591
 8165WAT    EPW33368   3.827   0.639   6.647
 8166WAT      O33369   3.367   0.344   5.735
 8166WAT     H133370   3.354   0.302   5.660
 8166WAT     H233371   3.423   0.293   5.778
 8166WAT    EPW33372   3.374   0.331   5.730
 8167WAT      O33373   3.860   0.942   6.358
 8167WAT     H133374   3.878   1.002   6.298
 8167WAT     H233375   3.939   0.911   6.380
 8167WAT    EPW33376   3.874   0.946   6.353
 8168WAT      O33377   3.976   0.740   5.783
 8168WAT     H133378   4.001   0.662   5.811
 8168WAT     H233379   4.050   0.785   5.778
 8168WAT    EPW33380   3.990   0.735   5.786
 8169WAT      O33381   4.074   0.700   5.437
 8169WAT     H133382   4.097   0.628   5.480
 8169WAT     H233383   4.090   0.680   5.353
 8169WAT    EPW33384   4.080   0.686   5.431
 8170WAT      O33385   3.192   1.051   5.711
 8170WAT     H133386   3.126   1.094   5.672
 8170WAT     H233387   3.235   1.015   5.644
 8170WAT    EPW33388   3.188   1.052   5.695
 8171WAT      O33389   3.801   0.710   5.436
 8171WAT     H133390   3.775   0.741   5.514
 8171WAT     H233391   3.887   0.705   5.444
 8171WAT    EPW33392   3.810   0.714   5.449
 8172WAT      O33393   4.393   1.072   5.198
 8172WAT     H133394   4.462   1.125   5.199
 8172WAT     H233395   4.426   0.995   5.221
 8172WAT    EPW33396   4.408   1.068   5.202
 8173WAT      O33397   4.229   1.130   5.411
 8173WAT     H133398   4.250   1.210   5.438
 8173WAT     H233399   4.283   1.118   5.343
 8173WAT    EPW33400   4.240   1.140   5.405
 8174WAT      O33401   3.341   0.959   5.490
 8174WAT     H133402   3.389   0.887   5.502
 8174WAT     H233403   3.393   1.012   5.445
 8174WAT    EPW33404   3.356   0.956   5.485
 8175WAT      O33405   4.431   1.108   6.223
 8175WAT     H133406   4.503   1.156   6.216
 8175WAT     H233407   4.414   1.084   6.140
 8175WAT    EPW33408   4.439   1.112   6.209
 8176WAT      O33409   3.497   0.804   5.835
 8176WAT     H133410   3.562   0.799   5.777
 8176WAT     H233411   3.515   0.741   5.892
 8176WAT    EPW33412   3.509   0.794   5.835
 8177WAT      O33413   3.798   1.073   5.750
 8177WAT     H133414   3.873   1.095   5.713
 8177WAT     H233415   3.741   1.129   5.715
 8177WAT    EPW33416   3.800   1.084   5.739
 8178WAT      O33417   4.596   1.263   5.176
 8178WAT     H133418   4.649   1.241   5.111
 8178WAT     H233419   4.649   1.305   5.232
 8178WAT    EPW33420   4.612   1.266   5.175
 8179WAT      O33421   3.614   1.185   6.322
 8179WAT     H133422   3.657   1.153   6.391
 8179WAT     H233423   3.551   1.126   6.308
 8179WAT    EPW33424   3.611   1.171   6.330
 8180WAT      O33425   4.324   0.860   6.590
 8180WAT     H133426   4.322   0.896   6.669
 8180WAT     H233427   4.409   0.842   6.579
 8180WAT    EPW33428   4.337   0.862   6.600
 8181WAT      O33429   4.083   0.898   5.023
 8181WAT     H133430   4.062   0.951   5.090
 8181WAT     H233431   4.157   0.933   4.992
 8181WAT    EPW33432   4.091   0.911   5.028
 8182WAT      O33433   3.391   1.032   6.217
 8182WAT     H133434   3.343   0.960   6.213
 8182WAT     H233435   3.431   1.036   6.140
 8182WAT    EPW33436   3.390   1.022   6.205
 8183WAT      O33437   4.180   1.178   6.318
 8183WAT     H133438   4.259   1.157   6.288
 8183WAT     H233439   4.127   1.153   6.253
 8183WAT    EPW33440   4.184   1.171   6.304
 8184WAT      O33441   4.896   1.177   5.597
 8184WAT     H133442   4.860   1.255   5.611
 8184WAT     H233443   4.827   1.126   5.582
 8184WAT    EPW33444   4.880   1.181   5.597
 8185WAT      O33445   4.586   0.787   5.635
 8185WAT     H133446   4.655   0.746   5.600
 8185WAT     H233447   4.521   0.731   5.625
 8185WAT    EPW33448   4.587   0.773   5.628
 8186WAT      O33449   3.533   0.897   6.540
 8186WAT     H133450   3.600   0.951   6.529
 8186WAT     H233451   3.494   0.926   6.612
 8186WAT    EPW33452   3.537   0.909   6.549
 8187WAT      O33453   3.765   0.425   5.921
 8187WAT     H133454   3.783   0.426   6.007
 8187WAT     H233455   3.705   0.362   5.914
 8187WAT    EPW33456   3.759   0.416   5.933
 8188WAT      O33457   3.824   0.472   6.188
 8188WAT     H133458   3.811   0.558   6.192
 8188WAT     H233459   3.761   0.439   6.238
 8188WAT    EPW33460   3.813   0.480   6.196
 8189WAT      O33461   4.425   0.567   6.196
 8189WAT     H133462   4.373   0.524   6.251
 8189WAT     H233463   4.408   0.651   6.213
 8189WAT    EPW33464   4.415   0.573   6.206
 8190WAT      O33465   3.077   0.811   6.768
 8190WAT     H133466   3.117   0.784   6.841
 8190WAT     H233467   3.051   0.737   6.731
 8190WAT    EPW33468   3.079   0.796   6.774
 8191WAT      O33469   4.778   0.557   5.131
 8191WAT     H133470   4.780   0.522   5.210
 8191WAT     H233471   4.862   0.571   5.112
 8191WAT    EPW33472   4.791   0.554   5.140
 8192WAT      O33473   3.561   0.539   5.674
 8192WAT     H133474   3.613   0.495   5.620
 8192WAT     H233475   3.500   0.480   5.696
 8192WAT    EPW33476   3.559   0.524   5.669
 8193WAT      O33477   3.391   1.220   5.797
 8193WAT     H133478   3.323   1.174   5.766
 8193WAT     H233479   3.450   1.216   5.733
 8193WAT    EPW33480   3.390   1.212   5.783
 8194WAT      O33481   4.998   0.975   6.527
 8194WAT     H133482   4.921   0.975   6.485
 8194WAT     H233483   4.979   0.934   6.603
 8194WAT    EPW33484   4.984   0.969   6.532
 8195WAT      O33485   4.533   0.138   5.064
 8195WAT     H133486   4.558   0.214   5.029
 8195WAT     H233487   4.457   0.156   5.101
 8195WAT    EPW33488   4.526   0.152   5.064
 8196WAT      O33489   3.701   0.451   5.446
 8196WAT     H133490   3.731   0.533   5.435
 8196WAT     H233491   3.762   0.402   5.408
 8196WAT    EPW33492   3.715   0.456   5.439
 8197WAT      O33493   3.243   0.713   5.767
 8197WAT     H133494   3.192   0.771   5.807
 8197WAT     H233495   3.324   0.743   5.781
 8197WAT    EPW33496   3.247   0.726   5.775
 8198WAT      O33497   3.296   0.276   5.474
 8198WAT     H133498   3.275   0.194   5.452
 8198WAT     H233499   3.356   0.298   5.415
 8198WAT    EPW33500   3.302   0.267   5.462
 8199WAT      O33501   4.193   0.917   5.761
 8199WAT     H133502   4.150   0.989   5.738
 8199WAT     H233503   4.237   0.895   5.689
 8199WAT    EPW33504   4.193   0.924   5.747
 8200WAT      O33505   3.156   0.789   5.360
 8200WAT     H133506   3.212   0.845   5.397
 8200WAT     H233507   3.150   0.724   5.419
 8200WAT    EPW33508   3.163   0.788   5.374
 8201WAT      O33509   3.572   0.610   6.015
 8201WAT     H133510   3.622   0.654   6.072
 8201WAT     H233511   3.630   0.566   5.968
 8201WAT    EPW33512   3.588   0.610   6.017
 8202WAT      O33513   3.171   0.626   5.129
 8202WAT     H133514   3.253   0.598   5.120
 8202WAT     H233515   3.175   0.682   5.196
 8202WAT    EPW33516   3.184   0.630   5.138
 8203WAT      O33517   3.188   0.480   5.899
 8203WAT     H133518   3.230   0.426   5.845
 8203WAT     H233519   3.210   0.559   5.870
 8203WAT    EPW33520   3.198   0.484   5.887
 8204WAT      O33521   4.743   0.981   6.393
 8204WAT     H133522   4.702   1.058   6.401
 8204WAT     H233523   4.744   0.968   6.306
 8204WAT    EPW33524   4.737   0.991   6.381
 8205WAT      O33525   3.730   0.817   5.678
 8205WAT     H133526   3.744   0.902   5.691
 8205WAT     H233527   3.798   0.778   5.717
 8205WAT    EPW33528   3.742   0.823   5.686
 8206WAT      O33529   3.545   0.246   5.931
 8206WAT     H133530   3.496   0.291   5.988
 8206WAT     H233531   3.562   0.171   5.973
 8206WAT    EPW33532   3.540   0.242   5.946
 8207WAT      O33533   3.961   1.118   6.150
 8207WAT     H133534   3.946   1.049   6.099
 8207WAT     H233535   3.948   1.186   6.097
 8207WAT    EPW33536   3.957   1.118   6.135
 8208WAT      O33537   3.333   0.372   6.802
 8208WAT     H133538   3.344   0.414   6.726
 8208WAT     H233539   3.380   0.299   6.791
 8208WAT    EPW33540   3.341   0.367   6.789
 8209WAT      O33541   4.548   0.531   6.626
 8209WAT     H133542   4.574   0.613   6.609
 8209WAT     H233543   4.587   0.484   6.564
 8209WAT    EPW33544   4.557   0.536   6.614
 8210WAT      O33545   3.938   0.909   6.667
 8210WAT     H133546   3.978   0.899   6.744
 8210WAT     H233547   3.905   0.830   6.651
 8210WAT    EPW33548   3.939   0.896   6.676
 8211WAT      O33549   4.315   0.258   5.212
 8211WAT     H133550   4.273   0.287   5.141
 8211WAT     H233551   4.252   0.252   5.272
 8211WAT    EPW33552   4.299   0.261   5.211
 8212WAT      O33553   4.810   0.658   5.546
 8212WAT     H133554   4.826   0.621   5.623
 8212WAT     H233555   4.799   0.590   5.492
 8212WAT    EPW33556   4.811   0.642   5.549
 8213WAT      O33557   4.363   0.980   5.975
 8213WAT     H133558   4.308   0.957   5.911
 8213WAT     H233559   4.412   1.042   5.938
 8213WAT    EPW33560   4.362   0.986   5.960
 8214WAT      O33561   4.378   0.618   5.923
 8214WAT     H133562   4.302   0.657   5.939
 8214WAT     H233563   4.395   0.576   5.998
 8214WAT    EPW33564   4.369   0.617   5.937
 8215WAT      O33565   3.783   0.962   5.329
 8215WAT     H133566   3.796   0.883   5.364
 8215WAT     H233567   3.863   0.991   5.314
 8215WAT    EPW33568   3.796   0.955   5.332
 8216WAT      O33569   4.021   1.066   5.237
 8216WAT     H133570   4.084   1.090   5.292
 8216WAT     H233571   4.003   1.139   5.193
 8216WAT    EPW33572   4.028   1.080   5.238
 8217WAT      O33573   4.686   0.395   6.423
 8217WAT     H133574   4.675   0.398   6.337
 8217WAT     H233575   4.768   0.419   6.435
 8217WAT    EPW33576   4.696   0.399   6.412
 8218WAT      O33577   4.314   1.010   6.828
 8218WAT     H133578   4.352   1.025   6.905
 8218WAT     H233579   4.339   1.077   6.779
 8218WAT    EPW33580   4.323   1.022   6.832
 8219WAT      O33581   3.500   0.341   5.294
 8219WAT     H133582   3.545   0.274   5.259
 8219WAT     H233583   3.560   0.381   5.344
 8219WAT    EPW33584   3.516   0.337   5.296
 8220WAT      O33585   4.241   0.432   6.358
 8220WAT     H133586   4.191   0.480   6.411
 8220WAT     H233587   4.278   0.374   6.412
 8220WAT    EPW33588   4.239   0.430   6.374
 8221WAT      O33589   4.121   0.254   5.420
 8221WAT     H133590   4.133   0.325   5.469
 8221WAT     H233591   4.112   0.190   5.479
 8221WAT    EPW33592   4.122   0.255   5.436
 8222WAT      O33593   4.630   0.748   5.909
 8222WAT     H133594   4.624   0.777   5.827
 8222WAT     H233595   4.553   0.711   5.924
 8222WAT    EPW33596   4.618   0.747   5.899
 8223WAT      O33597   4.029   0.467   5.835
 8223WAT     H133598   3.945   0.448   5.848
 8223WAT     H233599   4.065   0.450   5.913
 8223WAT    EPW33600   4.022   0.462   5.849
 8224WAT      O33601   3.661   1.136   4.976
 8224WAT     H133602   3.679   1.057   5.008
 8224WAT     H233603   3.664   1.188   5.047
 8224WAT    EPW33604   3.664   1.132   4.991
 8225WAT      O33605   3.384   0.418   6.084
 8225WAT     H133606   3.440   0.484   6.074
 8225WAT     H233607   3.316   0.440   6.033
 8225WAT    EPW33608   3.382   0.431   6.075
 8226WAT      O33609   4.976   1.124   5.163
 8226WAT     H133610   5.036   1.070   5.130
 8226WAT     H233611   4.925   1.071   5.210
 8226WAT    EPW33612   4.977   1.108   5.165
 8227WAT      O33613   4.672   0.453   6.144
 8227WAT     H133614   4.661   0.412   6.068
 8227WAT     H233615   4.595   0.492   6.158
 8227WAT    EPW33616   4.659   0.453   6.135
 8228WAT      O33617   3.515   0.150   4.902
 8228WAT     H133618   3.489   0.068   4.914
 8228WAT     H233619   3.602   0.145   4.900
 8228WAT    EPW33620   3.524   0.137   4.903
 8229WAT      O33621   3.353   0.528   6.570
 8229WAT     H133622   3.336   0.478   6.500
 8229WAT     H233623   3.315   0.604   6.550
 8229WAT    EPW33624   3.345   0.532   6.557
 8230WAT      O33625   4.821   0.555   5.806
 8230WAT     H133626   4.786   0.617   5.857
 8230WAT     H233627   4.894   0.533   5.849
 8230WAT    EPW33628   4.826   0.561   5.820
 8231WAT      O33629   5.002   0.886   5.949
 8231WAT     H133630   5.032   0.950   5.896
 8231WAT     H233631   5.065   0.880   6.010
 8231WAT    EPW33632   5.016   0.895   5.950
 8232WAT      O33633   4.675   0.811   5.138
 8232WAT     H133634   4.707   0.730   5.133
 8232WAT     H233635   4.600   0.801   5.182
 8232WAT    EPW33636   4.669   0.798   5.143
 8233WAT      O33637   4.944   0.345   6.820
 8233WAT     H133638   4.926   0.261   6.807
 8233WAT     H233639   5.031   0.347   6.825
 8233WAT    EPW33640   4.954   0.333   6.819
 8234WAT      O33641   4.946   0.502   6.421
 8234WAT     H133642   5.018   0.462   6.394
 8234WAT     H233643   4.926   0.556   6.355
 8234WAT    EPW33644   4.953   0.504   6.408
 8235WAT      O33645   4.377   0.594   5.086
 8235WAT     H133646   4.440   0.533   5.084
 8235WAT     H233647   4.349   0.597   5.003
 8235WAT    EPW33648   4.382   0.585   5.073
 8236WAT      O33649   3.764   0.746   6.173
 8236WAT     H133650   3.777   0.795   6.244
 8236WAT     H233651   3.797   0.795   6.108
 8236WAT    EPW33652   3.771   0.761   6.174
 8237WAT      O33653   3.602   0.628   6.504
 8237WAT     H133654   3.529   0.596   6.540
 8237WAT     H233655   3.589   0.715   6.505
 8237WAT    EPW33656   3.589   0.636   6.510
 8238WAT      O33657   4.091   0.446   6.117
 8238WAT     H133658   4.140   0.426   6.187
 8238WAT     H233659   4.010   0.444   6.148
 8238WAT    EPW33660   4.086   0.443   6.132
 8239WAT      O33661   4.055   1.136   5.647
 8239WAT     H133662   4.040   1.220   5.666
 8239WAT     H233663   4.099   1.140   5.572
 8239WAT    EPW33664   4.059   1.149   5.639
 8240WAT      O33665   3.874   0.916   5.979
 8240WAT     H133666   3.837   0.967   5.919
 8240WAT     H233667   3.921   0.859   5.933
 8240WAT    EPW33668   3.875   0.915   5.964
 8241WAT      O33669   4.284   0.533   6.721
 8241WAT     H133670   4.362   0.533   6.682
 8241WAT     H233671   4.231   0.569   6.662
 8241WAT    EPW33672   4.288   0.539   6.706
 8242WAT      O33673   4.598   0.809   6.567
 8242WAT     H133674   4.628   0.843   6.641
 8242WAT     H233675   4.642   0.851   6.505
 8242WAT    EPW33676   4.609   0.820   6.569
 8243WAT      O33677   3.938   0.468   5.084
 8243WAT     H133678   3.867   0.511   5.057
 8243WAT     H233679   3.991   0.531   5.113
 8243WAT    EPW33680   3.936   0.483   5.084
 8244WAT      O33681   4.095   1.127   6.579
 8244WAT     H133682   4.108   1.127   6.493
 8244WAT     H233683   4.053   1.051   6.593
 8244WAT    EPW33684   4.091   1.116   6.568
 8245WAT      O33685   4.777   0.434   5.380
 8245WAT     H133686   4.846   0.382   5.388
 8245WAT     H233687   4.710   0.379   5.371
 8245WAT    EPW33688   4.777   0.418   5.380
 8246WAT      O33689   4.093   0.600   6.522
 8246WAT     H133690   4.015   0.601   6.561
 8246WAT     H233691   4.099   0.679   6.485
 8246WAT    EPW33692   4.082   0.612   6.523
 8247WAT      O33693   3.645   1.275   6.057
 8247WAT     H133694   3.641   1.262   6.143
 8247WAT     H233695   3.618   1.199   6.024
 8247WAT    EPW33696   3.641   1.262   6.065
 8248WAT      O33697   4.410   0.555   5.654
 8248WAT     H133698   4.404   0.569   5.740
 8248WAT     H233699   4.452   0.478   5.649
 8248WAT    EPW33700   4.416   0.545   5.666
 8249WAT      O33701   4.154   0.477   5.583
 8249WAT     H133702   4.114   0.472   5.660
 8249WAT     H233703   4.235   0.502   5.604
 8249WAT    EPW33704   4.160   0.480   5.598
 8250WAT      O33705   4.124   0.851   6.403
 8250WAT     H133706   4.180   0.864   6.469
 8250WAT     H233707   4.176   0.849   6.332
 8250WAT    EPW33708   4.140   0.852   6.402
 8251WAT      O33709   3.260   1.196   6.592
 8251WAT     H133710   3.201   1.133   6.579
 8251WAT     H233711   3.212   1.263   6.622
 8251WAT    EPW33712   3.244   1.197   6.595
 8252WAT      O33713   4.176   0.324   6.879
 8252WAT     H133714   4.209   0.384   6.825
 8252WAT     H233715   4.095   0.353   6.894
 8252WAT    EPW33716   4.169   0.337   6.873
 8253WAT      O33717   4.505   1.215   5.922
 8253WAT     H133718   4.449   1.279   5.941
 8253WAT     H233719   4.570   1.226   5.979
 8253WAT    EPW33720   4.507   1.226   5.933
 8254WAT      O33721   4.141   0.708   6.042
 8254WAT     H133722   4.121   0.628   6.071
 8254WAT     H233723   4.182   0.745   6.109
 8254WAT    EPW33724   4.144   0.701   6.056
 8255WAT      O33725   4.705   0.922   6.796
 8255WAT     H133726   4.788   0.895   6.786
 8255WAT     H233727   4.679   0.881   6.868
 8255WAT    EPW33728   4.714   0.912   6.805
 8256WAT      O33729   4.284   0.866   5.503
 8256WAT     H133730   4.267   0.947   5.476
 8256WAT     H233731   4.212   0.822   5.483
 8256WAT    EPW33732   4.271   0.871   5.496
 8257WAT      O33733   3.308   0.370   6.342
 8257WAT     H133734   3.324   0.389   6.258
 8257WAT     H233735   3.286   0.286   6.340
 8257WAT    EPW33736   3.307   0.360   6.329
 8258WAT      O33737   3.686   0.882   5.086
 8258WAT     H133738   3.731   0.904   5.158
 8258WAT     H233739   3.608   0.859   5.118
 8258WAT    EPW33740   3.681   0.882   5.102
 8259WAT      O33741   3.603   0.402   6.342
 8259WAT     H133742   3.609   0.474   6.390
 8259WAT     H233743   3.518   0.385   6.341
 8259WAT    EPW33744   3.592   0.410   6.349
 8260WAT      O33745   4.636   0.362   5.877
 8260WAT     H133746   4.696   0.419   5.848
 8260WAT     H233747   4.601   0.331   5.804
 8260WAT    EPW33748   4.640   0.366   5.862
 8261WAT      O33749   4.660   1.036   5.533
 8261WAT     H133750   4.630   0.961   5.566
 8261WAT     H233751   4.700   1.012   5.459
 8261WAT    EPW33752   4.662   1.021   5.527
 8262WAT      O33753   3.459   0.780   5.203
 8262WAT     H133754   3.466   0.766   5.288
 8262WAT     H233755   3.456   0.699   5.169
 8262WAT    EPW33756   3.459   0.766   5.210
 8263WAT      O33757   3.717   0.617   5.003
 8263WAT     H133758   3.637   0.586   5.022
 8263WAT     H233759   3.714   0.700   5.029
 8263WAT    EPW33760   3.705   0.625   5.009
 8264WAT      O33761   4.335   0.835   6.211
 8264WAT     H133762   4.379   0.889   6.263
 8264WAT     H233763   4.346   0.870   6.132
 8264WAT    EPW33764   4.343   0.848   6.207
 8265WAT      O33765   4.368   1.198   6.624
 8265WAT     H133766   4.295   1.160   6.595
 8265WAT     H233767   4.344   1.280   6.642
 8265WAT    EPW33768   4.354   1.204   6.623
 8266WAT      O33769   4.875   0.643   6.191
 8266WAT     H133770   4.817   0.583   6.167
 8266WAT     H233771   4.834   0.718   6.174
 8266WAT    EPW33772   4.860   0.645   6.185
 8267WAT      O33773   3.725   1.105   6.568
 8267WAT     H133774   3.724   1.108   6.655
 8267WAT     H233775   3.795   1.055   6.550
 8267WAT    EPW33776   3.735   1.098   6.578
 8268WAT      O33777   4.768   0.889   6.112
 8268WAT     H133778   4.839   0.905   6.064
 8268WAT     H233779   4.711   0.856   6.054
 8268WAT    EPW33780   4.770   0.886   6.096
 8269WAT      O33781   3.417   1.032   6.755
 8269WAT     H133782   3.492   1.071   6.775
 8269WAT     H233783   3.374   1.091   6.708
 8269WAT    EPW33784   3.422   1.046   6.751
 8270WAT      O33785   3.290   0.783   6.455
 8270WAT     H133786   3.230   0.840   6.482
 8270WAT     H233787   3.366   0.824   6.469
 8270WAT    EPW33788   3.293   0.797   6.461
 8271WAT      O33789   4.565   0.252   5.346
 8271WAT     H133790   4.595   0.191   5.292
 8271WAT     H233791   4.488   0.275   5.311
 8271WAT    EPW33792   4.558   0.247   5.333
 8272WAT      O33793   3.552   1.109   5.367
 8272WAT     H133794   3.569   1.174   5.312
 8272WAT     H233795   3.621   1.056   5.359
 8272WAT    EPW33796   3.564   1.111   5.358
 8273WAT      O33797   3.874   0.299   5.295
 8273WAT     H133798   3.894   0.347   5.225
 8273WAT     H233799   3.951   0.280   5.330
 8273WAT    EPW33800   3.888   0.304   5.290
 8274WAT      O33801   4.776   1.192   4.979
 8274WAT     H133802   4.845   1.174   5.030
 8274WAT     H233803   4.752   1.114   4.949
 8274WAT    EPW33804   4.783   1.178   4.983
 8275WAT      O33805   4.905   0.587   6.687
 8275WAT     H133806   4.910   0.512   6.732
 8275WAT     H233807   4.918   0.561   6.605
 8275WAT    EPW33808   4.908   0.572   6.682
 8276WAT      O33809   4.438   0.805   5.273
 8276WAT     H133810   4.399   0.804   5.351
 8276WAT     H233811   4.404   0.737   5.232
 8276WAT    EPW33812   4.427   0.795   5.279
 8277WAT      O33813   4.592   0.412   6.888
 8277WAT     H133814   4.663   0.447   6.924
 8277WAT     H233815   4.590   0.446   6.808
 8277WAT    EPW33816   4.602   0.422   6.881
 8278WAT      O33817   3.510   1.045   5.970
 8278WAT     H133818   3.513   0.968   5.928
 8278WAT     H233819   3.467   1.097   5.915
 8278WAT    EPW33820   3.504   1.041   5.956
 8279WAT      O33821   4.119   0.660   5.167
 8279WAT     H133822   4.198   0.630   5.144
 8279WAT     H233823   4.109   0.732   5.119
 8279WAT    EPW33824   4.129   0.666   5.156
 8280WAT      O33825   3.272   1.262   6.322
 8280WAT     H133826   3.274   1.240   6.407
 8280WAT     H233827   3.305   1.193   6.282
 8280WAT    EPW33828   3.277   1.249   6.329
 8281WAT      O33829   3.225   0.555   3.571
 8281WAT     H133830   3.146   0.554   3.609
 8281WAT     H233831   3.246   0.470   3.568
 8281WAT    EPW33832   3.217   0.542   3.576
 8282WAT      O33833   4.801   0.949   3.400
 8282WAT     H133834   4.876   0.915   3.428
 8282WAT     H233835   4.769   0.887   3.347
 8282WAT    EPW33836   4.807   0.934   3.396
 8283WAT      O33837   3.467   0.539   3.204
 8283WAT     H133838   3.430   0.489   3.143
 8283WAT     H233839   3.490   0.481   3.265
 8283WAT    EPW33840   3.465   0.523   3.204
 8284WAT      O33841   4.507   0.268   3.735
 8284WAT     H133842   4.540   0.254   3.656
 8284WAT     H233843   4.457   0.198   3.749
 8284WAT    EPW33844   4.505   0.256   3.726
 8285WAT      O33845   3.445   0.725   3.606
 8285WAT     H133846   3.496   0.692   3.669
 8285WAT     H233847   3.376   0.671   3.604
 8285WAT    EPW33848   3.442   0.712   3.615
 8286WAT      O33849   3.350   0.991   3.207
 8286WAT     H133850   3.376   0.990   3.124
 8286WAT     H233851   3.382   0.916   3.239
 8286WAT    EPW33852   3.358   0.980   3.199
 8287WAT      O33853   3.195   0.804   4.289
 8287WAT     H133854   3.223   0.784   4.369
 8287WAT     H233855   3.131   0.746   4.275
 8287WAT    EPW33856   3.190   0.792   4.298
 8288WAT      O33857   3.840   0.663   4.753
 8288WAT     H133858   3.810   0.644   4.832
 8288WAT     H233859   3.771   0.650   4.701
 8288WAT    EPW33860   3.826   0.659   4.757
 8289WAT      O33861   3.396   0.369   3.816
 8289WAT     H133862   3.383   0.327   3.741
 8289WAT     H233863   3.440   0.312   3.865
 8289WAT    EPW33864   3.401   0.355   3.813
 8290WAT      O33865   3.829   0.937   4.476
 8290WAT     H133866   3.833   1.013   4.433
 8290WAT     H233867   3.913   0.919   4.494
 8290WAT    EPW33868   3.842   0.946   4.472
 8291WAT      O33869   3.989   0.745   3.870
 8291WAT     H133870   3.997   0.662   3.893
 8291WAT     H233871   4.071   0.776   3.875
 8291WAT    EPW33872   4.002   0.737   3.874
 8292WAT      O33873   4.061   0.692   3.531
 8292WAT     H133874   4.079   0.620   3.576
 8292WAT     H233875   4.078   0.670   3.449
 8292WAT    EPW33876   4.066   0.679   3.526
 8293WAT      O33877   3.128   1.151   3.727
 8293WAT     H133878   3.137   1.203   3.657
 8293WAT     H233879   3.172   1.080   3.706
 8293WAT    EPW33880   3.136   1.148   3.714
 8294WAT      O33881   3.799   0.779   3.544
 8294WAT     H133882   3.783   0.803   3.627
 8294WAT     H233883   3.884   0.760   3.545
 8294WAT    EPW33884   3.809   0.780   3.557
 8295WAT      O33885   4.402   1.047   3.305
 8295WAT     H133886   4.460   1.111   3.319
 8295WAT     H233887   4.446   0.975   3.327
 8295WAT    EPW33888   4.417   1.046   3.310
 8296WAT      O33889   4.198   1.067   3.484
 8296WAT     H133890   4.212   1.143   3.525
 8296WAT     H233891   4.260   1.064   3.423
 8296WAT    EPW33892   4.209   1.078   3.481
 8297WAT      O33893   3.310   0.971   3.605
 8297WAT     H133894   3.356   0.903   3.634
 8297WAT     H233895   3.366   1.016   3.555
 8297WAT    EPW33896   3.325   0.968   3.602
 8298WAT      O33897   4.432   1.131   4.324
 8298WAT     H133898   4.506   1.178   4.321
 8298WAT     H233899   4.422   1.104   4.242
 8298WAT    EPW33900   4.442   1.134   4.311
 8299WAT      O33901   3.521   0.847   3.944
 8299WAT     H133902   3.590   0.849   3.891
 8299WAT     H233903   3.535   0.776   3.993
 8299WAT    EPW33904   3.533   0.837   3.943
 8300WAT      O33905   3.871   1.113   3.893
 8300WAT     H133906   3.947   1.104   3.852
 8300WAT     H233907   3.854   1.199   3.886
 8300WAT    EPW33908   3.880   1.125   3.886
 8301WAT      O33909   4.557   1.277   3.337
 8301WAT     H133910   4.623   1.268   3.280
 8301WAT     H233911   4.595   1.313   3.407
 8301WAT    EPW33912   4.572   1.281   3.339
 8302WAT      O33913   3.621   1.184   4.446
 8302WAT     H133914   3.654   1.173   4.526
 8302WAT     H233915   3.557   1.124   4.442
 8302WAT    EPW33916   3.617   1.174   4.458
 8303WAT      O33917   4.322   0.879   4.691
 8303WAT     H133918   4.320   0.914   4.771
 8303WAT     H233919   4.406   0.859   4.679
 8303WAT    EPW33920   4.334   0.881   4.701
 8304WAT      O33921   4.070   0.884   3.124
 8304WAT     H133922   4.038   0.938   3.185
 8304WAT     H233923   4.144   0.922   3.099
 8304WAT    EPW33924   4.076   0.897   3.130
 8305WAT      O33925   3.380   1.048   4.331
 8305WAT     H133926   3.336   0.972   4.334
 8305WAT     H233927   3.406   1.053   4.248
 8305WAT    EPW33928   3.378   1.038   4.319
 8306WAT      O33929   4.186   1.205   4.427
 8306WAT     H133930   4.262   1.182   4.391
 8306WAT     H233931   4.128   1.188   4.364
 8306WAT    EPW33932   4.188   1.199   4.412
 8307WAT      O33933   4.857   1.191   3.676
 8307WAT     H133934   4.809   1.264   3.678
 8307WAT     H233935   4.797   1.128   3.665
 8307WAT    EPW33936   4.841   1.193   3.675
 8308WAT      O33937   4.595   0.749   3.723
 8308WAT     H133938   4.658   0.698   3.692
 8308WAT     H233939   4.524   0.700   3.719
 8308WAT    EPW33940   4.594   0.734   3.718
 8309WAT      O33941   3.563   0.899   4.594
 8309WAT     H133942   3.643   0.925   4.571
 8309WAT     H233943   3.550   0.937   4.671
 8309WAT    EPW33944   3.573   0.908   4.602
 8310WAT      O33945   3.762   0.423   4.019
 8310WAT     H133946   3.781   0.430   4.104
 8310WAT     H233947   3.699   0.363   4.018
 8310WAT    EPW33948   3.756   0.415   4.031
 8311WAT      O33949   3.839   0.486   4.276
 8311WAT     H133950   3.821   0.571   4.283
 8311WAT     H233951   3.795   0.450   4.343
 8311WAT    EPW33952   3.830   0.493   4.287
 8312WAT      O33953   4.416   0.592   4.294
 8312WAT     H133954   4.366   0.548   4.350
 8312WAT     H233955   4.404   0.675   4.316
 8312WAT    EPW33956   4.407   0.598   4.305
 8313WAT      O33957   3.082   0.862   4.874
 8313WAT     H133958   3.144   0.868   4.935
 8313WAT     H233959   3.087   0.779   4.847
 8313WAT    EPW33960   3.092   0.850   4.879
 8314WAT      O33961   4.820   0.489   3.249
 8314WAT     H133962   4.822   0.446   3.325
 8314WAT     H233963   4.893   0.538   3.252
 8314WAT    EPW33964   4.831   0.490   3.261
 8315WAT      O33965   3.580   0.577   3.797
 8315WAT     H133966   3.638   0.546   3.740
 8315WAT     H233967   3.523   0.512   3.806
 8315WAT    EPW33968   3.580   0.563   3.790
 8316WAT      O33969   3.362   1.246   3.853
 8316WAT     H133970   3.281   1.222   3.832
 8316WAT     H233971   3.397   1.268   3.776
 8316WAT    EPW33972   3.356   1.246   3.838
 8317WAT      O33973   5.007   1.002   4.641
 8317WAT     H133974   4.933   1.000   4.595
 8317WAT     H233975   4.987   0.960   4.715
 8317WAT    EPW33976   4.993   0.995   4.645
 8318WAT      O33977   4.514   0.113   3.166
 8318WAT     H133978   4.548   0.185   3.131
 8318WAT     H233979   4.444   0.142   3.210
 8318WAT    EPW33980   4.509   0.128   3.168
 8319WAT      O33981   3.723   0.513   3.565
 8319WAT     H133982   3.748   0.595   3.548
 8319WAT     H233983   3.784   0.464   3.526
 8319WAT    EPW33984   3.736   0.518   3.557
 8320WAT      O33985   3.260   0.771   3.877
 8320WAT     H133986   3.223   0.832   3.928
 8320WAT     H233987   3.345   0.789   3.884
 8320WAT    EPW33988   3.267   0.783   3.886
 8321WAT      O33989   3.334   0.287   3.553
 8321WAT     H133990   3.317   0.204   3.532
 8321WAT     H233991   3.403   0.307   3.503
 8321WAT    EPW33992   3.342   0.278   3.543
 8322WAT      O33993   4.246   0.865   3.866
 8322WAT     H133994   4.207   0.940   3.845
 8322WAT     H233995   4.284   0.840   3.792
 8322WAT    EPW33996   4.246   0.872   3.852
 8323WAT      O33997   3.170   0.797   3.441
 8323WAT     H133998   3.219   0.852   3.489
 8323WAT     H233999   3.178   0.721   3.484
 8323WAT    EPW34000   3.179   0.794   3.455
 8324WAT      O34001   3.579   0.631   4.107
 8324WAT     H134002   3.636   0.670   4.161
 8324WAT     H234003   3.630   0.586   4.053
 8324WAT    EPW34004   3.595   0.630   4.107
 8325WAT      O34005   3.191   0.677   3.190
 8325WAT     H134006   3.266   0.633   3.195
 8325WAT     H234007   3.187   0.719   3.266
 8325WAT    EPW34008   3.202   0.677   3.202
 8326WAT      O34009   3.211   0.515   3.962
 8326WAT     H134010   3.262   0.467   3.910
 8326WAT     H234011   3.227   0.597   3.937
 8326WAT    EPW34012   3.221   0.520   3.951
 8327WAT      O34013   4.750   0.997   4.501
 8327WAT     H134014   4.708   1.073   4.510
 8327WAT     H234015   4.747   0.982   4.416
 8327WAT    EPW34016   4.743   1.006   4.490
 8328WAT      O34017   3.758   0.875   3.799
 8328WAT     H134018   3.780   0.957   3.819
 8328WAT     H234019   3.824   0.828   3.829
 8328WAT    EPW34020   3.771   0.880   3.807
 8329WAT      O34021   3.534   0.257   4.037
 8329WAT     H134022   3.486   0.308   4.088
 8329WAT     H234023   3.545   0.184   4.084
 8329WAT    EPW34024   3.528   0.254   4.051
 8330WAT      O34025   3.948   1.175   4.279
 8330WAT     H134026   3.944   1.102   4.232
 8330WAT     H234027   3.932   1.238   4.221
 8330WAT    EPW34028   3.945   1.174   4.264
 8331WAT      O34029   3.345   0.374   4.892
 8331WAT     H134030   3.354   0.412   4.814
 8331WAT     H234031   3.394   0.302   4.884
 8331WAT    EPW34032   3.354   0.369   4.879
 8332WAT      O34033   4.544   0.544   4.728
 8332WAT     H134034   4.570   0.626   4.713
 8332WAT     H234035   4.585   0.498   4.666
 8332WAT    EPW34036   4.554   0.550   4.717
 8333WAT      O34037   3.935   0.930   4.783
 8333WAT     H134038   3.974   0.922   4.861
 8333WAT     H234039   3.904   0.850   4.767
 8333WAT    EPW34040   3.936   0.917   4.793
 8334WAT      O34041   4.322   0.256   3.323
 8334WAT     H134042   4.282   0.284   3.251
 8334WAT     H234043   4.257   0.250   3.381
 8334WAT    EPW34044   4.307   0.259   3.321
 8335WAT      O34045   4.794   0.569   3.658
 8335WAT     H134046   4.794   0.537   3.739
 8335WAT     H234047   4.802   0.497   3.608
 8335WAT    EPW34048   4.795   0.554   3.662
 8336WAT      O34049   4.382   0.991   4.077
 8336WAT     H134050   4.347   0.949   4.008
 8336WAT     H234051   4.421   1.060   4.041
 8336WAT    EPW34052   4.383   0.995   4.061
 8337WAT      O34053   4.380   0.632   4.019
 8337WAT     H134054   4.311   0.687   4.019
 8337WAT     H234055   4.381   0.601   4.100
 8337WAT    EPW34056   4.370   0.636   4.031
 8338WAT      O34057   3.741   1.038   3.466
 8338WAT     H134058   3.755   0.958   3.497
 8338WAT     H234059   3.817   1.059   3.427
 8338WAT    EPW34060   3.754   1.029   3.465
 8339WAT      O34061   3.975   1.055   3.319
 8339WAT     H134062   4.044   1.056   3.373
 8339WAT     H234063   3.978   1.134   3.281
 8339WAT    EPW34064   3.986   1.067   3.322
 8340WAT      O34065   4.683   0.410   4.526
 8340WAT     H134066   4.670   0.416   4.439
 8340WAT     H234067   4.767   0.430   4.535
 8340WAT    EPW34068   4.693   0.414   4.514
 8341WAT      O34069   4.318   1.022   4.935
 8341WAT     H134070   4.347   1.040   5.015
 8341WAT     H234071   4.342   1.092   4.888
 8341WAT    EPW34072   4.326   1.035   4.940
 8342WAT      O34073   3.556   0.365   3.404
 8342WAT     H134074   3.619   0.312   3.377
 8342WAT     H234075   3.597   0.419   3.459
 8342WAT    EPW34076   3.571   0.365   3.408
 8343WAT      O34077   4.237   0.452   4.457
 8343WAT     H134078   4.187   0.499   4.511
 8343WAT     H234079   4.275   0.394   4.509
 8343WAT    EPW34080   4.236   0.451   4.472
 8344WAT      O34081   4.112   0.251   3.516
 8344WAT     H134082   4.126   0.321   3.567
 8344WAT     H234083   4.102   0.186   3.573
 8344WAT    EPW34084   4.113   0.252   3.532
 8345WAT      O34085   4.640   0.744   4.004
 8345WAT     H134086   4.637   0.767   3.920
 8345WAT     H234087   4.561   0.711   4.019
 8345WAT    EPW34088   4.628   0.742   3.994
 8346WAT      O34089   4.022   0.473   3.930
 8346WAT     H134090   3.939   0.450   3.946
 8346WAT     H234091   4.062   0.463   4.007
 8346WAT    EPW34092   4.016   0.468   3.944
 8347WAT      O34093   3.662   1.138   3.095
 8347WAT     H134094   3.687   1.063   3.131
 8347WAT     H234095   3.672   1.196   3.159
 8347WAT    EPW34096   3.667   1.136   3.110
 8348WAT      O34097   3.380   0.447   4.174
 8348WAT     H134098   3.440   0.510   4.166
 8348WAT     H234099   3.319   0.470   4.116
 8348WAT    EPW34100   3.380   0.460   4.164
 8349WAT      O34101   4.968   1.126   3.269
 8349WAT     H134102   5.030   1.074   3.235
 8349WAT     H234103   4.914   1.071   3.308
 8349WAT    EPW34104   4.969   1.110   3.269
 8350WAT      O34105   4.660   0.467   4.249
 8350WAT     H134106   4.644   0.414   4.181
 8350WAT     H234107   4.585   0.509   4.260
 8350WAT    EPW34108   4.647   0.465   4.240
 8351WAT      O34109   3.477   0.144   2.983
 8351WAT     H134110   3.462   0.064   3.014
 8351WAT     H234111   3.555   0.138   2.945
 8351WAT    EPW34112   3.486   0.131   2.982
 8352WAT      O34113   3.359   0.521   4.654
 8352WAT     H134114   3.332   0.481   4.580
 8352WAT     H234115   3.308   0.592   4.658
 8352WAT    EPW34116   3.347   0.526   4.644
 8353WAT      O34117   4.800   0.519   3.928
 8353WAT     H134118   4.769   0.590   3.968
 8353WAT     H234119   4.880   0.510   3.961
 8353WAT    EPW34120   4.807   0.528   3.939
 8354WAT      O34121   4.997   0.953   4.069
 8354WAT     H134122   5.016   1.007   4.003
 8354WAT     H234123   5.064   0.965   4.124
 8354WAT    EPW34124   5.010   0.963   4.067
 8355WAT      O34125   4.698   0.746   3.244
 8355WAT     H134126   4.729   0.664   3.247
 8355WAT     H234127   4.623   0.742   3.288
 8355WAT    EPW34128   4.692   0.733   3.251
 8356WAT      O34129   4.941   0.357   4.918
 8356WAT     H134130   4.918   0.274   4.906
 8356WAT     H234131   5.028   0.353   4.927
 8356WAT    EPW34132   4.951   0.344   4.918
 8357WAT      O34133   4.948   0.506   4.512
 8357WAT     H134134   5.020   0.465   4.484
 8357WAT     H234135   4.929   0.561   4.448
 8357WAT    EPW34136   4.956   0.508   4.499
 8358WAT      O34137   4.374   0.584   3.179
 8358WAT     H134138   4.434   0.521   3.181
 8358WAT     H234139   4.348   0.585   3.096
 8358WAT    EPW34140   4.379   0.575   3.167
 8359WAT      O34141   3.774   0.758   4.265
 8359WAT     H134142   3.776   0.802   4.340
 8359WAT     H234143   3.819   0.809   4.210
 8359WAT    EPW34144   3.781   0.772   4.268
 8360WAT      O34145   3.608   0.625   4.603
 8360WAT     H134146   3.530   0.593   4.624
 8360WAT     H234147   3.593   0.710   4.592
 8360WAT    EPW34148   3.594   0.633   4.605
 8361WAT      O34149   4.104   0.476   4.205
 8361WAT     H134150   4.151   0.453   4.274
 8361WAT     H234151   4.022   0.471   4.233
 8361WAT    EPW34152   4.099   0.472   4.219
 8362WAT      O34153   4.106   1.078   3.761
 8362WAT     H134154   4.156   1.150   3.752
 8362WAT     H234155   4.103   1.046   3.680
 8362WAT    EPW34156   4.113   1.084   3.748
 8363WAT      O34157   3.929   0.944   4.124
 8363WAT     H134158   3.913   0.981   4.046
 8363WAT     H234159   3.994   0.888   4.107
 8363WAT    EPW34160   3.936   0.941   4.110
 8364WAT      O34161   4.282   0.548   4.826
 8364WAT     H134162   4.359   0.547   4.786
 8364WAT     H234163   4.229   0.584   4.767
 8364WAT    EPW34164   4.285   0.553   4.812
 8365WAT      O34165   4.596   0.823   4.671
 8365WAT     H134166   4.626   0.857   4.746
 8365WAT     H234167   4.643   0.864   4.610
 8365WAT    EPW34168   4.607   0.834   4.673
 8366WAT      O34169   3.941   0.459   3.171
 8366WAT     H134170   3.872   0.505   3.144
 8366WAT     H234171   3.995   0.520   3.201
 8366WAT    EPW34172   3.939   0.475   3.172
 8367WAT      O34173   4.101   1.140   4.685
 8367WAT     H134174   4.114   1.141   4.599
 8367WAT     H234175   4.059   1.065   4.698
 8367WAT    EPW34176   4.096   1.129   4.674
 8368WAT      O34177   4.836   0.351   3.491
 8368WAT     H134178   4.908   0.306   3.510
 8368WAT     H234179   4.774   0.290   3.490
 8368WAT    EPW34180   4.837   0.335   3.494
 8369WAT      O34181   4.090   0.619   4.627
 8369WAT     H134182   4.013   0.620   4.668
 8369WAT     H234183   4.096   0.697   4.591
 8369WAT    EPW34184   4.080   0.630   4.628
 8370WAT      O34185   3.610   1.294   4.181
 8370WAT     H134186   3.616   1.272   4.265
 8370WAT     H234187   3.578   1.223   4.143
 8370WAT    EPW34188   3.606   1.280   4.188
 8371WAT      O34189   4.404   0.534   3.759
 8371WAT     H134190   4.401   0.553   3.844
 8371WAT     H234191   4.444   0.457   3.757
 8371WAT    EPW34192   4.409   0.525   3.771
 8372WAT      O34193   4.146   0.472   3.679
 8372WAT     H134194   4.105   0.469   3.756
 8372WAT     H234195   4.228   0.494   3.700
 8372WAT    EPW34196   4.152   0.475   3.694
 8373WAT      O34197   4.112   0.874   4.511
 8373WAT     H134198   4.172   0.885   4.573
 8373WAT     H234199   4.159   0.873   4.437
 8373WAT    EPW34200   4.128   0.875   4.509
 8374WAT      O34201   3.299   1.202   4.687
 8374WAT     H134202   3.242   1.138   4.670
 8374WAT     H234203   3.250   1.265   4.722
 8374WAT    EPW34204   3.283   1.202   4.689
 8375WAT      O34205   4.172   0.341   4.988
 8375WAT     H134206   4.208   0.399   4.933
 8375WAT     H234207   4.093   0.374   5.005
 8375WAT    EPW34208   4.166   0.355   4.982
 8376WAT      O34209   4.497   1.245   4.031
 8376WAT     H134210   4.443   1.311   4.048
 8376WAT     H234211   4.564   1.259   4.085
 8376WAT    EPW34212   4.499   1.257   4.041
 8377WAT      O34213   4.136   0.746   4.149
 8377WAT     H134214   4.123   0.662   4.167
 8377WAT     H234215   4.190   0.773   4.211
 8377WAT    EPW34216   4.142   0.738   4.161
 8378WAT      O34217   4.707   0.938   4.897
 8378WAT     H134218   4.789   0.910   4.885
 8378WAT     H234219   4.683   0.898   4.971
 8378WAT    EPW34220   4.716   0.928   4.906
 8379WAT      O34221   4.295   0.823   3.592
 8379WAT     H134222   4.279   0.905   3.567
 8379WAT     H234223   4.220   0.781   3.576
 8379WAT    EPW34224   4.281   0.829   3.586
 8380WAT      O34225   3.256   0.406   4.420
 8380WAT     H134226   3.298   0.422   4.345
 8380WAT     H234227   3.240   0.320   4.416
 8380WAT    EPW34228   3.260   0.396   4.408
 8381WAT      O34229   3.720   0.885   3.207
 8381WAT     H134230   3.780   0.907   3.266
 8381WAT     H234231   3.651   0.863   3.255
 8381WAT    EPW34232   3.719   0.885   3.223
 8382WAT      O34233   3.693   0.388   4.486
 8382WAT     H134234   3.664   0.462   4.520
 8382WAT     H234235   3.717   0.341   4.556
 8382WAT    EPW34236   3.692   0.392   4.502
 8383WAT      O34237   4.612   0.333   4.000
 8383WAT     H134238   4.676   0.387   3.974
 8383WAT     H234239   4.580   0.302   3.925
 8383WAT    EPW34240   4.617   0.337   3.985
 8384WAT      O34241   4.650   1.006   3.626
 8384WAT     H134242   4.630   0.927   3.657
 8384WAT     H234243   4.687   0.989   3.549
 8384WAT    EPW34244   4.653   0.992   3.619
 8385WAT      O34245   3.493   0.785   3.334
 8385WAT     H134246   3.487   0.770   3.419
 8385WAT     H234247   3.483   0.706   3.298
 8385WAT    EPW34248   3.491   0.771   3.341
 8386WAT      O34249   3.727   0.625   3.102
 8386WAT     H134250   3.647   0.599   3.123
 8386WAT     H234251   3.730   0.707   3.130
 8386WAT    EPW34252   3.716   0.633   3.109
 8387WAT      O34253   4.332   0.859   4.318
 8387WAT     H134254   4.373   0.911   4.375
 8387WAT     H234255   4.351   0.895   4.241
 8387WAT    EPW34256   4.341   0.872   4.315
 8388WAT      O34257   4.367   1.221   4.740
 8388WAT     H134258   4.293   1.185   4.711
 8388WAT     H234259   4.343   1.303   4.758
 8388WAT    EPW34260   4.352   1.228   4.738
 8389WAT      O34261   4.875   0.652   4.285
 8389WAT     H134262   4.815   0.593   4.264
 8389WAT     H234263   4.835   0.728   4.271
 8389WAT    EPW34264   4.860   0.655   4.280
 8390WAT      O34265   3.742   1.133   4.705
 8390WAT     H134266   3.721   1.149   4.789
 8390WAT     H234267   3.804   1.072   4.711
 8390WAT    EPW34268   3.748   1.126   4.718
 8391WAT      O34269   4.761   0.898   4.216
 8391WAT     H134270   4.831   0.926   4.172
 8391WAT     H234271   4.711   0.863   4.153
 8391WAT    EPW34272   4.764   0.897   4.200
 8392WAT      O34273   3.454   1.019   4.832
 8392WAT     H134274   3.515   1.063   4.876
 8392WAT     H234275   3.408   1.082   4.792
 8392WAT    EPW34276   3.456   1.035   4.833
 8393WAT      O34277   3.299   0.800   4.546
 8393WAT     H134278   3.244   0.859   4.580
 8393WAT     H234279   3.378   0.836   4.558
 8393WAT    EPW34280   3.302   0.814   4.553
 8394WAT      O34281   4.579   0.212   3.460
 8394WAT     H134282   4.595   0.142   3.410
 8394WAT     H234283   4.510   0.250   3.422
 8394WAT    EPW34284   4.571   0.208   3.447
 8395WAT      O34285   3.477   1.111   3.431
 8395WAT     H134286   3.452   1.085   3.352
 8395WAT     H234287   3.561   1.088   3.434
 8395WAT    EPW34288   3.486   1.104   3.420
 8396WAT      O34289   3.866   0.333   3.405
 8396WAT     H134290   3.889   0.367   3.328
 8396WAT     H234291   3.940   0.300   3.436
 8396WAT    EPW34292   3.880   0.333   3.398
 8397WAT      O34293   4.737   1.201   3.130
 8397WAT     H134294   4.816   1.194   3.166
 8397WAT     H234295   4.720   1.120   3.100
 8397WAT    EPW34296   4.746   1.188   3.131
 8398WAT      O34297   4.931   0.599   4.779
 8398WAT     H134298   4.926   0.525   4.825
 8398WAT     H234299   4.935   0.571   4.696
 8398WAT    EPW34300   4.931   0.584   4.773
 8399WAT      O34301   4.459   0.776   3.370
 8399WAT     H134302   4.415   0.774   3.446
 8399WAT     H234303   4.416   0.719   3.320
 8399WAT    EPW34304   4.446   0.767   3.374
 8400WAT      O34305   4.584   0.414   4.987
 8400WAT     H134306   4.655   0.452   5.021
 8400WAT     H234307   4.580   0.448   4.906
 8400WAT    EPW34308   4.594   0.425   4.980
 8401WAT      O34309   3.443   1.083   4.060
 8401WAT     H134310   3.476   1.011   4.025
 8401WAT     H234311   3.423   1.133   3.992
 8401WAT    EPW34312   3.445   1.079   4.045
 8402WAT      O34313   4.117   0.647   3.265
 8402WAT     H134314   4.197   0.620   3.242
 8402WAT     H234315   4.106   0.719   3.217
 8402WAT    EPW34316   4.127   0.654   3.254
 8403WAT      O34317   3.264   1.284   4.421
 8403WAT     H134318   3.275   1.264   4.506
 8403WAT     H234319   3.296   1.214   4.380
 8403WAT    EPW34320   3.271   1.271   4.428
 8404WAT      O34321   3.229   0.558   1.726
 8404WAT     H134322   3.226   0.587   1.808
 8404WAT     H234323   3.244   0.472   1.736
 8404WAT    EPW34324   3.231   0.549   1.740
 8405WAT      O34325   4.829   0.951   1.521
 8405WAT     H134326   4.890   0.895   1.548
 8405WAT     H234327   4.779   0.903   1.468
 8405WAT    EPW34328   4.831   0.936   1.517
 8406WAT      O34329   3.444   0.521   1.299
 8406WAT     H134330   3.409   0.472   1.236
 8406WAT     H234331   3.461   0.463   1.363
 8406WAT    EPW34332   3.442   0.505   1.299
 8407WAT      O34333   4.509   0.294   1.838
 8407WAT     H134334   4.536   0.279   1.756
 8407WAT     H234335   4.461   0.223   1.857
 8407WAT    EPW34336   4.506   0.281   1.829
 8408WAT      O34337   3.457   0.707   1.681
 8408WAT     H134338   3.505   0.673   1.745
 8408WAT     H234339   3.384   0.659   1.684
 8408WAT    EPW34340   3.453   0.695   1.691
 8409WAT      O34341   3.341   1.007   1.337
 8409WAT     H134342   3.366   1.015   1.253
 8409WAT     H234343   3.362   0.924   1.356
 8409WAT    EPW34344   3.348   0.996   1.327
 8410WAT      O34345   3.238   0.797   2.395
 8410WAT     H134346   3.263   0.784   2.478
 8410WAT     H234347   3.170   0.744   2.386
 8410WAT    EPW34348   3.232   0.787   2.406
 8411WAT      O34349   3.850   0.654   2.849
 8411WAT     H134350   3.820   0.640   2.930
 8411WAT     H234351   3.780   0.638   2.799
 8411WAT    EPW34352   3.835   0.650   2.854
 8412WAT      O34353   3.365   0.342   1.938
 8412WAT     H134354   3.355   0.298   1.863
 8412WAT     H234355   3.419   0.291   1.984
 8412WAT    EPW34356   3.372   0.328   1.934
 8413WAT      O34357   3.831   0.926   2.577
 8413WAT     H134358   3.845   0.993   2.523
 8413WAT     H234359   3.912   0.904   2.603
 8413WAT    EPW34360   3.845   0.932   2.573
 8414WAT      O34361   3.962   0.743   1.994
 8414WAT     H134362   3.986   0.662   2.018
 8414WAT     H234363   4.037   0.787   1.991
 8414WAT    EPW34364   3.977   0.737   1.997
 8415WAT      O34365   4.061   0.693   1.643
 8415WAT     H134366   4.083   0.622   1.689
 8415WAT     H234367   4.081   0.670   1.561
 8415WAT    EPW34368   4.067   0.679   1.637
 8416WAT      O34369   3.204   1.046   1.935
 8416WAT     H134370   3.138   1.090   1.901
 8416WAT     H234371   3.242   1.008   1.866
 8416WAT    EPW34372   3.200   1.047   1.920
 8417WAT      O34373   3.789   0.717   1.632
 8417WAT     H134374   3.764   0.747   1.710
 8417WAT     H234375   3.875   0.710   1.640
 8417WAT    EPW34376   3.798   0.721   1.645
 8418WAT      O34377   4.400   1.075   1.429
 8418WAT     H134378   4.471   1.126   1.425
 8418WAT     H234379   4.432   0.997   1.449
 8418WAT    EPW34380   4.415   1.071   1.431
 8419WAT      O34381   4.213   1.113   1.626
 8419WAT     H134382   4.229   1.190   1.663
 8419WAT     H234383   4.272   1.107   1.563
 8419WAT    EPW34384   4.224   1.123   1.622
 8420WAT      O34385   3.338   0.955   1.705
 8420WAT     H134386   3.387   0.883   1.713
 8420WAT     H234387   3.387   1.009   1.657
 8420WAT    EPW34388   3.352   0.952   1.699
 8421WAT      O34389   4.419   1.105   2.421
 8421WAT     H134390   4.489   1.157   2.418
 8421WAT     H234391   4.406   1.082   2.338
 8421WAT    EPW34392   4.427   1.109   2.408
 8422WAT      O34393   3.499   0.808   2.047
 8422WAT     H134394   3.562   0.801   1.987
 8422WAT     H234395   3.515   0.741   2.102
 8422WAT    EPW34396   3.510   0.797   2.046
 8423WAT      O34397   3.779   1.076   1.949
 8423WAT     H134398   3.858   1.098   1.920
 8423WAT     H234399   3.725   1.124   1.901
 8423WAT    EPW34400   3.783   1.086   1.938
 8424WAT      O34401   4.598   1.268   1.371
 8424WAT     H134402   4.647   1.239   1.305
 8424WAT     H234403   4.654   1.315   1.419
 8424WAT    EPW34404   4.614   1.271   1.368
 8425WAT      O34405   3.632   1.182   2.563
 8425WAT     H134406   3.661   1.167   2.644
 8425WAT     H234407   3.570   1.122   2.552
 8425WAT    EPW34408   3.627   1.171   2.573
 8426WAT      O34409   4.316   0.862   2.816
 8426WAT     H134410   4.311   0.903   2.893
 8426WAT     H234411   4.402   0.847   2.806
 8426WAT    EPW34412   4.328   0.866   2.826
 8427WAT      O34413   4.089   0.887   1.246
 8427WAT     H134414   4.061   0.940   1.309
 8427WAT     H234415   4.163   0.924   1.219
 8427WAT    EPW34416   4.096   0.900   1.251
 8428WAT      O34417   3.396   1.040   2.426
 8428WAT     H134418   3.348   0.968   2.419
 8428WAT     H234419   3.440   1.042   2.350
 8428WAT    EPW34420   3.396   1.030   2.413
 8429WAT      O34421   4.170   1.150   2.527
 8429WAT     H134422   4.248   1.140   2.490
 8429WAT     H234423   4.114   1.139   2.461
 8429WAT    EPW34424   4.174   1.147   2.512
 8430WAT      O34425   4.862   1.190   1.771
 8430WAT     H134426   4.824   1.267   1.786
 8430WAT     H234427   4.794   1.136   1.758
 8430WAT    EPW34428   4.846   1.193   1.771
 8431WAT      O34429   4.585   0.781   1.830
 8431WAT     H134430   4.656   0.735   1.809
 8431WAT     H234431   4.520   0.723   1.821
 8431WAT    EPW34432   4.586   0.766   1.826
 8432WAT      O34433   3.571   0.896   2.705
 8432WAT     H134434   3.649   0.921   2.676
 8432WAT     H234435   3.562   0.938   2.780
 8432WAT    EPW34436   3.581   0.906   2.712
 8433WAT      O34437   3.758   0.417   2.127
 8433WAT     H134438   3.776   0.420   2.212
 8433WAT     H234439   3.698   0.355   2.120
 8433WAT    EPW34440   3.752   0.409   2.139
 8434WAT      O34441   3.814   0.468   2.393
 8434WAT     H134442   3.801   0.554   2.397
 8434WAT     H234443   3.753   0.435   2.445
 8434WAT    EPW34444   3.803   0.476   2.401
 8435WAT      O34445   4.413   0.547   2.384
 8435WAT     H134446   4.362   0.510   2.444
 8435WAT     H234447   4.407   0.633   2.402
 8435WAT    EPW34448   4.405   0.555   2.396
 8436WAT      O34449   3.082   0.818   2.969
 8436WAT     H134450   3.127   0.790   3.039
 8436WAT     H234451   3.050   0.745   2.935
 8436WAT    EPW34452   3.084   0.803   2.975
 8437WAT      O34453   4.784   0.540   1.347
 8437WAT     H134454   4.797   0.504   1.426
 8437WAT     H234455   4.864   0.542   1.313
 8437WAT    EPW34456   4.798   0.535   1.354
 8438WAT      O34457   3.556   0.540   1.884
 8438WAT     H134458   3.610   0.498   1.830
 8438WAT     H234459   3.496   0.480   1.903
 8438WAT    EPW34460   3.555   0.525   1.879
 8439WAT      O34461   3.416   1.210   1.995
 8439WAT     H134462   3.344   1.165   1.974
 8439WAT     H234463   3.465   1.205   1.922
 8439WAT    EPW34464   3.413   1.203   1.981
 8440WAT      O34465   4.975   0.996   2.737
 8440WAT     H134466   4.892   1.009   2.711
 8440WAT     H234467   4.966   0.953   2.813
 8440WAT    EPW34468   4.961   0.991   2.745
 8441WAT      O34469   4.521   0.120   1.281
 8441WAT     H134470   4.550   0.195   1.247
 8441WAT     H234471   4.448   0.144   1.323
 8441WAT    EPW34472   4.514   0.135   1.282
 8442WAT      O34473   3.700   0.455   1.657
 8442WAT     H134474   3.727   0.537   1.641
 8442WAT     H234475   3.763   0.406   1.623
 8442WAT    EPW34476   3.714   0.460   1.650
 8443WAT      O34477   3.249   0.711   1.969
 8443WAT     H134478   3.196   0.767   2.010
 8443WAT     H234479   3.329   0.742   1.985
 8443WAT    EPW34480   3.253   0.724   1.977
 8444WAT      O34481   3.304   0.270   1.676
 8444WAT     H134482   3.282   0.189   1.653
 8444WAT     H234483   3.365   0.292   1.617
 8444WAT    EPW34484   3.310   0.261   1.664
 8445WAT      O34485   4.182   0.913   1.971
 8445WAT     H134486   4.139   0.986   1.949
 8445WAT     H234487   4.223   0.890   1.898
 8445WAT    EPW34488   4.182   0.921   1.957
 8446WAT      O34489   3.150   0.792   1.572
 8446WAT     H134490   3.207   0.844   1.614
 8446WAT     H234491   3.133   0.729   1.629
 8446WAT    EPW34492   3.156   0.791   1.586
 8447WAT      O34493   3.565   0.604   2.219
 8447WAT     H134494   3.615   0.647   2.277
 8447WAT     H234495   3.623   0.560   2.171
 8447WAT    EPW34496   3.581   0.604   2.221
 8448WAT      O34497   3.169   0.664   1.322
 8448WAT     H134498   3.241   0.616   1.323
 8448WAT     H234499   3.168   0.704   1.400
 8448WAT    EPW34500   3.179   0.663   1.333
 8449WAT      O34501   3.187   0.480   2.102
 8449WAT     H134502   3.227   0.424   2.048
 8449WAT     H234503   3.212   0.558   2.072
 8449WAT    EPW34504   3.197   0.484   2.090
 8450WAT      O34505   4.709   1.026   2.642
 8450WAT     H134506   4.669   1.098   2.672
 8450WAT     H234507   4.706   1.036   2.555
 8450WAT    EPW34508   4.703   1.038   2.634
 8451WAT      O34509   3.722   0.818   1.878
 8451WAT     H134510   3.735   0.903   1.891
 8451WAT     H234511   3.790   0.780   1.917
 8451WAT    EPW34512   3.734   0.825   1.885
 8452WAT      O34513   3.535   0.242   2.140
 8452WAT     H134514   3.486   0.288   2.196
 8452WAT     H234515   3.547   0.166   2.181
 8452WAT    EPW34516   3.530   0.238   2.154
 8453WAT      O34517   3.948   1.104   2.366
 8453WAT     H134518   3.929   1.039   2.310
 8453WAT     H234519   3.937   1.176   2.318
 8453WAT    EPW34520   3.944   1.105   2.350
 8454WAT      O34521   3.340   0.385   3.015
 8454WAT     H134522   3.347   0.428   2.940
 8454WAT     H234523   3.381   0.310   3.001
 8454WAT    EPW34524   3.347   0.380   3.002
 8455WAT      O34525   4.565   0.544   2.845
 8455WAT     H134526   4.580   0.629   2.836
 8455WAT     H234527   4.610   0.508   2.779
 8455WAT    EPW34528   4.574   0.551   2.834
 8456WAT      O34529   3.924   0.923   2.889
 8456WAT     H134530   3.964   0.911   2.966
 8456WAT     H234531   3.900   0.842   2.866
 8456WAT    EPW34532   3.927   0.909   2.897
 8457WAT      O34533   4.318   0.254   1.433
 8457WAT     H134534   4.276   0.280   1.361
 8457WAT     H234535   4.256   0.249   1.493
 8457WAT    EPW34536   4.303   0.257   1.431
 8458WAT      O34537   4.807   0.630   1.777
 8458WAT     H134538   4.829   0.593   1.853
 8458WAT     H234539   4.806   0.563   1.721
 8458WAT    EPW34540   4.810   0.615   1.780
 8459WAT      O34541   4.363   0.986   2.170
 8459WAT     H134542   4.303   0.961   2.112
 8459WAT     H234543   4.410   1.045   2.127
 8459WAT    EPW34544   4.361   0.991   2.155
 8460WAT      O34545   4.348   0.622   2.122
 8460WAT     H134546   4.276   0.667   2.145
 8460WAT     H234547   4.368   0.578   2.194
 8460WAT    EPW34548   4.340   0.622   2.136
 8461WAT      O34549   3.758   0.959   1.508
 8461WAT     H134550   3.769   0.883   1.549
 8461WAT     H234551   3.838   0.992   1.501
 8461WAT    EPW34552   3.771   0.953   1.513
 8462WAT      O34553   4.007   1.060   1.446
 8462WAT     H134554   4.069   1.078   1.505
 8462WAT     H234555   3.992   1.137   1.408
 8462WAT    EPW34556   4.014   1.074   1.450
 8463WAT      O34557   4.720   0.456   2.626
 8463WAT     H134558   4.701   0.441   2.542
 8463WAT     H234559   4.801   0.487   2.624
 8463WAT    EPW34560   4.729   0.458   2.613
 8464WAT      O34561   4.301   1.015   3.050
 8464WAT     H134562   4.342   1.027   3.127
 8464WAT     H234563   4.320   1.087   3.006
 8464WAT    EPW34564   4.310   1.027   3.055
 8465WAT      O34565   3.510   0.338   1.498
 8465WAT     H134566   3.557   0.274   1.461
 8465WAT     H234567   3.567   0.378   1.550
 8465WAT    EPW34568   3.525   0.334   1.500
 8466WAT      O34569   4.231   0.429   2.561
 8466WAT     H134570   4.187   0.484   2.613
 8466WAT     H234571   4.262   0.369   2.617
 8466WAT    EPW34572   4.229   0.428   2.577
 8467WAT      O34573   4.123   0.249   1.637
 8467WAT     H134574   4.132   0.321   1.685
 8467WAT     H234575   4.111   0.186   1.697
 8467WAT    EPW34576   4.122   0.250   1.653
 8468WAT      O34577   4.597   0.755   2.108
 8468WAT     H134578   4.602   0.768   2.022
 8468WAT     H234579   4.517   0.723   2.120
 8468WAT    EPW34580   4.586   0.752   2.097
 8469WAT      O34581   4.020   0.473   2.044
 8469WAT     H134582   3.938   0.448   2.056
 8469WAT     H234583   4.057   0.461   2.123
 8469WAT    EPW34584   4.014   0.468   2.058
 8470WAT      O34585   3.702   1.110   1.115
 8470WAT     H134586   3.716   1.031   1.149
 8470WAT     H234587   3.700   1.163   1.185
 8470WAT    EPW34588   3.704   1.106   1.130
 8471WAT      O34589   3.376   0.416   2.293
 8471WAT     H134590   3.433   0.481   2.281
 8471WAT     H234591   3.309   0.437   2.241
 8471WAT    EPW34592   3.374   0.429   2.283
 8472WAT      O34593   4.984   1.125   1.371
 8472WAT     H134594   5.057   1.081   1.352
 8472WAT     H234595   4.938   1.068   1.419
 8472WAT    EPW34596   4.988   1.110   1.375
 8473WAT      O34597   4.663   0.437   2.348
 8473WAT     H134598   4.657   0.392   2.274
 8473WAT     H234599   4.583   0.470   2.359
 8473WAT    EPW34600   4.650   0.435   2.339
 8474WAT      O34601   3.505   0.137   1.133
 8474WAT     H134602   3.487   0.056   1.159
 8474WAT     H234603   3.581   0.129   1.090
 8474WAT    EPW34604   3.514   0.124   1.130
 8475WAT      O34605   3.355   0.535   2.780
 8475WAT     H134606   3.337   0.485   2.711
 8475WAT     H234607   3.323   0.613   2.758
 8475WAT    EPW34608   3.348   0.539   2.767
 8476WAT      O34609   4.859   0.506   2.024
 8476WAT     H134610   4.846   0.561   2.090
 8476WAT     H234611   4.938   0.472   2.040
 8476WAT    EPW34612   4.869   0.509   2.036
 8477WAT      O34613   4.952   0.884   2.072
 8477WAT     H134614   4.993   0.943   2.024
 8477WAT     H234615   4.996   0.884   2.147
 8477WAT    EPW34616   4.964   0.893   2.076
 8478WAT      O34617   4.676   0.792   1.364
 8478WAT     H134618   4.706   0.710   1.361
 8478WAT     H234619   4.600   0.785   1.405
 8478WAT    EPW34620   4.669   0.779   1.369
 8479WAT      O34621   4.941   0.362   3.027
 8479WAT     H134622   4.907   0.388   3.103
 8479WAT     H234623   5.023   0.339   3.048
 8479WAT    EPW34624   4.948   0.363   3.042
 8480WAT      O34625   4.987   0.550   2.615
 8480WAT     H134626   5.049   0.496   2.586
 8480WAT     H234627   5.022   0.629   2.605
 8480WAT    EPW34628   5.002   0.554   2.609
 8481WAT      O34629   4.380   0.583   1.304
 8481WAT     H134630   4.440   0.519   1.306
 8481WAT     H234631   4.354   0.584   1.220
 8481WAT    EPW34632   4.385   0.574   1.292
 8482WAT      O34633   3.753   0.741   2.377
 8482WAT     H134634   3.767   0.788   2.450
 8482WAT     H234635   3.783   0.793   2.313
 8482WAT    EPW34636   3.760   0.756   2.378
 8483WAT      O34637   3.610   0.621   2.714
 8483WAT     H134638   3.535   0.595   2.751
 8483WAT     H234639   3.599   0.707   2.703
 8483WAT    EPW34640   3.597   0.630   2.718
 8484WAT      O34641   4.082   0.461   2.323
 8484WAT     H134642   4.132   0.437   2.391
 8484WAT     H234643   4.001   0.454   2.354
 8484WAT    EPW34644   4.078   0.456   2.338
 8485WAT      O34645   4.041   1.137   1.871
 8485WAT     H134646   4.042   1.221   1.896
 8485WAT     H234647   4.080   1.139   1.793
 8485WAT    EPW34648   4.047   1.150   1.863
 8486WAT      O34649   3.849   0.918   2.183
 8486WAT     H134650   3.812   0.969   2.123
 8486WAT     H234651   3.898   0.863   2.136
 8486WAT    EPW34652   3.851   0.917   2.167
 8487WAT      O34653   4.292   0.528   2.917
 8487WAT     H134654   4.372   0.532   2.882
 8487WAT     H234655   4.242   0.570   2.860
 8487WAT    EPW34656   4.296   0.535   2.903
 8488WAT      O34657   4.594   0.827   2.810
 8488WAT     H134658   4.624   0.861   2.884
 8488WAT     H234659   4.629   0.877   2.748
 8488WAT    EPW34660   4.603   0.839   2.812
 8489WAT      O34661   3.942   0.450   1.291
 8489WAT     H134662   3.870   0.491   1.263
 8489WAT     H234663   3.993   0.515   1.320
 8489WAT    EPW34664   3.939   0.466   1.291
 8490WAT      O34665   4.076   1.140   2.789
 8490WAT     H134666   4.096   1.133   2.705
 8490WAT     H234667   4.039   1.063   2.809
 8490WAT    EPW34668   4.073   1.127   2.780
 8491WAT      O34669   4.797   0.414   1.595
 8491WAT     H134670   4.861   0.357   1.612
 8491WAT     H234671   4.726   0.364   1.588
 8491WAT    EPW34672   4.796   0.398   1.597
 8492WAT      O34673   4.098   0.611   2.723
 8492WAT     H134674   4.022   0.613   2.764
 8492WAT     H234675   4.104   0.691   2.687
 8492WAT    EPW34676   4.088   0.623   2.723
 8493WAT      O34677   3.643   1.286   2.297
 8493WAT     H134678   3.640   1.270   2.383
 8493WAT     H234679   3.623   1.210   2.261
 8493WAT    EPW34680   3.639   1.273   2.304
 8494WAT      O34681   4.403   0.557   1.857
 8494WAT     H134682   4.390   0.573   1.942
 8494WAT     H234683   4.445   0.481   1.857
 8494WAT    EPW34684   4.407   0.548   1.870
 8495WAT      O34685   4.146   0.476   1.793
 8495WAT     H134686   4.107   0.473   1.871
 8495WAT     H234687   4.227   0.503   1.812
 8495WAT    EPW34688   4.152   0.480   1.808
 8496WAT      O34689   4.115   0.878   2.628
 8496WAT     H134690   4.177   0.878   2.689
 8496WAT     H234691   4.143   0.938   2.571
 8496WAT    EPW34692   4.128   0.887   2.629
 8497WAT      O34693   3.296   1.201   2.796
 8497WAT     H134694   3.239   1.136   2.782
 8497WAT     H234695   3.246   1.266   2.825
 8497WAT    EPW34696   3.280   1.201   2.799
 8498WAT      O34697   4.182   0.330   3.092
 8498WAT     H134698   4.217   0.384   3.033
 8498WAT     H234699   4.101   0.361   3.102
 8498WAT    EPW34700   4.175   0.343   3.085
 8499WAT      O34701   4.519   1.198   2.081
 8499WAT     H134702   4.499   1.258   2.141
 8499WAT     H234703   4.590   1.159   2.114
 8499WAT    EPW34704   4.527   1.201   2.095
 8500WAT      O34705   4.130   0.729   2.264
 8500WAT     H134706   4.111   0.649   2.292
 8500WAT     H234707   4.183   0.760   2.325
 8500WAT    EPW34708   4.135   0.722   2.277
 8501WAT      O34709   4.711   0.933   3.039
 8501WAT     H134710   4.793   0.914   3.016
 8501WAT     H234711   4.694   0.875   3.103
 8501WAT    EPW34712   4.721   0.921   3.045
 8502WAT      O34713   4.272   0.854   1.715
 8502WAT     H134714   4.254   0.935   1.688
 8502WAT     H234715   4.201   0.808   1.694
 8502WAT    EPW34716   4.259   0.859   1.708
 8503WAT      O34717   3.308   0.371   2.554
 8503WAT     H134718   3.321   0.389   2.470
 8503WAT     H234719   3.291   0.285   2.554
 8503WAT    EPW34720   3.308   0.361   2.541
 8504WAT      O34721   3.686   0.867   1.260
 8504WAT     H134722   3.728   0.894   1.331
 8504WAT     H234723   3.607   0.845   1.290
 8504WAT    EPW34724   3.680   0.867   1.275
 8505WAT      O34725   3.601   0.395   2.554
 8505WAT     H134726   3.610   0.466   2.604
 8505WAT     H234727   3.515   0.382   2.553
 8505WAT    EPW34728   3.590   0.404   2.561
 8506WAT      O34729   4.650   0.336   2.084
 8506WAT     H134730   4.718   0.385   2.060
 8506WAT     H234731   4.608   0.321   2.009
 8506WAT    EPW34732   4.654   0.341   2.069
 8507WAT      O34733   4.638   1.029   1.708
 8507WAT     H134734   4.616   0.956   1.750
 8507WAT     H234735   4.691   1.001   1.645
 8507WAT    EPW34736   4.643   1.014   1.705
 8508WAT      O34737   3.469   0.771   1.408
 8508WAT     H134738   3.477   0.755   1.493
 8508WAT     H234739   3.458   0.693   1.373
 8508WAT    EPW34740   3.469   0.757   1.416
 8509WAT      O34741   3.719   0.595   1.205
 8509WAT     H134742   3.639   0.567   1.224
 8509WAT     H234743   3.716   0.680   1.223
 8509WAT    EPW34744   3.707   0.603   1.210
 8510WAT      O34745   4.365   0.821   2.398
 8510WAT     H134746   4.394   0.881   2.454
 8510WAT     H234747   4.374   0.860   2.320
 8510WAT    EPW34748   4.371   0.836   2.395
 8511WAT      O34749   4.331   1.222   2.866
 8511WAT     H134750   4.257   1.188   2.835
 8511WAT     H234751   4.312   1.307   2.875
 8511WAT    EPW34752   4.317   1.229   2.863
 8512WAT      O34753   4.816   0.654   2.257
 8512WAT     H134754   4.775   0.589   2.298
 8512WAT     H234755   4.751   0.698   2.218
 8512WAT    EPW34756   4.800   0.651   2.257
 8513WAT      O34757   3.739   1.130   2.822
 8513WAT     H134758   3.720   1.149   2.905
 8513WAT     H234759   3.799   1.067   2.829
 8513WAT    EPW34760   3.745   1.123   2.836
 8514WAT      O34761   4.709   1.006   2.159
 8514WAT     H134762   4.788   0.980   2.132
 8514WAT     H234763   4.661   0.933   2.154
 8514WAT    EPW34764   4.714   0.991   2.154
 8515WAT      O34765   3.456   1.021   2.947
 8515WAT     H134766   3.519   1.066   2.987
 8515WAT     H234767   3.409   1.082   2.906
 8515WAT    EPW34768   3.459   1.037   2.947
 8516WAT      O34769   3.311   0.791   2.663
 8516WAT     H134770   3.254   0.851   2.691
 8516WAT     H234771   3.388   0.832   2.670
 8516WAT    EPW34772   3.314   0.806   2.668
 8517WAT      O34773   4.571   0.247   1.562
 8517WAT     H134774   4.598   0.180   1.514
 8517WAT     H234775   4.496   0.271   1.526
 8517WAT    EPW34776   4.564   0.241   1.550
 8518WAT      O34777   3.520   1.100   1.530
 8518WAT     H134778   3.467   1.076   1.465
 8518WAT     H234779   3.588   1.046   1.521
 8518WAT    EPW34780   3.522   1.088   1.519
 8519WAT      O34781   3.875   0.299   1.514
 8519WAT     H134782   3.896   0.341   1.440
 8519WAT     H234783   3.953   0.278   1.548
 8519WAT    EPW34784   3.890   0.302   1.508
 8520WAT      O34785   4.783   1.172   1.185
 8520WAT     H134786   4.851   1.163   1.239
 8520WAT     H234787   4.762   1.089   1.165
 8520WAT    EPW34788   4.790   1.158   1.190
 8521WAT      O34789   5.008   0.591   2.890
 8521WAT     H134790   4.977   0.522   2.933
 8521WAT     H234791   4.981   0.578   2.808
 8521WAT    EPW34792   4.999   0.579   2.884
 8522WAT      O34793   4.432   0.800   1.487
 8522WAT     H134794   4.393   0.797   1.565
 8522WAT     H234795   4.399   0.732   1.444
 8522WAT    EPW34796   4.421   0.790   1.492
 8523WAT      O34797   4.584   0.402   3.104
 8523WAT     H134798   4.660   0.426   3.139
 8523WAT     H234799   4.587   0.436   3.024
 8523WAT    EPW34800   4.596   0.411   3.097
 8524WAT      O34801   3.531   1.050   2.185
 8524WAT     H134802   3.531   0.970   2.148
 8524WAT     H234803   3.494   1.100   2.124
 8524WAT    EPW34804   3.525   1.045   2.170
 8525WAT      O34805   4.119   0.643   1.378
 8525WAT     H134806   4.199   0.614   1.358
 8525WAT     H234807   4.111   0.717   1.333
 8525WAT    EPW34808   4.129   0.650   1.368
 8526WAT      O34809   3.283   1.274   2.526
 8526WAT     H134810   3.289   1.251   2.610
 8526WAT     H234811   3.313   1.205   2.483
 8526WAT    EPW34812   3.289   1.261   2.532
 8527WAT      O34813   3.267   0.809   0.536
 8527WAT     H134814   3.284   0.800   0.621
 8527WAT     H234815   3.205   0.750   0.521
 8527WAT    EPW34816   3.260   0.799   0.546
 8528WAT      O34817   3.861   0.641   0.962
 8528WAT     H134818   3.829   0.617   1.039
 8528WAT     H234819   3.793   0.636   0.908
 8528WAT    EPW34820   3.846   0.637   0.965
 8529WAT      O34821   3.897   0.925   0.677
 8529WAT     H134822   3.915   0.982   0.614
 8529WAT     H234823   3.975   0.893   0.700
 8529WAT    EPW34824   3.911   0.928   0.671
 8530WAT      O34825   4.427   1.086   0.598
 8530WAT     H134826   4.481   1.126   0.654
 8530WAT     H234827   4.456   1.112   0.520
 8530WAT    EPW34828   4.439   1.096   0.594
 8531WAT      O34829   3.652   1.145   0.567
 8531WAT     H134830   3.671   1.134   0.652
 8531WAT     H234831   3.574   1.106   0.559
 8531WAT    EPW34832   3.643   1.137   0.579
 8532WAT      O34833   4.342   0.881   0.928
 8532WAT     H134834   4.340   0.916   1.008
 8532WAT     H234835   4.423   0.852   0.921
 8532WAT    EPW34836   4.354   0.882   0.939
 8533WAT      O34837   3.412   1.035   0.470
 8533WAT     H134838   3.375   0.958   0.492
 8533WAT     H234839   3.431   1.025   0.386
 8533WAT    EPW34840   3.409   1.022   0.461
 8534WAT      O34841   4.173   1.174   0.652
 8534WAT     H134842   4.253   1.143   0.632
 8534WAT     H234843   4.123   1.145   0.586
 8534WAT    EPW34844   4.178   1.165   0.639
 8535WAT      O34845   3.549   0.904   0.864
 8535WAT     H134846   3.610   0.962   0.842
 8535WAT     H234847   3.517   0.934   0.939
 8535WAT    EPW34848   3.554   0.917   0.872
 8536WAT      O34849   3.744   0.516   0.211
 8536WAT     H134850   3.765   0.500   0.294
 8536WAT     H234851   3.708   0.441   0.184
 8536WAT    EPW34852   3.742   0.502   0.219
 8537WAT      O34853   3.820   0.496   0.475
 8537WAT     H134854   3.806   0.581   0.489
 8537WAT     H234855   3.762   0.457   0.527
 8537WAT    EPW34856   3.809   0.503   0.485
 8538WAT      O34857   4.441   0.564   0.526
 8538WAT     H134858   4.378   0.521   0.567
 8538WAT     H234859   4.427   0.648   0.548
 8538WAT    EPW34860   4.430   0.570   0.535
 8539WAT      O34861   3.082   0.804   1.091
 8539WAT     H134862   3.117   0.775   1.166
 8539WAT     H234863   3.059   0.730   1.050
 8539WAT    EPW34864   3.084   0.789   1.096
 8540WAT      O34865   5.015   0.987   0.882
 8540WAT     H134866   4.937   0.988   0.842
 8540WAT     H234867   5.000   0.939   0.953
 8540WAT    EPW34868   5.001   0.980   0.886
 8541WAT      O34869   3.547   0.702   0.307
 8541WAT     H134870   3.595   0.725   0.376
 8541WAT     H234871   3.601   0.651   0.261
 8541WAT    EPW34872   3.562   0.697   0.310
 8542WAT      O34873   4.755   0.981   0.758
 8542WAT     H134874   4.703   1.051   0.761
 8542WAT     H234875   4.748   0.955   0.675
 8542WAT    EPW34876   4.746   0.987   0.746
 8543WAT      O34877   3.979   1.095   0.471
 8543WAT     H134878   3.965   1.038   0.407
 8543WAT     H234879   3.948   1.170   0.439
 8543WAT    EPW34880   3.973   1.098   0.457
 8544WAT      O34881   3.335   0.358   1.108
 8544WAT     H134882   3.352   0.398   1.032
 8544WAT     H234883   3.387   0.288   1.106
 8544WAT    EPW34884   3.345   0.354   1.096
 8545WAT      O34885   4.555   0.512   0.951
 8545WAT     H134886   4.584   0.593   0.937
 8545WAT     H234887   4.598   0.465   0.892
 8545WAT    EPW34888   4.565   0.517   0.940
 8546WAT      O34889   3.950   0.907   1.003
 8546WAT     H134890   3.989   0.897   1.081
 8546WAT     H234891   3.921   0.827   0.985
 8546WAT    EPW34892   3.952   0.893   1.012
 8547WAT      O34893   4.411   0.868   0.253
 8547WAT     H134894   4.349   0.861   0.192
 8547WAT     H234895   4.430   0.953   0.253
 8547WAT    EPW34896   4.405   0.879   0.244
 8548WAT      O34897   4.173   0.764   0.128
 8548WAT     H134898   4.167   0.752   0.214
 8548WAT     H234899   4.134   0.694   0.094
 8548WAT    EPW34900   4.166   0.752   0.135
 8549WAT      O34901   4.696   0.365   0.757
 8549WAT     H134902   4.676   0.355   0.673
 8549WAT     H234903   4.780   0.387   0.755
 8549WAT    EPW34904   4.705   0.367   0.744
 8550WAT      O34905   4.319   1.025   1.169
 8550WAT     H134906   4.349   1.044   1.249
 8550WAT     H234907   4.333   1.098   1.123
 8550WAT    EPW34908   4.326   1.038   1.174
 8551WAT      O34909   4.237   0.424   0.656
 8551WAT     H134910   4.192   0.474   0.713
 8551WAT     H234911   4.265   0.358   0.705
 8551WAT    EPW34912   4.234   0.422   0.672
 8552WAT      O34913   4.609   0.689   0.329
 8552WAT     H134914   4.554   0.741   0.285
 8552WAT     H234915   4.556   0.643   0.380
 8552WAT    EPW34916   4.593   0.690   0.330
 8553WAT      O34917   4.021   0.521   0.135
 8553WAT     H134918   3.934   0.525   0.147
 8553WAT     H234919   4.050   0.483   0.208
 8553WAT    EPW34920   4.012   0.516   0.147
 8554WAT      O34921   3.335   0.524   0.388
 8554WAT     H134922   3.393   0.585   0.365
 8554WAT     H234923   3.270   0.535   0.331
 8554WAT    EPW34924   3.334   0.535   0.376
 8555WAT      O34925   4.629   0.364   0.482
 8555WAT     H134926   4.583   0.303   0.440
 8555WAT     H234927   4.571   0.428   0.496
 8555WAT    EPW34928   4.614   0.364   0.478
 8556WAT      O34929   3.377   0.516   0.879
 8556WAT     H134930   3.363   0.475   0.804
 8556WAT     H234931   3.336   0.592   0.869
 8556WAT    EPW34932   3.369   0.521   0.867
 8557WAT      O34933   4.820   0.500   0.324
 8557WAT     H134934   4.772   0.444   0.370
 8557WAT     H234935   4.762   0.559   0.296
 8557WAT    EPW34936   4.805   0.501   0.327
 8558WAT      O34937   4.965   0.970   0.373
 8558WAT     H134938   5.007   1.007   0.306
 8558WAT     H234939   5.029   0.936   0.422
 8558WAT    EPW34940   4.981   0.971   0.371
 8559WAT      O34941   4.944   0.367   1.144
 8559WAT     H134942   4.916   0.285   1.132
 8559WAT     H234943   5.031   0.360   1.136
 8559WAT    EPW34944   4.953   0.354   1.141
 8560WAT      O34945   4.959   0.463   0.722
 8560WAT     H134946   5.037   0.431   0.696
 8560WAT     H234947   4.943   0.526   0.665
 8560WAT    EPW34948   4.968   0.468   0.710
 8561WAT      O34949   3.756   0.767   0.488
 8561WAT     H134950   3.784   0.808   0.559
 8561WAT     H234951   3.800   0.806   0.423
 8561WAT    EPW34952   3.767   0.779   0.489
 8562WAT      O34953   3.622   0.634   0.821
 8562WAT     H134954   3.551   0.598   0.855
 8562WAT     H234955   3.605   0.720   0.825
 8562WAT    EPW34956   3.609   0.642   0.827
 8563WAT      O34957   4.087   0.451   0.415
 8563WAT     H134958   4.132   0.426   0.485
 8563WAT     H234959   4.004   0.453   0.443
 8563WAT    EPW34960   4.081   0.447   0.429
 8564WAT      O34961   3.926   0.882   0.300
 8564WAT     H134962   3.936   0.881   0.213
 8564WAT     H234963   3.990   0.831   0.328
 8564WAT    EPW34964   3.937   0.875   0.291
 8565WAT      O34965   4.292   0.528   1.044
 8565WAT     H134966   4.369   0.522   1.005
 8565WAT     H234967   4.239   0.557   0.981
 8565WAT    EPW34968   4.295   0.531   1.029
 8566WAT      O34969   4.605   0.793   0.910
 8566WAT     H134970   4.638   0.823   0.984
 8566WAT     H234971   4.649   0.836   0.848
 8566WAT    EPW34972   4.616   0.804   0.912
 8567WAT      O34973   4.072   1.139   0.907
 8567WAT     H134974   4.098   1.127   0.825
 8567WAT     H234975   4.041   1.060   0.930
 8567WAT    EPW34976   4.071   1.125   0.899
 8568WAT      O34977   4.110   0.591   0.839
 8568WAT     H134978   4.032   0.596   0.877
 8568WAT     H234979   4.122   0.672   0.807
 8568WAT    EPW34980   4.100   0.604   0.840
 8569WAT      O34981   3.658   1.187   0.292
 8569WAT     H134982   3.665   1.166   0.377
 8569WAT     H234983   3.622   1.117   0.256
 8569WAT    EPW34984   3.653   1.174   0.300
 8570WAT      O34985   4.158   0.842   0.730
 8570WAT     H134986   4.211   0.862   0.797
 8570WAT     H234987   4.212   0.842   0.661
 8570WAT    EPW34988   4.174   0.845   0.730
 8571WAT      O34989   3.294   1.201   0.900
 8571WAT     H134990   3.237   1.135   0.892
 8571WAT     H234991   3.245   1.267   0.929
 8571WAT    EPW34992   3.278   1.201   0.903
 8572WAT      O34993   4.178   0.323   1.203
 8572WAT     H134994   4.215   0.381   1.149
 8572WAT     H234995   4.098   0.355   1.217
 8572WAT    EPW34996   4.172   0.336   1.197
 8573WAT      O34997   4.490   1.128   0.323
 8573WAT     H134998   4.449   1.204   0.312
 8573WAT     H234999   4.568   1.151   0.354
 8573WAT    EPW35000   4.496   1.143   0.326
 8574WAT      O35001   4.127   0.723   0.398
 8574WAT     H135002   4.120   0.636   0.407
 8574WAT     H235003   4.196   0.744   0.447
 8574WAT    EPW35004   4.136   0.713   0.407
 8575WAT      O35005   4.729   0.910   1.126
 8575WAT     H135006   4.808   0.876   1.114
 8575WAT     H235007   4.702   0.873   1.200
 8575WAT    EPW35008   4.736   0.900   1.135
 8576WAT      O35009   3.334   0.390   0.628
 8576WAT     H135010   3.330   0.437   0.554
 8576WAT     H235011   3.326   0.308   0.600
 8576WAT    EPW35012   3.332   0.385   0.613
 8577WAT      O35013   3.620   0.416   0.646
 8577WAT     H135014   3.626   0.485   0.698
 8577WAT     H235015   3.534   0.407   0.635
 8577WAT    EPW35016   3.608   0.425   0.652
 8578WAT      O35017   4.356   0.832   0.522
 8578WAT     H135018   4.388   0.904   0.560
 8578WAT     H235019   4.374   0.843   0.438
 8578WAT    EPW35020   4.364   0.844   0.515
 8579WAT      O35021   4.335   1.225   0.972
 8579WAT     H135022   4.261   1.187   0.947
 8579WAT     H235023   4.313   1.309   0.981
 8579WAT    EPW35024   4.321   1.232   0.970
 8580WAT      O35025   4.918   0.652   0.528
 8580WAT     H135026   4.892   0.605   0.459
 8580WAT     H235027   4.860   0.717   0.531
 8580WAT    EPW35028   4.906   0.655   0.518
 8581WAT      O35029   3.750   1.101   0.833
 8581WAT     H135030   3.756   1.103   0.920
 8581WAT     H235031   3.808   1.039   0.810
 8581WAT    EPW35032   3.760   1.092   0.843
 8582WAT      O35033   4.742   0.868   0.501
 8582WAT     H135034   4.802   0.910   0.453
 8582WAT     H235035   4.696   0.823   0.443
 8582WAT    EPW35036   4.744   0.868   0.485
 8583WAT      O35037   3.439   1.040   1.079
 8583WAT     H135038   3.517   1.077   1.091
 8583WAT     H235039   3.396   1.098   1.029
 8583WAT    EPW35040   3.444   1.054   1.074
 8584WAT      O35041   3.307   0.781   0.806
 8584WAT     H135042   3.246   0.838   0.830
 8584WAT     H235043   3.381   0.824   0.819
 8584WAT    EPW35044   3.309   0.796   0.811
 8585WAT      O35045   4.891   0.575   0.968
 8585WAT     H135046   4.900   0.509   1.024
 8585WAT     H235047   4.916   0.540   0.891
 8585WAT    EPW35048   4.896   0.560   0.965
 8586WAT      O35049   4.586   0.395   1.211
 8586WAT     H135050   4.656   0.435   1.246
 8586WAT     H235051   4.583   0.427   1.130
 8586WAT    EPW35052   4.596   0.405   1.205
 8587WAT      O35053   3.497   0.962   0.202
 8587WAT     H135054   3.511   0.879   0.224
 8587WAT     H235055   3.477   0.958   0.118
 8587WAT    EPW35056   3.496   0.950   0.193
 8588WAT      O35057   3.248   1.224   0.614
 8588WAT     H135058   3.285   1.212   0.693
 8588WAT     H235059   3.297   1.174   0.562
 8588WAT    EPW35060   3.261   1.214   0.618
 8589WAT      O35061   2.368   6.865   7.412
 8589WAT     H135062   2.358   6.906   7.335
 8589WAT     H235063   2.454   6.851   7.417
 8589WAT    EPW35064   2.379   6.869   7.401
 8590WAT      O35065   1.304   7.320   7.025
 8590WAT     H135066   1.234   7.357   6.989
 8590WAT     H235067   1.280   7.236   7.035
 8590WAT    EPW35068   1.290   7.313   7.021
 8591WAT      O35069   1.599   7.910   6.862
 8591WAT     H135070   1.558   7.863   6.801
 8591WAT     H235071   1.615   7.852   6.925
 8591WAT    EPW35072   1.596   7.894   6.862
 8592WAT      O35073   2.580   7.661   7.518
 8592WAT     H135074   2.583   7.657   7.431
 8592WAT     H235075   2.520   7.601   7.539
 8592WAT    EPW35076   2.571   7.651   7.508
 8593WAT      O35077   1.983   6.970   7.282
 8593WAT     H135078   1.999   7.040   7.233
 8593WAT     H235079   2.052   6.918   7.268
 8593WAT    EPW35080   1.996   6.972   7.273
 8594WAT      O35081   1.678   7.750   7.437
 8594WAT     H135082   1.612   7.762   7.382
 8594WAT     H235083   1.709   7.671   7.416
 8594WAT    EPW35084   1.673   7.740   7.426
 8595WAT      O35085   1.749   7.491   7.373
 8595WAT     H135086   1.802   7.453   7.431
 8595WAT     H235087   1.670   7.462   7.395
 8595WAT    EPW35088   1.745   7.481   7.384
 8596WAT      O35089   1.739   7.041   7.416
 8596WAT     H135090   1.697   7.088   7.356
 8596WAT     H235091   1.816   7.023   7.379
 8596WAT    EPW35092   1.744   7.045   7.402
 8597WAT      O35093   2.049   6.926   7.554
 8597WAT     H135094   2.050   7.006   7.589
 8597WAT     H235095   2.021   6.940   7.472
 8597WAT    EPW35096   2.045   6.940   7.547
 8598WAT      O35097   2.484   7.151   6.825
 8598WAT     H135098   2.446   7.217   6.867
 8598WAT     H235099   2.502   7.094   6.888
 8598WAT    EPW35100   2.481   7.152   6.840
 8599WAT      O35101   1.372   7.544   7.675
 8599WAT     H135102   1.296   7.582   7.655
 8599WAT     H235103   1.348   7.464   7.703
 8599WAT    EPW35104   1.357   7.538   7.676
 8600WAT      O35105   3.018   7.177   7.501
 8600WAT     H135106   2.955   7.236   7.516
 8600WAT     H235107   2.975   7.102   7.493
 8600WAT    EPW35108   3.002   7.175   7.502
 8601WAT      O35109   2.214   7.356   7.417
 8601WAT     H135110   2.251   7.319   7.348
 8601WAT     H235111   2.281   7.390   7.461
 8601WAT    EPW35112   2.229   7.356   7.414
 8602WAT      O35113   2.346   7.376   6.942
 8602WAT     H135114   2.348   7.446   6.994
 8602WAT     H235115   2.267   7.379   6.906
 8602WAT    EPW35116   2.335   7.387   6.945
 8603WAT      O35117   2.533   6.974   7.032
 8603WAT     H135118   2.587   6.906   7.037
 8603WAT     H235119   2.557   7.024   7.100
 8603WAT    EPW35120   2.544   6.971   7.043
 8604WAT      O35121   1.344   7.109   7.299
 8604WAT     H135122   1.328   7.023   7.298
 8604WAT     H235123   1.286   7.139   7.358
 8604WAT    EPW35124   1.333   7.101   7.308
 8605WAT      O35125   2.317   7.241   7.189
 8605WAT     H135126   2.260   7.177   7.172
 8605WAT     H235127   2.323   7.283   7.112
 8605WAT    EPW35128   2.309   7.238   7.175
 8606WAT      O35129   2.282   6.948   7.154
 8606WAT     H135130   2.223   6.932   7.092
 8606WAT     H235131   2.357   6.950   7.110
 8606WAT    EPW35132   2.285   6.945   7.138
 8607WAT      O35133   2.100   7.201   7.613
 8607WAT     H135134   2.135   7.246   7.547
 8607WAT     H235135   2.124   7.245   7.684
 8607WAT    EPW35136   2.109   7.214   7.614
 8608WAT      O35137   1.665   6.796   7.535
 8608WAT     H135138   1.685   6.876   7.506
 8608WAT     H235139   1.641   6.753   7.463
 8608WAT    EPW35140   1.664   6.801   7.520
 8609WAT      O35141   2.632   6.797   7.467
 8609WAT     H135142   2.627   6.785   7.553
 8609WAT     H235143   2.666   6.722   7.438
 8609WAT    EPW35144   2.636   6.784   7.475
 8610WAT      O35145   1.651   7.211   7.620
 8610WAT     H135146   1.678   7.150   7.564
 8610WAT     H235147   1.595   7.168   7.671
 8610WAT    EPW35148   1.647   7.196   7.619
 8611WAT      O35149   2.701   7.660   6.985
 8611WAT     H135150   2.686   7.742   6.958
 8611WAT     H235151   2.677   7.662   7.069
 8611WAT    EPW35152   2.695   7.673   6.993
 8612WAT      O35153   3.044   7.053   6.951
 8612WAT     H135154   3.080   7.012   6.883
 8612WAT     H235155   3.003   7.122   6.915
 8612WAT    EPW35156   3.043   7.057   6.936
 8613WAT      O35157   1.476   7.741   7.244
 8613WAT     H135158   1.435   7.665   7.247
 8613WAT     H235159   1.533   7.733   7.178
 8613WAT    EPW35160   1.478   7.729   7.235
 8614WAT      O35161   2.916   6.934   7.169
 8614WAT     H135162   2.988   6.894   7.196
 8614WAT     H235163   2.943   6.982   7.101
 8614WAT    EPW35164   2.930   6.935   7.163
 8615WAT      O35165   2.544   7.241   7.690
 8615WAT     H135166   2.564   7.212   7.770
 8615WAT     H235167   2.492   7.179   7.659
 8615WAT    EPW35168   2.539   7.227   7.697
 8616WAT      O35169   2.038   7.171   7.105
 8616WAT     H135170   2.020   7.148   7.023
 8616WAT     H235171   2.010   7.253   7.110
 8616WAT    EPW35172   2.031   7.180   7.094
 8617WAT      O35173   1.657   7.416   7.067
 8617WAT     H135174   1.637   7.362   7.132
 8617WAT     H235175   1.616   7.380   6.998
 8617WAT    EPW35176   1.648   7.403   7.066
 8618WAT      O35177   1.526   7.802   7.665
 8618WAT     H135178   1.579   7.786   7.597
 8618WAT     H235179   1.488   7.725   7.679
 8618WAT    EPW35180   1.528   7.788   7.657
 8619WAT      O35181   2.567   7.136   7.249
 8619WAT     H135182   2.621   7.204   7.263
 8619WAT     H235183   2.489   7.174   7.242
 8619WAT    EPW35184   2.563   7.152   7.250
 8620WAT      O35185   2.357   7.590   7.124
 8620WAT     H135186   2.344   7.644   7.057
 8620WAT     H235187   2.292   7.610   7.179
 8620WAT    EPW35188   2.345   7.601   7.122
 8621WAT      O35189   1.816   6.848   7.067
 8621WAT     H135190   1.844   6.864   7.148
 8621WAT     H235191   1.773   6.921   7.045
 8621WAT    EPW35192   1.814   6.861   7.076
 8622WAT      O35193   1.682   7.693   7.057
 8622WAT     H135194   1.666   7.608   7.066
 8622WAT     H235195   1.753   7.707   7.106
 8622WAT    EPW35196   1.690   7.683   7.066
 8623WAT      O35197   1.280   6.829   7.278
 8623WAT     H135198   1.280   6.773   7.211
 8623WAT     H235199   1.248   6.782   7.344
 8623WAT    EPW35200   1.275   6.814   7.278
 8624WAT      O35201   2.147   7.611   7.325
 8624WAT     H135202   2.112   7.640   7.399
 8624WAT     H235203   2.159   7.526   7.340
 8624WAT    EPW35204   2.144   7.602   7.338
 8625WAT      O35205   1.694   7.079   6.983
 8625WAT     H135206   1.633   7.068   6.921
 8625WAT     H235207   1.761   7.114   6.940
 8625WAT    EPW35208   1.695   7.082   6.968
 8626WAT      O35209   2.003   7.636   7.567
 8626WAT     H135210   1.966   7.559   7.583
 8626WAT     H235211   1.936   7.692   7.571
 8626WAT    EPW35212   1.988   7.633   7.570
 8627WAT      O35213   1.880   7.377   7.595
 8627WAT     H135214   1.939   7.313   7.592
 8627WAT     H235215   1.807   7.336   7.619
 8627WAT    EPW35216   1.878   7.362   7.598
 8628WAT      O35217   1.364   7.480   7.250
 8628WAT     H135218   1.406   7.442   7.317
 8628WAT     H235219   1.366   7.420   7.188
 8628WAT    EPW35220   1.371   7.466   7.251
 8629WAT      O35221   1.843   7.642   6.832
 8629WAT     H135222   1.792   7.659   6.901
 8629WAT     H235223   1.790   7.597   6.779
 8629WAT    EPW35224   1.827   7.638   6.834
 8630WAT      O35225   3.027   7.692   7.608
 8630WAT     H135226   3.063   7.771   7.619
 8630WAT     H235227   2.990   7.697   7.529
 8630WAT    EPW35228   3.027   7.704   7.598
 8631WAT      O35229   1.933   7.429   7.080
 8631WAT     H135230   1.942   7.510   7.112
 8631WAT     H235231   1.846   7.418   7.079
 8631WAT    EPW35232   1.921   7.440   7.085
 8632WAT      O35233   1.305   7.269   7.716
 8632WAT     H135234   1.261   7.239   7.647
 8632WAT     H235235   1.268   7.229   7.784
 8632WAT    EPW35236   1.293   7.259   7.716
 8633WAT      O35237   2.784   7.328   7.567
 8633WAT     H135238   2.714   7.290   7.602
 8633WAT     H235239   2.789   7.404   7.608
 8633WAT    EPW35240   2.775   7.334   7.578
 8634WAT      O35241   2.939   7.527   6.945
 8634WAT     H135242   2.992   7.577   6.897
 8634WAT     H235243   2.866   7.575   6.952
 8634WAT    EPW35244   2.936   7.541   6.939
 8635WAT      O35245   2.063   7.795   6.901
 8635WAT     H135246   2.001   7.745   6.867
 8635WAT     H235247   2.036   7.876   6.884
 8635WAT    EPW35248   2.050   7.800   6.894
 8636WAT      O35249   2.719   7.367   7.301
 8636WAT     H135250   2.735   7.356   7.386
 8636WAT     H235251   2.797   7.387   7.268
 8636WAT    EPW35252   2.733   7.368   7.309
 8637WAT      O35253   2.863   6.953   7.442
 8637WAT     H135254   2.783   6.921   7.456
 8637WAT     H235255   2.866   6.963   7.355
 8637WAT    EPW35256   2.851   6.950   7.431
 8638WAT      O35257   2.886   7.698   7.371
 8638WAT     H135258   2.912   7.633   7.319
 8638WAT     H235259   2.802   7.707   7.352
 8638WAT    EPW35260   2.878   7.690   7.360
 8639WAT      O35261   1.601   7.187   7.226
 8639WAT     H135262   1.616   7.147   7.150
 8639WAT     H235263   1.518   7.166   7.244
 8639WAT    EPW35264   1.591   7.178   7.217
 8640WAT      O35265   2.957   7.480   7.215
 8640WAT     H135266   2.956   7.496   7.130
 8640WAT     H235267   3.042   7.473   7.233
 8640WAT    EPW35268   2.970   7.481   7.205
 8641WAT      O35269   1.511   7.328   6.845
 8641WAT     H135270   1.440   7.330   6.895
 8641WAT     H235271   1.512   7.246   6.814
 8641WAT    EPW35272   1.501   7.316   6.848
 8642WAT      O35273   2.352   7.059   7.611
 8642WAT     H135274   2.268   7.081   7.610
 8642WAT     H235275   2.358   6.995   7.552
 8642WAT    EPW35276   2.341   7.053   7.602
 8643WAT      O35277   2.783   7.573   7.690
 8643WAT     H135278   2.858   7.616   7.676
 8643WAT     H235279   2.726   7.615   7.640
 8643WAT    EPW35280   2.786   7.586   7.681
 8644WAT      O35281   2.080   6.875   6.979
 8644WAT     H135282   2.088   6.878   6.892
 8644WAT     H235283   1.994   6.877   6.992
 8644WAT    EPW35284   2.069   6.876   6.968
 8645WAT      O35285   2.401   7.461   7.596
 8645WAT     H135286   2.451   7.398   7.629
 8645WAT     H235287   2.368   7.501   7.667
 8645WAT    EPW35288   2.403   7.458   7.611
 8646WAT      O35289   1.506   7.403   7.475
 8646WAT     H135290   1.468   7.452   7.536
 8646WAT     H235291   1.539   7.336   7.521
 8646WAT    EPW35292   1.506   7.400   7.491
 8647WAT      O35293   2.608   7.616   7.245
 8647WAT     H135294   2.636   7.534   7.259
 8647WAT     H235295   2.528   7.605   7.213
 8647WAT    EPW35296   2.600   7.602   7.242
 8648WAT      O35297   1.952   7.700   7.145
 8648WAT     H135298   2.000   7.737   7.082
 8648WAT     H235299   2.011   7.685   7.208
 8648WAT    EPW35300   1.968   7.703   7.145
 8649WAT      O35301   2.447   6.898   5.532
 8649WAT     H135302   2.486   6.962   5.487
 8649WAT     H235303   2.514   6.852   5.563
 8649WAT    EPW35304   2.463   6.900   5.530
 8650WAT      O35305   2.338   7.471   6.013
 8650WAT     H135306   2.294   7.541   6.040
 8650WAT     H235307   2.394   7.454   6.078
 8650WAT    EPW35308   2.340   7.479   6.026
 8651WAT      O35309   1.302   7.338   5.165
 8651WAT     H135310   1.238   7.387   5.130
 8651WAT     H235311   1.265   7.259   5.174
 8651WAT    EPW35312   1.287   7.334   5.161
 8652WAT      O35313   1.598   7.906   4.970
 8652WAT     H135314   1.559   7.858   4.909
 8652WAT     H235315   1.610   7.851   5.036
 8652WAT    EPW35316   1.594   7.891   4.971
 8653WAT      O35317   2.585   7.638   5.687
 8653WAT     H135318   2.584   7.631   5.600
 8653WAT     H235319   2.526   7.579   5.713
 8653WAT    EPW35320   2.576   7.628   5.678
 8654WAT      O35321   2.017   6.966   5.412
 8654WAT     H135322   1.998   7.028   5.354
 8654WAT     H235323   2.097   6.941   5.390
 8654WAT    EPW35324   2.026   6.971   5.400
 8655WAT      O35325   1.581   7.793   5.625
 8655WAT     H135326   1.543   7.789   5.547
 8655WAT     H235327   1.616   7.713   5.634
 8655WAT    EPW35328   1.581   7.781   5.615
 8656WAT      O35329   1.945   7.310   6.195
 8656WAT     H135330   2.011   7.305   6.139
 8656WAT     H235331   1.907   7.231   6.189
 8656WAT    EPW35332   1.949   7.297   6.186
 8657WAT      O35333   1.650   7.528   5.706
 8657WAT     H135334   1.719   7.475   5.714
 8657WAT     H235335   1.585   7.474   5.683
 8657WAT    EPW35336   1.650   7.512   5.704
 8658WAT      O35337   2.317   7.537   6.638
 8658WAT     H135338   2.231   7.532   6.621
 8658WAT     H235339   2.321   7.586   6.710
 8658WAT    EPW35340   2.305   7.543   6.646
 8659WAT      O35341   1.745   7.021   5.504
 8659WAT     H135342   1.708   7.077   5.449
 8659WAT     H235343   1.828   7.018   5.478
 8659WAT    EPW35344   1.752   7.029   5.492
 8660WAT      O35345   2.733   6.752   6.478
 8660WAT     H135346   2.707   6.820   6.429
 8660WAT     H235347   2.661   6.729   6.521
 8660WAT    EPW35348   2.719   6.759   6.477
 8661WAT      O35349   2.046   6.938   5.688
 8661WAT     H135350   2.057   7.022   5.712
 8661WAT     H235351   2.025   6.943   5.604
 8661WAT    EPW35352   2.045   6.952   5.679
 8662WAT      O35353   2.497   7.153   4.940
 8662WAT     H135354   2.451   7.216   4.978
 8662WAT     H235355   2.510   7.096   5.004
 8662WAT    EPW35356   2.492   7.154   4.955
 8663WAT      O35357   1.307   7.393   5.902
 8663WAT     H135358   1.277   7.475   5.909
 8663WAT     H235359   1.255   7.347   5.955
 8663WAT    EPW35360   1.295   7.398   5.911
 8664WAT      O35361   1.571   6.966   5.930
 8664WAT     H135362   1.559   6.887   5.894
 8664WAT     H235363   1.628   6.951   5.995
 8664WAT    EPW35364   1.578   6.952   5.934
 8665WAT      O35365   1.928   7.149   6.835
 8665WAT     H135366   1.934   7.112   6.757
 8665WAT     H235367   1.972   7.224   6.826
 8665WAT    EPW35368   1.935   7.155   6.822
 8666WAT      O35369   3.047   7.116   5.703
 8666WAT     H135370   2.996   7.187   5.699
 8666WAT     H235371   2.992   7.051   5.686
 8666WAT    EPW35372   3.031   7.117   5.700
 8667WAT      O35373   1.513   7.057   6.773
 8667WAT     H135374   1.432   7.026   6.762
 8667WAT     H235375   1.558   7.023   6.706
 8667WAT    EPW35376   1.507   7.048   6.761
 8668WAT      O35377   2.109   6.876   6.707
 8668WAT     H135378   2.130   6.800   6.668
 8668WAT     H235379   2.046   6.908   6.656
 8668WAT    EPW35380   2.103   6.869   6.694
 8669WAT      O35381   2.219   7.385   5.559
 8669WAT     H135382   2.249   7.336   5.494
 8669WAT     H235383   2.289   7.399   5.609
 8669WAT    EPW35384   2.234   7.380   5.557
 8670WAT      O35385   2.320   7.326   5.079
 8670WAT     H135386   2.336   7.405   5.112
 8670WAT     H235387   2.243   7.336   5.039
 8670WAT    EPW35388   2.311   7.339   5.078
 8671WAT      O35389   2.951   7.038   6.108
 8671WAT     H135390   3.021   7.037   6.056
 8671WAT     H235391   2.969   6.977   6.168
 8671WAT    EPW35392   2.964   7.029   6.109
 8672WAT      O35393   1.253   7.183   6.527
 8672WAT     H135394   1.239   7.262   6.562
 8672WAT     H235395   1.313   7.198   6.465
 8672WAT    EPW35396   1.260   7.197   6.523
 8673WAT      O35397   2.528   6.979   5.157
 8673WAT     H135398   2.587   6.914   5.161
 8673WAT     H235399   2.548   7.028   5.226
 8673WAT    EPW35400   2.540   6.977   5.168
 8674WAT      O35401   1.368   7.091   5.447
 8674WAT     H135402   1.345   7.007   5.434
 8674WAT     H235403   1.322   7.114   5.517
 8674WAT    EPW35404   1.358   7.082   5.456
 8675WAT      O35405   2.303   7.227   5.342
 8675WAT     H135406   2.273   7.146   5.327
 8675WAT     H235407   2.304   7.263   5.263
 8675WAT    EPW35408   2.299   7.220   5.328
 8676WAT      O35409   2.265   6.959   5.266
 8676WAT     H135410   2.210   6.936   5.202
 8676WAT     H235411   2.344   6.952   5.228
 8676WAT    EPW35412   2.269   6.955   5.251
 8677WAT      O35413   2.100   7.207   5.738
 8677WAT     H135414   2.130   7.270   5.685
 8677WAT     H235415   2.114   7.239   5.818
 8677WAT    EPW35416   2.106   7.221   5.742
 8678WAT      O35417   1.673   6.762   5.569
 8678WAT     H135418   1.689   6.845   5.548
 8678WAT     H235419   1.640   6.728   5.495
 8678WAT    EPW35420   1.671   6.769   5.555
 8679WAT      O35421   1.799   7.801   6.051
 8679WAT     H135422   1.810   7.730   6.100
 8679WAT     H235423   1.746   7.776   5.987
 8679WAT    EPW35424   1.793   7.787   6.049
 8680WAT      O35425   2.454   7.156   6.327
 8680WAT     H135426   2.444   7.192   6.406
 8680WAT     H235427   2.389   7.098   6.322
 8680WAT    EPW35428   2.443   7.153   6.338
 8681WAT      O35429   2.659   6.747   5.634
 8681WAT     H135430   2.647   6.736   5.720
 8681WAT     H235431   2.692   6.671   5.608
 8681WAT    EPW35432   2.662   6.735   5.643
 8682WAT      O35433   2.848   7.185   6.434
 8682WAT     H135434   2.932   7.178   6.455
 8682WAT     H235435   2.807   7.181   6.511
 8682WAT    EPW35436   2.854   7.183   6.449
 8683WAT      O35437   1.632   7.150   5.728
 8683WAT     H135438   1.662   7.100   5.663
 8683WAT     H235439   1.615   7.092   5.791
 8683WAT    EPW35440   1.634   7.134   5.727
 8684WAT      O35441   1.512   7.342   6.088
 8684WAT     H135442   1.589   7.364   6.054
 8684WAT     H235443   1.455   7.357   6.023
 8684WAT    EPW35444   1.515   7.347   6.073
 8685WAT      O35445   2.728   7.654   5.063
 8685WAT     H135446   2.704   7.729   5.024
 8685WAT     H235447   2.740   7.677   5.146
 8685WAT    EPW35448   2.726   7.669   5.069
 8686WAT      O35449   3.090   7.088   5.159
 8686WAT     H135450   3.165   7.047   5.143
 8686WAT     H235451   3.065   7.116   5.081
 8686WAT    EPW35452   3.097   7.086   5.145
 8687WAT      O35453   2.079   7.386   6.848
 8687WAT     H135454   2.028   7.417   6.911
 8687WAT     H235455   2.059   7.435   6.778
 8687WAT    EPW35456   2.069   7.398   6.847
 8688WAT      O35457   3.135   7.470   6.321
 8688WAT     H135458   3.199   7.411   6.327
 8688WAT     H235459   3.082   7.436   6.260
 8688WAT    EPW35460   3.137   7.456   6.313
 8689WAT      O35461   1.478   7.738   5.372
 8689WAT     H135462   1.447   7.656   5.380
 8689WAT     H235463   1.536   7.731   5.308
 8689WAT    EPW35464   1.482   7.725   5.364
 8690WAT      O35465   2.928   6.931   5.330
 8690WAT     H135466   2.998   6.884   5.348
 8690WAT     H235467   2.959   6.996   5.281
 8690WAT    EPW35468   2.943   6.934   5.326
 8691WAT      O35469   2.592   7.200   5.773
 8691WAT     H135470   2.624   7.163   5.846
 8691WAT     H235471   2.522   7.151   5.755
 8691WAT    EPW35472   2.587   7.187   5.781
 8692WAT      O35473   1.963   7.151   5.222
 8692WAT     H135474   1.959   7.134   5.136
 8692WAT     H235475   1.959   7.238   5.226
 8692WAT    EPW35476   1.962   7.161   5.210
 8693WAT      O35477   1.635   7.519   6.687
 8693WAT     H135478   1.594   7.460   6.737
 8693WAT     H235479   1.645   7.478   6.611
 8693WAT    EPW35480   1.631   7.504   6.683
 8694WAT      O35481   1.649   7.422   5.187
 8694WAT     H135482   1.630   7.363   5.249
 8694WAT     H235483   1.607   7.391   5.116
 8694WAT    EPW35484   1.640   7.409   5.186
 8695WAT      O35485   1.570   7.721   5.896
 8695WAT     H135486   1.561   7.771   5.825
 8695WAT     H235487   1.592   7.643   5.863
 8695WAT    EPW35488   1.572   7.717   5.880
 8696WAT      O35489   1.711   7.591   6.252
 8696WAT     H135490   1.722   7.541   6.182
 8696WAT     H235491   1.641   7.639   6.233
 8696WAT    EPW35492   1.702   7.591   6.239
 8697WAT      O35493   2.730   7.361   6.056
 8697WAT     H135494   2.669   7.392   6.109
 8697WAT     H235495   2.733   7.419   5.991
 8697WAT    EPW35496   2.722   7.374   6.054
 8698WAT      O35497   2.285   6.937   6.387
 8698WAT     H135498   2.302   6.853   6.367
 8698WAT     H235499   2.314   6.944   6.469
 8698WAT    EPW35500   2.292   6.925   6.396
 8699WAT      O35501   2.555   7.122   5.392
 8699WAT     H135502   2.617   7.183   5.402
 8699WAT     H235503   2.482   7.169   5.383
 8699WAT    EPW35504   2.554   7.138   5.392
 8700WAT      O35505   1.477   7.744   6.665
 8700WAT     H135506   1.455   7.744   6.581
 8700WAT     H235507   1.524   7.671   6.675
 8700WAT    EPW35508   1.481   7.733   6.654
 8701WAT      O35509   2.138   7.283   5.999
 8701WAT     H135510   2.205   7.338   6.008
 8701WAT     H235511   2.169   7.208   6.032
 8701WAT    EPW35512   2.153   7.280   6.006
 8702WAT      O35513   2.364   7.562   5.223
 8702WAT     H135514   2.363   7.623   5.161
 8702WAT     H235515   2.302   7.588   5.279
 8702WAT    EPW35516   2.354   7.574   5.222
 8703WAT      O35517   1.812   6.827   5.171
 8703WAT     H135518   1.811   6.820   5.258
 8703WAT     H235519   1.761   6.897   5.155
 8703WAT    EPW35520   1.804   6.837   5.181
 8704WAT      O35521   2.967   7.800   6.417
 8704WAT     H135522   2.939   7.765   6.342
 8704WAT     H235523   3.053   7.786   6.415
 8704WAT    EPW35524   2.975   7.793   6.405
 8705WAT      O35525   2.853   6.890   6.687
 8705WAT     H135526   2.816   6.845   6.622
 8705WAT     H235527   2.859   6.831   6.751
 8705WAT    EPW35528   2.849   6.874   6.687
 8706WAT      O35529   1.682   7.698   5.174
 8706WAT     H135530   1.665   7.613   5.182
 8706WAT     H235531   1.755   7.709   5.220
 8706WAT    EPW35532   1.690   7.687   5.182
 8707WAT      O35533   2.407   7.782   6.282
 8707WAT     H135534   2.431   7.858   6.317
 8707WAT     H235535   2.446   7.723   6.334
 8707WAT    EPW35536   2.416   7.785   6.295
 8708WAT      O35537   1.273   6.827   5.405
 8708WAT     H135538   1.269   6.771   5.337
 8708WAT     H235539   1.242   6.780   5.471
 8708WAT    EPW35540   1.268   6.811   5.405
 8709WAT      O35541   2.177   7.629   5.426
 8709WAT     H135542   2.198   7.686   5.488
 8709WAT     H235543   2.177   7.552   5.467
 8709WAT    EPW35544   2.180   7.626   5.441
 8710WAT      O35545   1.670   7.054   5.098
 8710WAT     H135546   1.607   7.050   5.037
 8710WAT     H235547   1.737   7.091   5.056
 8710WAT    EPW35548   1.670   7.059   5.083
 8711WAT      O35549   2.058   7.823   5.932
 8711WAT     H135550   1.978   7.826   5.967
 8711WAT     H235551   2.105   7.781   5.992
 8711WAT    EPW35552   2.053   7.817   5.946
 8712WAT      O35553   1.533   7.792   6.163
 8712WAT     H135554   1.607   7.837   6.159
 8712WAT     H235555   1.521   7.764   6.082
 8712WAT    EPW35556   1.542   7.794   6.151
 8713WAT      O35557   1.837   7.329   5.776
 8713WAT     H135558   1.913   7.291   5.758
 8713WAT     H235559   1.778   7.266   5.763
 8713WAT    EPW35560   1.839   7.314   5.772
 8714WAT      O35561   1.375   7.476   5.407
 8714WAT     H135562   1.393   7.429   5.478
 8714WAT     H235563   1.369   7.416   5.344
 8714WAT    EPW35564   1.377   7.460   5.408
 8715WAT      O35565   2.870   7.669   6.184
 8715WAT     H135566   2.858   7.595   6.228
 8715WAT     H235567   2.789   7.695   6.165
 8715WAT    EPW35568   2.856   7.662   6.188
 8716WAT      O35569   1.841   7.646   4.945
 8716WAT     H135570   1.788   7.667   5.011
 8716WAT     H235571   1.791   7.596   4.894
 8716WAT    EPW35572   1.826   7.642   4.947
 8717WAT      O35573   3.018   7.654   5.946
 8717WAT     H135574   2.982   7.659   6.025
 8717WAT     H235575   3.054   7.733   5.936
 8717WAT    EPW35576   3.018   7.667   5.956
 8718WAT      O35577   1.924   7.427   5.192
 8718WAT     H135578   1.939   7.508   5.219
 8718WAT     H235579   1.837   7.422   5.188
 8718WAT    EPW35580   1.913   7.438   5.195
 8719WAT      O35581   2.735   7.145   6.688
 8719WAT     H135582   2.659   7.147   6.732
 8719WAT     H235583   2.761   7.062   6.697
 8719WAT    EPW35584   2.727   7.133   6.695
 8720WAT      O35585   1.297   7.054   5.932
 8720WAT     H135586   1.278   7.076   5.850
 8720WAT     H235587   1.382   7.034   5.928
 8720WAT    EPW35588   1.307   7.054   5.919
 8721WAT      O35589   2.593   7.470   6.815
 8721WAT     H135590   2.620   7.528   6.874
 8721WAT     H235591   2.513   7.448   6.843
 8721WAT    EPW35592   2.585   7.475   6.828
 8722WAT      O35593   2.752   7.544   6.601
 8722WAT     H135594   2.776   7.623   6.628
 8722WAT     H235595   2.704   7.513   6.668
 8722WAT    EPW35596   2.748   7.551   6.615
 8723WAT      O35597   2.833   7.302   5.682
 8723WAT     H135598   2.761   7.261   5.709
 8723WAT     H235599   2.832   7.377   5.728
 8723WAT    EPW35600   2.822   7.307   5.693
 8724WAT      O35601   3.088   7.662   6.755
 8724WAT     H135602   3.081   7.597   6.697
 8724WAT     H235603   3.168   7.694   6.740
 8724WAT    EPW35604   3.099   7.657   6.744
 8725WAT      O35605   2.678   6.986   6.332
 8725WAT     H135606   2.739   7.046   6.350
 8725WAT     H235607   2.605   7.033   6.325
 8725WAT    EPW35608   2.677   7.002   6.333
 8726WAT      O35609   2.196   7.678   6.136
 8726WAT     H135610   2.261   7.719   6.176
 8726WAT     H235611   2.145   7.651   6.201
 8726WAT    EPW35612   2.198   7.680   6.151
 8727WAT      O35613   1.922   7.283   6.473
 8727WAT     H135614   1.923   7.198   6.491
 8727WAT     H235615   1.942   7.286   6.388
 8727WAT    EPW35616   1.925   7.271   6.463
 8728WAT      O35617   2.747   6.784   6.148
 8728WAT     H135618   2.722   6.858   6.188
 8728WAT     H235619   2.831   6.777   6.170
 8728WAT    EPW35620   2.756   6.794   6.157
 8729WAT      O35621   2.012   6.893   6.324
 8729WAT     H135622   2.095   6.919   6.325
 8729WAT     H235623   2.015   6.815   6.284
 8729WAT    EPW35624   2.025   6.885   6.318
 8730WAT      O35625   2.973   7.503   5.051
 8730WAT     H135626   3.019   7.556   5.000
 8730WAT     H235627   2.893   7.538   5.050
 8730WAT    EPW35628   2.968   7.516   5.044
 8731WAT      O35629   2.066   7.797   5.018
 8731WAT     H135630   2.006   7.745   4.980
 8731WAT     H235631   2.036   7.877   5.002
 8731WAT    EPW35632   2.053   7.801   5.010
 8732WAT      O35633   1.770   7.437   6.027
 8732WAT     H135634   1.792   7.414   5.946
 8732WAT     H235635   1.828   7.394   6.077
 8732WAT    EPW35636   1.782   7.427   6.023
 8733WAT      O35637   2.425   7.283   6.571
 8733WAT     H135638   2.389   7.360   6.594
 8733WAT     H235639   2.459   7.254   6.646
 8733WAT    EPW35640   2.424   7.290   6.586
 8734WAT      O35641   2.509   7.411   6.221
 8734WAT     H135642   2.516   7.459   6.293
 8734WAT     H235643   2.492   7.331   6.251
 8734WAT    EPW35644   2.508   7.406   6.236
 8735WAT      O35645   2.738   7.339   5.425
 8735WAT     H135646   2.767   7.327   5.506
 8735WAT     H235647   2.805   7.379   5.385
 8735WAT    EPW35648   2.752   7.343   5.431
 8736WAT      O35649   2.009   6.874   5.966
 8736WAT     H135650   1.926   6.862   5.992
 8736WAT     H235651   2.003   6.880   5.879
 8736WAT    EPW35652   1.996   6.873   5.957
 8737WAT      O35653   2.879   6.916   5.607
 8737WAT     H135654   2.802   6.876   5.619
 8737WAT     H235655   2.879   6.935   5.522
 8737WAT    EPW35656   2.868   6.913   5.596
 8738WAT      O35657   2.777   7.721   5.325
 8738WAT     H135658   2.842   7.666   5.344
 8738WAT     H235659   2.707   7.684   5.362
 8738WAT    EPW35660   2.776   7.708   5.333
 8739WAT      O35661   1.257   6.956   6.687
 8739WAT     H135662   1.258   7.027   6.635
 8739WAT     H235663   1.173   6.930   6.684
 8739WAT    EPW35664   1.244   6.963   6.679
 8740WAT      O35665   1.604   7.188   5.336
 8740WAT     H135666   1.614   7.142   5.262
 8740WAT     H235667   1.526   7.162   5.366
 8740WAT    EPW35668   1.594   7.177   5.329
 8741WAT      O35669   3.031   7.455   6.579
 8741WAT     H135670   2.945   7.466   6.584
 8741WAT     H235671   3.049   7.468   6.495
 8741WAT    EPW35672   3.021   7.459   6.568
 8742WAT      O35673   2.516   7.586   6.447
 8742WAT     H135674   2.452   7.571   6.505
 8742WAT     H235675   2.589   7.577   6.494
 8742WAT    EPW35676   2.517   7.582   6.462
 8743WAT      O35677   2.327   7.709   6.870
 8743WAT     H135678   2.378   7.777   6.854
 8743WAT     H235679   2.247   7.743   6.872
 8743WAT    EPW35680   2.323   7.724   6.868
 8744WAT      O35681   1.666   7.390   6.444
 8744WAT     H135682   1.680   7.452   6.385
 8744WAT     H235683   1.745   7.354   6.454
 8744WAT    EPW35684   1.680   7.393   6.437
 8745WAT      O35685   1.457   7.246   6.337
 8745WAT     H135686   1.470   7.265   6.253
 8745WAT     H235687   1.523   7.285   6.377
 8745WAT    EPW35688   1.468   7.254   6.330
 8746WAT      O35689   2.951   7.502   5.335
 8746WAT     H135690   2.969   7.506   5.249
 8746WAT     H235691   3.030   7.501   5.372
 8746WAT    EPW35692   2.966   7.502   5.327
 8747WAT      O35693   1.644   6.923   6.570
 8747WAT     H135694   1.600   6.848   6.577
 8747WAT     H235695   1.626   6.949   6.489
 8747WAT    EPW35696   1.635   6.915   6.559
 8748WAT      O35697   2.815   7.452   6.346
 8748WAT     H135698   2.823   7.366   6.355
 8748WAT     H235699   2.787   7.478   6.425
 8748WAT    EPW35700   2.812   7.443   6.359
 8749WAT      O35701   1.406   7.705   6.398
 8749WAT     H135702   1.435   7.743   6.325
 8749WAT     H235703   1.361   7.636   6.369
 8749WAT    EPW35704   1.404   7.700   6.383
 8750WAT      O35705   1.499   7.329   4.970
 8750WAT     H135706   1.431   7.332   5.024
 8750WAT     H235707   1.496   7.248   4.938
 8750WAT    EPW35708   1.489   7.317   4.973
 8751WAT      O35709   2.370   6.955   6.654
 8751WAT     H135710   2.396   7.023   6.701
 8751WAT     H235711   2.288   6.941   6.682
 8751WAT    EPW35712   2.362   6.963   6.665
 8752WAT      O35713   2.358   7.055   5.744
 8752WAT     H135714   2.279   7.092   5.731
 8752WAT     H235715   2.368   7.004   5.674
 8752WAT    EPW35716   2.347   7.053   5.732
 8753WAT      O35717   2.686   7.092   6.012
 8753WAT     H135718   2.764   7.057   6.032
 8753WAT     H235719   2.694   7.175   6.038
 8753WAT    EPW35720   2.699   7.099   6.019
 8754WAT      O35721   1.851   7.676   6.487
 8754WAT     H135722   1.786   7.708   6.537
 8754WAT     H235723   1.811   7.657   6.412
 8754WAT    EPW35724   1.835   7.678   6.484
 8755WAT      O35725   2.787   7.528   5.840
 8755WAT     H135726   2.855   7.580   5.855
 8755WAT     H235727   2.734   7.578   5.793
 8755WAT    EPW35728   2.790   7.543   5.835
 8756WAT      O35729   1.827   7.066   6.204
 8756WAT     H135730   1.750   7.038   6.232
 8756WAT     H235731   1.883   7.005   6.230
 8756WAT    EPW35732   1.824   7.053   6.212
 8757WAT      O35733   2.995   6.824   6.287
 8757WAT     H135734   2.963   6.811   6.367
 8757WAT     H235735   3.081   6.811   6.297
 8757WAT    EPW35736   3.003   6.820   6.300
 8758WAT      O35737   2.205   7.033   6.089
 8758WAT     H135738   2.144   6.982   6.052
 8758WAT     H235739   2.280   6.995   6.067
 8758WAT    EPW35740   2.207   7.020   6.080
 8759WAT      O35741   2.042   7.504   6.596
 8759WAT     H135742   2.011   7.432   6.557
 8759WAT     H235743   1.987   7.566   6.570
 8759WAT    EPW35744   2.029   7.502   6.587
 8760WAT      O35745   2.077   6.856   5.092
 8760WAT     H135746   2.081   6.864   5.006
 8760WAT     H235747   1.991   6.861   5.109
 8760WAT    EPW35748   2.065   6.858   5.082
 8761WAT      O35749   1.580   6.995   6.313
 8761WAT     H135750   1.524   6.931   6.293
 8761WAT     H235751   1.531   7.067   6.313
 8761WAT    EPW35752   1.565   6.996   6.310
 8762WAT      O35753   2.448   6.941   5.981
 8762WAT     H135754   2.516   6.991   6.003
 8762WAT     H235755   2.419   6.977   5.907
 8762WAT    EPW35756   2.453   6.954   5.974
 8763WAT      O35757   2.421   7.422   5.751
 8763WAT     H135758   2.480   7.359   5.763
 8763WAT     H235759   2.394   7.440   5.832
 8763WAT    EPW35760   2.425   7.415   5.765
 8764WAT      O35761   1.443   7.349   5.655
 8764WAT     H135762   1.393   7.356   5.726
 8764WAT     H235763   1.491   7.278   5.670
 8764WAT    EPW35764   1.443   7.340   5.668
 8765WAT      O35765   2.569   7.564   5.416
 8765WAT     H135766   2.611   7.487   5.415
 8765WAT     H235767   2.510   7.556   5.353
 8765WAT    EPW35768   2.566   7.551   5.407
 8766WAT      O35769   1.958   7.694   5.260
 8766WAT     H135770   2.001   7.731   5.194
 8766WAT     H235771   2.019   7.683   5.321
 8766WAT    EPW35772   1.973   7.698   5.259
 8767WAT      O35773   2.853   7.794   6.673
 8767WAT     H135774   2.927   7.767   6.711
 8767WAT     H235775   2.879   7.813   6.591
 8767WAT    EPW35776   2.868   7.793   6.666
 8768WAT      O35777   2.933   7.273   6.833
 8768WAT     H135778   2.912   7.354   6.858
 8768WAT     H235779   2.863   7.247   6.787
 8768WAT    EPW35780   2.919   7.281   6.830
 8769WAT      O35781   2.997   7.317   6.123
 8769WAT     H135782   2.915   7.340   6.107
 8769WAT     H235783   2.994   7.230   6.128
 8769WAT    EPW35784   2.985   7.308   6.121
 8770WAT      O35785   1.912   7.008   6.558
 8770WAT     H135786   1.940   6.970   6.485
 8770WAT     H235787   1.831   6.976   6.568
 8770WAT    EPW35788   1.904   6.998   6.549
 8771WAT      O35789   2.659   7.908   6.866
 8771WAT     H135790   2.717   7.898   6.801
 8771WAT     H235791   2.668   7.991   6.889
 8771WAT    EPW35792   2.669   7.919   6.860
 8772WAT      O35793   2.432   6.915   3.633
 8772WAT     H135794   2.470   6.981   3.591
 8772WAT     H235795   2.499   6.870   3.666
 8772WAT    EPW35796   2.447   6.918   3.632
 8773WAT      O35797   2.343   7.455   4.108
 8773WAT     H135798   2.300   7.525   4.138
 8773WAT     H235799   2.402   7.439   4.171
 8773WAT    EPW35800   2.346   7.463   4.122
 8774WAT      O35801   1.296   7.339   3.277
 8774WAT     H135802   1.232   7.388   3.244
 8774WAT     H235803   1.260   7.260   3.284
 8774WAT    EPW35804   1.281   7.334   3.273
 8775WAT      O35805   1.599   7.907   3.067
 8775WAT     H135806   1.557   7.859   3.008
 8775WAT     H235807   1.609   7.853   3.135
 8775WAT    EPW35808   1.594   7.892   3.068
 8776WAT      O35809   2.592   7.627   3.791
 8776WAT     H135810   2.587   7.626   3.704
 8776WAT     H235811   2.534   7.567   3.816
 8776WAT    EPW35812   2.583   7.618   3.782
 8777WAT      O35813   1.975   6.955   3.506
 8777WAT     H135814   1.972   7.025   3.454
 8777WAT     H235815   2.054   6.922   3.491
 8777WAT    EPW35816   1.986   6.961   3.496
 8778WAT      O35817   1.592   7.794   3.729
 8778WAT     H135818   1.552   7.791   3.652
 8778WAT     H235819   1.626   7.715   3.738
 8778WAT    EPW35820   1.591   7.782   3.719
 8779WAT      O35821   1.948   7.298   4.302
 8779WAT     H135822   2.015   7.289   4.247
 8779WAT     H235823   1.906   7.221   4.297
 8779WAT    EPW35824   1.952   7.285   4.293
 8780WAT      O35825   1.655   7.527   3.810
 8780WAT     H135826   1.723   7.473   3.819
 8780WAT     H235827   1.590   7.475   3.787
 8780WAT    EPW35828   1.656   7.512   3.808
 8781WAT      O35829   2.309   7.528   4.809
 8781WAT     H135830   2.228   7.528   4.777
 8781WAT     H235831   2.310   7.597   4.863
 8781WAT    EPW35832   2.297   7.538   4.812
 8782WAT      O35833   1.726   7.023   3.623
 8782WAT     H135834   1.685   7.076   3.566
 8782WAT     H235835   1.806   7.014   3.590
 8782WAT    EPW35836   1.732   7.029   3.610
 8783WAT      O35837   2.717   6.770   4.627
 8783WAT     H135838   2.694   6.836   4.575
 8783WAT     H235839   2.642   6.747   4.665
 8783WAT    EPW35840   2.703   6.776   4.625
 8784WAT      O35841   2.037   6.932   3.790
 8784WAT     H135842   2.055   7.015   3.809
 8784WAT     H235843   2.003   6.937   3.710
 8784WAT    EPW35844   2.035   6.945   3.781
 8785WAT      O35845   2.483   7.144   3.049
 8785WAT     H135846   2.434   7.210   3.079
 8785WAT     H235847   2.492   7.091   3.118
 8785WAT    EPW35848   2.477   7.146   3.063
 8786WAT      O35849   1.311   7.405   4.006
 8786WAT     H135850   1.279   7.486   4.011
 8786WAT     H235851   1.258   7.359   4.057
 8786WAT    EPW35852   1.299   7.410   4.014
 8787WAT      O35853   1.571   6.967   4.042
 8787WAT     H135854   1.550   6.889   4.009
 8787WAT     H235855   1.630   6.948   4.104
 8787WAT    EPW35856   1.576   6.953   4.046
 8788WAT      O35857   1.898   7.132   4.942
 8788WAT     H135858   1.906   7.095   4.864
 8788WAT     H235859   1.948   7.204   4.937
 8788WAT    EPW35860   1.907   7.137   4.930
 8789WAT      O35861   3.077   7.105   3.755
 8789WAT     H135862   3.030   7.178   3.762
 8789WAT     H235863   3.016   7.043   3.743
 8789WAT    EPW35864   3.061   7.106   3.754
 8790WAT      O35865   1.494   7.061   4.882
 8790WAT     H135866   1.415   7.032   4.860
 8790WAT     H235867   1.545   7.031   4.819
 8790WAT    EPW35868   1.490   7.052   4.870
 8791WAT      O35869   2.104   6.877   4.820
 8791WAT     H135870   2.126   6.803   4.779
 8791WAT     H235871   2.040   6.909   4.770
 8791WAT    EPW35872   2.098   6.871   4.806
 8792WAT      O35873   2.216   7.380   3.668
 8792WAT     H135874   2.241   7.331   3.600
 8792WAT     H235875   2.289   7.392   3.713
 8792WAT    EPW35876   2.230   7.374   3.664
 8793WAT      O35877   2.308   7.323   3.182
 8793WAT     H135878   2.327   7.402   3.216
 8793WAT     H235879   2.232   7.337   3.141
 8793WAT    EPW35880   2.299   7.337   3.181
 8794WAT      O35881   2.970   7.033   4.188
 8794WAT     H135882   3.035   7.026   4.131
 8794WAT     H235883   2.986   6.968   4.245
 8794WAT    EPW35884   2.982   7.022   4.188
 8795WAT      O35885   1.249   7.185   4.619
 8795WAT     H135886   1.236   7.262   4.659
 8795WAT     H235887   1.310   7.202   4.559
 8795WAT    EPW35888   1.256   7.199   4.616
 8796WAT      O35889   2.498   6.980   3.272
 8796WAT     H135890   2.563   6.921   3.269
 8796WAT     H235891   2.521   7.033   3.337
 8796WAT    EPW35892   2.511   6.979   3.281
 8797WAT      O35893   1.361   7.088   3.546
 8797WAT     H135894   1.339   7.005   3.532
 8797WAT     H235895   1.315   7.110   3.616
 8797WAT    EPW35896   1.351   7.079   3.554
 8798WAT      O35897   2.284   7.224   3.444
 8798WAT     H135898   2.249   7.145   3.431
 8798WAT     H235899   2.285   7.259   3.364
 8798WAT    EPW35900   2.279   7.218   3.430
 8799WAT      O35901   2.235   6.953   3.373
 8799WAT     H135902   2.183   6.933   3.306
 8799WAT     H235903   2.315   6.952   3.337
 8799WAT    EPW35904   2.239   6.950   3.358
 8800WAT      O35905   2.104   7.197   3.847
 8800WAT     H135906   2.133   7.261   3.796
 8800WAT     H235907   2.116   7.227   3.928
 8800WAT    EPW35908   2.110   7.211   3.851
 8801WAT      O35909   1.695   6.760   3.709
 8801WAT     H135910   1.699   6.845   3.687
 8801WAT     H235911   1.674   6.721   3.634
 8801WAT    EPW35912   1.692   6.767   3.695
 8802WAT      O35913   1.810   7.784   4.146
 8802WAT     H135914   1.822   7.708   4.186
 8802WAT     H235915   1.751   7.766   4.084
 8802WAT    EPW35916   1.803   7.770   4.143
 8803WAT      O35917   2.438   7.160   4.442
 8803WAT     H135918   2.425   7.198   4.519
 8803WAT     H235919   2.375   7.100   4.438
 8803WAT    EPW35920   2.427   7.156   4.453
 8804WAT      O35921   2.647   6.771   3.734
 8804WAT     H135922   2.648   6.751   3.819
 8804WAT     H235923   2.667   6.696   3.694
 8804WAT    EPW35924   2.650   6.757   3.740
 8805WAT      O35925   2.841   7.200   4.549
 8805WAT     H135926   2.927   7.190   4.557
 8805WAT     H235927   2.812   7.198   4.631
 8805WAT    EPW35928   2.849   7.199   4.562
 8806WAT      O35929   1.628   7.157   3.846
 8806WAT     H135930   1.654   7.107   3.780
 8806WAT     H235931   1.611   7.100   3.910
 8806WAT    EPW35932   1.629   7.141   3.846
 8807WAT      O35933   1.517   7.350   4.191
 8807WAT     H135934   1.594   7.371   4.157
 8807WAT     H235935   1.461   7.368   4.126
 8807WAT    EPW35936   1.520   7.356   4.176
 8808WAT      O35937   2.717   7.663   3.162
 8808WAT     H135938   2.698   7.739   3.123
 8808WAT     H235939   2.729   7.685   3.245
 8808WAT    EPW35940   2.716   7.677   3.168
 8809WAT      O35941   3.046   7.075   3.186
 8809WAT     H135942   3.090   7.023   3.131
 8809WAT     H235943   3.004   7.130   3.133
 8809WAT    EPW35944   3.046   7.076   3.170
 8810WAT      O35945   2.061   7.357   4.963
 8810WAT     H135946   2.016   7.394   5.027
 8810WAT     H235947   2.050   7.411   4.895
 8810WAT    EPW35948   2.053   7.370   4.962
 8811WAT      O35949   3.158   7.452   4.421
 8811WAT     H135950   3.226   7.397   4.416
 8811WAT     H235951   3.103   7.422   4.359
 8811WAT    EPW35952   3.160   7.440   4.411
 8812WAT      O35953   1.481   7.740   3.479
 8812WAT     H135954   1.448   7.660   3.487
 8812WAT     H235955   1.537   7.733   3.412
 8812WAT    EPW35956   1.484   7.728   3.470
 8813WAT      O35957   2.922   6.941   3.402
 8813WAT     H135958   2.995   6.898   3.424
 8813WAT     H235959   2.949   6.998   3.341
 8813WAT    EPW35960   2.937   6.943   3.396
 8814WAT      O35961   2.602   7.185   3.875
 8814WAT     H135962   2.636   7.153   3.949
 8814WAT     H235963   2.529   7.139   3.864
 8814WAT    EPW35964   2.596   7.173   3.884
 8815WAT      O35965   1.967   7.151   3.320
 8815WAT     H135966   1.960   7.137   3.234
 8815WAT     H235967   1.959   7.238   3.327
 8815WAT    EPW35968   1.965   7.162   3.308
 8816WAT      O35969   1.636   7.509   4.806
 8816WAT     H135970   1.591   7.452   4.855
 8816WAT     H235971   1.645   7.468   4.730
 8816WAT    EPW35972   1.630   7.494   4.802
 8817WAT      O35973   1.642   7.422   3.292
 8817WAT     H135974   1.622   7.364   3.355
 8817WAT     H235975   1.599   7.391   3.222
 8817WAT    EPW35976   1.632   7.409   3.291
 8818WAT      O35977   1.574   7.721   3.998
 8818WAT     H135978   1.566   7.772   3.928
 8818WAT     H235979   1.594   7.643   3.965
 8818WAT    EPW35980   1.575   7.717   3.983
 8819WAT      O35981   1.713   7.583   4.370
 8819WAT     H135982   1.725   7.534   4.299
 8819WAT     H235983   1.647   7.635   4.348
 8819WAT    EPW35984   1.705   7.583   4.356
 8820WAT      O35985   2.754   7.355   4.150
 8820WAT     H135986   2.687   7.383   4.198
 8820WAT     H235987   2.755   7.410   4.082
 8820WAT    EPW35988   2.744   7.367   4.148
 8821WAT      O35989   2.275   6.934   4.501
 8821WAT     H135990   2.300   6.853   4.481
 8821WAT     H235991   2.304   6.945   4.583
 8821WAT    EPW35992   2.283   6.924   4.510
 8822WAT      O35993   2.542   7.135   3.495
 8822WAT     H135994   2.604   7.196   3.502
 8822WAT     H235995   2.469   7.181   3.485
 8822WAT    EPW35996   2.540   7.151   3.495
 8823WAT      O35997   1.482   7.737   4.773
 8823WAT     H135998   1.463   7.736   4.688
 8823WAT     H235999   1.528   7.663   4.784
 8823WAT    EPW36000   1.486   7.726   4.762
 8824WAT      O36001   2.145   7.264   4.110
 8824WAT     H136002   2.211   7.321   4.115
 8824WAT     H236003   2.180   7.190   4.140
 8824WAT    EPW36004   2.160   7.262   4.116
 8825WAT      O36005   2.357   7.557   3.328
 8825WAT     H136006   2.354   7.618   3.266
 8825WAT     H236007   2.296   7.583   3.385
 8825WAT    EPW36008   2.348   7.570   3.327
 8826WAT      O36009   1.792   6.837   3.299
 8826WAT     H136010   1.834   6.861   3.372
 8826WAT     H236011   1.750   6.909   3.275
 8826WAT    EPW36012   1.792   6.851   3.306
 8827WAT      O36013   2.975   7.786   4.513
 8827WAT     H136014   2.951   7.760   4.434
 8827WAT     H236015   3.062   7.774   4.513
 8827WAT    EPW36016   2.984   7.781   4.501
 8828WAT      O36017   2.870   6.897   4.819
 8828WAT     H136018   2.823   6.854   4.759
 8828WAT     H236019   2.879   6.840   4.883
 8828WAT    EPW36020   2.865   6.882   4.819
 8829WAT      O36021   1.679   7.698   3.276
 8829WAT     H136022   1.660   7.613   3.285
 8829WAT     H236023   1.752   7.708   3.323
 8829WAT    EPW36024   1.687   7.687   3.284
 8830WAT      O36025   2.399   7.740   4.412
 8830WAT     H136026   2.416   7.812   4.459
 8830WAT     H236027   2.438   7.677   4.458
 8830WAT    EPW36028   2.408   7.742   4.426
 8831WAT      O36029   1.274   6.822   3.498
 8831WAT     H136030   1.269   6.768   3.429
 8831WAT     H236031   1.242   6.774   3.564
 8831WAT    EPW36032   1.268   6.807   3.498
 8832WAT      O36033   2.172   7.624   3.533
 8832WAT     H136034   2.191   7.682   3.595
 8832WAT     H236035   2.172   7.547   3.575
 8832WAT    EPW36036   2.175   7.621   3.548
 8833WAT      O36037   1.667   7.061   3.199
 8833WAT     H136038   1.604   7.055   3.139
 8833WAT     H236039   1.733   7.097   3.155
 8833WAT    EPW36040   1.668   7.066   3.183
 8834WAT      O36041   2.069   7.806   4.028
 8834WAT     H136042   1.989   7.811   4.062
 8834WAT     H236043   2.115   7.766   4.089
 8834WAT    EPW36044   2.064   7.801   4.042
 8835WAT      O36045   1.546   7.788   4.270
 8835WAT     H136046   1.623   7.829   4.262
 8835WAT     H236047   1.530   7.761   4.189
 8835WAT    EPW36048   1.555   7.790   4.257
 8836WAT      O36049   1.841   7.329   3.887
 8836WAT     H136050   1.915   7.287   3.868
 8836WAT     H236051   1.779   7.267   3.877
 8836WAT    EPW36052   1.843   7.313   3.883
 8837WAT      O36053   1.369   7.482   3.512
 8837WAT     H136054   1.388   7.435   3.584
 8837WAT     H236055   1.360   7.422   3.450
 8837WAT    EPW36056   1.371   7.466   3.514
 8838WAT      O36057   2.892   7.671   4.266
 8838WAT     H136058   2.877   7.598   4.312
 8838WAT     H236059   2.811   7.699   4.247
 8838WAT    EPW36060   2.878   7.665   4.270
 8839WAT      O36061   1.836   7.637   3.048
 8839WAT     H136062   1.784   7.661   3.114
 8839WAT     H236063   1.784   7.590   2.997
 8839WAT    EPW36064   1.820   7.634   3.050
 8840WAT      O36065   3.036   7.642   4.027
 8840WAT     H136066   3.001   7.651   4.107
 8840WAT     H236067   3.072   7.720   4.011
 8840WAT    EPW36068   3.036   7.655   4.037
 8841WAT      O36069   1.917   7.425   3.297
 8841WAT     H136070   1.932   7.507   3.325
 8841WAT     H236071   1.830   7.421   3.294
 8841WAT    EPW36072   1.906   7.437   3.301
 8842WAT      O36073   2.758   7.155   4.814
 8842WAT     H136074   2.683   7.162   4.858
 8842WAT     H236075   2.779   7.071   4.823
 8842WAT    EPW36076   2.750   7.144   4.822
 8843WAT      O36077   1.299   7.066   4.034
 8843WAT     H136078   1.281   7.084   3.950
 8843WAT     H236079   1.383   7.044   4.033
 8843WAT    EPW36080   1.309   7.066   4.021
 8844WAT      O36081   2.591   7.476   4.892
 8844WAT     H136082   2.618   7.526   4.958
 8844WAT     H236083   2.507   7.501   4.882
 8844WAT    EPW36084   2.582   7.487   4.900
 8845WAT      O36085   2.772   7.546   4.696
 8845WAT     H136086   2.793   7.627   4.721
 8845WAT     H236087   2.723   7.517   4.762
 8845WAT    EPW36088   2.768   7.554   4.710
 8846WAT      O36089   2.845   7.283   3.772
 8846WAT     H136090   2.776   7.240   3.802
 8846WAT     H236091   2.844   7.357   3.818
 8846WAT    EPW36092   2.835   7.288   3.784
 8847WAT      O36093   3.093   7.657   4.855
 8847WAT     H136094   3.087   7.593   4.796
 8847WAT     H236095   3.170   7.693   4.839
 8847WAT    EPW36096   3.103   7.653   4.844
 8848WAT      O36097   2.666   7.000   4.471
 8848WAT     H136098   2.725   7.062   4.486
 8848WAT     H236099   2.592   7.044   4.458
 8848WAT    EPW36100   2.664   7.015   4.471
 8849WAT      O36101   2.201   7.659   4.236
 8849WAT     H136102   2.264   7.695   4.285
 8849WAT     H236103   2.143   7.630   4.295
 8849WAT    EPW36104   2.201   7.660   4.252
 8850WAT      O36105   1.924   7.278   4.582
 8850WAT     H136106   1.922   7.193   4.601
 8850WAT     H236107   1.943   7.280   4.497
 8850WAT    EPW36108   1.926   7.266   4.572
 8851WAT      O36109   2.728   6.804   4.284
 8851WAT     H136110   2.709   6.874   4.331
 8851WAT     H236111   2.814   6.793   4.296
 8851WAT    EPW36112   2.738   6.813   4.293
 8852WAT      O36113   2.005   6.888   4.435
 8852WAT     H136114   2.089   6.911   4.440
 8852WAT     H236115   2.008   6.808   4.399
 8852WAT    EPW36116   2.018   6.880   4.430
 8853WAT      O36117   2.955   7.512   3.150
 8853WAT     H136118   3.007   7.561   3.100
 8853WAT     H236119   2.879   7.556   3.150
 8853WAT    EPW36120   2.951   7.526   3.143
 8854WAT      O36121   2.057   7.792   3.121
 8854WAT     H136122   1.998   7.740   3.084
 8854WAT     H236123   2.027   7.872   3.103
 8854WAT    EPW36124   2.043   7.796   3.113
 8855WAT      O36125   1.781   7.441   4.138
 8855WAT     H136126   1.802   7.418   4.057
 8855WAT     H236127   1.836   7.394   4.187
 8855WAT    EPW36128   1.792   7.431   4.133
 8856WAT      O36129   2.428   7.309   4.682
 8856WAT     H136130   2.376   7.365   4.724
 8856WAT     H236131   2.480   7.279   4.746
 8856WAT    EPW36132   2.428   7.313   4.698
 8857WAT      O36133   2.525   7.389   4.305
 8857WAT     H136134   2.537   7.440   4.375
 8857WAT     H236135   2.500   7.313   4.338
 8857WAT    EPW36136   2.523   7.385   4.320
 8858WAT      O36137   2.734   7.341   3.525
 8858WAT     H136138   2.767   7.322   3.604
 8858WAT     H236139   2.800   7.383   3.485
 8858WAT    EPW36140   2.749   7.345   3.531
 8859WAT      O36141   2.017   6.865   4.072
 8859WAT     H136142   1.935   6.853   4.099
 8859WAT     H236143   2.009   6.877   3.986
 8859WAT    EPW36144   2.004   6.865   4.064
 8860WAT      O36145   2.877   6.924   3.682
 8860WAT     H136146   2.797   6.896   3.702
 8860WAT     H236147   2.869   6.948   3.598
 8860WAT    EPW36148   2.864   6.924   3.672
 8861WAT      O36149   2.772   7.724   3.423
 8861WAT     H136150   2.838   7.669   3.442
 8861WAT     H236151   2.703   7.687   3.462
 8861WAT    EPW36152   2.772   7.710   3.432
 8862WAT      O36153   1.262   6.952   4.769
 8862WAT     H136154   1.260   7.022   4.717
 8862WAT     H236155   1.178   6.940   4.790
 8862WAT    EPW36156   1.249   6.961   4.764
 8863WAT      O36157   1.597   7.187   3.441
 8863WAT     H136158   1.608   7.145   3.365
 8863WAT     H236159   1.518   7.162   3.467
 8863WAT    EPW36160   1.587   7.177   3.434
 8864WAT      O36161   3.044   7.449   4.678
 8864WAT     H136162   2.958   7.464   4.680
 8864WAT     H236163   3.065   7.461   4.594
 8864WAT    EPW36164   3.034   7.453   4.666
 8865WAT      O36165   2.533   7.533   4.545
 8865WAT     H136166   2.495   7.469   4.590
 8865WAT     H236167   2.606   7.549   4.589
 8865WAT    EPW36168   2.538   7.526   4.558
 8866WAT      O36169   2.343   7.731   5.000
 8866WAT     H136170   2.398   7.797   4.984
 8866WAT     H236171   2.265   7.770   5.003
 8866WAT    EPW36172   2.340   7.747   4.998
 8867WAT      O36173   1.666   7.383   4.561
 8867WAT     H136174   1.678   7.448   4.503
 8867WAT     H236175   1.745   7.348   4.569
 8867WAT    EPW36176   1.680   7.388   4.553
 8868WAT      O36177   1.457   7.250   4.437
 8868WAT     H136178   1.474   7.271   4.354
 8868WAT     H236179   1.523   7.286   4.481
 8868WAT    EPW36180   1.470   7.258   4.431
 8869WAT      O36181   2.946   7.502   3.432
 8869WAT     H136182   2.961   7.508   3.346
 8869WAT     H236183   3.026   7.497   3.466
 8869WAT    EPW36184   2.960   7.502   3.424
 8870WAT      O36185   1.635   6.926   4.683
 8870WAT     H136186   1.591   6.851   4.691
 8870WAT     H236187   1.617   6.952   4.601
 8870WAT    EPW36188   1.626   6.919   4.672
 8871WAT      O36189   2.835   7.462   4.438
 8871WAT     H136190   2.832   7.376   4.451
 8871WAT     H236191   2.811   7.495   4.515
 8871WAT    EPW36192   2.831   7.454   4.451
 8872WAT      O36193   1.416   7.700   4.504
 8872WAT     H136194   1.445   7.739   4.431
 8872WAT     H236195   1.368   7.634   4.473
 8872WAT    EPW36196   1.413   7.696   4.488
 8873WAT      O36197   1.490   7.329   3.077
 8873WAT     H136198   1.421   7.332   3.131
 8873WAT     H236199   1.485   7.248   3.043
 8873WAT    EPW36200   1.479   7.317   3.080
 8874WAT      O36201   2.359   6.977   4.767
 8874WAT     H136202   2.392   7.040   4.818
 8874WAT     H236203   2.280   6.964   4.800
 8874WAT    EPW36204   2.352   6.984   4.779
 8875WAT      O36205   2.361   7.047   3.865
 8875WAT     H136206   2.284   7.089   3.858
 8875WAT     H236207   2.367   7.004   3.790
 8875WAT    EPW36208   2.351   7.047   3.853
 8876WAT      O36209   2.700   7.088   4.116
 8876WAT     H136210   2.776   7.050   4.132
 8876WAT     H236211   2.713   7.171   4.138
 8876WAT    EPW36212   2.713   7.094   4.122
 8877WAT      O36213   1.856   7.668   4.603
 8877WAT     H136214   1.794   7.706   4.650
 8877WAT     H236215   1.816   7.649   4.528
 8877WAT    EPW36216   1.841   7.671   4.599
 8878WAT      O36217   2.805   7.512   3.926
 8878WAT     H136218   2.873   7.565   3.941
 8878WAT     H236219   2.748   7.563   3.884
 8878WAT    EPW36220   2.806   7.527   3.922
 8879WAT      O36221   1.819   7.060   4.311
 8879WAT     H136222   1.742   7.033   4.342
 8879WAT     H236223   1.875   6.998   4.340
 8879WAT    EPW36224   1.816   7.047   4.320
 8880WAT      O36225   3.003   6.830   4.379
 8880WAT     H136226   2.997   6.858   4.462
 8880WAT     H236227   3.084   6.797   4.375
 8880WAT    EPW36228   3.014   6.830   4.391
 8881WAT      O36229   2.228   7.015   4.188
 8881WAT     H136230   2.166   6.964   4.154
 8881WAT     H236231   2.302   6.973   4.169
 8881WAT    EPW36232   2.229   7.001   4.180
 8882WAT      O36233   2.043   7.493   4.718
 8882WAT     H136234   2.015   7.424   4.674
 8882WAT     H236235   1.991   7.558   4.690
 8882WAT    EPW36236   2.032   7.493   4.707
 8883WAT      O36237   2.056   6.843   3.191
 8883WAT     H136238   2.066   6.856   3.105
 8883WAT     H236239   1.970   6.852   3.203
 8883WAT    EPW36240   2.045   6.847   3.180
 8884WAT      O36241   1.572   6.994   4.424
 8884WAT     H136242   1.514   6.932   4.405
 8884WAT     H236243   1.525   7.068   4.420
 8884WAT    EPW36244   1.556   6.996   4.421
 8885WAT      O36245   2.476   6.916   4.087
 8885WAT     H136246   2.540   6.970   4.111
 8885WAT     H236247   2.443   6.955   4.016
 8885WAT    EPW36248   2.480   6.930   4.080
 8886WAT      O36249   2.430   7.407   3.848
 8886WAT     H136250   2.490   7.345   3.860
 8886WAT     H236251   2.402   7.424   3.929
 8886WAT    EPW36252   2.434   7.401   3.862
 8887WAT      O36253   1.443   7.355   3.760
 8887WAT     H136254   1.392   7.367   3.830
 8887WAT     H236255   1.488   7.283   3.779
 8887WAT    EPW36256   1.442   7.346   3.773
 8888WAT      O36257   2.566   7.566   3.518
 8888WAT     H136258   2.608   7.490   3.517
 8888WAT     H236259   2.505   7.557   3.456
 8888WAT    EPW36260   2.563   7.554   3.509
 8889WAT      O36261   1.953   7.691   3.366
 8889WAT     H136262   1.996   7.729   3.300
 8889WAT     H236263   2.015   7.680   3.426
 8889WAT    EPW36264   1.969   7.695   3.365
 8890WAT      O36265   2.859   7.799   4.769
 8890WAT     H136266   2.930   7.772   4.812
 8890WAT     H236267   2.889   7.815   4.689
 8890WAT    EPW36268   2.874   7.797   4.763
 8891WAT      O36269   2.994   7.234   4.940
 8891WAT     H136270   2.983   7.318   4.961
 8891WAT     H236271   2.919   7.213   4.901
 8891WAT    EPW36272   2.981   7.244   4.937
 8892WAT      O36273   3.020   7.308   4.215
 8892WAT     H136274   2.938   7.334   4.201
 8892WAT     H236275   3.015   7.221   4.216
 8892WAT    EPW36276   3.007   7.299   4.213
 8893WAT      O36277   1.904   7.003   4.669
 8893WAT     H136278   1.932   6.965   4.596
 8893WAT     H236279   1.822   6.974   4.677
 8893WAT    EPW36280   1.896   6.993   4.659
 8894WAT      O36281   2.639   7.895   4.944
 8894WAT     H136282   2.702   7.893   4.884
 8894WAT     H236283   2.646   7.974   4.979
 8894WAT    EPW36284   2.649   7.906   4.941
 8895WAT      O36285   2.420   6.890   1.746
 8895WAT     H136286   2.452   6.952   1.693
 8895WAT     H236287   2.491   6.852   1.779
 8895WAT    EPW36288   2.435   6.894   1.743
 8896WAT      O36289   2.337   7.462   2.213
 8896WAT     H136290   2.293   7.532   2.243
 8896WAT     H236291   2.397   7.448   2.274
 8896WAT    EPW36292   2.339   7.471   2.226
 8897WAT      O36293   1.273   7.326   1.333
 8897WAT     H136294   1.210   7.382   1.309
 8897WAT     H236295   1.235   7.248   1.323
 8897WAT    EPW36296   1.258   7.323   1.328
 8898WAT      O36297   1.599   7.917   1.198
 8898WAT     H136298   1.557   7.872   1.135
 8898WAT     H236299   1.613   7.858   1.260
 8898WAT    EPW36300   1.595   7.901   1.198
 8899WAT      O36301   2.597   7.641   1.893
 8899WAT     H136302   2.594   7.634   1.807
 8899WAT     H236303   2.538   7.582   1.920
 8899WAT    EPW36304   2.588   7.631   1.885
 8900WAT      O36305   2.026   6.972   1.650
 8900WAT     H136306   2.012   7.038   1.596
 8900WAT     H236307   2.102   6.939   1.622
 8900WAT    EPW36308   2.035   6.977   1.638
 8901WAT      O36309   1.570   7.789   1.822
 8901WAT     H136310   1.529   7.778   1.745
 8901WAT     H236311   1.608   7.712   1.836
 8901WAT    EPW36312   1.569   7.776   1.812
 8902WAT      O36313   1.940   7.313   2.407
 8902WAT     H136314   2.008   7.303   2.353
 8902WAT     H236315   1.900   7.235   2.404
 8902WAT    EPW36316   1.944   7.300   2.398
 8903WAT      O36317   1.640   7.530   1.921
 8903WAT     H136318   1.711   7.480   1.927
 8903WAT     H236319   1.578   7.475   1.893
 8903WAT    EPW36320   1.641   7.514   1.918
 8904WAT      O36321   2.312   7.521   2.910
 8904WAT     H136322   2.232   7.520   2.876
 8904WAT     H236323   2.310   7.588   2.966
 8904WAT    EPW36324   2.300   7.531   2.913
 8905WAT      O36325   1.751   7.011   1.728
 8905WAT     H136326   1.716   7.068   1.672
 8905WAT     H236327   1.834   7.005   1.702
 8905WAT    EPW36328   1.758   7.019   1.716
 8906WAT      O36329   2.738   6.763   2.668
 8906WAT     H136330   2.715   6.832   2.620
 8906WAT     H236331   2.663   6.718   2.676
 8906WAT    EPW36332   2.723   6.766   2.662
 8907WAT      O36333   2.051   6.933   1.925
 8907WAT     H136334   2.061   7.017   1.949
 8907WAT     H236335   2.032   6.938   1.840
 8907WAT    EPW36336   2.050   6.947   1.916
 8908WAT      O36337   2.442   7.131   1.154
 8908WAT     H136338   2.404   7.199   1.194
 8908WAT     H236339   2.468   7.080   1.220
 8908WAT    EPW36340   2.440   7.133   1.170
 8909WAT      O36341   1.314   7.401   2.106
 8909WAT     H136342   1.278   7.481   2.112
 8909WAT     H236343   1.262   7.352   2.156
 8909WAT    EPW36344   1.301   7.406   2.114
 8910WAT      O36345   1.566   6.971   2.139
 8910WAT     H136346   1.550   6.896   2.100
 8910WAT     H236347   1.622   6.950   2.203
 8910WAT    EPW36348   1.572   6.957   2.143
 8911WAT      O36349   1.896   7.134   3.044
 8911WAT     H136350   1.901   7.099   2.964
 8911WAT     H236351   1.943   7.207   3.037
 8911WAT    EPW36352   1.904   7.140   3.031
 8912WAT      O36353   3.062   7.124   1.861
 8912WAT     H136354   3.012   7.195   1.870
 8912WAT     H236355   3.004   7.061   1.842
 8912WAT    EPW36356   3.046   7.125   1.860
 8913WAT      O36357   1.487   7.061   2.986
 8913WAT     H136358   1.408   7.032   2.963
 8913WAT     H236359   1.539   7.033   2.921
 8913WAT    EPW36360   1.483   7.053   2.973
 8914WAT      O36361   2.104   6.876   2.922
 8914WAT     H136362   2.117   6.801   2.880
 8914WAT     H236363   2.041   6.916   2.876
 8914WAT    EPW36364   2.097   6.871   2.909
 8915WAT      O36365   2.219   7.388   1.774
 8915WAT     H136366   2.246   7.337   1.708
 8915WAT     H236367   2.291   7.402   1.820
 8915WAT    EPW36368   2.234   7.383   1.771
 8916WAT      O36369   2.310   7.334   1.297
 8916WAT     H136370   2.334   7.412   1.329
 8916WAT     H236371   2.235   7.351   1.256
 8916WAT    EPW36372   2.303   7.348   1.296
 8917WAT      O36373   2.961   7.035   2.283
 8917WAT     H136374   3.028   7.037   2.227
 8917WAT     H236375   2.983   6.971   2.338
 8917WAT    EPW36376   2.974   7.026   2.283
 8918WAT      O36377   1.248   7.183   2.715
 8918WAT     H136378   1.235   7.260   2.755
 8918WAT     H236379   1.308   7.201   2.654
 8918WAT    EPW36380   1.255   7.197   2.712
 8919WAT      O36381   2.517   6.972   1.368
 8919WAT     H136382   2.577   6.909   1.364
 8919WAT     H236383   2.542   7.019   1.437
 8919WAT    EPW36384   2.529   6.970   1.378
 8920WAT      O36385   1.363   7.104   1.641
 8920WAT     H136386   1.340   7.021   1.623
 8920WAT     H236387   1.318   7.123   1.713
 8920WAT    EPW36388   1.353   7.094   1.649
 8921WAT      O36389   2.299   7.229   1.556
 8921WAT     H136390   2.261   7.151   1.542
 8921WAT     H236391   2.299   7.267   1.478
 8921WAT    EPW36392   2.294   7.223   1.543
 8922WAT      O36393   2.261   6.954   1.485
 8922WAT     H136394   2.201   6.926   1.428
 8922WAT     H236395   2.336   6.948   1.441
 8922WAT    EPW36396   2.263   6.949   1.470
 8923WAT      O36397   2.098   7.210   1.954
 8923WAT     H136398   2.129   7.272   1.901
 8923WAT     H236399   2.113   7.241   2.034
 8923WAT    EPW36400   2.105   7.224   1.958
 8924WAT      O36401   1.693   6.746   1.786
 8924WAT     H136402   1.709   6.831   1.770
 8924WAT     H236403   1.666   6.716   1.708
 8924WAT    EPW36404   1.691   6.754   1.772
 8925WAT      O36405   1.796   7.744   2.208
 8925WAT     H136406   1.805   7.658   2.215
 8925WAT     H236407   1.731   7.753   2.151
 8925WAT    EPW36408   1.788   7.733   2.201
 8926WAT      O36409   2.454   7.161   2.537
 8926WAT     H136410   2.448   7.203   2.613
 8926WAT     H236411   2.389   7.103   2.541
 8926WAT    EPW36412   2.443   7.159   2.549
 8927WAT      O36413   2.648   6.772   1.845
 8927WAT     H136414   2.638   6.754   1.930
 8927WAT     H236415   2.680   6.697   1.812
 8927WAT    EPW36416   2.651   6.758   1.852
 8928WAT      O36417   2.849   7.192   2.636
 8928WAT     H136418   2.933   7.186   2.658
 8928WAT     H236419   2.807   7.190   2.713
 8928WAT    EPW36420   2.855   7.190   2.651
 8929WAT      O36421   1.633   7.154   1.939
 8929WAT     H136422   1.667   7.102   1.878
 8929WAT     H236423   1.614   7.099   2.004
 8929WAT    EPW36424   1.635   7.138   1.940
 8930WAT      O36425   1.524   7.357   2.290
 8930WAT     H136426   1.599   7.384   2.256
 8930WAT     H236427   1.466   7.371   2.225
 8930WAT    EPW36428   1.526   7.363   2.275
 8931WAT      O36429   2.710   7.672   1.283
 8931WAT     H136430   2.683   7.746   1.245
 8931WAT     H236431   2.730   7.696   1.364
 8931WAT    EPW36432   2.709   7.687   1.289
 8932WAT      O36433   3.011   7.082   1.259
 8932WAT     H136434   3.052   7.034   1.199
 8932WAT     H236435   2.961   7.135   1.211
 8932WAT    EPW36436   3.010   7.083   1.243
 8933WAT      O36437   2.053   7.362   3.064
 8933WAT     H136438   2.006   7.400   3.127
 8933WAT     H236439   2.042   7.416   2.996
 8933WAT    EPW36440   2.044   7.376   3.063
 8934WAT      O36441   3.158   7.464   2.517
 8934WAT     H136442   3.221   7.404   2.522
 8934WAT     H236443   3.104   7.432   2.456
 8934WAT    EPW36444   3.159   7.451   2.509
 8935WAT      O36445   1.464   7.713   1.575
 8935WAT     H136446   1.436   7.631   1.577
 8935WAT     H236447   1.526   7.712   1.513
 8935WAT    EPW36448   1.469   7.701   1.566
 8936WAT      O36449   2.903   6.955   1.494
 8936WAT     H136450   2.978   6.920   1.522
 8936WAT     H236451   2.926   7.003   1.426
 8936WAT    EPW36452   2.917   6.957   1.488
 8937WAT      O36453   2.599   7.201   1.968
 8937WAT     H136454   2.630   7.163   2.040
 8937WAT     H236455   2.527   7.154   1.949
 8937WAT    EPW36456   2.593   7.188   1.976
 8938WAT      O36457   1.993   7.165   1.461
 8938WAT     H136458   1.982   7.144   1.377
 8938WAT     H236459   1.981   7.251   1.463
 8938WAT    EPW36460   1.989   7.174   1.449
 8939WAT      O36461   1.626   7.507   2.912
 8939WAT     H136462   1.581   7.452   2.961
 8939WAT     H236463   1.637   7.463   2.837
 8939WAT    EPW36464   1.621   7.492   2.908
 8940WAT      O36465   1.653   7.422   1.410
 8940WAT     H136466   1.634   7.362   1.470
 8940WAT     H236467   1.611   7.393   1.339
 8940WAT    EPW36468   1.644   7.409   1.408
 8941WAT      O36469   1.526   7.727   2.092
 8941WAT     H136470   1.524   7.775   2.019
 8941WAT     H236471   1.549   7.648   2.063
 8941WAT    EPW36472   1.529   7.723   2.077
 8942WAT      O36473   1.701   7.574   2.491
 8942WAT     H136474   1.727   7.539   2.415
 8942WAT     H236475   1.637   7.628   2.467
 8942WAT    EPW36476   1.695   7.577   2.476
 8943WAT      O36477   2.752   7.359   2.245
 8943WAT     H136478   2.687   7.388   2.296
 8943WAT     H236479   2.757   7.418   2.182
 8943WAT    EPW36480   2.743   7.372   2.243
 8944WAT      O36481   2.288   6.947   2.619
 8944WAT     H136482   2.301   6.865   2.593
 8944WAT     H236483   2.319   6.948   2.701
 8944WAT    EPW36484   2.295   6.935   2.627
 8945WAT      O36485   2.548   7.116   1.604
 8945WAT     H136486   2.611   7.176   1.611
 8945WAT     H236487   2.475   7.163   1.593
 8945WAT    EPW36488   2.546   7.132   1.603
 8946WAT      O36489   1.474   7.736   2.876
 8946WAT     H136490   1.456   7.737   2.791
 8946WAT     H236491   1.520   7.662   2.887
 8946WAT    EPW36492   1.478   7.725   2.865
 8947WAT      O36493   2.138   7.274   2.218
 8947WAT     H136494   2.205   7.329   2.223
 8947WAT     H236495   2.169   7.200   2.252
 8947WAT    EPW36496   2.152   7.271   2.224
 8948WAT      O36497   2.369   7.571   1.432
 8948WAT     H136498   2.368   7.633   1.371
 8948WAT     H236499   2.308   7.597   1.489
 8948WAT    EPW36500   2.360   7.584   1.432
 8949WAT      O36501   1.781   6.806   1.367
 8949WAT     H136502   1.734   6.770   1.431
 8949WAT     H236503   1.746   6.885   1.358
 8949WAT    EPW36504   1.769   6.813   1.376
 8950WAT      O36505   2.991   7.790   2.612
 8950WAT     H136506   2.966   7.760   2.534
 8950WAT     H236507   3.077   7.779   2.611
 8950WAT    EPW36508   3.000   7.784   2.600
 8951WAT      O36509   2.851   6.904   2.880
 8951WAT     H136510   2.816   6.860   2.814
 8951WAT     H236511   2.850   6.847   2.946
 8951WAT    EPW36512   2.846   6.889   2.880
 8952WAT      O36513   1.685   7.698   1.390
 8952WAT     H136514   1.671   7.612   1.398
 8952WAT     H236515   1.756   7.712   1.438
 8952WAT    EPW36516   1.694   7.687   1.398
 8953WAT      O36517   2.386   7.754   2.509
 8953WAT     H136518   2.412   7.828   2.545
 8953WAT     H236519   2.431   7.693   2.552
 8953WAT    EPW36520   2.397   7.756   2.520
 8954WAT      O36521   1.267   6.843   1.587
 8954WAT     H136522   1.265   6.784   1.522
 8954WAT     H236523   1.235   6.798   1.655
 8954WAT    EPW36524   1.262   6.827   1.587
 8955WAT      O36525   2.183   7.633   1.640
 8955WAT     H136526   2.206   7.689   1.703
 8955WAT     H236527   2.183   7.556   1.680
 8955WAT    EPW36528   2.187   7.630   1.655
 8956WAT      O36529   1.685   7.060   1.323
 8956WAT     H136530   1.626   7.062   1.258
 8956WAT     H236531   1.756   7.097   1.287
 8956WAT    EPW36532   1.687   7.066   1.308
 8957WAT      O36533   2.061   7.816   2.129
 8957WAT     H136534   1.978   7.802   2.152
 8957WAT     H236535   2.107   7.774   2.190
 8957WAT    EPW36536   2.055   7.808   2.141
 8958WAT      O36537   1.555   7.783   2.368
 8958WAT     H136538   1.638   7.804   2.354
 8958WAT     H236539   1.525   7.763   2.288
 8958WAT    EPW36540   1.563   7.783   2.354
 8959WAT      O36541   1.835   7.336   1.990
 8959WAT     H136542   1.911   7.297   1.970
 8959WAT     H236543   1.776   7.273   1.977
 8959WAT    EPW36544   1.837   7.321   1.985
 8960WAT      O36545   1.360   7.447   1.598
 8960WAT     H136546   1.381   7.409   1.674
 8960WAT     H236547   1.352   7.381   1.543
 8960WAT    EPW36548   1.362   7.432   1.601
 8961WAT      O36549   2.910   7.666   2.370
 8961WAT     H136550   2.889   7.594   2.414
 8961WAT     H236551   2.834   7.693   2.337
 8961WAT    EPW36552   2.896   7.659   2.371
 8962WAT      O36553   1.849   7.650   1.163
 8962WAT     H136554   1.796   7.669   1.230
 8962WAT     H236555   1.796   7.611   1.106
 8962WAT    EPW36556   1.834   7.647   1.165
 8963WAT      O36557   3.060   7.634   2.130
 8963WAT     H136558   3.031   7.648   2.211
 8963WAT     H236559   3.136   7.677   2.127
 8963WAT    EPW36560   3.067   7.642   2.141
 8964WAT      O36561   1.928   7.434   1.418
 8964WAT     H136562   1.941   7.516   1.444
 8964WAT     H236563   1.842   7.426   1.415
 8964WAT    EPW36564   1.917   7.445   1.422
 8965WAT      O36565   2.715   7.153   2.887
 8965WAT     H136566   2.646   7.151   2.941
 8965WAT     H236567   2.747   7.072   2.891
 8965WAT    EPW36568   2.709   7.141   2.895
 8966WAT      O36569   1.295   7.068   2.130
 8966WAT     H136570   1.276   7.081   2.046
 8966WAT     H236571   1.379   7.045   2.129
 8966WAT    EPW36572   1.304   7.066   2.117
 8967WAT      O36573   2.593   7.478   2.989
 8967WAT     H136574   2.618   7.529   3.055
 8967WAT     H236575   2.509   7.497   2.978
 8967WAT    EPW36576   2.584   7.488   2.997
 8968WAT      O36577   2.772   7.550   2.792
 8968WAT     H136578   2.796   7.631   2.816
 8968WAT     H236579   2.722   7.523   2.858
 8968WAT    EPW36580   2.768   7.558   2.805
 8969WAT      O36581   2.842   7.305   1.880
 8969WAT     H136582   2.771   7.262   1.908
 8969WAT     H236583   2.841   7.379   1.926
 8969WAT    EPW36584   2.832   7.310   1.891
 8970WAT      O36585   3.093   7.654   2.957
 8970WAT     H136586   3.088   7.590   2.897
 8970WAT     H236587   3.172   7.688   2.943
 8970WAT    EPW36588   3.104   7.649   2.946
 8971WAT      O36589   2.682   6.996   2.527
 8971WAT     H136590   2.740   7.058   2.546
 8971WAT     H236591   2.606   7.040   2.523
 8971WAT    EPW36592   2.679   7.012   2.529
 8972WAT      O36593   2.189   7.665   2.336
 8972WAT     H136594   2.251   7.702   2.385
 8972WAT     H236595   2.127   7.644   2.394
 8972WAT    EPW36596   2.189   7.668   2.352
 8973WAT      O36597   1.923   7.281   2.687
 8973WAT     H136598   1.922   7.195   2.703
 8973WAT     H236599   1.940   7.285   2.601
 8973WAT    EPW36600   1.926   7.269   2.676
 8974WAT      O36601   2.747   6.787   2.349
 8974WAT     H136602   2.724   6.863   2.383
 8974WAT     H236603   2.832   6.780   2.369
 8974WAT    EPW36604   2.756   6.797   2.357
 8975WAT      O36605   2.013   6.899   2.550
 8975WAT     H136606   2.097   6.924   2.551
 8975WAT     H236607   2.017   6.817   2.521
 8975WAT    EPW36608   2.026   6.891   2.546
 8976WAT      O36609   2.936   7.508   1.253
 8976WAT     H136610   2.988   7.560   1.207
 8976WAT     H236611   2.863   7.554   1.261
 8976WAT    EPW36612   2.933   7.523   1.247
 8977WAT      O36613   2.071   7.806   1.236
 8977WAT     H136614   2.012   7.754   1.198
 8977WAT     H236615   2.037   7.886   1.225
 8977WAT    EPW36616   2.057   7.810   1.229
 8978WAT      O36617   1.787   7.461   2.235
 8978WAT     H136618   1.803   7.429   2.156
 8978WAT     H236619   1.838   7.414   2.288
 8978WAT    EPW36620   1.797   7.449   2.231
 8979WAT      O36621   2.450   7.320   2.769
 8979WAT     H136622   2.392   7.366   2.815
 8979WAT     H236623   2.512   7.301   2.826
 8979WAT    EPW36624   2.450   7.324   2.784
 8980WAT      O36625   2.526   7.399   2.402
 8980WAT     H136626   2.538   7.450   2.472
 8980WAT     H236627   2.504   7.322   2.437
 8980WAT    EPW36628   2.524   7.395   2.418
 8981WAT      O36629   2.735   7.337   1.627
 8981WAT     H136630   2.766   7.325   1.707
 8981WAT     H236631   2.800   7.377   1.585
 8981WAT    EPW36632   2.749   7.341   1.632
 8982WAT      O36633   2.014   6.856   2.201
 8982WAT     H136634   1.930   6.849   2.222
 8982WAT     H236635   2.013   6.867   2.114
 8982WAT    EPW36636   2.002   6.857   2.191
 8983WAT      O36637   2.860   6.946   1.779
 8983WAT     H136638   2.784   6.909   1.800
 8983WAT     H236639   2.851   6.964   1.694
 8983WAT    EPW36640   2.847   6.943   1.769
 8984WAT      O36641   2.786   7.730   1.539
 8984WAT     H136642   2.850   7.673   1.553
 8984WAT     H236643   2.716   7.692   1.576
 8984WAT    EPW36644   2.785   7.716   1.547
 8985WAT      O36645   1.257   6.951   2.867
 8985WAT     H136646   1.256   7.021   2.814
 8985WAT     H236647   1.173   6.938   2.885
 8985WAT    EPW36648   1.244   6.959   2.862
 8986WAT      O36649   1.615   7.186   1.560
 8986WAT     H136650   1.629   7.143   1.486
 8986WAT     H236651   1.535   7.163   1.583
 8986WAT    EPW36652   1.605   7.176   1.552
 8987WAT      O36653   3.044   7.453   2.772
 8987WAT     H136654   2.959   7.470   2.774
 8987WAT     H236655   3.067   7.468   2.689
 8987WAT    EPW36656   3.035   7.458   2.760
 8988WAT      O36657   2.534   7.553   2.637
 8988WAT     H136658   2.497   7.487   2.681
 8988WAT     H236659   2.608   7.569   2.681
 8988WAT    EPW36660   2.539   7.546   2.650
 8989WAT      O36661   2.329   7.724   3.103
 8989WAT     H136662   2.379   7.793   3.087
 8989WAT     H236663   2.249   7.757   3.106
 8989WAT    EPW36664   2.325   7.739   3.101
 8990WAT      O36665   1.661   7.371   2.673
 8990WAT     H136666   1.671   7.437   2.616
 8990WAT     H236667   1.741   7.338   2.680
 8990WAT    EPW36668   1.674   7.376   2.665
 8991WAT      O36669   1.456   7.251   2.533
 8991WAT     H136670   1.476   7.274   2.451
 8991WAT     H236671   1.521   7.283   2.580
 8991WAT    EPW36672   1.468   7.259   2.528
 8992WAT      O36673   2.948   7.499   1.535
 8992WAT     H136674   2.958   7.502   1.448
 8992WAT     H236675   3.029   7.488   1.565
 8992WAT    EPW36676   2.962   7.498   1.527
 8993WAT      O36677   1.633   6.933   2.784
 8993WAT     H136678   1.594   6.855   2.791
 8993WAT     H236679   1.616   6.957   2.702
 8993WAT    EPW36680   1.625   6.925   2.773
 8994WAT      O36681   2.831   7.458   2.535
 8994WAT     H136682   2.836   7.371   2.546
 8994WAT     H236683   2.806   7.487   2.613
 8994WAT    EPW36684   2.828   7.449   2.548
 8995WAT      O36685   1.415   7.706   2.603
 8995WAT     H136686   1.446   7.745   2.531
 8995WAT     H236687   1.367   7.640   2.572
 8995WAT    EPW36688   1.413   7.702   2.588
 8996WAT      O36689   1.507   7.343   1.185
 8996WAT     H136690   1.431   7.344   1.227
 8996WAT     H236691   1.513   7.262   1.155
 8996WAT    EPW36692   1.497   7.332   1.187
 8997WAT      O36693   2.374   6.942   2.887
 8997WAT     H136694   2.402   7.012   2.930
 8997WAT     H236695   2.291   6.935   2.911
 8997WAT    EPW36696   2.366   6.951   2.897
 8998WAT      O36697   2.355   7.065   1.951
 8998WAT     H136698   2.277   7.103   1.942
 8998WAT     H236699   2.359   7.009   1.885
 8998WAT    EPW36700   2.344   7.063   1.940
 8999WAT      O36701   2.693   7.093   2.206
 8999WAT     H136702   2.771   7.056   2.219
 8999WAT     H236703   2.706   7.176   2.228
 8999WAT    EPW36704   2.707   7.100   2.211
 9000WAT      O36705   1.855   7.670   2.709
 9000WAT     H136706   1.794   7.709   2.758
 9000WAT     H236707   1.811   7.646   2.637
 9000WAT    EPW36708   1.839   7.672   2.706
 9001WAT      O36709   2.809   7.533   2.037
 9001WAT     H136710   2.880   7.582   2.045
 9001WAT     H236711   2.754   7.584   1.991
 9001WAT    EPW36712   2.811   7.548   2.031
 9002WAT      O36713   1.825   7.069   2.428
 9002WAT     H136714   1.747   7.037   2.451
 9002WAT     H236715   1.881   7.007   2.455
 9002WAT    EPW36716   1.822   7.055   2.435
 9003WAT      O36717   3.004   6.832   2.471
 9003WAT     H136718   2.984   6.862   2.551
 9003WAT     H236719   3.088   6.810   2.479
 9003WAT    EPW36720   3.014   6.833   2.484
 9004WAT      O36721   2.209   7.026   2.311
 9004WAT     H136722   2.149   6.972   2.279
 9004WAT     H236723   2.284   6.993   2.282
 9004WAT    EPW36724   2.211   7.013   2.302
 9005WAT      O36725   2.046   7.496   2.818
 9005WAT     H136726   2.017   7.426   2.775
 9005WAT     H236727   1.993   7.560   2.791
 9005WAT    EPW36728   2.034   7.495   2.807
 9006WAT      O36729   2.059   6.838   1.335
 9006WAT     H136730   2.067   6.845   1.248
 9006WAT     H236731   1.973   6.841   1.349
 9006WAT    EPW36732   2.048   6.840   1.324
 9007WAT      O36733   1.572   6.996   2.524
 9007WAT     H136734   1.515   6.932   2.505
 9007WAT     H236735   1.524   7.069   2.517
 9007WAT    EPW36736   1.557   6.997   2.520
 9008WAT      O36737   2.449   6.951   2.187
 9008WAT     H136738   2.520   6.998   2.205
 9008WAT     H236739   2.418   6.987   2.114
 9008WAT    EPW36740   2.455   6.963   2.179
 9009WAT      O36741   2.429   7.426   1.954
 9009WAT     H136742   2.488   7.362   1.963
 9009WAT     H236743   2.400   7.439   2.035
 9009WAT    EPW36744   2.434   7.418   1.967
 9010WAT      O36745   1.441   7.348   1.857
 9010WAT     H136746   1.392   7.357   1.928
 9010WAT     H236747   1.490   7.278   1.874
 9010WAT    EPW36748   1.441   7.339   1.870
 9011WAT      O36749   2.576   7.570   1.623
 9011WAT     H136750   2.615   7.491   1.621
 9011WAT     H236751   2.516   7.564   1.560
 9011WAT    EPW36752   2.573   7.557   1.613
 9012WAT      O36753   1.962   7.702   1.478
 9012WAT     H136754   2.005   7.738   1.411
 9012WAT     H236755   2.024   7.690   1.538
 9012WAT    EPW36756   1.978   7.706   1.477
 9013WAT      O36757   2.869   7.800   2.864
 9013WAT     H136758   2.938   7.771   2.907
 9013WAT     H236759   2.900   7.815   2.783
 9013WAT    EPW36760   2.883   7.798   2.858
 9014WAT      O36761   2.933   7.261   3.022
 9014WAT     H136762   2.923   7.343   3.049
 9014WAT     H236763   2.857   7.243   2.982
 9014WAT    EPW36764   2.920   7.270   3.020
 9015WAT      O36765   3.016   7.310   2.322
 9015WAT     H136766   2.936   7.337   2.302
 9015WAT     H236767   3.009   7.223   2.321
 9015WAT    EPW36768   3.003   7.301   2.319
 9016WAT      O36769   1.902   7.008   2.778
 9016WAT     H136770   1.933   6.971   2.706
 9016WAT     H236771   1.820   6.979   2.783
 9016WAT    EPW36772   1.895   6.998   2.768
 9017WAT      O36773   2.653   7.906   3.039
 9017WAT     H136774   2.716   7.902   2.979
 9017WAT     H236775   2.660   7.988   3.070
 9017WAT    EPW36776   2.664   7.918   3.035
 9018WAT      O36777   2.292   7.472   0.374
 9018WAT     H136778   2.253   7.534   0.422
 9018WAT     H236779   2.369   7.461   0.414
 9018WAT    EPW36780   2.297   7.480   0.387
 9019WAT      O36781   1.939   7.253   0.557
 9019WAT     H136782   2.008   7.252   0.504
 9019WAT     H236783   1.907   7.172   0.551
 9019WAT    EPW36784   1.944   7.241   0.549
 9020WAT      O36785   2.322   7.532   1.029
 9020WAT     H136786   2.241   7.530   0.997
 9020WAT     H236787   2.323   7.602   1.080
 9020WAT    EPW36788   2.311   7.542   1.032
 9021WAT      O36789   2.686   6.744   0.803
 9021WAT     H136790   2.675   6.824   0.770
 9021WAT     H236791   2.617   6.735   0.856
 9021WAT    EPW36792   2.674   6.755   0.806
 9022WAT      O36793   1.356   7.417   0.302
 9022WAT     H136794   1.345   7.504   0.307
 9022WAT     H236795   1.283   7.385   0.338
 9022WAT    EPW36796   1.344   7.425   0.308
 9023WAT      O36797   1.516   6.947   0.376
 9023WAT     H136798   1.540   7.028   0.354
 9023WAT     H236799   1.579   6.897   0.343
 9023WAT    EPW36800   1.529   6.951   0.368
 9024WAT      O36801   1.916   7.145   1.188
 9024WAT     H136802   1.918   7.107   1.109
 9024WAT     H236803   1.960   7.219   1.176
 9024WAT    EPW36804   1.923   7.150   1.175
 9025WAT      O36805   1.516   7.075   1.105
 9025WAT     H136806   1.436   7.044   1.097
 9025WAT     H236807   1.559   7.040   1.038
 9025WAT    EPW36808   1.511   7.065   1.094
 9026WAT      O36809   2.090   6.858   1.062
 9026WAT     H136810   2.104   6.785   1.016
 9026WAT     H236811   2.020   6.893   1.023
 9026WAT    EPW36812   2.081   6.852   1.050
 9027WAT      O36813   3.027   7.045   0.458
 9027WAT     H136814   3.092   7.006   0.414
 9027WAT     H236815   3.021   6.997   0.531
 9027WAT    EPW36816   3.036   7.032   0.462
 9028WAT      O36817   1.280   7.193   0.851
 9028WAT     H136818   1.266   7.273   0.883
 9028WAT     H236819   1.337   7.206   0.787
 9028WAT    EPW36820   1.286   7.207   0.846
 9029WAT      O36821   1.772   7.826   0.414
 9029WAT     H136822   1.784   7.752   0.459
 9029WAT     H236823   1.849   7.839   0.374
 9029WAT    EPW36824   1.785   7.817   0.415
 9030WAT      O36825   2.457   7.174   0.640
 9030WAT     H136826   2.437   7.221   0.711
 9030WAT     H236827   2.395   7.112   0.638
 9030WAT    EPW36828   2.445   7.172   0.650
 9031WAT      O36829   2.871   7.208   0.772
 9031WAT     H136830   2.955   7.190   0.787
 9031WAT     H236831   2.838   7.222   0.852
 9031WAT    EPW36832   2.878   7.208   0.786
 9032WAT      O36833   1.551   7.240   0.383
 9032WAT     H136834   1.626   7.284   0.373
 9032WAT     H236835   1.492   7.291   0.345
 9032WAT    EPW36836   1.554   7.254   0.376
 9033WAT      O36837   2.058   7.383   1.180
 9033WAT     H136838   2.013   7.417   1.246
 9033WAT     H236839   2.044   7.440   1.115
 9033WAT    EPW36840   2.049   7.397   1.180
 9034WAT      O36841   3.157   7.461   0.649
 9034WAT     H136842   3.219   7.400   0.651
 9034WAT     H236843   3.101   7.433   0.589
 9034WAT    EPW36844   3.158   7.448   0.641
 9035WAT      O36845   1.634   7.530   1.019
 9035WAT     H136846   1.593   7.472   1.070
 9035WAT     H236847   1.642   7.488   0.943
 9035WAT    EPW36848   1.629   7.515   1.016
 9036WAT      O36849   1.727   7.589   0.573
 9036WAT     H136850   1.739   7.534   0.507
 9036WAT     H236851   1.651   7.628   0.554
 9036WAT    EPW36852   1.717   7.587   0.561
 9037WAT      O36853   2.746   7.334   0.355
 9037WAT     H136854   2.684   7.365   0.407
 9037WAT     H236855   2.720   7.358   0.275
 9037WAT    EPW36856   2.733   7.342   0.351
 9038WAT      O36857   2.285   6.949   0.681
 9038WAT     H136858   2.301   6.864   0.670
 9038WAT     H236859   2.299   6.962   0.766
 9038WAT    EPW36860   2.289   6.939   0.692
 9039WAT      O36861   1.473   7.755   1.000
 9039WAT     H136862   1.447   7.755   0.917
 9039WAT     H236863   1.525   7.684   1.005
 9039WAT    EPW36864   1.477   7.744   0.989
 9040WAT      O36865   2.133   7.246   0.367
 9040WAT     H136866   2.188   7.313   0.362
 9040WAT     H236867   2.184   7.176   0.364
 9040WAT    EPW36868   2.148   7.245   0.366
 9041WAT      O36869   2.977   7.804   0.740
 9041WAT     H136870   2.957   7.774   0.661
 9041WAT     H236871   3.063   7.788   0.747
 9041WAT    EPW36872   2.987   7.797   0.729
 9042WAT      O36873   2.914   6.823   0.941
 9042WAT     H136874   2.837   6.806   0.904
 9042WAT     H236875   2.909   6.782   1.018
 9042WAT    EPW36876   2.902   6.814   0.947
 9043WAT      O36877   2.375   7.782   0.676
 9043WAT     H136878   2.400   7.848   0.727
 9043WAT     H236879   2.428   7.717   0.698
 9043WAT    EPW36880   2.386   7.782   0.687
 9044WAT      O36881   2.036   7.812   0.324
 9044WAT     H136882   2.088   7.808   0.253
 9044WAT     H236883   2.083   7.772   0.385
 9044WAT    EPW36884   2.051   7.806   0.322
 9045WAT      O36885   1.512   7.752   0.499
 9045WAT     H136886   1.569   7.802   0.455
 9045WAT     H236887   1.449   7.737   0.440
 9045WAT    EPW36888   1.511   7.757   0.483
 9046WAT      O36889   2.917   7.677   0.493
 9046WAT     H136890   2.898   7.604   0.536
 9046WAT     H236891   2.841   7.701   0.459
 9046WAT    EPW36892   2.903   7.670   0.494
 9047WAT      O36893   3.162   7.702   0.352
 9047WAT     H136894   3.089   7.694   0.399
 9047WAT     H236895   3.136   7.746   0.281
 9047WAT    EPW36896   3.147   7.707   0.348
 9048WAT      O36897   2.641   7.187   0.972
 9048WAT     H136898   2.585   7.163   1.034
 9048WAT     H236899   2.639   7.120   0.916
 9048WAT    EPW36900   2.633   7.173   0.973
 9049WAT      O36901   2.597   7.481   1.110
 9049WAT     H136902   2.618   7.536   1.175
 9049WAT     H236903   2.512   7.493   1.099
 9049WAT    EPW36904   2.588   7.491   1.118
 9050WAT      O36905   2.771   7.554   0.909
 9050WAT     H136906   2.792   7.634   0.934
 9050WAT     H236907   2.719   7.525   0.973
 9050WAT    EPW36908   2.766   7.561   0.922
 9051WAT      O36909   3.080   7.667   1.079
 9051WAT     H136910   3.080   7.604   1.019
 9051WAT     H236911   3.161   7.701   1.074
 9051WAT    EPW36912   3.092   7.663   1.070
 9052WAT      O36913   2.664   7.018   0.745
 9052WAT     H136914   2.737   7.064   0.731
 9052WAT     H236915   2.604   7.060   0.698
 9052WAT    EPW36916   2.666   7.031   0.736
 9053WAT      O36917   2.167   7.674   0.528
 9053WAT     H136918   2.232   7.713   0.571
 9053WAT     H236919   2.105   7.665   0.589
 9053WAT    EPW36920   2.168   7.678   0.543
 9054WAT      O36921   1.916   7.289   0.829
 9054WAT     H136922   1.911   7.209   0.863
 9054WAT     H236923   1.936   7.275   0.745
 9054WAT    EPW36924   1.918   7.275   0.822
 9055WAT      O36925   2.782   6.790   0.501
 9055WAT     H136926   2.759   6.872   0.481
 9055WAT     H236927   2.853   6.801   0.551
 9055WAT    EPW36928   2.789   6.804   0.505
 9056WAT      O36929   2.015   6.881   0.737
 9056WAT     H136930   2.100   6.888   0.718
 9056WAT     H236931   2.007   6.799   0.765
 9056WAT    EPW36932   2.027   6.870   0.739
 9057WAT      O36933   1.784   7.396   0.383
 9057WAT     H136934   1.831   7.408   0.310
 9057WAT     H236935   1.836   7.350   0.434
 9057WAT    EPW36936   1.798   7.391   0.380
 9058WAT      O36937   2.437   7.341   0.860
 9058WAT     H136938   2.392   7.386   0.920
 9058WAT     H236939   2.503   7.306   0.906
 9058WAT    EPW36940   2.440   7.343   0.876
 9059WAT      O36941   2.530   7.411   0.507
 9059WAT     H136942   2.546   7.463   0.576
 9059WAT     H236943   2.507   7.336   0.544
 9059WAT    EPW36944   2.529   7.408   0.523
 9060WAT      O36945   1.999   6.856   0.371
 9060WAT     H136946   1.954   6.908   0.425
 9060WAT     H236947   1.938   6.825   0.317
 9060WAT    EPW36948   1.983   6.859   0.371
 9061WAT      O36949   1.268   6.975   1.022
 9061WAT     H136950   1.271   7.041   0.964
 9061WAT     H236951   1.196   6.931   0.998
 9061WAT    EPW36952   1.258   6.979   1.010
 9062WAT      O36953   3.048   7.456   0.904
 9062WAT     H136954   2.962   7.464   0.906
 9062WAT     H236955   3.068   7.467   0.820
 9062WAT    EPW36956   3.039   7.459   0.892
 9063WAT      O36957   2.541   7.569   0.742
 9063WAT     H136958   2.499   7.503   0.782
 9063WAT     H236959   2.613   7.579   0.790
 9063WAT    EPW36960   2.545   7.561   0.755
 9064WAT      O36961   2.352   7.744   1.210
 9064WAT     H136962   2.408   7.808   1.194
 9064WAT     H236963   2.274   7.784   1.214
 9064WAT    EPW36964   2.349   7.759   1.208
 9065WAT      O36965   1.670   7.404   0.773
 9065WAT     H136966   1.691   7.465   0.715
 9065WAT     H236967   1.746   7.366   0.792
 9065WAT    EPW36968   1.684   7.407   0.767
 9066WAT      O36969   1.472   7.259   0.647
 9066WAT     H136970   1.495   7.257   0.563
 9066WAT     H236971   1.538   7.300   0.686
 9066WAT    EPW36972   1.485   7.264   0.640
 9067WAT      O36973   1.634   6.930   0.901
 9067WAT     H136974   1.592   6.855   0.913
 9067WAT     H236975   1.617   6.951   0.818
 9067WAT    EPW36976   1.626   6.922   0.891
 9068WAT      O36977   2.837   7.464   0.653
 9068WAT     H136978   2.848   7.379   0.668
 9068WAT     H236979   2.811   7.496   0.730
 9068WAT    EPW36980   2.835   7.456   0.667
 9069WAT      O36981   1.372   7.719   0.736
 9069WAT     H136982   1.419   7.748   0.669
 9069WAT     H236983   1.347   7.639   0.711
 9069WAT    EPW36984   1.375   7.712   0.722
 9070WAT      O36985   2.317   6.976   0.958
 9070WAT     H136986   2.352   7.031   1.016
 9070WAT     H236987   2.245   6.948   0.997
 9070WAT    EPW36988   2.312   6.980   0.972
 9071WAT      O36989   2.748   7.057   0.402
 9071WAT     H136990   2.835   7.049   0.405
 9071WAT     H236991   2.736   7.142   0.389
 9071WAT    EPW36992   2.759   7.068   0.400
 9072WAT      O36993   1.955   7.677   0.716
 9072WAT     H136994   1.937   7.762   0.730
 9072WAT     H236995   1.884   7.647   0.676
 9072WAT    EPW36996   1.942   7.685   0.712
 9073WAT      O36997   1.845   6.998   0.556
 9073WAT     H136998   1.761   6.986   0.576
 9073WAT     H236999   1.887   6.951   0.616
 9073WAT    EPW37000   1.839   6.989   0.568
 9074WAT      O37001   3.000   6.861   0.667
 9074WAT     H137002   2.983   6.849   0.752
 9074WAT     H237003   3.076   6.819   0.655
 9074WAT    EPW37004   3.009   6.853   0.678
 9075WAT      O37005   2.256   6.991   0.396
 9075WAT     H137006   2.185   6.945   0.372
 9075WAT     H237007   2.258   6.979   0.483
 9075WAT    EPW37008   2.246   6.982   0.405
 9076WAT      O37009   2.060   7.511   0.923
 9076WAT     H137010   2.023   7.437   0.895
 9076WAT     H237011   2.031   7.571   0.867
 9076WAT    EPW37012   2.050   7.509   0.911
 9077WAT      O37013   1.576   6.998   0.643
 9077WAT     H137014   1.544   6.962   0.570
 9077WAT     H237015   1.538   7.077   0.644
 9077WAT    EPW37016   1.566   7.004   0.632
 9078WAT      O37017   2.515   6.903   0.303
 9078WAT     H137018   2.574   6.962   0.330
 9078WAT     H237019   2.439   6.938   0.327
 9078WAT    EPW37020   2.512   6.917   0.310
 9079WAT      O37021   2.848   7.808   0.989
 9079WAT     H137022   2.917   7.782   1.034
 9079WAT     H237023   2.881   7.826   0.910
 9079WAT    EPW37024   2.863   7.807   0.984
 9080WAT      O37025   2.876   7.268   1.104
 9080WAT     H137026   2.876   7.346   1.144
 9080WAT     H237027   2.792   7.257   1.082
 9080WAT    EPW37028   2.863   7.278   1.107
 9081WAT      O37029   3.015   7.324   0.445
 9081WAT     H137030   2.932   7.336   0.420
 9081WAT     H237031   3.021   7.237   0.452
 9081WAT    EPW37032   3.003   7.313   0.442
 9082WAT      O37033   1.894   7.024   0.933
 9082WAT     H137034   1.934   6.986   0.866
 9082WAT     H237035   1.813   6.992   0.929
 9082WAT    EPW37036   1.888   7.014   0.923
 9083WAT      O37037   2.619   7.905   1.155
 9083WAT     H137038   2.684   7.899   1.096
 9083WAT     H237039   2.630   7.985   1.189
 9083WAT    EPW37040   2.630   7.916   1.151
 9084WAT      O37041   2.361   4.978   7.399
 9084WAT     H137042   2.353   5.026   7.327
 9084WAT     H237043   2.447   4.964   7.405
 9084WAT    EPW37044   2.373   4.983   7.389
 9085WAT      O37045   1.298   6.107   7.376
 9085WAT     H137046   1.219   6.103   7.413
 9085WAT     H237047   1.307   6.028   7.339
 9085WAT    EPW37048   1.287   6.095   7.376
 9086WAT      O37049   2.935   6.491   7.185
 9086WAT     H137050   2.985   6.432   7.225
 9086WAT     H237051   2.879   6.443   7.138
 9086WAT    EPW37052   2.934   6.475   7.184
 9087WAT      O37053   1.282   5.458   7.045
 9087WAT     H137054   1.215   5.506   7.015
 9087WAT     H237055   1.254   5.376   7.038
 9087WAT    EPW37056   1.268   5.453   7.040
 9088WAT      O37057   1.646   6.037   7.001
 9088WAT     H137058   1.606   5.997   6.934
 9088WAT     H237059   1.657   5.973   7.059
 9088WAT    EPW37060   1.641   6.022   7.000
 9089WAT      O37061   2.556   5.834   7.506
 9089WAT     H137062   2.565   5.820   7.421
 9089WAT     H237063   2.512   5.764   7.535
 9089WAT    EPW37064   2.551   5.822   7.498
 9090WAT      O37065   1.553   6.226   7.378
 9090WAT     H137066   1.607   6.194   7.438
 9090WAT     H237067   1.479   6.182   7.391
 9090WAT    EPW37068   1.550   6.215   7.389
 9091WAT      O37069   1.989   5.138   7.330
 9091WAT     H137070   1.998   5.190   7.261
 9091WAT     H237071   1.978   5.059   7.295
 9091WAT    EPW37072   1.989   5.134   7.315
 9092WAT      O37073   1.432   6.483   6.961
 9092WAT     H137074   1.485   6.495   6.894
 9092WAT     H237075   1.472   6.423   7.009
 9092WAT    EPW37076   1.445   6.476   6.958
 9093WAT      O37077   1.510   5.878   7.521
 9093WAT     H137078   1.463   5.879   7.447
 9093WAT     H237079   1.567   5.813   7.508
 9093WAT    EPW37080   1.511   5.868   7.508
 9094WAT      O37081   1.681   5.679   7.437
 9094WAT     H137082   1.739   5.652   7.497
 9094WAT     H237083   1.615   5.622   7.445
 9094WAT    EPW37084   1.680   5.666   7.447
 9095WAT      O37085   2.006   6.258   7.612
 9095WAT     H137086   2.034   6.179   7.633
 9095WAT     H237087   2.076   6.309   7.621
 9095WAT    EPW37088   2.020   6.254   7.616
 9096WAT      O37089   2.102   6.196   7.305
 9096WAT     H137090   2.149   6.135   7.345
 9096WAT     H237091   2.120   6.183   7.220
 9096WAT    EPW37092   2.112   6.185   7.298
 9097WAT      O37093   1.730   5.183   7.419
 9097WAT     H137094   1.692   5.233   7.358
 9097WAT     H237095   1.813   5.178   7.392
 9097WAT    EPW37096   1.737   5.190   7.406
 9098WAT      O37097   2.098   5.169   7.586
 9098WAT     H137098   2.073   5.250   7.609
 9098WAT     H237099   2.067   5.161   7.504
 9098WAT    EPW37100   2.090   5.180   7.577
 9099WAT      O37101   2.493   5.306   6.811
 9099WAT     H137102   2.442   5.367   6.847
 9099WAT     H237103   2.514   5.253   6.877
 9099WAT    EPW37104   2.489   5.307   6.826
 9100WAT      O37105   1.433   5.644   7.781
 9100WAT     H137106   1.402   5.725   7.778
 9100WAT     H237107   1.380   5.603   7.836
 9100WAT    EPW37108   1.421   5.650   7.788
 9101WAT      O37109   1.325   6.566   7.628
 9101WAT     H137110   1.260   6.615   7.596
 9101WAT     H237111   1.363   6.534   7.556
 9101WAT    EPW37112   1.321   6.568   7.612
 9102WAT      O37113   1.891   6.382   7.319
 9102WAT     H137114   1.843   6.375   7.391
 9102WAT     H237115   1.955   6.324   7.331
 9102WAT    EPW37116   1.894   6.372   7.331
 9103WAT      O37117   2.494   6.596   7.103
 9103WAT     H137118   2.569   6.642   7.106
 9103WAT     H237119   2.518   6.516   7.126
 9103WAT    EPW37120   2.509   6.591   7.107
 9104WAT      O37121   2.292   6.631   7.286
 9104WAT     H137122   2.312   6.699   7.336
 9104WAT     H237123   2.358   6.626   7.229
 9104WAT    EPW37124   2.305   6.640   7.285
 9105WAT      O37125   1.449   6.483   7.388
 9105WAT     H137126   1.496   6.411   7.401
 9105WAT     H237127   1.506   6.541   7.356
 9105WAT    EPW37128   1.464   6.481   7.385
 9106WAT      O37129   3.028   5.295   7.545
 9106WAT     H137130   2.976   5.363   7.557
 9106WAT     H237131   2.973   5.230   7.524
 9106WAT    EPW37132   3.012   5.295   7.543
 9107WAT      O37133   1.639   6.259   7.775
 9107WAT     H137134   1.659   6.322   7.719
 9107WAT     H237135   1.666   6.186   7.736
 9107WAT    EPW37136   1.646   6.257   7.761
 9108WAT      O37137   1.866   6.634   7.645
 9108WAT     H137138   1.947   6.649   7.619
 9108WAT     H237139   1.820   6.699   7.609
 9108WAT    EPW37140   1.871   6.646   7.636
 9109WAT      O37141   2.233   5.551   7.439
 9109WAT     H137142   2.258   5.495   7.376
 9109WAT     H237143   2.305   5.559   7.488
 9109WAT    EPW37144   2.248   5.544   7.437
 9110WAT      O37145   2.317   5.483   6.951
 9110WAT     H137146   2.343   5.562   6.977
 9110WAT     H237147   2.241   5.499   6.911
 9110WAT    EPW37148   2.310   5.497   6.949
 9111WAT      O37149   2.716   6.766   7.072
 9111WAT     H137150   2.765   6.739   7.006
 9111WAT     H237151   2.770   6.816   7.119
 9111WAT    EPW37152   2.731   6.770   7.069
 9112WAT      O37153   2.179   6.422   6.913
 9112WAT     H137154   2.147   6.483   6.967
 9112WAT     H237155   2.257   6.454   6.891
 9112WAT    EPW37156   2.186   6.436   6.918
 9113WAT      O37157   2.551   5.145   7.030
 9113WAT     H137158   2.604   5.076   7.041
 9113WAT     H237159   2.575   5.199   7.094
 9113WAT    EPW37160   2.563   5.143   7.041
 9114WAT      O37161   1.345   5.253   7.320
 9114WAT     H137162   1.330   5.167   7.309
 9114WAT     H237163   1.295   5.274   7.388
 9114WAT    EPW37164   1.335   5.243   7.328
 9115WAT      O37165   2.316   5.393   7.221
 9115WAT     H137166   2.295   5.309   7.216
 9115WAT     H237167   2.309   5.421   7.139
 9115WAT    EPW37168   2.312   5.385   7.208
 9116WAT      O37169   2.308   5.116   7.164
 9116WAT     H137170   2.244   5.096   7.109
 9116WAT     H237171   2.379   5.118   7.113
 9116WAT    EPW37172   2.309   5.113   7.148
 9117WAT      O37173   2.997   6.709   7.470
 9117WAT     H137174   2.960   6.788   7.477
 9117WAT     H237175   2.929   6.656   7.454
 9117WAT    EPW37176   2.981   6.713   7.468
 9118WAT      O37177   2.066   5.443   7.634
 9118WAT     H137178   2.111   5.477   7.567
 9118WAT     H237179   2.109   5.472   7.704
 9118WAT    EPW37180   2.079   5.452   7.634
 9119WAT      O37181   2.704   6.300   7.470
 9119WAT     H137182   2.772   6.246   7.463
 9119WAT     H237183   2.637   6.246   7.483
 9119WAT    EPW37184   2.704   6.284   7.471
 9120WAT      O37185   1.653   4.935   7.514
 9120WAT     H137186   1.668   5.017   7.489
 9120WAT     H237187   1.625   4.896   7.442
 9120WAT    EPW37188   1.651   4.941   7.500
 9121WAT      O37189   2.626   4.930   7.462
 9121WAT     H137190   2.633   4.919   7.549
 9121WAT     H237191   2.670   4.862   7.429
 9121WAT    EPW37192   2.634   4.918   7.470
 9122WAT      O37193   1.634   5.327   7.634
 9122WAT     H137194   1.667   5.276   7.571
 9122WAT     H237195   1.566   5.282   7.664
 9122WAT    EPW37196   1.629   5.313   7.629
 9123WAT      O37197   2.893   6.083   7.045
 9123WAT     H137198   2.882   6.033   7.115
 9123WAT     H237199   2.979   6.096   7.041
 9123WAT    EPW37200   2.904   6.078   7.055
 9124WAT      O37201   1.700   6.073   7.568
 9124WAT     H137202   1.764   6.053   7.512
 9124WAT     H237203   1.642   6.009   7.556
 9124WAT    EPW37204   1.701   6.060   7.558
 9125WAT      O37205   1.551   6.646   7.772
 9125WAT     H137206   1.478   6.630   7.727
 9125WAT     H237207   1.600   6.693   7.717
 9125WAT    EPW37208   1.547   6.651   7.757
 9126WAT      O37209   2.716   5.739   6.971
 9126WAT     H137210   2.708   5.821   6.941
 9126WAT     H237211   2.682   5.744   7.051
 9126WAT    EPW37212   2.710   5.752   6.978
 9127WAT      O37213   1.888   6.017   7.369
 9127WAT     H137214   1.944   6.081   7.349
 9127WAT     H237215   1.905   5.955   7.310
 9127WAT    EPW37216   1.899   6.017   7.358
 9128WAT      O37217   3.079   5.192   7.004
 9128WAT     H137218   3.105   5.114   6.975
 9128WAT     H237219   3.040   5.228   6.934
 9128WAT    EPW37220   3.077   5.186   6.989
 9129WAT      O37221   1.381   6.164   7.829
 9129WAT     H137222   1.339   6.239   7.847
 9129WAT     H237223   1.462   6.190   7.811
 9129WAT    EPW37224   1.386   6.179   7.829
 9130WAT      O37225   1.380   5.861   7.275
 9130WAT     H137226   1.356   5.777   7.278
 9130WAT     H237227   1.458   5.858   7.236
 9130WAT    EPW37228   1.388   5.848   7.269
 9131WAT      O37229   2.942   5.056   7.205
 9131WAT     H137230   3.015   5.017   7.233
 9131WAT     H237231   2.971   5.113   7.146
 9131WAT    EPW37232   2.957   5.059   7.201
 9132WAT      O37233   2.247   6.404   7.632
 9132WAT     H137234   2.217   6.486   7.628
 9132WAT     H237235   2.280   6.391   7.552
 9132WAT    EPW37236   2.247   6.414   7.620
 9133WAT      O37237   1.278   6.333   7.222
 9133WAT     H137238   1.332   6.388   7.265
 9133WAT     H237239   1.276   6.263   7.274
 9133WAT    EPW37240   1.286   6.331   7.236
 9134WAT      O37241   2.575   5.367   7.669
 9134WAT     H137242   2.595   5.318   7.738
 9134WAT     H237243   2.518   5.318   7.625
 9134WAT    EPW37244   2.569   5.353   7.673
 9135WAT      O37245   1.283   6.150   7.001
 9135WAT     H137246   1.354   6.099   7.000
 9135WAT     H237247   1.300   6.208   7.064
 9135WAT    EPW37248   1.296   6.151   7.010
 9136WAT      O37249   1.344   5.905   7.740
 9136WAT     H137250   1.395   5.903   7.669
 9136WAT     H237251   1.362   5.983   7.776
 9136WAT    EPW37252   1.354   5.916   7.735
 9137WAT      O37253   1.990   5.316   7.115
 9137WAT     H137254   1.982   5.296   7.030
 9137WAT     H237255   1.972   5.401   7.118
 9137WAT    EPW37256   1.986   5.326   7.103
 9138WAT      O37257   1.768   6.393   7.567
 9138WAT     H137258   1.792   6.472   7.595
 9138WAT     H237259   1.834   6.341   7.591
 9138WAT    EPW37260   1.781   6.397   7.574
 9139WAT      O37261   1.632   5.566   7.085
 9139WAT     H137262   1.615   5.503   7.143
 9139WAT     H237263   1.590   5.539   7.013
 9139WAT    EPW37264   1.623   5.553   7.083
 9140WAT      O37265   1.702   5.680   7.873
 9140WAT     H137266   1.618   5.671   7.851
 9140WAT     H237267   1.744   5.642   7.807
 9140WAT    EPW37268   1.695   5.673   7.860
 9141WAT      O37269   2.586   5.318   7.239
 9141WAT     H137270   2.638   5.385   7.261
 9141WAT     H237271   2.506   5.352   7.245
 9141WAT    EPW37272   2.582   5.333   7.243
 9142WAT      O37273   2.389   5.729   7.063
 9142WAT     H137274   2.368   5.781   6.996
 9142WAT     H237275   2.330   5.749   7.124
 9142WAT    EPW37276   2.377   5.740   7.062
 9143WAT      O37277   2.927   6.129   7.443
 9143WAT     H137278   2.938   6.085   7.517
 9143WAT     H237279   2.901   6.067   7.386
 9143WAT    EPW37280   2.925   6.113   7.445
 9144WAT      O37281   2.361   6.190   7.772
 9144WAT     H137282   2.330   6.263   7.737
 9144WAT     H237283   2.394   6.216   7.848
 9144WAT    EPW37284   2.361   6.204   7.778
 9145WAT      O37285   1.914   6.651   7.285
 9145WAT     H137286   1.907   6.568   7.311
 9145WAT     H237287   1.963   6.647   7.213
 9145WAT    EPW37288   1.920   6.638   7.278
 9146WAT      O37289   1.831   5.009   7.022
 9146WAT     H137290   1.829   4.986   7.106
 9146WAT     H237291   1.777   5.078   7.019
 9146WAT    EPW37292   1.822   5.016   7.034
 9147WAT      O37293   2.101   6.623   7.086
 9147WAT     H137294   2.164   6.630   7.146
 9147WAT     H237295   2.104   6.700   7.044
 9147WAT    EPW37296   2.111   6.636   7.088
 9148WAT      O37297   1.638   5.823   7.186
 9148WAT     H137298   1.630   5.745   7.147
 9148WAT     H237299   1.676   5.804   7.262
 9148WAT    EPW37300   1.643   5.809   7.191
 9149WAT      O37301   1.273   4.981   7.282
 9149WAT     H137302   1.271   4.928   7.213
 9149WAT     H237303   1.237   4.933   7.345
 9149WAT    EPW37304   1.267   4.966   7.281
 9150WAT      O37305   2.231   5.781   7.284
 9150WAT     H137306   2.243   5.849   7.337
 9150WAT     H237307   2.226   5.713   7.339
 9150WAT    EPW37308   2.232   5.781   7.300
 9151WAT      O37309   1.676   5.233   6.986
 9151WAT     H137310   1.617   5.222   6.923
 9151WAT     H237311   1.743   5.272   6.945
 9151WAT    EPW37312   1.677   5.237   6.971
 9152WAT      O37313   2.145   6.026   7.696
 9152WAT     H137314   2.101   5.988   7.761
 9152WAT     H237315   2.209   6.069   7.737
 9152WAT    EPW37316   2.148   6.027   7.712
 9153WAT      O37317   1.795   6.631   6.888
 9153WAT     H137318   1.815   6.560   6.935
 9153WAT     H237319   1.800   6.696   6.946
 9153WAT    EPW37320   1.799   6.630   6.903
 9154WAT      O37321   1.808   5.546   7.650
 9154WAT     H137322   1.888   5.511   7.642
 9154WAT     H237323   1.756   5.476   7.653
 9154WAT    EPW37324   1.812   5.530   7.649
 9155WAT      O37325   3.116   6.641   7.045
 9155WAT     H137326   3.178   6.586   7.017
 9155WAT     H237327   3.062   6.590   7.090
 9155WAT    EPW37328   3.117   6.626   7.047
 9156WAT      O37329   1.328   5.589   7.296
 9156WAT     H137330   1.365   5.551   7.365
 9156WAT     H237331   1.333   5.527   7.234
 9156WAT    EPW37332   1.334   5.574   7.297
 9157WAT      O37333   1.821   5.777   6.861
 9157WAT     H137334   1.822   5.717   6.924
 9157WAT     H237335   1.764   5.746   6.804
 9157WAT    EPW37336   1.813   5.764   6.862
 9158WAT      O37337   2.944   5.978   7.680
 9158WAT     H137338   2.930   6.032   7.747
 9158WAT     H237339   3.024   5.946   7.695
 9158WAT    EPW37340   2.954   5.982   7.692
 9159WAT      O37341   1.904   5.590   7.067
 9159WAT     H137342   1.924   5.660   7.115
 9159WAT     H237343   1.820   5.577   7.084
 9159WAT    EPW37344   1.895   5.599   7.077
 9160WAT      O37345   1.395   5.199   7.692
 9160WAT     H137346   1.323   5.225   7.651
 9160WAT     H237347   1.381   5.114   7.706
 9160WAT    EPW37348   1.382   5.190   7.688
 9161WAT      O37349   3.160   6.395   7.836
 9161WAT     H137350   3.160   6.453   7.770
 9161WAT     H237351   3.233   6.412   7.879
 9161WAT    EPW37352   3.171   6.406   7.832
 9162WAT      O37353   2.765   6.328   7.048
 9162WAT     H137354   2.799   6.248   7.052
 9162WAT     H237355   2.689   6.320   7.090
 9162WAT    EPW37356   2.758   6.315   7.054
 9163WAT      O37357   2.817   5.484   7.577
 9163WAT     H137358   2.745   5.445   7.608
 9163WAT     H237359   2.811   5.565   7.608
 9163WAT    EPW37360   2.805   5.490   7.587
 9164WAT      O37361   2.442   6.137   6.967
 9164WAT     H137362   2.515   6.091   6.960
 9164WAT     H237363   2.412   6.141   6.885
 9164WAT    EPW37364   2.448   6.131   6.954
 9165WAT      O37365   2.132   6.656   7.554
 9165WAT     H137366   2.127   6.743   7.566
 9165WAT     H237367   2.125   6.647   7.468
 9165WAT    EPW37368   2.130   6.668   7.543
 9166WAT      O37369   2.962   5.612   6.950
 9166WAT     H137370   3.010   5.668   6.904
 9166WAT     H237371   2.882   5.646   6.947
 9166WAT    EPW37372   2.957   5.625   6.943
 9167WAT      O37373   2.053   5.916   6.925
 9167WAT     H137374   1.981   5.883   6.889
 9167WAT     H237375   2.035   6.002   6.930
 9167WAT    EPW37376   2.039   5.924   6.920
 9168WAT      O37377   2.738   5.541   7.318
 9168WAT     H137378   2.760   5.518   7.400
 9168WAT     H237379   2.811   5.573   7.285
 9168WAT    EPW37380   2.752   5.542   7.326
 9169WAT      O37381   2.859   5.090   7.465
 9169WAT     H137382   2.778   5.058   7.467
 9169WAT     H237383   2.878   5.090   7.380
 9169WAT    EPW37384   2.850   5.085   7.453
 9170WAT      O37385   2.841   5.928   7.266
 9170WAT     H137386   2.888   5.855   7.259
 9170WAT     H237387   2.758   5.899   7.261
 9170WAT    EPW37388   2.836   5.913   7.265
 9171WAT      O37389   1.595   5.336   7.234
 9171WAT     H137390   1.609   5.295   7.158
 9171WAT     H237391   1.514   5.311   7.255
 9171WAT    EPW37392   1.585   5.326   7.226
 9172WAT      O37393   2.499   6.108   7.535
 9172WAT     H137394   2.470   6.125   7.615
 9172WAT     H237395   2.525   6.025   7.539
 9172WAT    EPW37396   2.499   6.098   7.547
 9173WAT      O37397   2.254   6.010   7.440
 9173WAT     H137398   2.214   6.006   7.517
 9173WAT     H237399   2.331   6.046   7.458
 9173WAT    EPW37400   2.260   6.015   7.454
 9174WAT      O37401   2.625   6.757   7.741
 9174WAT     H137402   2.553   6.761   7.792
 9174WAT     H237403   2.680   6.709   7.788
 9174WAT    EPW37404   2.622   6.750   7.756
 9175WAT      O37405   2.957   5.680   7.220
 9175WAT     H137406   2.963   5.663   7.135
 9175WAT     H237407   3.036   5.660   7.251
 9175WAT    EPW37408   2.970   5.674   7.212
 9176WAT      O37409   2.317   6.365   7.366
 9176WAT     H137410   2.303   6.447   7.341
 9176WAT     H237411   2.245   6.323   7.341
 9176WAT    EPW37412   2.304   6.371   7.359
 9177WAT      O37413   1.488   5.481   6.862
 9177WAT     H137414   1.416   5.476   6.912
 9177WAT     H237415   1.491   5.402   6.825
 9177WAT    EPW37416   1.478   5.468   6.864
 9178WAT      O37417   2.372   5.217   7.555
 9178WAT     H137418   2.287   5.211   7.572
 9178WAT     H237419   2.387   5.146   7.506
 9178WAT    EPW37420   2.362   5.206   7.550
 9179WAT      O37421   1.822   6.395   7.045
 9179WAT     H137422   1.857   6.395   7.125
 9179WAT     H237423   1.741   6.367   7.058
 9179WAT    EPW37424   1.815   6.391   7.059
 9180WAT      O37425   2.781   5.750   7.649
 9180WAT     H137426   2.834   5.818   7.659
 9180WAT     H237427   2.714   5.783   7.603
 9180WAT    EPW37428   2.779   5.765   7.644
 9181WAT      O37429   2.768   6.562   7.395
 9181WAT     H137430   2.741   6.484   7.424
 9181WAT     H237431   2.811   6.543   7.321
 9181WAT    EPW37432   2.770   6.548   7.388
 9182WAT      O37433   1.575   6.283   7.101
 9182WAT     H137434   1.572   6.270   7.188
 9182WAT     H237435   1.595   6.205   7.069
 9182WAT    EPW37436   1.577   6.270   7.109
 9183WAT      O37437   1.885   6.154   6.904
 9183WAT     H137438   1.813   6.111   6.930
 9183WAT     H237439   1.880   6.230   6.947
 9183WAT    EPW37440   1.874   6.159   6.914
 9184WAT      O37441   2.105   5.036   6.984
 9184WAT     H137442   2.117   5.038   6.898
 9184WAT     H237443   2.018   5.044   6.993
 9184WAT    EPW37444   2.094   5.037   6.973
 9185WAT      O37445   2.439   5.607   7.623
 9185WAT     H137446   2.487   5.534   7.635
 9185WAT     H237447   2.425   5.635   7.704
 9185WAT    EPW37448   2.444   5.600   7.637
 9186WAT      O37449   1.468   5.522   7.528
 9186WAT     H137450   1.451   5.563   7.603
 9186WAT     H237451   1.514   5.452   7.552
 9186WAT    EPW37452   1.472   5.518   7.542
 9187WAT      O37453   2.604   5.769   7.236
 9187WAT     H137454   2.631   5.690   7.259
 9187WAT     H237455   2.532   5.753   7.189
 9187WAT    EPW37456   2.598   5.755   7.232
 9188WAT      O37457   1.633   6.669   7.284
 9188WAT     H137458   1.611   6.713   7.212
 9188WAT     H237459   1.720   6.662   7.277
 9188WAT    EPW37460   1.643   6.675   7.272
 9189WAT      O37461   1.982   5.831   7.180
 9189WAT     H137462   2.002   5.867   7.103
 9189WAT     H237463   2.059   5.814   7.216
 9189WAT    EPW37464   1.996   5.834   7.174
 9190WAT      O37465   2.897   6.694   6.875
 9190WAT     H137466   2.970   6.684   6.923
 9190WAT     H237467   2.878   6.613   6.849
 9190WAT    EPW37468   2.905   6.681   6.879
 9191WAT      O37469   2.514   6.326   7.163
 9191WAT     H137470   2.465   6.320   7.235
 9191WAT     H237471   2.477   6.269   7.108
 9191WAT    EPW37472   2.501   6.316   7.166
 9192WAT      O37473   1.581   6.460   7.984
 9192WAT     H137474   1.605   6.391   7.936
 9192WAT     H237475   1.586   6.527   7.929
 9192WAT    EPW37476   1.585   6.459   7.969
 9193WAT      O37477   2.176   6.175   7.044
 9193WAT     H137478   2.257   6.148   7.026
 9193WAT     H237479   2.169   6.250   6.999
 9193WAT    EPW37480   2.187   6.182   7.035
 9194WAT      O37481   2.401   4.928   5.542
 9194WAT     H137482   2.408   4.974   5.469
 9194WAT     H237483   2.484   4.905   5.560
 9194WAT    EPW37484   2.414   4.931   5.534
 9195WAT      O37485   2.337   5.647   5.985
 9195WAT     H137486   2.305   5.724   6.012
 9195WAT     H237487   2.395   5.625   6.046
 9195WAT    EPW37488   2.341   5.655   5.998
 9196WAT      O37489   1.280   6.108   5.479
 9196WAT     H137490   1.219   6.099   5.540
 9196WAT     H237491   1.293   6.026   5.450
 9196WAT    EPW37492   1.273   6.095   5.483
 9197WAT      O37493   2.963   6.463   5.333
 9197WAT     H137494   3.024   6.403   5.349
 9197WAT     H237495   2.907   6.421   5.280
 9197WAT    EPW37496   2.964   6.448   5.327
 9198WAT      O37497   1.291   5.466   5.164
 9198WAT     H137498   1.227   5.515   5.130
 9198WAT     H237499   1.261   5.384   5.156
 9198WAT    EPW37500   1.277   5.461   5.158
 9199WAT      O37501   1.575   6.053   5.077
 9199WAT     H137502   1.549   6.007   5.007
 9199WAT     H237503   1.589   5.992   5.138
 9199WAT    EPW37504   1.573   6.037   5.076
 9200WAT      O37505   2.611   5.814   5.636
 9200WAT     H137506   2.618   5.796   5.551
 9200WAT     H237507   2.548   5.760   5.663
 9200WAT    EPW37508   2.603   5.803   5.627
 9201WAT      O37509   1.533   6.226   5.475
 9201WAT     H137510   1.585   6.189   5.535
 9201WAT     H237511   1.457   6.184   5.485
 9201WAT    EPW37512   1.530   6.214   5.486
 9202WAT      O37513   1.969   5.106   5.459
 9202WAT     H137514   1.996   5.173   5.411
 9202WAT     H237515   1.941   5.048   5.401
 9202WAT    EPW37516   1.969   5.107   5.443
 9203WAT      O37517   1.436   6.508   5.088
 9203WAT     H137518   1.482   6.514   5.014
 9203WAT     H237519   1.471   6.439   5.128
 9203WAT    EPW37520   1.448   6.499   5.083
 9204WAT      O37521   1.342   6.328   6.202
 9204WAT     H137522   1.365   6.310   6.284
 9204WAT     H237523   1.277   6.272   6.187
 9204WAT    EPW37524   1.336   6.317   6.212
 9205WAT      O37525   1.972   6.165   6.638
 9205WAT     H137526   1.952   6.156   6.723
 9205WAT     H237527   1.900   6.140   6.597
 9205WAT    EPW37528   1.959   6.160   6.645
 9206WAT      O37529   1.483   5.882   5.652
 9206WAT     H137530   1.438   5.881   5.577
 9206WAT     H237531   1.537   5.814   5.643
 9206WAT    EPW37532   1.484   5.872   5.639
 9207WAT      O37533   1.940   5.464   6.209
 9207WAT     H137534   2.008   5.466   6.154
 9207WAT     H237535   1.909   5.383   6.199
 9207WAT    EPW37536   1.945   5.452   6.199
 9208WAT      O37537   1.942   6.409   6.385
 9208WAT     H137538   1.920   6.485   6.349
 9208WAT     H237539   2.026   6.418   6.404
 9208WAT    EPW37540   1.951   6.421   6.382
 9209WAT      O37541   1.648   5.662   5.639
 9209WAT     H137542   1.714   5.611   5.664
 9209WAT     H237543   1.578   5.609   5.643
 9209WAT    EPW37544   1.647   5.647   5.643
 9210WAT      O37545   2.073   6.304   5.819
 9210WAT     H137546   2.102   6.223   5.834
 9210WAT     H237547   2.146   6.349   5.804
 9210WAT    EPW37548   2.088   6.299   5.819
 9211WAT      O37549   2.166   6.244   5.438
 9211WAT     H137550   2.194   6.177   5.486
 9211WAT     H237551   2.179   6.219   5.356
 9211WAT    EPW37552   2.172   6.230   5.433
 9212WAT      O37553   2.261   5.695   6.593
 9212WAT     H137554   2.175   5.686   6.581
 9212WAT     H237555   2.267   5.745   6.664
 9212WAT    EPW37556   2.249   5.701   6.602
 9213WAT      O37557   1.714   5.180   5.539
 9213WAT     H137558   1.683   5.235   5.479
 9213WAT     H237559   1.798   5.172   5.518
 9213WAT    EPW37560   1.722   5.187   5.527
 9214WAT      O37561   2.722   4.929   6.465
 9214WAT     H137562   2.699   4.996   6.414
 9214WAT     H237563   2.649   4.909   6.507
 9214WAT    EPW37564   2.708   4.936   6.464
 9215WAT      O37565   2.080   5.121   5.719
 9215WAT     H137566   2.070   5.206   5.736
 9215WAT     H237567   2.043   5.112   5.641
 9215WAT    EPW37568   2.073   5.132   5.710
 9216WAT      O37569   2.489   5.318   4.976
 9216WAT     H137570   2.444   5.375   5.024
 9216WAT     H237571   2.517   5.259   5.034
 9216WAT    EPW37572   2.486   5.318   4.992
 9217WAT      O37573   1.326   5.613   5.919
 9217WAT     H137574   1.326   5.700   5.931
 9217WAT     H237575   1.260   5.585   5.968
 9217WAT    EPW37576   1.316   5.622   5.928
 9218WAT      O37577   1.325   6.570   5.751
 9218WAT     H137578   1.261   6.620   5.720
 9218WAT     H237579   1.357   6.531   5.679
 9218WAT    EPW37580   1.320   6.571   5.735
 9219WAT      O37581   1.897   6.292   5.411
 9219WAT     H137582   1.868   6.306   5.492
 9219WAT     H237583   1.982   6.278   5.422
 9219WAT    EPW37584   1.905   6.292   5.425
 9220WAT      O37585   2.507   6.608   5.219
 9220WAT     H137586   2.581   6.655   5.221
 9220WAT     H237587   2.534   6.528   5.241
 9220WAT    EPW37588   2.522   6.603   5.222
 9221WAT      O37589   2.323   6.677   5.412
 9221WAT     H137590   2.353   6.753   5.444
 9221WAT     H237591   2.379   6.659   5.347
 9221WAT    EPW37592   2.336   6.686   5.407
 9222WAT      O37593   1.565   5.106   5.945
 9222WAT     H137594   1.558   5.030   5.902
 9222WAT     H237595   1.623   5.087   6.009
 9222WAT    EPW37596   1.573   5.092   5.948
 9223WAT      O37597   1.911   5.306   6.838
 9223WAT     H137598   1.917   5.267   6.760
 9223WAT     H237599   1.957   5.379   6.827
 9223WAT    EPW37600   1.918   5.311   6.825
 9224WAT      O37601   1.430   6.480   5.506
 9224WAT     H137602   1.475   6.406   5.512
 9224WAT     H237603   1.481   6.531   5.457
 9224WAT    EPW37604   1.444   6.476   5.499
 9225WAT      O37605   3.051   5.417   5.429
 9225WAT     H137606   3.023   5.405   5.511
 9225WAT     H237607   3.135   5.393   5.433
 9225WAT    EPW37608   3.060   5.412   5.442
 9226WAT      O37609   2.535   6.614   6.218
 9226WAT     H137610   2.605   6.665   6.205
 9226WAT     H237611   2.517   6.583   6.138
 9226WAT    EPW37612   2.543   6.617   6.204
 9227WAT      O37613   1.502   5.214   6.770
 9227WAT     H137614   1.423   5.181   6.753
 9227WAT     H237615   1.552   5.181   6.706
 9227WAT    EPW37616   1.498   5.204   6.758
 9228WAT      O37617   1.602   6.281   5.869
 9228WAT     H137618   1.643   6.251   5.798
 9228WAT     H237619   1.634   6.231   5.934
 9228WAT    EPW37620   1.612   6.269   5.868
 9229WAT      O37621   1.874   6.624   5.715
 9229WAT     H137622   1.955   6.642   5.686
 9229WAT     H237623   1.823   6.671   5.662
 9229WAT    EPW37624   1.878   6.634   5.703
 9230WAT      O37625   2.119   5.036   6.708
 9230WAT     H137626   2.133   4.963   6.663
 9230WAT     H237627   2.050   5.072   6.669
 9230WAT    EPW37628   2.111   5.031   6.696
 9231WAT      O37629   2.204   5.582   5.586
 9231WAT     H137630   2.230   5.530   5.521
 9231WAT     H237631   2.277   5.594   5.632
 9231WAT    EPW37632   2.219   5.576   5.583
 9232WAT      O37633   2.346   5.505   5.130
 9232WAT     H137634   2.369   5.587   5.148
 9232WAT     H237635   2.267   5.513   5.093
 9232WAT    EPW37636   2.337   5.518   5.127
 9233WAT      O37637   2.726   6.784   5.199
 9233WAT     H137638   2.778   6.756   5.134
 9233WAT     H237639   2.781   6.830   5.250
 9233WAT    EPW37640   2.742   6.787   5.197
 9234WAT      O37641   1.790   6.644   6.332
 9234WAT     H137642   1.800   6.655   6.418
 9234WAT     H237643   1.714   6.602   6.325
 9234WAT    EPW37644   1.780   6.639   6.344
 9235WAT      O37645   3.015   5.200   5.995
 9235WAT     H137646   3.094   5.196   5.958
 9235WAT     H237647   3.019   5.140   6.058
 9235WAT    EPW37648   3.027   5.190   5.999
 9236WAT      O37649   1.235   5.338   6.523
 9236WAT     H137650   1.235   5.412   6.568
 9236WAT     H237651   1.293   5.353   6.459
 9236WAT    EPW37652   1.244   5.351   6.520
 9237WAT      O37653   2.429   6.401   6.587
 9237WAT     H137654   2.423   6.422   6.671
 9237WAT     H237655   2.515   6.389   6.575
 9237WAT    EPW37656   2.441   6.403   6.597
 9238WAT      O37657   2.172   6.434   5.038
 9238WAT     H137658   2.146   6.491   5.099
 9238WAT     H237659   2.249   6.465   5.013
 9238WAT    EPW37660   2.179   6.447   5.043
 9239WAT      O37661   2.594   5.102   5.124
 9239WAT     H137662   2.601   5.038   5.066
 9239WAT     H237663   2.673   5.107   5.159
 9239WAT    EPW37664   2.607   5.093   5.121
 9240WAT      O37665   1.365   5.252   5.435
 9240WAT     H137666   1.347   5.168   5.419
 9240WAT     H237667   1.317   5.270   5.506
 9240WAT    EPW37668   1.355   5.242   5.443
 9241WAT      O37669   1.541   6.538   6.217
 9241WAT     H137670   1.485   6.471   6.214
 9241WAT     H237671   1.579   6.536   6.138
 9241WAT    EPW37672   1.538   6.528   6.205
 9242WAT      O37673   2.287   5.412   5.380
 9242WAT     H137674   2.212   5.370   5.366
 9242WAT     H237675   2.305   5.449   5.304
 9242WAT    EPW37676   2.279   5.411   5.367
 9243WAT      O37677   2.286   6.661   6.317
 9243WAT     H137678   2.365   6.651   6.281
 9243WAT     H237679   2.232   6.666   6.248
 9243WAT    EPW37680   2.290   6.660   6.302
 9244WAT      O37681   2.387   5.080   5.312
 9244WAT     H137682   2.311   5.062   5.272
 9244WAT     H237683   2.446   5.073   5.248
 9244WAT    EPW37684   2.384   5.076   5.296
 9245WAT      O37685   3.025   6.680   5.611
 9245WAT     H137686   2.984   6.755   5.626
 9245WAT     H237687   2.959   6.623   5.602
 9245WAT    EPW37688   3.009   6.682   5.612
 9246WAT      O37689   2.066   5.398   5.749
 9246WAT     H137690   2.102   5.459   5.698
 9246WAT     H237691   2.088   5.422   5.829
 9246WAT    EPW37692   2.075   5.410   5.753
 9247WAT      O37693   2.771   6.253   5.663
 9247WAT     H137694   2.834   6.193   5.656
 9247WAT     H237695   2.698   6.206   5.654
 9247WAT    EPW37696   2.769   6.237   5.661
 9248WAT      O37697   1.690   6.381   6.516
 9248WAT     H137698   1.770   6.403   6.488
 9248WAT     H237699   1.680   6.430   6.588
 9248WAT    EPW37700   1.700   6.391   6.522
 9249WAT      O37701   1.698   4.906   5.564
 9249WAT     H137702   1.693   4.993   5.554
 9249WAT     H237703   1.674   4.875   5.486
 9249WAT    EPW37704   1.694   4.914   5.551
 9250WAT      O37705   1.898   5.966   5.922
 9250WAT     H137706   1.920   5.939   6.003
 9250WAT     H237707   1.834   5.912   5.899
 9250WAT    EPW37708   1.892   5.954   5.931
 9251WAT      O37709   2.463   5.329   6.310
 9251WAT     H137710   2.459   5.373   6.386
 9251WAT     H237711   2.398   5.272   6.317
 9251WAT    EPW37712   2.453   5.327   6.323
 9252WAT      O37713   1.988   5.944   6.184
 9252WAT     H137714   1.989   6.031   6.194
 9252WAT     H237715   1.958   5.915   6.261
 9252WAT    EPW37716   1.984   5.953   6.197
 9253WAT      O37717   2.604   6.060   6.190
 9253WAT     H137718   2.531   6.028   6.225
 9253WAT     H237719   2.596   6.146   6.199
 9253WAT    EPW37720   2.592   6.068   6.196
 9254WAT      O37721   2.656   4.839   5.612
 9254WAT     H137722   2.670   4.849   5.697
 9254WAT     H237723   2.680   4.757   5.597
 9254WAT    EPW37724   2.661   4.828   5.622
 9255WAT      O37725   1.236   6.357   6.811
 9255WAT     H137726   1.295   6.402   6.858
 9255WAT     H237727   1.241   6.277   6.844
 9255WAT    EPW37728   1.246   6.352   6.823
 9256WAT      O37729   2.834   5.371   6.400
 9256WAT     H137730   2.919   5.358   6.416
 9256WAT     H237731   2.798   5.366   6.479
 9256WAT    EPW37732   2.842   5.368   6.414
 9257WAT      O37733   1.606   5.306   5.760
 9257WAT     H137734   1.633   5.257   5.693
 9257WAT     H237735   1.595   5.248   5.824
 9257WAT    EPW37736   1.608   5.290   5.759
 9258WAT      O37737   2.909   6.071   5.181
 9258WAT     H137738   2.909   6.020   5.252
 9258WAT     H237739   2.994   6.077   5.160
 9258WAT    EPW37740   2.922   6.064   5.188
 9259WAT      O37741   1.673   6.083   5.663
 9259WAT     H137742   1.729   6.052   5.605
 9259WAT     H237743   1.614   6.020   5.672
 9259WAT    EPW37744   1.673   6.069   5.656
 9260WAT      O37745   1.548   6.719   5.811
 9260WAT     H137746   1.472   6.679   5.793
 9260WAT     H237747   1.584   6.730   5.732
 9260WAT    EPW37748   1.542   6.715   5.797
 9261WAT      O37749   1.503   5.464   6.077
 9261WAT     H137750   1.583   5.494   6.059
 9261WAT     H237751   1.451   5.508   6.022
 9261WAT    EPW37752   1.507   5.475   6.066
 9262WAT      O37753   3.112   6.483   6.561
 9262WAT     H137754   3.040   6.485   6.512
 9262WAT     H237755   3.091   6.431   6.627
 9262WAT    EPW37756   3.099   6.476   6.563
 9263WAT      O37757   2.737   5.759   5.082
 9263WAT     H137758   2.720   5.842   5.062
 9263WAT     H237759   2.713   5.753   5.166
 9263WAT    EPW37760   2.731   5.770   5.092
 9264WAT      O37761   1.809   6.017   5.423
 9264WAT     H137762   1.836   6.098   5.406
 9264WAT     H237763   1.876   5.967   5.398
 9264WAT    EPW37764   1.823   6.022   5.417
 9265WAT      O37765   1.337   6.185   5.868
 9265WAT     H137766   1.286   6.251   5.893
 9265WAT     H237767   1.417   6.221   5.865
 9265WAT    EPW37768   1.342   6.200   5.871
 9266WAT      O37769   2.061   5.542   6.838
 9266WAT     H137770   2.014   5.572   6.905
 9266WAT     H237771   2.037   5.593   6.772
 9266WAT    EPW37772   2.050   5.554   6.838
 9267WAT      O37773   3.123   5.644   6.322
 9267WAT     H137774   3.157   5.575   6.282
 9267WAT     H237775   3.039   5.641   6.301
 9267WAT    EPW37776   3.116   5.633   6.313
 9268WAT      O37777   1.370   5.858   5.400
 9268WAT     H137778   1.354   5.773   5.404
 9268WAT     H237779   1.445   5.862   5.355
 9268WAT    EPW37780   1.379   5.846   5.394
 9269WAT      O37781   2.843   5.102   5.252
 9269WAT     H137782   2.848   5.015   5.253
 9269WAT     H237783   2.924   5.128   5.234
 9269WAT    EPW37784   2.856   5.093   5.250
 9270WAT      O37785   2.292   6.466   5.766
 9270WAT     H137786   2.248   6.537   5.742
 9270WAT     H237787   2.331   6.440   5.692
 9270WAT    EPW37788   2.292   6.473   5.751
 9271WAT      O37789   1.266   6.337   5.332
 9271WAT     H137790   1.317   6.388   5.380
 9271WAT     H237791   1.258   6.265   5.380
 9271WAT    EPW37792   1.273   6.334   5.346
 9272WAT      O37793   1.722   6.126   6.064
 9272WAT     H137794   1.780   6.163   6.118
 9272WAT     H237795   1.772   6.080   6.009
 9272WAT    EPW37796   1.738   6.125   6.063
 9273WAT      O37797   2.538   5.364   5.705
 9273WAT     H137798   2.608   5.338   5.749
 9273WAT     H237799   2.478   5.303   5.722
 9273WAT    EPW37800   2.539   5.351   5.714
 9274WAT      O37801   1.287   6.162   5.108
 9274WAT     H137802   1.363   6.119   5.104
 9274WAT     H237803   1.299   6.217   5.175
 9274WAT    EPW37804   1.300   6.164   5.117
 9275WAT      O37805   1.357   5.913   5.899
 9275WAT     H137806   1.401   5.895   5.826
 9275WAT     H237807   1.348   5.999   5.897
 9275WAT    EPW37808   1.362   5.923   5.888
 9276WAT      O37809   2.040   5.316   5.299
 9276WAT     H137810   2.026   5.298   5.215
 9276WAT     H237811   2.003   5.395   5.309
 9276WAT    EPW37812   2.032   5.325   5.288
 9277WAT      O37813   2.872   6.509   6.401
 9277WAT     H137814   2.827   6.584   6.408
 9277WAT     H237815   2.870   6.493   6.315
 9277WAT    EPW37816   2.865   6.518   6.389
 9278WAT      O37817   1.839   6.356   5.671
 9278WAT     H137818   1.841   6.442   5.686
 9278WAT     H237819   1.908   6.326   5.716
 9278WAT    EPW37820   1.850   6.364   5.680
 9279WAT      O37821   1.603   5.681   6.709
 9279WAT     H137822   1.562   5.618   6.754
 9279WAT     H237823   1.604   5.650   6.628
 9279WAT    EPW37824   1.597   5.667   6.704
 9280WAT      O37825   1.666   5.589   5.216
 9280WAT     H137826   1.644   5.529   5.275
 9280WAT     H237827   1.622   5.565   5.144
 9280WAT    EPW37828   1.656   5.577   5.214
 9281WAT      O37829   1.686   5.797   5.884
 9281WAT     H137830   1.674   5.758   5.807
 9281WAT     H237831   1.703   5.731   5.938
 9281WAT    EPW37832   1.687   5.782   5.880
 9282WAT      O37833   1.671   5.746   6.255
 9282WAT     H137834   1.698   5.699   6.187
 9282WAT     H237835   1.619   5.806   6.219
 9282WAT    EPW37836   1.667   5.748   6.239
 9283WAT      O37837   2.748   5.513   6.014
 9283WAT     H137838   2.681   5.536   6.064
 9283WAT     H237839   2.752   5.577   5.954
 9283WAT    EPW37840   2.739   5.526   6.012
 9284WAT      O37841   2.078   6.668   6.138
 9284WAT     H137842   2.038   6.597   6.105
 9284WAT     H237843   2.066   6.729   6.077
 9284WAT    EPW37844   2.070   6.666   6.124
 9285WAT      O37845   2.293   5.111   6.360
 9285WAT     H137846   2.315   5.029   6.341
 9285WAT     H237847   2.314   5.119   6.444
 9285WAT    EPW37848   2.299   5.100   6.370
 9286WAT      O37849   1.494   5.919   6.800
 9286WAT     H137850   1.484   5.967   6.728
 9286WAT     H237851   1.534   5.847   6.772
 9286WAT    EPW37852   1.499   5.916   6.785
 9287WAT      O37853   2.632   6.095   6.630
 9287WAT     H137854   2.660   6.175   6.607
 9287WAT     H237855   2.663   6.044   6.566
 9287WAT    EPW37856   2.641   6.100   6.617
 9288WAT      O37857   2.057   6.432   6.667
 9288WAT     H137858   2.089   6.426   6.748
 9288WAT     H237859   2.030   6.351   6.650
 9288WAT    EPW37860   2.058   6.419   6.676
 9289WAT      O37861   2.133   5.460   6.009
 9289WAT     H137862   2.198   5.519   6.006
 9289WAT     H237863   2.176   5.385   6.020
 9289WAT    EPW37864   2.149   5.458   6.010
 9290WAT      O37865   2.412   5.759   5.219
 9290WAT     H137866   2.385   5.804   5.149
 9290WAT     H237867   2.355   5.782   5.281
 9290WAT    EPW37868   2.400   5.769   5.218
 9291WAT      O37869   2.961   6.043   5.640
 9291WAT     H137870   2.961   5.987   5.707
 9291WAT     H237871   2.933   5.996   5.573
 9291WAT    EPW37872   2.957   6.028   5.640
 9292WAT      O37873   2.481   6.491   5.973
 9292WAT     H137874   2.416   6.476   5.917
 9292WAT     H237875   2.528   6.554   5.935
 9292WAT    EPW37876   2.478   6.498   5.959
 9293WAT      O37877   2.478   6.132   5.946
 9293WAT     H137878   2.403   6.164   5.978
 9293WAT     H237879   2.514   6.092   6.014
 9293WAT    EPW37880   2.472   6.131   5.961
 9294WAT      O37881   1.866   6.570   5.357
 9294WAT     H137882   1.878   6.490   5.388
 9294WAT     H237883   1.942   6.590   5.320
 9294WAT    EPW37884   1.879   6.561   5.356
 9295WAT      O37885   1.854   4.973   5.220
 9295WAT     H137886   1.793   4.920   5.253
 9295WAT     H237887   1.808   5.042   5.193
 9295WAT    EPW37888   1.838   4.975   5.221
 9296WAT      O37889   2.110   6.623   5.234
 9296WAT     H137890   2.173   6.643   5.291
 9296WAT     H237891   2.102   6.695   5.186
 9296WAT    EPW37892   2.118   6.637   5.235
 9297WAT      O37893   2.727   5.947   6.415
 9297WAT     H137894   2.697   5.990   6.345
 9297WAT     H237895   2.811   5.970   6.420
 9297WAT    EPW37896   2.735   5.957   6.405
 9298WAT      O37897   2.426   6.533   6.841
 9298WAT     H137898   2.452   6.556   6.921
 9298WAT     H237899   2.455   6.598   6.791
 9298WAT    EPW37900   2.434   6.546   6.846
 9299WAT      O37901   2.856   5.066   6.662
 9299WAT     H137902   2.817   5.020   6.599
 9299WAT     H237903   2.856   5.011   6.730
 9299WAT    EPW37904   2.850   5.051   6.663
 9300WAT      O37905   1.617   5.868   5.276
 9300WAT     H137906   1.641   5.785   5.268
 9300WAT     H237907   1.678   5.902   5.328
 9300WAT    EPW37908   1.629   5.861   5.283
 9301WAT      O37909   2.373   5.965   6.307
 9301WAT     H137910   2.318   6.001   6.364
 9301WAT     H237911   2.399   5.892   6.346
 9301WAT    EPW37912   2.369   5.960   6.321
 9302WAT      O37913   1.282   4.983   5.395
 9302WAT     H137914   1.273   4.929   5.327
 9302WAT     H237915   1.249   4.937   5.462
 9302WAT    EPW37916   1.276   4.968   5.395
 9303WAT      O37917   2.245   5.814   5.435
 9303WAT     H137918   2.257   5.882   5.488
 9303WAT     H237919   2.225   5.749   5.490
 9303WAT    EPW37920   2.244   5.814   5.451
 9304WAT      O37921   2.728   6.273   5.941
 9304WAT     H137922   2.751   6.275   5.857
 9304WAT     H237923   2.644   6.249   5.938
 9304WAT    EPW37924   2.719   6.270   5.928
 9305WAT      O37925   1.715   5.198   5.131
 9305WAT     H137926   1.656   5.194   5.068
 9305WAT     H237927   1.783   5.239   5.093
 9305WAT    EPW37928   1.716   5.204   5.116
 9306WAT      O37929   2.154   6.035   5.841
 9306WAT     H137930   2.071   6.009   5.853
 9306WAT     H237931   2.196   6.003   5.910
 9306WAT    EPW37932   2.148   6.026   5.853
 9307WAT      O37933   1.793   6.610   4.997
 9307WAT     H137934   1.820   6.539   5.041
 9307WAT     H237935   1.801   6.674   5.056
 9307WAT    EPW37936   1.798   6.609   5.013
 9308WAT      O37937   1.518   5.943   6.133
 9308WAT     H137938   1.576   6.006   6.114
 9308WAT     H237939   1.479   5.928   6.056
 9308WAT    EPW37940   1.521   5.950   6.119
 9309WAT      O37941   1.808   5.490   5.786
 9309WAT     H137942   1.885   5.454   5.768
 9309WAT     H237943   1.752   5.423   5.779
 9309WAT    EPW37944   1.811   5.475   5.782
 9310WAT      O37945   3.120   6.628   5.175
 9310WAT     H137946   3.186   6.581   5.142
 9310WAT     H237947   3.074   6.569   5.220
 9310WAT    EPW37948   3.123   6.612   5.177
 9311WAT      O37949   1.327   5.584   5.425
 9311WAT     H137950   1.352   5.545   5.498
 9311WAT     H237951   1.333   5.522   5.364
 9311WAT    EPW37952   1.332   5.569   5.427
 9312WAT      O37953   2.859   5.938   6.112
 9312WAT     H137954   2.855   5.869   6.166
 9312WAT     H237955   2.778   5.971   6.115
 9312WAT    EPW37956   2.846   5.933   6.120
 9313WAT      O37957   1.860   5.682   5.007
 9313WAT     H137958   1.814   5.655   5.075
 9313WAT     H237959   1.804   5.679   4.941
 9313WAT    EPW37960   1.845   5.677   5.007
 9314WAT      O37961   1.466   6.050   6.558
 9314WAT     H137962   1.430   6.002   6.496
 9314WAT     H237963   1.442   6.131   6.538
 9314WAT    EPW37964   1.457   6.055   6.546
 9315WAT      O37965   2.994   5.864   5.870
 9315WAT     H137966   2.961   5.897   5.943
 9315WAT     H237967   3.077   5.890   5.870
 9315WAT    EPW37968   3.002   5.872   5.881
 9316WAT      O37969   1.931   5.569   5.315
 9316WAT     H137970   1.954   5.653   5.323
 9316WAT     H237971   1.846   5.574   5.295
 9316WAT    EPW37972   1.922   5.582   5.314
 9317WAT      O37973   2.735   5.317   6.659
 9317WAT     H137974   2.660   5.318   6.704
 9317WAT     H237975   2.760   5.233   6.664
 9317WAT    EPW37976   2.727   5.304   6.667
 9318WAT      O37977   1.290   5.197   5.918
 9318WAT     H137978   1.279   5.221   5.835
 9318WAT     H237979   1.375   5.179   5.924
 9318WAT    EPW37980   1.301   5.198   5.906
 9319WAT      O37981   3.112   6.406   5.964
 9319WAT     H137982   3.149   6.462   5.909
 9319WAT     H237983   3.170   6.398   6.029
 9319WAT    EPW37984   3.126   6.413   5.966
 9320WAT      O37985   2.566   5.659   6.749
 9320WAT     H137986   2.606   5.670   6.827
 9320WAT     H237987   2.493   5.707   6.757
 9320WAT    EPW37988   2.561   5.668   6.762
 9321WAT      O37989   2.802   5.695   6.596
 9321WAT     H137990   2.823   5.775   6.624
 9321WAT     H237991   2.729   5.676   6.640
 9321WAT    EPW37992   2.794   5.704   6.607
 9322WAT      O37993   2.793   6.322   5.174
 9322WAT     H137994   2.823   6.241   5.183
 9322WAT     H237995   2.715   6.320   5.212
 9322WAT    EPW37996   2.786   6.310   5.181
 9323WAT      O37997   2.859   5.438   5.657
 9323WAT     H137998   2.844   5.377   5.719
 9323WAT     H237999   2.851   5.513   5.700
 9323WAT    EPW38000   2.855   5.440   5.673
 9324WAT      O38001   3.112   5.775   6.788
 9324WAT     H138002   3.116   5.717   6.723
 9324WAT     H238003   3.192   5.810   6.789
 9324WAT    EPW38004   3.124   5.772   6.779
 9325WAT      O38005   2.988   6.039   6.445
 9325WAT     H138006   3.058   5.991   6.422
 9325WAT     H238007   2.985   6.101   6.384
 9325WAT    EPW38008   2.998   6.041   6.433
 9326WAT      O38009   2.457   6.156   5.076
 9326WAT     H138010   2.531   6.110   5.072
 9326WAT     H238011   2.426   6.152   4.994
 9326WAT    EPW38012   2.463   6.148   5.063
 9327WAT      O38013   1.972   6.228   6.178
 9327WAT     H138014   1.961   6.271   6.253
 9327WAT     H238015   1.964   6.290   6.117
 9327WAT    EPW38016   1.969   6.244   6.180
 9328WAT      O38017   1.734   6.104   6.502
 9328WAT     H138018   1.655   6.074   6.524
 9328WAT     H238019   1.723   6.190   6.497
 9328WAT    EPW38020   1.721   6.112   6.505
 9329WAT      O38021   2.686   5.156   6.297
 9329WAT     H138022   2.742   5.219   6.321
 9329WAT     H238023   2.609   5.197   6.293
 9329WAT    EPW38024   2.683   5.171   6.300
 9330WAT      O38025   2.238   5.891   6.075
 9330WAT     H138026   2.287   5.921   6.140
 9330WAT     H238027   2.157   5.894   6.107
 9330WAT    EPW38028   2.233   5.896   6.089
 9331WAT      O38029   1.868   5.447   6.477
 9331WAT     H138030   1.883   5.365   6.503
 9331WAT     H238031   1.899   5.449   6.396
 9331WAT    EPW38032   1.875   5.435   6.469
 9332WAT      O38033   2.148   6.678   5.649
 9332WAT     H138034   2.134   6.762   5.671
 9332WAT     H238035   2.189   6.684   5.572
 9332WAT    EPW38036   2.152   6.691   5.641
 9333WAT      O38037   2.770   4.926   6.148
 9333WAT     H138038   2.735   4.999   6.181
 9333WAT     H238039   2.856   4.937   6.160
 9333WAT    EPW38040   2.777   4.938   6.155
 9334WAT      O38041   2.019   5.057   6.348
 9334WAT     H138042   2.103   5.079   6.345
 9334WAT     H238043   2.018   4.972   6.328
 9334WAT    EPW38044   2.031   5.048   6.344
 9335WAT      O38045   1.944   6.452   6.017
 9335WAT     H138046   1.866   6.479   5.987
 9335WAT     H238047   1.982   6.417   5.946
 9335WAT    EPW38048   1.938   6.451   6.002
 9336WAT      O38049   2.368   6.088   6.703
 9336WAT     H138050   2.449   6.093   6.671
 9336WAT     H238051   2.317   6.106   6.634
 9336WAT    EPW38052   2.372   6.091   6.688
 9337WAT      O38053   2.706   6.359   6.570
 9337WAT     H138054   2.742   6.386   6.645
 9337WAT     H238055   2.755   6.397   6.509
 9337WAT    EPW38056   2.719   6.368   6.572
 9338WAT      O38057   3.016   5.721   5.098
 9338WAT     H138058   3.055   5.733   5.021
 9338WAT     H238059   2.932   5.734   5.081
 9338WAT    EPW38060   3.009   5.725   5.084
 9339WAT      O38061   2.032   5.899   5.048
 9339WAT     H138062   1.977   5.836   5.023
 9339WAT     H238063   1.987   5.972   5.034
 9339WAT    EPW38064   2.017   5.900   5.042
 9340WAT      O38065   1.757   5.578   6.041
 9340WAT     H138066   1.780   5.546   5.963
 9340WAT     H238067   1.816   5.544   6.095
 9340WAT    EPW38068   1.769   5.568   6.037
 9341WAT      O38069   2.456   5.510   6.529
 9341WAT     H138070   2.383   5.554   6.545
 9341WAT     H238071   2.501   5.517   6.603
 9341WAT    EPW38072   2.452   5.517   6.542
 9342WAT      O38073   2.525   5.564   6.168
 9342WAT     H138074   2.532   5.621   6.234
 9342WAT     H238075   2.503   5.489   6.208
 9342WAT    EPW38076   2.523   5.561   6.184
 9343WAT      O38077   2.216   6.650   6.586
 9343WAT     H138078   2.226   6.648   6.500
 9343WAT     H238079   2.177   6.575   6.605
 9343WAT    EPW38080   2.212   6.639   6.576
 9344WAT      O38081   2.729   5.467   5.410
 9344WAT     H138082   2.763   5.462   5.491
 9344WAT     H238083   2.796   5.448   5.358
 9344WAT    EPW38084   2.744   5.463   5.415
 9345WAT      O38085   2.025   5.024   5.998
 9345WAT     H138086   1.942   5.016   6.023
 9345WAT     H238087   2.018   5.044   5.913
 9345WAT    EPW38088   2.012   5.026   5.989
 9346WAT      O38089   2.691   5.092   5.489
 9346WAT     H138090   2.699   5.013   5.526
 9346WAT     H238091   2.752   5.093   5.427
 9346WAT    EPW38092   2.701   5.081   5.485
 9347WAT      O38093   2.883   5.902   5.408
 9347WAT     H138094   2.938   5.835   5.400
 9347WAT     H238095   2.804   5.866   5.398
 9347WAT    EPW38096   2.879   5.887   5.405
 9348WAT      O38097   2.203   6.122   6.479
 9348WAT     H138098   2.129   6.123   6.525
 9348WAT     H238099   2.208   6.202   6.446
 9348WAT    EPW38100   2.192   6.134   6.481
 9349WAT      O38101   1.255   5.109   6.678
 9349WAT     H138102   1.255   5.179   6.626
 9349WAT     H238103   1.171   5.089   6.686
 9349WAT    EPW38104   1.243   5.116   6.671
 9350WAT      O38105   1.767   6.780   6.080
 9350WAT     H138106   1.779   6.751   6.162
 9350WAT     H238107   1.745   6.708   6.036
 9350WAT    EPW38108   1.765   6.765   6.086
 9351WAT      O38109   1.610   5.348   5.347
 9351WAT     H138110   1.631   5.300   5.277
 9351WAT     H238111   1.529   5.322   5.366
 9351WAT    EPW38112   1.601   5.337   5.339
 9352WAT      O38113   2.541   6.084   5.677
 9352WAT     H138114   2.521   6.094   5.761
 9352WAT     H238115   2.567   6.001   5.672
 9352WAT    EPW38116   2.542   6.073   5.689
 9353WAT      O38117   2.278   6.040   5.592
 9353WAT     H138118   2.238   6.036   5.670
 9353WAT     H238119   2.360   6.061   5.613
 9353WAT    EPW38120   2.284   6.043   5.607
 9354WAT      O38121   2.233   6.392   6.392
 9354WAT     H138122   2.292   6.392   6.456
 9354WAT     H238123   2.251   6.466   6.349
 9354WAT    EPW38124   2.245   6.403   6.395
 9355WAT      O38125   3.066   5.591   6.586
 9355WAT     H138126   2.980   5.608   6.590
 9355WAT     H238127   3.088   5.616   6.505
 9355WAT    EPW38128   3.056   5.597   6.575
 9356WAT      O38129   2.527   5.742   6.382
 9356WAT     H138130   2.512   5.681   6.442
 9356WAT     H238131   2.598   5.783   6.411
 9356WAT    EPW38132   2.535   5.739   6.395
 9357WAT      O38133   1.419   6.733   6.598
 9357WAT     H138134   1.365   6.665   6.592
 9357WAT     H238135   1.367   6.797   6.627
 9357WAT    EPW38136   1.403   6.733   6.601
 9358WAT      O38137   2.303   5.847   6.823
 9358WAT     H138138   2.328   5.923   6.788
 9358WAT     H238139   2.222   5.865   6.852
 9358WAT    EPW38140   2.294   5.861   6.822
 9359WAT      O38141   2.612   6.729   5.907
 9359WAT     H138142   2.551   6.789   5.926
 9359WAT     H238143   2.672   6.741   5.969
 9359WAT    EPW38144   2.612   6.740   5.919
 9360WAT      O38145   2.262   6.229   6.105
 9360WAT     H138146   2.179   6.226   6.132
 9360WAT     H238147   2.305   6.262   6.173
 9360WAT    EPW38148   2.256   6.234   6.119
 9361WAT      O38149   2.835   6.436   6.804
 9361WAT     H138150   2.914   6.400   6.803
 9361WAT     H238151   2.798   6.403   6.876
 9361WAT    EPW38152   2.841   6.425   6.814
 9362WAT      O38153   1.614   5.562   6.456
 9362WAT     H138154   1.628   5.623   6.395
 9362WAT     H238155   1.692   5.523   6.463
 9362WAT    EPW38156   1.628   5.565   6.448
 9363WAT      O38157   1.427   5.402   6.329
 9363WAT     H138158   1.446   5.416   6.245
 9363WAT     H238159   1.486   5.450   6.372
 9363WAT    EPW38160   1.439   5.411   6.323
 9364WAT      O38161   3.048   5.685   5.367
 9364WAT     H138162   3.045   5.687   5.280
 9364WAT     H238163   3.049   5.600   5.386
 9364WAT    EPW38164   3.047   5.673   5.357
 9365WAT      O38165   1.651   5.093   6.568
 9365WAT     H138166   1.643   5.006   6.564
 9365WAT     H238167   1.629   5.119   6.488
 9365WAT    EPW38168   1.647   5.084   6.556
 9366WAT      O38169   2.375   6.412   5.502
 9366WAT     H138170   2.355   6.493   5.477
 9366WAT     H238171   2.303   6.367   5.482
 9366WAT    EPW38172   2.361   6.417   5.495
 9367WAT      O38173   2.845   5.648   6.319
 9367WAT     H138174   2.831   5.562   6.324
 9367WAT     H238175   2.822   5.678   6.398
 9367WAT    EPW38176   2.839   5.640   6.331
 9368WAT      O38177   1.345   5.915   6.350
 9368WAT     H138178   1.393   5.932   6.279
 9368WAT     H238179   1.328   5.830   6.343
 9368WAT    EPW38180   1.350   5.905   6.338
 9369WAT      O38181   1.517   5.481   5.003
 9369WAT     H138182   1.443   5.481   5.048
 9369WAT     H238183   1.523   5.399   4.973
 9369WAT    EPW38184   1.507   5.469   5.005
 9370WAT      O38185   2.364   5.136   6.628
 9370WAT     H138186   2.400   5.195   6.681
 9370WAT     H238187   2.288   5.117   6.666
 9370WAT    EPW38188   2.358   5.142   6.641
 9371WAT      O38189   2.367   5.147   5.710
 9371WAT     H138190   2.281   5.150   5.726
 9371WAT     H238191   2.376   5.075   5.663
 9371WAT    EPW38192   2.355   5.137   5.706
 9372WAT      O38193   1.831   6.358   5.132
 9372WAT     H138194   1.872   6.347   5.208
 9372WAT     H238195   1.747   6.345   5.153
 9372WAT    EPW38196   1.824   6.354   5.146
 9373WAT      O38197   2.751   5.275   5.878
 9373WAT     H138198   2.823   5.233   5.905
 9373WAT     H238199   2.749   5.346   5.930
 9373WAT    EPW38200   2.761   5.279   5.890
 9374WAT      O38201   1.862   5.864   6.420
 9374WAT     H138202   1.824   5.938   6.448
 9374WAT     H238203   1.800   5.826   6.372
 9374WAT    EPW38204   1.847   5.869   6.417
 9375WAT      O38205   2.800   5.678   5.791
 9375WAT     H138206   2.863   5.736   5.811
 9375WAT     H238207   2.743   5.725   5.745
 9375WAT    EPW38208   2.801   5.694   5.787
 9376WAT      O38209   2.805   6.514   5.558
 9376WAT     H138210   2.791   6.436   5.594
 9376WAT     H238211   2.845   6.495   5.483
 9376WAT    EPW38212   2.809   6.500   5.552
 9377WAT      O38213   1.572   6.297   5.206
 9377WAT     H138214   1.566   6.276   5.291
 9377WAT     H238215   1.572   6.220   5.166
 9377WAT    EPW38216   1.571   6.282   5.213
 9378WAT      O38217   1.857   6.114   4.996
 9378WAT     H138218   1.774   6.089   5.008
 9378WAT     H238219   1.860   6.192   5.036
 9378WAT    EPW38220   1.845   6.122   5.004
 9379WAT      O38221   1.831   5.216   6.209
 9379WAT     H138222   1.751   5.193   6.237
 9379WAT     H238223   1.883   5.156   6.245
 9379WAT    EPW38224   1.827   5.204   6.219
 9380WAT      O38225   3.033   5.019   6.213
 9380WAT     H138226   3.024   5.061   6.289
 9380WAT     H238227   3.111   4.980   6.221
 9380WAT    EPW38228   3.043   5.019   6.226
 9381WAT      O38229   2.242   5.208   6.015
 9381WAT     H138230   2.181   5.146   6.027
 9381WAT     H238231   2.316   5.169   6.037
 9381WAT    EPW38232   2.244   5.193   6.020
 9382WAT      O38233   2.531   6.327   6.201
 9382WAT     H138234   2.548   6.397   6.249
 9382WAT     H238235   2.518   6.359   6.121
 9382WAT    EPW38236   2.532   6.342   6.196
 9383WAT      O38237   2.499   6.710   6.631
 9383WAT     H138238   2.430   6.666   6.600
 9383WAT     H238239   2.467   6.790   6.645
 9383WAT    EPW38240   2.484   6.715   6.628
 9384WAT      O38241   1.985   5.670   6.592
 9384WAT     H138242   1.948   5.600   6.556
 9384WAT     H238243   1.948   5.737   6.549
 9384WAT    EPW38244   1.974   5.670   6.581
 9385WAT      O38245   2.149   4.988   5.174
 9385WAT     H138246   2.161   4.988   5.087
 9385WAT     H238247   2.063   4.999   5.182
 9385WAT    EPW38248   2.138   4.990   5.162
 9386WAT      O38249   2.985   6.183   6.209
 9386WAT     H138250   2.952   6.116   6.162
 9386WAT     H238251   2.940   6.252   6.181
 9386WAT    EPW38252   2.973   6.183   6.198
 9387WAT      O38253   1.866   6.630   6.610
 9387WAT     H138254   1.848   6.650   6.693
 9387WAT     H238255   1.927   6.568   6.617
 9387WAT    EPW38256   1.872   6.624   6.624
 9388WAT      O38257   2.876   6.424   6.123
 9388WAT     H138258   2.945   6.435   6.071
 9388WAT     H238259   2.817   6.388   6.070
 9388WAT    EPW38260   2.877   6.420   6.107
 9389WAT      O38261   1.575   5.162   6.313
 9389WAT     H138262   1.522   5.095   6.297
 9389WAT     H238263   1.522   5.231   6.311
 9389WAT    EPW38264   1.559   5.162   6.311
 9390WAT      O38265   2.513   5.116   5.949
 9390WAT     H138266   2.580   5.171   5.939
 9390WAT     H238267   2.464   5.130   5.878
 9390WAT    EPW38268   2.515   5.127   5.937
 9391WAT      O38269   1.583   6.538   6.735
 9391WAT     H138270   1.650   6.574   6.779
 9391WAT     H238271   1.543   6.607   6.700
 9391WAT    EPW38272   1.587   6.553   6.737
 9392WAT      O38273   2.436   5.622   5.729
 9392WAT     H138274   2.473   5.543   5.731
 9392WAT     H238275   2.407   5.633   5.810
 9392WAT    EPW38276   2.437   5.612   5.741
 9393WAT      O38277   1.425   5.505   5.677
 9393WAT     H138278   1.385   5.534   5.749
 9393WAT     H238279   1.466   5.433   5.704
 9393WAT    EPW38280   1.425   5.499   5.692
 9394WAT      O38281   1.425   6.310   6.465
 9394WAT     H138282   1.375   6.373   6.501
 9394WAT     H238283   1.506   6.340   6.476
 9394WAT    EPW38284   1.429   6.324   6.472
 9395WAT      O38285   2.652   5.739   5.361
 9395WAT     H138286   2.668   5.654   5.372
 9395WAT     H238287   2.574   5.741   5.322
 9395WAT    EPW38288   2.643   5.727   5.356
 9396WAT      O38289   1.595   6.624   5.333
 9396WAT     H138290   1.568   6.617   5.251
 9396WAT     H238291   1.679   6.601   5.329
 9396WAT    EPW38292   1.603   6.620   5.321
 9397WAT      O38293   1.998   5.843   5.318
 9397WAT     H138294   2.014   5.865   5.235
 9397WAT     H238295   2.077   5.840   5.354
 9397WAT    EPW38296   2.012   5.846   5.311
 9398WAT      O38297   2.907   6.698   5.007
 9398WAT     H138298   2.979   6.685   5.054
 9398WAT     H238299   2.887   6.618   4.978
 9398WAT    EPW38300   2.915   6.684   5.010
 9399WAT      O38301   2.905   5.934   6.694
 9399WAT     H138302   2.975   5.897   6.730
 9399WAT     H238303   2.938   5.980   6.628
 9399WAT    EPW38304   2.920   5.936   6.690
 9400WAT      O38305   2.541   6.340   5.282
 9400WAT     H138306   2.495   6.341   5.356
 9400WAT     H238307   2.495   6.287   5.231
 9400WAT    EPW38308   2.527   6.332   5.285
 9401WAT      O38309   2.963   5.361   6.814
 9401WAT     H138310   2.957   5.442   6.846
 9401WAT     H238311   2.890   5.353   6.766
 9401WAT    EPW38312   2.951   5.372   6.811
 9402WAT      O38313   3.002   5.454   6.113
 9402WAT     H138314   2.918   5.474   6.097
 9402WAT     H238315   3.009   5.373   6.082
 9402WAT    EPW38316   2.991   5.445   6.106
 9403WAT      O38317   1.913   5.179   6.574
 9403WAT     H138318   1.946   5.143   6.502
 9403WAT     H238319   1.831   5.148   6.577
 9403WAT    EPW38320   1.906   5.169   6.564
 9404WAT      O38321   2.674   6.001   6.895
 9404WAT     H138322   2.751   6.029   6.927
 9404WAT     H238323   2.679   6.020   6.810
 9404WAT    EPW38324   2.686   6.008   6.887
 9405WAT      O38325   1.671   6.529   5.966
 9405WAT     H138326   1.650   6.451   5.933
 9405WAT     H238327   1.637   6.586   5.909
 9405WAT    EPW38328   1.663   6.526   5.953
 9406WAT      O38329   2.197   6.190   5.173
 9406WAT     H138330   2.276   6.164   5.146
 9406WAT     H238331   2.182   6.262   5.126
 9406WAT    EPW38332   2.206   6.197   5.162
 9407WAT      O38333   1.416   6.768   6.315
 9407WAT     H138334   1.419   6.751   6.401
 9407WAT     H238335   1.454   6.698   6.279
 9407WAT    EPW38336   1.422   6.755   6.322
 9408WAT      O38337   2.408   4.931   3.648
 9408WAT     H138338   2.386   4.978   3.578
 9408WAT     H238339   2.495   4.928   3.645
 9408WAT    EPW38340   2.418   4.937   3.637
 9409WAT      O38341   2.318   5.623   4.081
 9409WAT     H138342   2.290   5.702   4.107
 9409WAT     H238343   2.377   5.602   4.143
 9409WAT    EPW38344   2.323   5.631   4.094
 9410WAT      O38345   1.275   6.119   3.582
 9410WAT     H138346   1.214   6.110   3.644
 9410WAT     H238347   1.286   6.037   3.554
 9410WAT    EPW38348   1.267   6.105   3.587
 9411WAT      O38349   2.896   6.500   3.374
 9411WAT     H138350   2.954   6.449   3.413
 9411WAT     H238351   2.849   6.445   3.325
 9411WAT    EPW38352   2.898   6.485   3.373
 9412WAT      O38353   1.293   5.470   3.268
 9412WAT     H138354   1.227   5.517   3.235
 9412WAT     H238355   1.264   5.388   3.263
 9412WAT    EPW38356   1.279   5.465   3.263
 9413WAT      O38357   1.568   6.056   3.185
 9413WAT     H138358   1.544   6.010   3.115
 9413WAT     H238359   1.579   5.996   3.247
 9413WAT    EPW38360   1.566   6.040   3.184
 9414WAT      O38361   2.591   5.805   3.740
 9414WAT     H138362   2.600   5.794   3.654
 9414WAT     H238363   2.537   5.741   3.764
 9414WAT    EPW38364   2.584   5.794   3.730
 9415WAT      O38365   1.528   6.233   3.568
 9415WAT     H138366   1.579   6.198   3.630
 9415WAT     H238367   1.451   6.193   3.579
 9415WAT    EPW38368   1.524   6.222   3.579
 9416WAT      O38369   2.053   5.140   3.538
 9416WAT     H138370   2.039   5.205   3.481
 9416WAT     H238371   2.124   5.101   3.507
 9416WAT    EPW38372   2.061   5.144   3.525
 9417WAT      O38373   1.407   6.496   3.156
 9417WAT     H138374   1.462   6.509   3.090
 9417WAT     H238375   1.450   6.441   3.209
 9417WAT    EPW38376   1.421   6.490   3.154
 9418WAT      O38377   1.339   6.328   4.306
 9418WAT     H138378   1.363   6.307   4.387
 9418WAT     H238379   1.273   6.275   4.289
 9418WAT    EPW38380   1.333   6.317   4.316
 9419WAT      O38381   1.978   6.161   4.743
 9419WAT     H138382   1.950   6.140   4.823
 9419WAT     H238383   1.910   6.142   4.692
 9419WAT    EPW38384   1.964   6.155   4.747
 9420WAT      O38385   1.480   5.896   3.757
 9420WAT     H138386   1.432   5.893   3.684
 9420WAT     H238387   1.536   5.829   3.747
 9420WAT    EPW38388   1.481   5.886   3.744
 9421WAT      O38389   1.920   5.410   4.287
 9421WAT     H138390   1.992   5.407   4.238
 9421WAT     H238391   1.883   5.332   4.275
 9421WAT    EPW38392   1.925   5.398   4.278
 9422WAT      O38393   1.941   6.412   4.491
 9422WAT     H138394   1.923   6.491   4.460
 9422WAT     H238395   2.025   6.417   4.513
 9422WAT    EPW38396   1.951   6.424   4.489
 9423WAT      O38397   1.643   5.675   3.741
 9423WAT     H138398   1.710   5.625   3.765
 9423WAT     H238399   1.575   5.621   3.742
 9423WAT    EPW38400   1.643   5.660   3.745
 9424WAT      O38401   2.102   6.295   3.893
 9424WAT     H138402   2.124   6.214   3.915
 9424WAT     H238403   2.179   6.336   3.888
 9424WAT    EPW38404   2.117   6.289   3.896
 9425WAT      O38405   2.172   6.210   3.490
 9425WAT     H138406   2.199   6.150   3.548
 9425WAT     H238407   2.203   6.181   3.414
 9425WAT    EPW38408   2.181   6.197   3.487
 9426WAT      O38409   2.264   5.647   4.802
 9426WAT     H138410   2.197   5.667   4.749
 9426WAT     H238411   2.271   5.716   4.854
 9426WAT    EPW38412   2.255   5.660   4.801
 9427WAT      O38413   1.776   5.158   3.622
 9427WAT     H138414   1.738   5.209   3.562
 9427WAT     H238415   1.860   5.157   3.599
 9427WAT    EPW38416   1.783   5.165   3.610
 9428WAT      O38417   2.678   4.920   4.527
 9428WAT     H138418   2.698   5.004   4.535
 9428WAT     H238419   2.640   4.900   4.603
 9428WAT    EPW38420   2.675   4.929   4.539
 9429WAT      O38421   2.111   5.145   3.814
 9429WAT     H138422   2.091   5.229   3.828
 9429WAT     H238423   2.090   5.134   3.730
 9429WAT    EPW38424   2.105   5.156   3.803
 9430WAT      O38425   2.463   5.284   3.067
 9430WAT     H138426   2.430   5.357   3.101
 9430WAT     H238427   2.478   5.234   3.137
 9430WAT    EPW38428   2.460   5.287   3.082
 9431WAT      O38429   1.336   5.604   4.021
 9431WAT     H138430   1.336   5.690   4.032
 9431WAT     H238431   1.267   5.577   4.068
 9431WAT    EPW38432   1.325   5.613   4.029
 9432WAT      O38433   1.320   6.561   3.835
 9432WAT     H138434   1.254   6.610   3.806
 9432WAT     H238435   1.356   6.529   3.762
 9432WAT    EPW38436   1.316   6.563   3.820
 9433WAT      O38437   1.900   6.247   3.468
 9433WAT     H138438   1.884   6.289   3.543
 9433WAT     H238439   1.986   6.232   3.472
 9433WAT    EPW38440   1.911   6.251   3.480
 9434WAT      O38441   2.546   6.602   3.384
 9434WAT     H138442   2.595   6.667   3.354
 9434WAT     H238443   2.590   6.572   3.453
 9434WAT    EPW38444   2.560   6.607   3.390
 9435WAT      O38445   2.316   6.689   3.512
 9435WAT     H138446   2.333   6.771   3.535
 9435WAT     H238447   2.388   6.664   3.470
 9435WAT    EPW38448   2.329   6.697   3.509
 9436WAT      O38449   1.583   5.142   4.036
 9436WAT     H138450   1.585   5.060   4.008
 9436WAT     H238451   1.644   5.144   4.098
 9436WAT    EPW38452   1.593   5.130   4.041
 9437WAT      O38453   1.962   5.292   5.027
 9437WAT     H138454   1.970   5.253   4.949
 9437WAT     H238455   2.001   5.369   5.015
 9437WAT    EPW38456   1.969   5.297   5.014
 9438WAT      O38457   1.434   6.491   3.585
 9438WAT     H138458   1.478   6.416   3.593
 9438WAT     H238459   1.491   6.543   3.545
 9438WAT    EPW38460   1.449   6.488   3.581
 9439WAT      O38461   2.974   5.342   3.604
 9439WAT     H138462   2.915   5.362   3.665
 9439WAT     H238463   2.963   5.256   3.593
 9439WAT    EPW38464   2.963   5.332   3.611
 9440WAT      O38465   2.530   6.610   4.309
 9440WAT     H138466   2.595   6.669   4.305
 9440WAT     H238467   2.523   6.582   4.227
 9440WAT    EPW38468   2.539   6.615   4.296
 9441WAT      O38469   1.523   5.209   4.924
 9441WAT     H138470   1.444   5.178   4.906
 9441WAT     H238471   1.572   5.184   4.856
 9441WAT    EPW38472   1.518   5.201   4.912
 9442WAT      O38473   1.601   6.284   3.978
 9442WAT     H138474   1.629   6.240   3.908
 9442WAT     H238475   1.632   6.238   4.045
 9442WAT    EPW38476   1.609   6.271   3.977
 9443WAT      O38477   1.890   6.617   3.856
 9443WAT     H138478   1.968   6.641   3.826
 9443WAT     H238479   1.834   6.669   3.813
 9443WAT    EPW38480   1.893   6.628   3.845
 9444WAT      O38481   2.187   4.973   4.898
 9444WAT     H138482   2.205   4.906   4.845
 9444WAT     H238483   2.129   5.019   4.853
 9444WAT    EPW38484   2.181   4.970   4.884
 9445WAT      O38485   2.223   5.571   3.671
 9445WAT     H138486   2.243   5.518   3.605
 9445WAT     H238487   2.295   5.573   3.719
 9445WAT    EPW38488   2.236   5.564   3.669
 9446WAT      O38489   2.345   5.509   3.190
 9446WAT     H138490   2.364   5.590   3.215
 9446WAT     H238491   2.267   5.518   3.150
 9446WAT    EPW38492   2.336   5.522   3.188
 9447WAT      O38493   2.710   6.802   3.286
 9447WAT     H138494   2.752   6.773   3.215
 9447WAT     H238495   2.772   6.846   3.330
 9447WAT    EPW38496   2.725   6.804   3.282
 9448WAT      O38497   1.786   6.648   4.442
 9448WAT     H138498   1.794   6.657   4.529
 9448WAT     H238499   1.709   6.607   4.433
 9448WAT    EPW38500   1.776   6.643   4.454
 9449WAT      O38501   1.245   5.336   4.642
 9449WAT     H138502   1.237   5.413   4.680
 9449WAT     H238503   1.309   5.349   4.583
 9449WAT    EPW38504   1.253   5.349   4.639
 9450WAT      O38505   2.425   6.400   4.716
 9450WAT     H138506   2.419   6.428   4.798
 9450WAT     H238507   2.511   6.394   4.703
 9450WAT    EPW38508   2.437   6.403   4.726
 9451WAT      O38509   2.177   6.411   3.143
 9451WAT     H138510   2.143   6.467   3.201
 9451WAT     H238511   2.260   6.437   3.136
 9451WAT    EPW38512   2.184   6.423   3.150
 9452WAT      O38513   2.531   5.129   3.288
 9452WAT     H138514   2.614   5.104   3.276
 9452WAT     H238515   2.536   5.185   3.355
 9452WAT    EPW38516   2.544   5.134   3.296
 9453WAT      O38517   1.380   5.239   3.534
 9453WAT     H138518   1.358   5.156   3.519
 9453WAT     H238519   1.332   5.260   3.604
 9453WAT    EPW38520   1.369   5.230   3.542
 9454WAT      O38521   1.533   6.543   4.332
 9454WAT     H138522   1.476   6.476   4.329
 9454WAT     H238523   1.569   6.542   4.253
 9454WAT    EPW38524   1.530   6.533   4.320
 9455WAT      O38525   2.279   5.420   3.443
 9455WAT     H138526   2.203   5.382   3.426
 9455WAT     H238527   2.305   5.450   3.365
 9455WAT    EPW38528   2.272   5.419   3.429
 9456WAT      O38529   2.287   6.656   4.425
 9456WAT     H138530   2.365   6.647   4.386
 9456WAT     H238531   2.231   6.658   4.359
 9456WAT    EPW38532   2.290   6.655   4.410
 9457WAT      O38533   2.291   5.038   3.409
 9457WAT     H138534   2.235   5.013   3.347
 9457WAT     H238535   2.361   5.064   3.365
 9457WAT    EPW38536   2.293   5.038   3.394
 9458WAT      O38537   2.988   6.674   3.658
 9458WAT     H138538   2.956   6.753   3.678
 9458WAT     H238539   2.916   6.624   3.654
 9458WAT    EPW38540   2.972   6.678   3.660
 9459WAT      O38541   2.063   5.414   3.845
 9459WAT     H138542   2.112   5.470   3.798
 9459WAT     H238543   2.093   5.425   3.926
 9459WAT    EPW38544   2.075   5.424   3.850
 9460WAT      O38545   2.684   6.267   3.640
 9460WAT     H138546   2.758   6.222   3.631
 9460WAT     H238547   2.634   6.215   3.690
 9460WAT    EPW38548   2.687   6.253   3.646
 9461WAT      O38549   1.687   6.380   4.623
 9461WAT     H138550   1.766   6.406   4.595
 9461WAT     H238551   1.675   6.427   4.696
 9461WAT    EPW38552   1.697   6.391   4.630
 9462WAT      O38553   1.735   4.889   3.677
 9462WAT     H138554   1.745   4.974   3.661
 9462WAT     H238555   1.708   4.857   3.600
 9462WAT    EPW38556   1.733   4.897   3.663
 9463WAT      O38557   1.891   5.974   4.017
 9463WAT     H138558   1.918   5.951   4.096
 9463WAT     H238559   1.828   5.916   3.999
 9463WAT    EPW38560   1.886   5.962   4.026
 9464WAT      O38561   2.499   5.320   4.445
 9464WAT     H138562   2.470   5.368   4.511
 9464WAT     H238563   2.448   5.249   4.448
 9464WAT    EPW38564   2.487   5.316   4.455
 9465WAT      O38565   1.996   5.961   4.271
 9465WAT     H138566   1.992   6.048   4.281
 9465WAT     H238567   1.966   5.930   4.346
 9465WAT    EPW38568   1.991   5.969   4.283
 9466WAT      O38569   2.575   6.058   4.266
 9466WAT     H138570   2.510   6.023   4.313
 9466WAT     H238571   2.571   6.143   4.285
 9466WAT    EPW38572   2.565   6.065   4.276
 9467WAT      O38573   2.691   4.908   3.671
 9467WAT     H138574   2.701   4.910   3.757
 9467WAT     H238575   2.722   4.829   3.649
 9467WAT    EPW38576   2.697   4.896   3.680
 9468WAT      O38577   1.235   6.380   4.934
 9468WAT     H138578   1.293   6.425   4.980
 9468WAT     H238579   1.243   6.299   4.965
 9468WAT    EPW38580   1.245   6.374   4.945
 9469WAT      O38581   2.928   5.364   4.667
 9469WAT     H138582   2.978   5.302   4.703
 9469WAT     H238583   2.858   5.367   4.718
 9469WAT    EPW38584   2.925   5.355   4.680
 9470WAT      O38585   1.627   5.301   3.817
 9470WAT     H138586   1.668   5.249   3.760
 9470WAT     H238587   1.615   5.250   3.887
 9470WAT    EPW38588   1.631   5.286   3.819
 9471WAT      O38589   2.910   6.081   3.268
 9471WAT     H138590   2.905   6.016   3.326
 9471WAT     H238591   2.996   6.096   3.262
 9471WAT    EPW38592   2.922   6.074   3.276
 9472WAT      O38593   1.663   6.104   3.769
 9472WAT     H138594   1.724   6.067   3.719
 9472WAT     H238595   1.603   6.042   3.778
 9472WAT    EPW38596   1.663   6.089   3.763
 9473WAT      O38597   1.523   6.724   3.921
 9473WAT     H138598   1.453   6.680   3.893
 9473WAT     H238599   1.571   6.733   3.849
 9473WAT    EPW38600   1.520   6.719   3.906
 9474WAT      O38601   1.506   5.471   4.205
 9474WAT     H138602   1.585   5.495   4.177
 9474WAT     H238603   1.452   5.501   4.143
 9474WAT    EPW38604   1.509   5.479   4.192
 9475WAT      O38605   3.121   6.488   4.671
 9475WAT     H138606   3.043   6.500   4.633
 9475WAT     H238607   3.103   6.441   4.742
 9475WAT    EPW38608   3.107   6.483   4.676
 9476WAT      O38609   2.713   5.764   3.172
 9476WAT     H138610   2.709   5.848   3.146
 9476WAT     H238611   2.687   5.767   3.255
 9476WAT    EPW38612   2.709   5.777   3.181
 9477WAT      O38613   1.797   5.998   3.541
 9477WAT     H138614   1.823   6.076   3.511
 9477WAT     H238615   1.860   5.945   3.515
 9477WAT    EPW38616   1.810   6.002   3.532
 9478WAT      O38617   3.166   5.237   3.155
 9478WAT     H138618   3.173   5.156   3.185
 9478WAT     H238619   3.082   5.246   3.137
 9478WAT    EPW38620   3.155   5.226   3.157
 9479WAT      O38621   1.339   6.179   3.985
 9479WAT     H138622   1.284   6.244   4.004
 9479WAT     H238623   1.417   6.218   3.982
 9479WAT    EPW38624   1.343   6.194   3.988
 9480WAT      O38625   2.099   5.533   4.999
 9480WAT     H138626   2.028   5.583   5.002
 9480WAT     H238627   2.138   5.556   4.925
 9480WAT    EPW38628   2.095   5.544   4.989
 9481WAT      O38629   3.205   5.592   4.378
 9481WAT     H138630   3.274   5.543   4.358
 9481WAT     H238631   3.137   5.547   4.348
 9481WAT    EPW38632   3.205   5.578   4.371
 9482WAT      O38633   1.358   5.865   3.510
 9482WAT     H138634   1.340   5.779   3.515
 9482WAT     H238635   1.432   5.867   3.464
 9482WAT    EPW38636   1.366   5.852   3.504
 9483WAT      O38637   2.816   5.096   3.266
 9483WAT     H138638   2.835   5.055   3.192
 9483WAT     H238639   2.839   5.179   3.251
 9483WAT    EPW38640   2.822   5.102   3.253
 9484WAT      O38641   2.320   6.463   3.851
 9484WAT     H138642   2.272   6.535   3.839
 9484WAT     H238643   2.342   6.439   3.769
 9484WAT    EPW38644   2.316   6.470   3.837
 9485WAT      O38645   1.260   6.342   3.425
 9485WAT     H138646   1.313   6.396   3.468
 9485WAT     H238647   1.252   6.273   3.478
 9485WAT    EPW38648   1.266   6.340   3.439
 9486WAT      O38649   1.716   6.125   4.171
 9486WAT     H138650   1.775   6.165   4.221
 9486WAT     H238651   1.765   6.081   4.113
 9486WAT    EPW38652   1.732   6.125   4.170
 9487WAT      O38653   2.552   5.330   3.885
 9487WAT     H138654   2.596   5.301   3.955
 9487WAT     H238655   2.498   5.264   3.865
 9487WAT    EPW38656   2.550   5.316   3.892
 9488WAT      O38657   1.278   6.157   3.209
 9488WAT     H138658   1.355   6.116   3.208
 9488WAT     H238659   1.288   6.218   3.270
 9488WAT    EPW38660   1.291   6.160   3.218
 9489WAT      O38661   1.356   5.905   4.006
 9489WAT     H138662   1.398   5.893   3.930
 9489WAT     H238663   1.346   5.992   4.010
 9489WAT    EPW38664   1.361   5.916   3.995
 9490WAT      O38665   2.026   5.339   3.348
 9490WAT     H138666   2.011   5.310   3.268
 9490WAT     H238667   1.985   5.416   3.350
 9490WAT    EPW38668   2.017   5.346   3.337
 9491WAT      O38669   2.869   6.548   4.538
 9491WAT     H138670   2.824   6.619   4.561
 9491WAT     H238671   2.870   6.552   4.451
 9491WAT    EPW38672   2.863   6.559   4.528
 9492WAT      O38673   1.915   6.385   3.708
 9492WAT     H138674   1.887   6.451   3.758
 9492WAT     H238675   1.972   6.344   3.758
 9492WAT    EPW38676   1.919   6.389   3.723
 9493WAT      O38677   1.639   5.665   4.831
 9493WAT     H138678   1.594   5.604   4.875
 9493WAT     H238679   1.643   5.633   4.750
 9493WAT    EPW38680   1.633   5.651   4.826
 9494WAT      O38681   1.629   5.584   3.352
 9494WAT     H138682   1.622   5.512   3.400
 9494WAT     H238683   1.596   5.561   3.274
 9494WAT    EPW38684   1.623   5.570   3.347
 9495WAT      O38685   1.682   5.799   3.991
 9495WAT     H138686   1.668   5.761   3.914
 9495WAT     H238687   1.700   5.732   4.044
 9495WAT    EPW38688   1.683   5.783   3.988
 9496WAT      O38689   1.682   5.741   4.360
 9496WAT     H138690   1.706   5.692   4.293
 9496WAT     H238691   1.626   5.798   4.325
 9496WAT    EPW38692   1.677   5.742   4.345
 9497WAT      O38693   2.745   5.516   4.146
 9497WAT     H138694   2.669   5.536   4.186
 9497WAT     H238695   2.746   5.568   4.077
 9497WAT    EPW38696   2.734   5.527   4.142
 9498WAT      O38697   2.080   6.655   4.245
 9498WAT     H138698   2.049   6.585   4.203
 9498WAT     H238699   2.069   6.719   4.186
 9498WAT    EPW38700   2.074   6.654   4.230
 9499WAT      O38701   2.350   5.088   4.494
 9499WAT     H138702   2.329   5.005   4.480
 9499WAT     H238703   2.333   5.100   4.579
 9499WAT    EPW38704   2.345   5.078   4.504
 9500WAT      O38705   2.529   5.303   3.497
 9500WAT     H138706   2.584   5.370   3.490
 9500WAT     H238707   2.451   5.340   3.492
 9500WAT    EPW38708   2.526   5.318   3.495
 9501WAT      O38709   1.494   5.898   4.867
 9501WAT     H138710   1.491   5.940   4.790
 9501WAT     H238711   1.544   5.828   4.850
 9501WAT    EPW38712   1.501   5.894   4.853
 9502WAT      O38713   2.655   6.105   4.741
 9502WAT     H138714   2.672   6.189   4.724
 9502WAT     H238715   2.688   6.063   4.672
 9502WAT    EPW38716   2.662   6.111   4.728
 9503WAT      O38717   2.054   6.432   4.785
 9503WAT     H138718   2.082   6.428   4.868
 9503WAT     H238719   2.033   6.349   4.767
 9503WAT    EPW38720   2.055   6.419   4.794
 9504WAT      O38721   2.139   5.411   4.111
 9504WAT     H138722   2.199   5.474   4.114
 9504WAT     H238723   2.183   5.339   4.135
 9504WAT    EPW38724   2.154   5.410   4.115
 9505WAT      O38725   2.396   5.761   3.299
 9505WAT     H138726   2.364   5.805   3.231
 9505WAT     H238727   2.338   5.776   3.363
 9505WAT    EPW38728   2.383   5.770   3.299
 9506WAT      O38729   2.917   6.130   3.598
 9506WAT     H138730   2.940   6.123   3.681
 9506WAT     H238731   2.921   6.049   3.568
 9506WAT    EPW38732   2.921   6.117   3.606
 9507WAT      O38733   2.511   6.471   4.056
 9507WAT     H138734   2.447   6.461   3.997
 9507WAT     H238735   2.556   6.539   4.026
 9507WAT    EPW38736   2.508   6.480   4.043
 9508WAT      O38737   2.456   6.141   4.027
 9508WAT     H138738   2.381   6.167   4.062
 9508WAT     H238739   2.499   6.104   4.094
 9508WAT    EPW38740   2.452   6.139   4.042
 9509WAT      O38741   1.904   6.575   3.498
 9509WAT     H138742   1.927   6.516   3.559
 9509WAT     H238743   1.973   6.579   3.446
 9509WAT    EPW38744   1.918   6.567   3.499
 9510WAT      O38745   1.811   4.931   3.241
 9510WAT     H138746   1.765   4.896   3.307
 9510WAT     H238747   1.775   5.010   3.231
 9510WAT    EPW38748   1.799   4.937   3.249
 9511WAT      O38749   2.120   6.613   3.328
 9511WAT     H138750   2.182   6.644   3.381
 9511WAT     H238751   2.098   6.681   3.279
 9511WAT    EPW38752   2.126   6.627   3.328
 9512WAT      O38753   2.776   5.966   4.529
 9512WAT     H138754   2.755   5.943   4.448
 9512WAT     H238755   2.857   5.999   4.521
 9512WAT    EPW38756   2.785   5.967   4.516
 9513WAT      O38757   2.418   6.542   4.964
 9513WAT     H138758   2.450   6.565   5.042
 9513WAT     H238759   2.441   6.608   4.912
 9513WAT    EPW38760   2.426   6.555   4.968
 9514WAT      O38761   1.603   5.867   3.384
 9514WAT     H138762   1.617   5.781   3.384
 9514WAT     H238763   1.661   5.897   3.442
 9514WAT    EPW38764   1.614   5.859   3.393
 9515WAT      O38765   2.371   5.942   4.410
 9515WAT     H138766   2.322   5.981   4.471
 9515WAT     H238767   2.405   5.873   4.452
 9515WAT    EPW38768   2.369   5.937   4.425
 9516WAT      O38769   1.282   4.976   3.496
 9516WAT     H138770   1.272   4.921   3.428
 9516WAT     H238771   1.251   4.930   3.564
 9516WAT    EPW38772   1.276   4.961   3.496
 9517WAT      O38773   2.233   5.803   3.519
 9517WAT     H138774   2.247   5.870   3.574
 9517WAT     H238775   2.225   5.734   3.572
 9517WAT    EPW38776   2.234   5.803   3.535
 9518WAT      O38777   2.740   6.295   4.097
 9518WAT     H138778   2.785   6.257   4.033
 9518WAT     H238779   2.663   6.313   4.060
 9518WAT    EPW38780   2.735   6.292   4.082
 9519WAT      O38781   1.712   5.193   3.204
 9519WAT     H138782   1.649   5.202   3.145
 9519WAT     H238783   1.779   5.236   3.169
 9519WAT    EPW38784   1.713   5.201   3.190
 9520WAT      O38785   2.151   6.020   3.930
 9520WAT     H138786   2.067   6.001   3.946
 9520WAT     H238787   2.194   5.986   3.998
 9520WAT    EPW38788   2.145   6.012   3.942
 9521WAT      O38789   1.788   6.634   3.100
 9521WAT     H138790   1.807   6.561   3.143
 9521WAT     H238791   1.785   6.694   3.163
 9521WAT    EPW38792   1.790   6.632   3.116
 9522WAT      O38793   1.519   5.932   4.239
 9522WAT     H138794   1.574   5.998   4.223
 9522WAT     H238795   1.484   5.915   4.161
 9522WAT    EPW38796   1.522   5.940   4.225
 9523WAT      O38797   1.805   5.500   3.879
 9523WAT     H138798   1.886   5.471   3.863
 9523WAT     H238799   1.755   5.431   3.861
 9523WAT    EPW38800   1.810   5.485   3.874
 9524WAT      O38801   3.081   6.653   3.239
 9524WAT     H138802   3.142   6.597   3.213
 9524WAT     H238803   3.024   6.603   3.282
 9524WAT    EPW38804   3.081   6.638   3.241
 9525WAT      O38805   1.318   5.589   3.530
 9525WAT     H138806   1.348   5.549   3.602
 9525WAT     H238807   1.331   5.531   3.467
 9525WAT    EPW38808   1.324   5.575   3.532
 9526WAT      O38809   2.766   5.856   4.266
 9526WAT     H138810   2.822   5.858   4.200
 9526WAT     H238811   2.708   5.918   4.246
 9526WAT    EPW38812   2.766   5.865   4.254
 9527WAT      O38813   1.908   5.714   3.080
 9527WAT     H138814   1.891   5.671   3.154
 9527WAT     H238815   1.835   5.704   3.034
 9527WAT    EPW38816   1.894   5.706   3.084
 9528WAT      O38817   1.478   6.032   4.627
 9528WAT     H138818   1.433   5.985   4.569
 9528WAT     H238819   1.449   6.113   4.614
 9528WAT    EPW38820   1.467   6.037   4.616
 9529WAT      O38821   2.950   5.841   4.054
 9529WAT     H138822   2.960   5.918   4.014
 9529WAT     H238823   3.032   5.813   4.066
 9529WAT    EPW38824   2.963   5.848   4.050
 9530WAT      O38825   1.901   5.589   3.327
 9530WAT     H138826   1.925   5.662   3.368
 9530WAT     H238827   1.815   5.584   3.342
 9530WAT    EPW38828   1.892   5.599   3.335
 9531WAT      O38829   2.670   5.351   4.772
 9531WAT     H138830   2.623   5.344   4.844
 9531WAT     H238831   2.648   5.281   4.726
 9531WAT    EPW38832   2.660   5.340   4.776
 9532WAT      O38833   1.317   5.253   4.017
 9532WAT     H138834   1.298   5.251   3.931
 9532WAT     H238835   1.398   5.219   4.020
 9532WAT    EPW38836   1.326   5.248   4.005
 9533WAT      O38837   3.086   6.454   4.042
 9533WAT     H138838   3.125   6.495   3.975
 9533WAT     H238839   3.066   6.376   4.009
 9533WAT    EPW38840   3.089   6.449   4.027
 9534WAT      O38841   2.622   5.695   4.835
 9534WAT     H138842   2.644   5.701   4.919
 9534WAT     H238843   2.538   5.719   4.834
 9534WAT    EPW38844   2.613   5.699   4.847
 9535WAT      O38845   2.744   6.307   3.248
 9535WAT     H138846   2.794   6.237   3.261
 9535WAT     H238847   2.684   6.302   3.311
 9535WAT    EPW38848   2.742   6.296   3.259
 9536WAT      O38849   2.765   5.452   3.754
 9536WAT     H138850   2.701   5.405   3.790
 9536WAT     H238851   2.774   5.519   3.809
 9536WAT    EPW38852   2.757   5.455   3.767
 9537WAT      O38853   3.145   5.767   4.850
 9537WAT     H138854   3.141   5.707   4.787
 9537WAT     H238855   3.229   5.788   4.854
 9537WAT    EPW38856   3.157   5.761   4.841
 9538WAT      O38857   3.039   6.049   4.497
 9538WAT     H138858   3.100   5.994   4.469
 9538WAT     H238859   3.020   6.096   4.426
 9538WAT    EPW38860   3.045   6.048   4.482
 9539WAT      O38861   1.960   6.243   4.274
 9539WAT     H138862   1.951   6.288   4.348
 9539WAT     H238863   1.955   6.304   4.212
 9539WAT    EPW38864   1.958   6.258   4.275
 9540WAT      O38865   1.744   6.108   4.593
 9540WAT     H138866   1.665   6.073   4.604
 9540WAT     H238867   1.729   6.194   4.595
 9540WAT    EPW38868   1.730   6.115   4.595
 9541WAT      O38869   2.738   5.198   4.523
 9541WAT     H138870   2.793   5.260   4.549
 9541WAT     H238871   2.670   5.243   4.491
 9541WAT    EPW38872   2.736   5.214   4.522
 9542WAT      O38873   2.239   5.878   4.168
 9542WAT     H138874   2.291   5.901   4.234
 9542WAT     H238875   2.159   5.893   4.199
 9542WAT    EPW38876   2.235   5.883   4.183
 9543WAT      O38877   1.909   5.464   4.560
 9543WAT     H138878   1.934   5.392   4.602
 9543WAT     H238879   1.921   5.446   4.476
 9543WAT    EPW38880   1.915   5.451   4.554
 9544WAT      O38881   2.159   6.680   3.760
 9544WAT     H138882   2.140   6.763   3.780
 9544WAT     H238883   2.200   6.686   3.684
 9544WAT    EPW38884   2.162   6.693   3.752
 9545WAT      O38885   2.889   5.155   4.291
 9545WAT     H138886   2.843   5.155   4.365
 9545WAT     H238887   2.925   5.076   4.289
 9545WAT    EPW38888   2.888   5.143   4.302
 9546WAT      O38889   2.026   5.094   4.370
 9546WAT     H138890   2.105   5.121   4.345
 9546WAT     H238891   2.026   5.109   4.456
 9546WAT    EPW38892   2.038   5.100   4.379
 9547WAT      O38893   1.970   6.448   4.085
 9547WAT     H138894   1.917   6.496   4.036
 9547WAT     H238895   2.015   6.402   4.027
 9547WAT    EPW38896   1.969   6.448   4.070
 9548WAT      O38897   2.387   6.070   4.816
 9548WAT     H138898   2.468   6.080   4.784
 9548WAT     H238899   2.336   6.090   4.749
 9548WAT    EPW38900   2.392   6.074   4.801
 9549WAT      O38901   2.707   6.378   4.698
 9549WAT     H138902   2.746   6.400   4.773
 9549WAT     H238903   2.752   6.422   4.638
 9549WAT    EPW38904   2.719   6.388   4.701
 9550WAT      O38905   2.955   5.630   3.120
 9550WAT     H138906   3.003   5.692   3.081
 9550WAT     H238907   2.881   5.671   3.140
 9550WAT    EPW38908   2.951   5.645   3.117
 9551WAT      O38909   2.031   5.950   3.154
 9551WAT     H138910   1.993   5.878   3.122
 9551WAT     H238911   1.970   6.011   3.144
 9551WAT    EPW38912   2.017   5.948   3.148
 9552WAT      O38913   1.758   5.572   4.140
 9552WAT     H138914   1.777   5.545   4.059
 9552WAT     H238915   1.811   5.524   4.190
 9552WAT    EPW38916   1.769   5.561   4.135
 9553WAT      O38917   2.450   5.498   4.653
 9553WAT     H138918   2.388   5.530   4.705
 9553WAT     H238919   2.515   5.480   4.709
 9553WAT    EPW38920   2.451   5.500   4.669
 9554WAT      O38921   2.498   5.541   4.273
 9554WAT     H138922   2.497   5.600   4.337
 9554WAT     H238923   2.493   5.465   4.314
 9554WAT    EPW38924   2.497   5.539   4.288
 9555WAT      O38925   2.209   6.651   4.694
 9555WAT     H138926   2.221   6.645   4.608
 9555WAT     H238927   2.171   6.576   4.716
 9555WAT    EPW38928   2.205   6.639   4.685
 9556WAT      O38929   2.719   5.513   3.490
 9556WAT     H138930   2.732   5.496   3.575
 9556WAT     H238931   2.798   5.507   3.455
 9556WAT    EPW38932   2.732   5.509   3.497
 9557WAT      O38933   2.103   4.968   4.033
 9557WAT     H138934   2.025   4.945   4.065
 9557WAT     H238935   2.083   5.023   3.968
 9557WAT    EPW38936   2.088   4.973   4.028
 9558WAT      O38937   2.896   5.065   3.544
 9558WAT     H138938   2.829   5.031   3.588
 9558WAT     H238939   2.863   5.084   3.466
 9558WAT    EPW38940   2.881   5.062   3.539
 9559WAT      O38941   2.892   5.877   3.463
 9559WAT     H138942   2.940   5.803   3.466
 9559WAT     H238943   2.810   5.848   3.468
 9559WAT    EPW38944   2.887   5.862   3.465
 9560WAT      O38945   2.219   6.112   4.594
 9560WAT     H138946   2.143   6.113   4.637
 9560WAT     H238947   2.224   6.192   4.560
 9560WAT    EPW38948   2.208   6.124   4.595
 9561WAT      O38949   1.261   5.122   4.821
 9561WAT     H138950   1.265   5.191   4.768
 9561WAT     H238951   1.176   5.101   4.820
 9561WAT    EPW38952   1.249   5.129   4.813
 9562WAT      O38953   1.774   6.773   4.182
 9562WAT     H138954   1.782   6.748   4.266
 9562WAT     H238955   1.746   6.701   4.142
 9562WAT    EPW38956   1.771   6.758   4.189
 9563WAT      O38957   1.632   5.319   3.447
 9563WAT     H138958   1.645   5.277   3.371
 9563WAT     H238959   1.552   5.294   3.471
 9563WAT    EPW38960   1.622   5.309   3.439
 9564WAT      O38961   2.523   6.078   3.767
 9564WAT     H138962   2.504   6.096   3.850
 9564WAT     H238963   2.550   5.995   3.770
 9564WAT    EPW38964   2.524   6.069   3.779
 9565WAT      O38965   2.266   6.028   3.677
 9565WAT     H138966   2.224   6.023   3.753
 9565WAT     H238967   2.348   6.047   3.700
 9565WAT    EPW38968   2.272   6.030   3.691
 9566WAT      O38969   2.230   6.391   4.518
 9566WAT     H138970   2.286   6.392   4.585
 9566WAT     H238971   2.256   6.457   4.468
 9566WAT    EPW38972   2.242   6.401   4.521
 9567WAT      O38973   3.069   5.605   4.632
 9567WAT     H138974   3.036   5.525   4.639
 9567WAT     H238975   3.118   5.601   4.560
 9567WAT    EPW38976   3.072   5.593   4.623
 9568WAT      O38977   2.518   5.710   4.492
 9568WAT     H138978   2.491   5.650   4.548
 9568WAT     H238979   2.603   5.693   4.483
 9568WAT    EPW38980   2.527   5.699   4.499
 9569WAT      O38981   1.421   6.726   4.705
 9569WAT     H138982   1.368   6.658   4.698
 9569WAT     H238983   1.368   6.791   4.731
 9569WAT    EPW38984   1.405   6.726   4.708
 9570WAT      O38985   2.300   5.859   4.979
 9570WAT     H138986   2.326   5.927   4.931
 9570WAT     H238987   2.217   5.879   4.999
 9570WAT    EPW38988   2.292   5.872   4.975
 9571WAT      O38989   2.649   6.704   4.005
 9571WAT     H138990   2.603   6.768   4.044
 9571WAT     H238991   2.715   6.691   4.060
 9571WAT    EPW38992   2.652   6.712   4.019
 9572WAT      O38993   2.242   6.233   4.187
 9572WAT     H138994   2.164   6.234   4.227
 9572WAT     H238995   2.297   6.260   4.250
 9572WAT    EPW38996   2.239   6.237   4.202
 9573WAT      O38997   2.851   6.437   4.930
 9573WAT     H138998   2.931   6.403   4.923
 9573WAT     H238999   2.820   6.402   5.003
 9573WAT    EPW39000   2.858   6.427   4.940
 9574WAT      O39001   1.649   5.560   4.572
 9574WAT     H139002   1.654   5.621   4.510
 9574WAT     H239003   1.729   5.524   4.572
 9574WAT    EPW39004   1.662   5.564   4.563
 9575WAT      O39005   1.455   5.397   4.461
 9575WAT     H139006   1.471   5.410   4.376
 9575WAT     H239007   1.518   5.442   4.501
 9575WAT    EPW39008   1.466   5.405   4.455
 9576WAT      O39009   3.018   5.583   3.468
 9576WAT     H139010   3.060   5.554   3.397
 9576WAT     H239011   3.015   5.513   3.519
 9576WAT    EPW39012   3.024   5.568   3.465
 9577WAT      O39013   1.673   5.121   4.713
 9577WAT     H139014   1.760   5.130   4.712
 9577WAT     H239015   1.650   5.127   4.629
 9577WAT    EPW39016   1.682   5.123   4.701
 9578WAT      O39017   2.342   6.411   3.573
 9578WAT     H139018   2.312   6.490   3.552
 9578WAT     H239019   2.276   6.358   3.553
 9578WAT    EPW39020   2.328   6.415   3.567
 9579WAT      O39021   2.788   5.645   4.447
 9579WAT     H139022   2.839   5.579   4.419
 9579WAT     H239023   2.791   5.702   4.381
 9579WAT    EPW39024   2.796   5.643   4.433
 9580WAT      O39025   1.328   5.895   4.438
 9580WAT     H139026   1.380   5.912   4.370
 9580WAT     H239027   1.315   5.809   4.433
 9580WAT    EPW39028   1.334   5.885   4.428
 9581WAT      O39029   1.518   5.494   3.108
 9581WAT     H139030   1.442   5.492   3.151
 9581WAT     H239031   1.523   5.416   3.070
 9581WAT    EPW39032   1.507   5.482   3.109
 9582WAT      O39033   2.397   5.125   4.790
 9582WAT     H139034   2.411   5.196   4.839
 9582WAT     H239035   2.324   5.091   4.824
 9582WAT    EPW39036   2.388   5.131   4.802
 9583WAT      O39037   2.385   5.105   3.865
 9583WAT     H139038   2.300   5.124   3.857
 9583WAT     H239039   2.400   5.052   3.797
 9583WAT    EPW39040   2.374   5.100   3.854
 9584WAT      O39041   1.815   6.389   3.239
 9584WAT     H139042   1.854   6.364   3.313
 9584WAT     H239043   1.730   6.377   3.256
 9584WAT    EPW39044   1.808   6.384   3.253
 9585WAT      O39045   2.693   5.246   4.114
 9585WAT     H139046   2.759   5.207   4.155
 9585WAT     H239047   2.708   5.331   4.128
 9585WAT    EPW39048   2.705   5.253   4.122
 9586WAT      O39049   1.878   5.876   4.505
 9586WAT     H139050   1.837   5.948   4.534
 9586WAT     H239051   1.814   5.832   4.464
 9586WAT    EPW39052   1.862   5.880   4.503
 9587WAT      O39053   2.770   5.677   3.918
 9587WAT     H139054   2.829   5.732   3.953
 9587WAT     H239055   2.720   5.729   3.870
 9587WAT    EPW39056   2.771   5.693   3.916
 9588WAT      O39057   2.731   6.540   3.591
 9588WAT     H139058   2.716   6.459   3.619
 9588WAT     H239059   2.784   6.529   3.522
 9588WAT    EPW39060   2.737   6.526   3.585
 9589WAT      O39061   1.558   6.308   3.299
 9589WAT     H139062   1.553   6.289   3.384
 9589WAT     H239063   1.560   6.230   3.260
 9589WAT    EPW39064   1.558   6.294   3.306
 9590WAT      O39065   1.837   6.142   3.113
 9590WAT     H139066   1.756   6.111   3.126
 9590WAT     H239067   1.835   6.221   3.149
 9590WAT    EPW39068   1.824   6.149   3.120
 9591WAT      O39069   1.782   5.171   4.245
 9591WAT     H139070   1.725   5.164   4.311
 9591WAT     H239071   1.850   5.123   4.271
 9591WAT    EPW39072   1.783   5.163   4.258
 9592WAT      O39073   2.244   5.160   4.181
 9592WAT     H139074   2.199   5.099   4.140
 9592WAT     H239075   2.324   5.126   4.188
 9592WAT    EPW39076   2.249   5.146   4.176
 9593WAT      O39077   2.489   6.325   4.301
 9593WAT     H139078   2.513   6.393   4.350
 9593WAT     H239079   2.495   6.355   4.220
 9593WAT    EPW39080   2.493   6.339   4.296
 9594WAT      O39081   2.473   6.726   4.761
 9594WAT     H139082   2.402   6.687   4.728
 9594WAT     H239083   2.448   6.809   4.772
 9594WAT    EPW39084   2.459   6.733   4.757
 9595WAT      O39085   2.034   5.695   4.657
 9595WAT     H139086   1.998   5.622   4.628
 9595WAT     H239087   1.991   5.758   4.615
 9595WAT    EPW39088   2.023   5.693   4.647
 9596WAT      O39089   2.092   4.962   3.225
 9596WAT     H139090   2.102   4.974   3.139
 9596WAT     H239091   2.006   4.962   3.236
 9596WAT    EPW39092   2.081   4.964   3.214
 9597WAT      O39093   2.960   6.184   4.259
 9597WAT     H139094   2.977   6.155   4.178
 9597WAT     H239095   2.884   6.226   4.250
 9597WAT    EPW39096   2.951   6.186   4.246
 9598WAT      O39097   1.860   6.626   4.720
 9598WAT     H139098   1.842   6.645   4.804
 9598WAT     H239099   1.922   6.565   4.726
 9598WAT    EPW39100   1.866   6.620   4.734
 9599WAT      O39101   2.849   6.543   4.162
 9599WAT     H139102   2.929   6.530   4.128
 9599WAT     H239103   2.808   6.468   4.146
 9599WAT    EPW39104   2.855   6.530   4.155
 9600WAT      O39105   1.592   5.152   4.448
 9600WAT     H139106   1.536   5.086   4.435
 9600WAT     H239107   1.541   5.222   4.450
 9600WAT    EPW39108   1.576   5.152   4.446
 9601WAT      O39109   2.505   5.039   4.115
 9601WAT     H139110   2.560   5.106   4.120
 9601WAT     H239111   2.467   5.050   4.037
 9601WAT    EPW39112   2.507   5.051   4.104
 9602WAT      O39113   1.575   6.530   4.849
 9602WAT     H139114   1.646   6.562   4.889
 9602WAT     H239115   1.541   6.599   4.808
 9602WAT    EPW39116   1.581   6.545   4.849
 9603WAT      O39117   2.443   5.586   3.836
 9603WAT     H139118   2.479   5.508   3.850
 9603WAT     H239119   2.404   5.604   3.912
 9603WAT    EPW39120   2.442   5.577   3.849
 9604WAT      O39121   1.432   5.502   3.772
 9604WAT     H139122   1.395   5.521   3.849
 9604WAT     H239123   1.477   5.429   3.788
 9604WAT    EPW39124   1.433   5.494   3.786
 9605WAT      O39125   1.425   6.301   4.568
 9605WAT     H139126   1.374   6.362   4.605
 9605WAT     H239127   1.506   6.332   4.579
 9605WAT    EPW39128   1.429   6.315   4.575
 9606WAT      O39129   2.630   5.768   3.451
 9606WAT     H139130   2.650   5.683   3.461
 9606WAT     H239131   2.552   5.766   3.412
 9606WAT    EPW39132   2.622   5.755   3.447
 9607WAT      O39133   1.640   6.641   3.463
 9607WAT     H139134   1.646   6.705   3.404
 9607WAT     H239135   1.722   6.609   3.468
 9607WAT    EPW39136   1.653   6.645   3.455
 9608WAT      O39137   1.984   5.841   3.411
 9608WAT     H139138   2.002   5.880   3.335
 9608WAT     H239139   2.062   5.830   3.448
 9608WAT    EPW39140   1.998   5.845   3.405
 9609WAT      O39141   2.865   6.712   3.076
 9609WAT     H139142   2.939   6.703   3.120
 9609WAT     H239143   2.845   6.631   3.052
 9609WAT    EPW39144   2.873   6.699   3.079
 9610WAT      O39145   2.979   5.976   4.772
 9610WAT     H139146   3.046   5.929   4.802
 9610WAT     H239147   3.012   6.016   4.702
 9610WAT    EPW39148   2.994   5.975   4.766
 9611WAT      O39149   2.527   6.270   3.415
 9611WAT     H139150   2.576   6.250   3.485
 9611WAT     H239151   2.464   6.321   3.447
 9611WAT    EPW39152   2.525   6.275   3.430
 9612WAT      O39153   2.961   5.451   4.312
 9612WAT     H139154   2.904   5.469   4.249
 9612WAT     H239155   2.966   5.364   4.312
 9612WAT    EPW39156   2.953   5.441   4.303
 9613WAT      O39157   2.694   6.020   5.009
 9613WAT     H139158   2.769   6.046   5.044
 9613WAT     H239159   2.699   6.046   4.926
 9613WAT    EPW39160   2.706   6.028   5.002
 9614WAT      O39161   1.648   6.540   4.080
 9614WAT     H139162   1.639   6.461   4.043
 9614WAT     H239163   1.605   6.593   4.025
 9614WAT    EPW39164   1.640   6.536   4.066
 9615WAT      O39165   2.232   6.152   3.223
 9615WAT     H139166   2.172   6.093   3.199
 9615WAT     H239167   2.199   6.228   3.196
 9615WAT    EPW39168   2.218   6.154   3.216
 9616WAT      O39169   1.402   6.770   4.428
 9616WAT     H139170   1.411   6.753   4.513
 9616WAT     H239171   1.439   6.701   4.389
 9616WAT    EPW39172   1.409   6.757   4.435
 9617WAT      O39173   2.398   5.036   1.757
 9617WAT     H139174   2.413   5.095   1.694
 9617WAT     H239175   2.477   5.003   1.773
 9617WAT    EPW39176   2.412   5.040   1.750
 9618WAT      O39177   2.307   5.653   2.173
 9618WAT     H139178   2.278   5.728   2.205
 9618WAT     H239179   2.364   5.625   2.233
 9618WAT    EPW39180   2.311   5.660   2.186
 9619WAT      O39181   1.291   6.105   1.699
 9619WAT     H139182   1.229   6.100   1.760
 9619WAT     H239183   1.300   6.022   1.671
 9619WAT    EPW39184   1.283   6.092   1.704
 9620WAT      O39185   2.937   6.498   1.523
 9620WAT     H139186   3.001   6.444   1.547
 9620WAT     H239187   2.886   6.447   1.474
 9620WAT    EPW39188   2.939   6.483   1.519
 9621WAT      O39189   1.274   5.461   1.348
 9621WAT     H139190   1.210   5.513   1.320
 9621WAT     H239191   1.243   5.381   1.334
 9621WAT    EPW39192   1.260   5.457   1.342
 9622WAT      O39193   1.569   6.056   1.299
 9622WAT     H139194   1.544   6.016   1.226
 9622WAT     H239195   1.581   5.990   1.355
 9622WAT    EPW39196   1.567   6.040   1.297
 9623WAT      O39197   2.597   5.828   1.844
 9623WAT     H139198   2.606   5.812   1.758
 9623WAT     H239199   2.536   5.771   1.869
 9623WAT    EPW39200   2.589   5.817   1.835
 9624WAT      O39201   1.542   6.230   1.701
 9624WAT     H139202   1.596   6.188   1.756
 9624WAT     H239203   1.467   6.187   1.709
 9624WAT    EPW39204   1.539   6.217   1.711
 9625WAT      O39205   2.035   5.149   1.643
 9625WAT     H139206   2.020   5.219   1.592
 9625WAT     H239207   2.110   5.117   1.613
 9625WAT    EPW39208   2.044   5.155   1.631
 9626WAT      O39209   1.456   6.511   1.309
 9626WAT     H139210   1.499   6.518   1.233
 9626WAT     H239211   1.486   6.437   1.344
 9626WAT    EPW39212   1.466   6.501   1.303
 9627WAT      O39213   1.335   6.327   2.407
 9627WAT     H139214   1.363   6.304   2.486
 9627WAT     H239215   1.267   6.274   2.394
 9627WAT    EPW39216   1.329   6.316   2.417
 9628WAT      O39217   1.965   6.156   2.861
 9628WAT     H139218   1.927   6.148   2.939
 9628WAT     H239219   1.900   6.140   2.805
 9628WAT    EPW39220   1.950   6.153   2.864
 9629WAT      O39221   1.487   5.862   1.864
 9629WAT     H139222   1.439   5.860   1.791
 9629WAT     H239223   1.542   5.795   1.855
 9629WAT    EPW39224   1.488   5.852   1.852
 9630WAT      O39225   1.950   5.444   2.423
 9630WAT     H139226   2.014   5.443   2.364
 9630WAT     H239227   1.922   5.362   2.425
 9630WAT    EPW39228   1.955   5.432   2.414
 9631WAT      O39229   1.964   6.441   2.587
 9631WAT     H139230   1.966   6.516   2.541
 9631WAT     H239231   2.048   6.422   2.599
 9631WAT    EPW39232   1.977   6.450   2.582
 9632WAT      O39233   1.657   5.646   1.855
 9632WAT     H139234   1.722   5.594   1.881
 9632WAT     H239235   1.587   5.593   1.855
 9632WAT    EPW39236   1.656   5.631   1.859
 9633WAT      O39237   2.071   6.278   2.008
 9633WAT     H139238   2.100   6.198   2.026
 9633WAT     H239239   2.144   6.324   1.995
 9633WAT    EPW39240   2.086   6.273   2.008
 9634WAT      O39241   2.160   6.227   1.630
 9634WAT     H139242   2.190   6.158   1.674
 9634WAT     H239243   2.166   6.203   1.546
 9634WAT    EPW39244   2.165   6.213   1.624
 9635WAT      O39245   2.282   5.671   2.863
 9635WAT     H139246   2.211   5.688   2.813
 9635WAT     H239247   2.279   5.734   2.924
 9635WAT    EPW39248   2.271   5.683   2.864
 9636WAT      O39249   1.761   5.160   1.731
 9636WAT     H139250   1.725   5.217   1.675
 9636WAT     H239251   1.845   5.160   1.708
 9636WAT    EPW39252   1.768   5.169   1.720
 9637WAT      O39253   2.744   4.869   2.799
 9637WAT     H139254   2.743   4.913   2.724
 9637WAT     H239255   2.659   4.860   2.819
 9637WAT    EPW39256   2.731   4.874   2.791
 9638WAT      O39257   2.077   5.098   1.918
 9638WAT     H139258   2.079   5.182   1.943
 9638WAT     H239259   2.059   5.102   1.833
 9638WAT    EPW39260   2.075   5.111   1.909
 9639WAT      O39261   2.467   5.315   1.140
 9639WAT     H139262   2.425   5.382   1.178
 9639WAT     H239263   2.484   5.262   1.207
 9639WAT    EPW39264   2.463   5.317   1.156
 9640WAT      O39265   1.334   5.601   2.122
 9640WAT     H139266   1.331   5.687   2.131
 9640WAT     H239267   1.266   5.573   2.170
 9640WAT    EPW39268   1.323   5.609   2.131
 9641WAT      O39269   1.314   6.573   1.944
 9641WAT     H139270   1.252   6.624   1.909
 9641WAT     H239271   1.352   6.536   1.874
 9641WAT    EPW39272   1.311   6.575   1.929
 9642WAT      O39273   1.886   6.257   1.640
 9642WAT     H139274   1.862   6.277   1.722
 9642WAT     H239275   1.972   6.246   1.645
 9642WAT    EPW39276   1.895   6.258   1.653
 9643WAT      O39277   2.500   6.602   1.417
 9643WAT     H139278   2.574   6.648   1.414
 9643WAT     H239279   2.526   6.522   1.440
 9643WAT    EPW39280   2.514   6.597   1.420
 9644WAT      O39281   2.325   6.659   1.623
 9644WAT     H139282   2.350   6.736   1.655
 9644WAT     H239283   2.380   6.646   1.556
 9644WAT    EPW39284   2.337   6.669   1.618
 9645WAT      O39285   1.554   5.109   2.138
 9645WAT     H139286   1.537   5.036   2.094
 9645WAT     H239287   1.615   5.086   2.195
 9645WAT    EPW39288   1.560   5.095   2.140
 9646WAT      O39289   1.946   5.302   3.074
 9646WAT     H139290   1.943   5.261   2.997
 9646WAT     H239291   1.995   5.372   3.059
 9646WAT    EPW39292   1.953   5.306   3.061
 9647WAT      O39293   1.444   6.488   1.709
 9647WAT     H139294   1.490   6.415   1.722
 9647WAT     H239295   1.498   6.538   1.663
 9647WAT    EPW39296   1.458   6.484   1.704
 9648WAT      O39297   3.052   5.267   1.880
 9648WAT     H139298   3.007   5.340   1.897
 9648WAT     H239299   2.990   5.209   1.857
 9648WAT    EPW39300   3.036   5.269   1.879
 9649WAT      O39301   2.541   6.618   2.437
 9649WAT     H139302   2.610   6.667   2.417
 9649WAT     H239303   2.510   6.593   2.359
 9649WAT    EPW39304   2.547   6.621   2.423
 9650WAT      O39305   1.521   5.231   3.002
 9650WAT     H139306   1.440   5.203   2.988
 9650WAT     H239307   1.566   5.198   2.935
 9650WAT    EPW39308   1.516   5.222   2.990
 9651WAT      O39309   1.593   6.309   2.059
 9651WAT     H139310   1.654   6.302   1.997
 9651WAT     H239311   1.618   6.250   2.119
 9651WAT    EPW39312   1.606   6.299   2.059
 9652WAT      O39313   1.882   6.606   1.948
 9652WAT     H139314   1.961   6.626   1.918
 9652WAT     H239315   1.828   6.655   1.901
 9652WAT    EPW39316   1.885   6.616   1.937
 9653WAT      O39317   2.115   5.002   2.947
 9653WAT     H139318   2.133   4.936   2.893
 9653WAT     H239319   2.049   5.044   2.907
 9653WAT    EPW39320   2.108   4.999   2.933
 9654WAT      O39321   2.210   5.553   1.769
 9654WAT     H139322   2.239   5.508   1.700
 9654WAT     H239323   2.282   5.570   1.814
 9654WAT    EPW39324   2.225   5.549   1.766
 9655WAT      O39325   2.322   5.517   1.272
 9655WAT     H139326   2.352   5.595   1.299
 9655WAT     H239327   2.247   5.536   1.233
 9655WAT    EPW39328   2.315   5.531   1.270
 9656WAT      O39329   2.718   6.778   1.382
 9656WAT     H139330   2.766   6.754   1.313
 9656WAT     H239331   2.772   6.828   1.428
 9656WAT    EPW39332   2.733   6.782   1.378
 9657WAT      O39333   1.761   6.678   2.555
 9657WAT     H139334   1.784   6.670   2.639
 9657WAT     H239335   1.694   6.623   2.547
 9657WAT    EPW39336   1.755   6.669   2.566
 9658WAT      O39337   2.968   5.151   2.297
 9658WAT     H139338   3.034   5.133   2.243
 9658WAT     H239339   2.999   5.127   2.375
 9658WAT    EPW39340   2.983   5.145   2.300
 9659WAT      O39341   1.246   5.343   2.736
 9659WAT     H139342   1.235   5.419   2.777
 9659WAT     H239343   1.309   5.360   2.677
 9659WAT    EPW39344   1.254   5.356   2.733
 9660WAT      O39345   2.446   6.423   2.800
 9660WAT     H139346   2.448   6.500   2.841
 9660WAT     H239347   2.530   6.408   2.781
 9660WAT    EPW39348   2.459   6.432   2.803
 9661WAT      O39349   2.173   6.419   1.247
 9661WAT     H139350   2.152   6.474   1.312
 9661WAT     H239351   2.247   6.452   1.216
 9661WAT    EPW39352   2.181   6.432   1.252
 9662WAT      O39353   2.513   5.144   1.356
 9662WAT     H139354   2.573   5.081   1.356
 9662WAT     H239355   2.534   5.191   1.426
 9662WAT    EPW39356   2.525   5.142   1.366
 9663WAT      O39357   1.368   5.250   1.638
 9663WAT     H139358   1.346   5.167   1.618
 9663WAT     H239359   1.320   5.266   1.709
 9663WAT    EPW39360   1.357   5.240   1.645
 9664WAT      O39361   1.523   6.544   2.435
 9664WAT     H139362   1.466   6.477   2.429
 9664WAT     H239363   1.560   6.546   2.356
 9664WAT    EPW39364   1.520   6.534   2.422
 9665WAT      O39365   2.289   5.422   1.533
 9665WAT     H139366   2.217   5.374   1.520
 9665WAT     H239367   2.305   5.456   1.455
 9665WAT    EPW39368   2.280   5.420   1.520
 9666WAT      O39369   2.291   6.680   2.543
 9666WAT     H139370   2.369   6.661   2.507
 9666WAT     H239371   2.235   6.662   2.479
 9666WAT    EPW39372   2.294   6.675   2.528
 9667WAT      O39373   2.268   5.096   1.487
 9667WAT     H139374   2.209   5.068   1.429
 9667WAT     H239375   2.340   5.107   1.439
 9667WAT    EPW39376   2.270   5.093   1.471
 9668WAT      O39377   3.002   6.710   1.801
 9668WAT     H139378   2.961   6.786   1.808
 9668WAT     H239379   2.938   6.652   1.790
 9668WAT    EPW39380   2.987   6.713   1.800
 9669WAT      O39381   2.074   5.377   1.949
 9669WAT     H139382   2.114   5.433   1.895
 9669WAT     H239383   2.096   5.407   2.028
 9669WAT    EPW39384   2.083   5.390   1.953
 9670WAT      O39385   2.746   6.285   1.856
 9670WAT     H139386   2.810   6.226   1.855
 9670WAT     H239387   2.674   6.238   1.844
 9670WAT    EPW39388   2.745   6.269   1.854
 9671WAT      O39389   1.703   6.392   2.710
 9671WAT     H139390   1.779   6.423   2.681
 9671WAT     H239391   1.689   6.439   2.783
 9671WAT    EPW39392   1.712   6.404   2.717
 9672WAT      O39393   1.700   4.895   1.779
 9672WAT     H139394   1.718   4.979   1.766
 9672WAT     H239395   1.675   4.867   1.700
 9672WAT    EPW39396   1.699   4.903   1.765
 9673WAT      O39397   1.892   5.985   2.122
 9673WAT     H139398   1.913   5.972   2.206
 9673WAT     H239399   1.834   5.922   2.105
 9673WAT    EPW39400   1.887   5.974   2.132
 9674WAT      O39401   2.487   5.325   2.525
 9674WAT     H139402   2.471   5.376   2.594
 9674WAT     H239403   2.431   5.260   2.533
 9674WAT    EPW39404   2.477   5.323   2.536
 9675WAT      O39405   1.988   5.996   2.382
 9675WAT     H139406   1.966   6.080   2.389
 9675WAT     H239407   1.955   5.960   2.454
 9675WAT    EPW39408   1.980   6.003   2.394
 9676WAT      O39409   2.573   6.087   2.385
 9676WAT     H139410   2.512   6.042   2.429
 9676WAT     H239411   2.555   6.170   2.403
 9676WAT    EPW39412   2.561   6.092   2.394
 9677WAT      O39413   2.638   4.915   1.825
 9677WAT     H139414   2.629   4.890   1.909
 9677WAT     H239415   2.672   4.845   1.786
 9677WAT    EPW39416   2.642   4.901   1.832
 9678WAT      O39417   1.218   6.356   3.012
 9678WAT     H139418   1.276   6.403   3.058
 9678WAT     H239419   1.224   6.276   3.046
 9678WAT    EPW39420   1.227   6.351   3.024
 9679WAT      O39421   2.935   5.358   2.569
 9679WAT     H139422   2.994   5.350   2.634
 9679WAT     H239423   2.970   5.419   2.518
 9679WAT    EPW39424   2.949   5.366   2.571
 9680WAT      O39425   1.619   5.288   1.939
 9680WAT     H139426   1.658   5.238   1.879
 9680WAT     H239427   1.602   5.232   2.004
 9680WAT    EPW39428   1.622   5.272   1.940
 9681WAT      O39429   2.899   6.070   1.396
 9681WAT     H139430   2.903   6.024   1.470
 9681WAT     H239431   2.982   6.088   1.377
 9681WAT    EPW39432   2.912   6.066   1.404
 9682WAT      O39433   1.683   6.058   1.865
 9682WAT     H139434   1.730   6.024   1.800
 9682WAT     H239435   1.620   6.000   1.877
 9682WAT    EPW39436   1.681   6.045   1.857
 9683WAT      O39437   1.527   6.733   2.008
 9683WAT     H139438   1.455   6.690   1.987
 9683WAT     H239439   1.573   6.735   1.933
 9683WAT    EPW39440   1.523   6.727   1.994
 9684WAT      O39441   1.511   5.477   2.304
 9684WAT     H139442   1.591   5.497   2.276
 9684WAT     H239443   1.459   5.509   2.242
 9684WAT    EPW39444   1.515   5.485   2.291
 9685WAT      O39445   3.134   6.513   2.770
 9685WAT     H139446   3.064   6.511   2.717
 9685WAT     H239447   3.108   6.466   2.839
 9685WAT    EPW39448   3.120   6.506   2.773
 9686WAT      O39449   2.725   5.748   1.301
 9686WAT     H139450   2.717   5.830   1.273
 9686WAT     H239451   2.699   5.752   1.384
 9686WAT    EPW39452   2.720   5.760   1.309
 9687WAT      O39453   1.800   5.992   1.619
 9687WAT     H139454   1.825   6.076   1.612
 9687WAT     H239455   1.869   5.948   1.588
 9687WAT    EPW39456   1.814   5.998   1.613
 9688WAT      O39457   3.041   5.210   1.286
 9688WAT     H139458   3.080   5.151   1.236
 9688WAT     H239459   3.001   5.262   1.229
 9688WAT    EPW39460   3.041   5.209   1.270
 9689WAT      O39461   1.341   6.180   2.057
 9689WAT     H139462   1.287   6.243   2.084
 9689WAT     H239463   1.417   6.221   2.047
 9689WAT    EPW39464   1.344   6.195   2.059
 9690WAT      O39465   2.110   5.529   3.036
 9690WAT     H139466   2.047   5.589   3.042
 9690WAT     H239467   2.157   5.555   2.967
 9690WAT    EPW39468   2.108   5.541   3.027
 9691WAT      O39469   1.355   5.844   1.622
 9691WAT     H139470   1.338   5.759   1.622
 9691WAT     H239471   1.427   5.851   1.574
 9691WAT    EPW39472   1.363   5.833   1.615
 9692WAT      O39473   2.903   5.099   1.508
 9692WAT     H139474   2.976   5.061   1.539
 9692WAT     H239475   2.932   5.147   1.442
 9692WAT    EPW39476   2.918   5.100   1.503
 9693WAT      O39477   2.285   6.450   1.973
 9693WAT     H139478   2.242   6.522   1.949
 9693WAT     H239479   2.325   6.424   1.900
 9693WAT    EPW39480   2.284   6.457   1.959
 9694WAT      O39481   1.275   6.333   1.550
 9694WAT     H139482   1.328   6.386   1.595
 9694WAT     H239483   1.269   6.262   1.600
 9694WAT    EPW39484   1.282   6.330   1.564
 9695WAT      O39485   1.689   6.131   2.246
 9695WAT     H139486   1.741   6.175   2.300
 9695WAT     H239487   1.744   6.090   2.193
 9695WAT    EPW39488   1.705   6.131   2.246
 9696WAT      O39489   2.581   5.405   1.969
 9696WAT     H139490   2.611   5.417   2.050
 9696WAT     H239491   2.534   5.332   1.975
 9696WAT    EPW39492   2.579   5.396   1.982
 9697WAT      O39493   1.294   6.161   1.326
 9697WAT     H139494   1.370   6.119   1.322
 9697WAT     H239495   1.304   6.214   1.395
 9697WAT    EPW39496   1.307   6.163   1.336
 9698WAT      O39497   1.357   5.907   2.103
 9698WAT     H139498   1.401   5.886   2.031
 9698WAT     H239499   1.350   5.994   2.099
 9698WAT    EPW39500   1.362   5.917   2.092
 9699WAT      O39501   2.018   5.354   1.456
 9699WAT     H139502   2.005   5.322   1.376
 9699WAT     H239503   1.986   5.435   1.451
 9699WAT    EPW39504   2.012   5.361   1.443
 9700WAT      O39505   2.898   6.526   2.603
 9700WAT     H139506   2.862   6.605   2.604
 9700WAT     H239507   2.898   6.505   2.518
 9700WAT    EPW39508   2.893   6.535   2.591
 9701WAT      O39509   1.823   6.343   1.894
 9701WAT     H139510   1.836   6.429   1.906
 9701WAT     H239511   1.892   6.306   1.933
 9701WAT    EPW39512   1.835   6.350   1.901
 9702WAT      O39513   1.658   5.676   2.947
 9702WAT     H139514   1.611   5.619   2.993
 9702WAT     H239515   1.654   5.645   2.866
 9702WAT    EPW39516   1.651   5.663   2.942
 9703WAT      O39517   1.642   5.586   1.442
 9703WAT     H139518   1.630   5.518   1.496
 9703WAT     H239519   1.601   5.560   1.369
 9703WAT    EPW39520   1.634   5.572   1.440
 9704WAT      O39521   1.707   5.786   2.097
 9704WAT     H139522   1.689   5.749   2.020
 9704WAT     H239523   1.727   5.718   2.148
 9704WAT    EPW39524   1.707   5.770   2.093
 9705WAT      O39525   1.680   5.741   2.460
 9705WAT     H139526   1.705   5.689   2.394
 9705WAT     H239527   1.624   5.796   2.422
 9705WAT    EPW39528   1.675   5.742   2.445
 9706WAT      O39529   2.703   5.506   2.196
 9706WAT     H139530   2.640   5.531   2.252
 9706WAT     H239531   2.722   5.580   2.154
 9706WAT    EPW39532   2.696   5.520   2.198
 9707WAT      O39533   2.071   6.644   2.373
 9707WAT     H139534   2.046   6.575   2.325
 9707WAT     H239535   2.061   6.712   2.319
 9707WAT    EPW39536   2.066   6.644   2.358
 9708WAT      O39537   2.317   5.108   2.586
 9708WAT     H139538   2.339   5.027   2.562
 9708WAT     H239539   2.334   5.110   2.671
 9708WAT    EPW39540   2.323   5.097   2.595
 9709WAT      O39541   2.532   5.292   1.587
 9709WAT     H139542   2.593   5.354   1.597
 9709WAT     H239543   2.458   5.337   1.578
 9709WAT    EPW39544   2.530   5.308   1.587
 9710WAT      O39545   1.496   5.901   2.973
 9710WAT     H139546   1.493   5.942   2.896
 9710WAT     H239547   1.550   5.834   2.958
 9710WAT    EPW39548   1.503   5.897   2.960
 9711WAT      O39549   2.659   6.120   2.824
 9711WAT     H139550   2.680   6.201   2.801
 9711WAT     H239551   2.702   6.070   2.766
 9711WAT    EPW39552   2.669   6.124   2.812
 9712WAT      O39553   2.044   6.425   2.893
 9712WAT     H139554   2.079   6.419   2.973
 9712WAT     H239555   2.020   6.344   2.875
 9712WAT    EPW39556   2.046   6.412   2.902
 9713WAT      O39557   2.131   5.441   2.212
 9713WAT     H139558   2.191   5.504   2.204
 9713WAT     H239559   2.178   5.368   2.224
 9713WAT    EPW39560   2.147   5.440   2.213
 9714WAT      O39561   2.405   5.753   1.402
 9714WAT     H139562   2.385   5.808   1.338
 9714WAT     H239563   2.345   5.769   1.463
 9714WAT    EPW39564   2.393   5.763   1.402
 9715WAT      O39565   2.929   6.073   1.854
 9715WAT     H139566   2.932   6.026   1.927
 9715WAT     H239567   2.908   6.015   1.793
 9715WAT    EPW39568   2.926   6.058   1.856
 9716WAT      O39569   2.442   6.508   2.196
 9716WAT     H139570   2.386   6.485   2.133
 9716WAT     H239571   2.499   6.559   2.156
 9716WAT    EPW39572   2.442   6.512   2.181
 9717WAT      O39573   2.491   6.164   2.127
 9717WAT     H139574   2.409   6.182   2.152
 9717WAT     H239575   2.524   6.122   2.196
 9717WAT    EPW39576   2.483   6.160   2.141
 9718WAT      O39577   1.865   6.511   1.541
 9718WAT     H139578   1.876   6.433   1.578
 9718WAT     H239579   1.946   6.540   1.528
 9718WAT    EPW39580   1.878   6.504   1.545
 9719WAT      O39581   1.785   4.966   1.359
 9719WAT     H139582   1.736   4.930   1.422
 9719WAT     H239583   1.751   5.046   1.351
 9719WAT    EPW39584   1.773   4.972   1.367
 9720WAT      O39585   2.112   6.597   1.453
 9720WAT     H139586   2.177   6.616   1.508
 9720WAT     H239587   2.097   6.672   1.412
 9720WAT    EPW39588   2.120   6.611   1.455
 9721WAT      O39589   2.816   5.975   2.653
 9721WAT     H139590   2.810   5.974   2.566
 9721WAT     H239591   2.895   6.009   2.667
 9721WAT    EPW39592   2.827   5.980   2.642
 9722WAT      O39593   2.450   6.474   3.150
 9722WAT     H139594   2.479   6.513   3.222
 9722WAT     H239595   2.453   6.538   3.090
 9722WAT    EPW39596   2.455   6.489   3.152
 9723WAT      O39597   2.867   5.032   2.990
 9723WAT     H139598   2.832   4.971   2.939
 9723WAT     H239599   2.819   5.103   2.974
 9723WAT    EPW39600   2.855   5.034   2.980
 9724WAT      O39601   1.593   5.859   1.489
 9724WAT     H139602   1.615   5.775   1.480
 9724WAT     H239603   1.659   5.891   1.536
 9724WAT    EPW39604   1.606   5.851   1.495
 9725WAT      O39605   2.365   5.958   2.518
 9725WAT     H139606   2.316   5.985   2.585
 9725WAT     H239607   2.405   5.887   2.549
 9725WAT    EPW39608   2.363   5.951   2.532
 9726WAT      O39609   1.272   4.988   1.588
 9726WAT     H139610   1.269   4.930   1.522
 9726WAT     H239611   1.239   4.943   1.656
 9726WAT    EPW39612   1.267   4.973   1.588
 9727WAT      O39613   2.241   5.791   1.623
 9727WAT     H139614   2.255   5.857   1.677
 9727WAT     H239615   2.226   5.723   1.676
 9727WAT    EPW39616   2.241   5.790   1.639
 9728WAT      O39617   2.709   6.347   2.131
 9728WAT     H139618   2.735   6.338   2.049
 9728WAT     H239619   2.632   6.307   2.134
 9728WAT    EPW39620   2.702   6.340   2.120
 9729WAT      O39621   1.699   5.225   1.318
 9729WAT     H139622   1.640   5.227   1.254
 9729WAT     H239623   1.769   5.264   1.283
 9729WAT    EPW39624   1.700   5.231   1.304
 9730WAT      O39625   2.148   6.003   2.021
 9730WAT     H139626   2.063   5.990   2.037
 9730WAT     H239627   2.187   5.967   2.090
 9730WAT    EPW39628   2.141   5.995   2.034
 9731WAT      O39629   1.814   6.640   1.146
 9731WAT     H139630   1.833   6.562   1.182
 9731WAT     H239631   1.807   6.693   1.215
 9731WAT    EPW39632   1.816   6.636   1.162
 9732WAT      O39633   1.515   5.931   2.335
 9732WAT     H139634   1.566   5.998   2.314
 9732WAT     H239635   1.473   5.912   2.261
 9732WAT    EPW39636   1.516   5.938   2.321
 9733WAT      O39637   1.817   5.469   1.996
 9733WAT     H139638   1.895   5.435   1.974
 9733WAT     H239639   1.761   5.404   1.981
 9733WAT    EPW39640   1.821   5.454   1.990
 9734WAT      O39641   3.105   6.659   1.374
 9734WAT     H139642   3.176   6.612   1.358
 9734WAT     H239643   3.054   6.605   1.420
 9734WAT    EPW39644   3.108   6.644   1.378
 9735WAT      O39645   1.318   5.566   1.629
 9735WAT     H139646   1.348   5.533   1.704
 9735WAT     H239647   1.328   5.500   1.573
 9735WAT    EPW39648   1.324   5.551   1.632
 9736WAT      O39649   2.828   5.972   2.364
 9736WAT     H139650   2.818   5.888   2.382
 9736WAT     H239651   2.747   6.003   2.359
 9736WAT    EPW39652   2.815   5.964   2.366
 9737WAT      O39653   1.824   5.810   1.199
 9737WAT     H139654   1.831   5.746   1.257
 9737WAT     H239655   1.770   5.778   1.139
 9737WAT    EPW39656   1.817   5.796   1.198
 9738WAT      O39657   1.480   6.037   2.734
 9738WAT     H139658   1.436   5.991   2.675
 9738WAT     H239659   1.453   6.119   2.720
 9738WAT    EPW39660   1.470   6.043   2.723
 9739WAT      O39661   2.946   5.925   2.098
 9739WAT     H139662   2.918   5.948   2.177
 9739WAT     H239663   3.033   5.924   2.107
 9739WAT    EPW39664   2.955   5.928   2.111
 9740WAT      O39665   1.909   5.610   1.391
 9740WAT     H139666   1.935   5.678   1.440
 9740WAT     H239667   1.826   5.598   1.416
 9740WAT    EPW39668   1.900   5.618   1.402
 9741WAT      O39669   2.717   5.262   2.954
 9741WAT     H139670   2.634   5.273   2.981
 9741WAT     H239671   2.710   5.262   2.867
 9741WAT    EPW39672   2.703   5.264   2.945
 9742WAT      O39673   1.297   5.241   2.122
 9742WAT     H139674   1.279   5.243   2.037
 9742WAT     H239675   1.376   5.204   2.126
 9742WAT    EPW39676   1.306   5.236   2.110
 9743WAT      O39677   3.121   6.431   2.173
 9743WAT     H139678   3.148   6.484   2.109
 9743WAT     H239679   3.189   6.430   2.228
 9743WAT    EPW39680   3.135   6.438   2.171
 9744WAT      O39681   2.601   5.674   2.932
 9744WAT     H139682   2.632   5.688   3.012
 9744WAT     H239683   2.517   5.697   2.938
 9744WAT    EPW39684   2.593   5.679   2.944
 9745WAT      O39685   2.814   5.716   2.754
 9745WAT     H139686   2.812   5.802   2.739
 9745WAT     H239687   2.749   5.703   2.810
 9745WAT    EPW39688   2.804   5.727   2.760
 9746WAT      O39689   2.786   6.322   1.382
 9746WAT     H139690   2.816   6.241   1.393
 9746WAT     H239691   2.707   6.319   1.421
 9746WAT    EPW39692   2.779   6.309   1.389
 9747WAT      O39693   2.835   5.471   1.869
 9747WAT     H139694   2.764   5.431   1.902
 9747WAT     H239695   2.839   5.545   1.915
 9747WAT    EPW39696   2.825   5.476   1.881
 9748WAT      O39697   3.124   5.826   3.001
 9748WAT     H139698   3.129   5.774   2.931
 9748WAT     H239699   3.207   5.846   3.018
 9748WAT    EPW39700   3.137   5.821   2.993
 9749WAT      O39701   3.061   6.093   2.673
 9749WAT     H139702   3.120   6.036   2.643
 9749WAT     H239703   3.044   6.143   2.604
 9749WAT    EPW39704   3.067   6.092   2.658
 9750WAT      O39705   2.459   6.143   1.301
 9750WAT     H139706   2.533   6.097   1.293
 9750WAT     H239707   2.431   6.152   1.219
 9750WAT    EPW39708   2.466   6.137   1.288
 9751WAT      O39709   1.895   6.260   2.386
 9751WAT     H139710   1.906   6.308   2.458
 9751WAT     H239711   1.915   6.316   2.321
 9751WAT    EPW39712   1.899   6.276   2.387
 9752WAT      O39713   1.744   6.115   2.696
 9752WAT     H139714   1.664   6.083   2.709
 9752WAT     H239715   1.731   6.201   2.690
 9752WAT    EPW39716   1.730   6.123   2.697
 9753WAT      O39717   2.707   5.249   2.682
 9753WAT     H139718   2.776   5.283   2.641
 9753WAT     H239719   2.641   5.266   2.627
 9753WAT    EPW39720   2.707   5.257   2.668
 9754WAT      O39721   2.227   5.904   2.283
 9754WAT     H139722   2.277   5.911   2.354
 9754WAT     H239723   2.146   5.916   2.314
 9754WAT    EPW39724   2.223   5.907   2.298
 9755WAT      O39725   1.903   5.456   2.698
 9755WAT     H139726   1.910   5.376   2.730
 9755WAT     H239727   1.925   5.447   2.614
 9755WAT    EPW39728   1.907   5.443   2.690
 9756WAT      O39729   2.146   6.670   1.866
 9756WAT     H139730   2.138   6.753   1.892
 9756WAT     H239731   2.186   6.677   1.789
 9756WAT    EPW39732   2.151   6.683   1.859
 9757WAT      O39733   2.770   4.955   2.536
 9757WAT     H139734   2.736   5.022   2.492
 9757WAT     H239735   2.856   4.969   2.532
 9757WAT    EPW39736   2.778   4.967   2.529
 9758WAT      O39737   2.046   5.039   2.613
 9758WAT     H139738   2.127   5.065   2.594
 9758WAT     H239739   2.053   4.953   2.620
 9758WAT    EPW39740   2.059   5.030   2.611
 9759WAT      O39741   1.964   6.453   2.196
 9759WAT     H139742   1.915   6.502   2.143
 9759WAT     H239743   2.005   6.398   2.141
 9759WAT    EPW39744   1.963   6.452   2.180
 9760WAT      O39745   2.402   6.074   2.919
 9760WAT     H139746   2.478   6.080   2.877
 9760WAT     H239747   2.342   6.090   2.857
 9760WAT    EPW39748   2.404   6.077   2.904
 9761WAT      O39749   2.719   6.386   2.767
 9761WAT     H139750   2.753   6.410   2.843
 9761WAT     H239751   2.775   6.420   2.708
 9761WAT    EPW39752   2.733   6.394   2.769
 9762WAT      O39753   2.966   5.620   1.267
 9762WAT     H139754   3.015   5.678   1.223
 9762WAT     H239755   2.888   5.659   1.272
 9762WAT    EPW39756   2.962   5.635   1.261
 9763WAT      O39757   2.081   5.919   1.250
 9763WAT     H139758   2.001   5.905   1.217
 9763WAT     H239759   2.081   6.004   1.268
 9763WAT    EPW39760   2.069   5.929   1.248
 9764WAT      O39761   1.772   5.562   2.251
 9764WAT     H139762   1.793   5.527   2.174
 9764WAT     H239763   1.829   5.526   2.306
 9764WAT    EPW39764   1.783   5.552   2.248
 9765WAT      O39765   2.472   5.514   2.729
 9765WAT     H139766   2.402   5.550   2.768
 9765WAT     H239767   2.535   5.521   2.790
 9765WAT    EPW39768   2.471   5.521   2.744
 9766WAT      O39769   2.480   5.549   2.357
 9766WAT     H139770   2.490   5.608   2.421
 9766WAT     H239771   2.475   5.473   2.400
 9766WAT    EPW39772   2.481   5.546   2.373
 9767WAT      O39773   2.194   6.642   2.802
 9767WAT     H139774   2.217   6.640   2.718
 9767WAT     H239775   2.149   6.567   2.812
 9767WAT    EPW39776   2.190   6.631   2.791
 9768WAT      O39777   2.724   5.509   1.619
 9768WAT     H139778   2.750   5.493   1.700
 9768WAT     H239779   2.797   5.538   1.580
 9768WAT    EPW39780   2.739   5.511   1.625
 9769WAT      O39781   2.025   5.005   2.194
 9769WAT     H139782   1.941   5.000   2.218
 9769WAT     H239783   2.021   5.015   2.107
 9769WAT    EPW39784   2.012   5.006   2.185
 9770WAT      O39785   2.851   5.094   1.788
 9770WAT     H139786   2.775   5.053   1.803
 9770WAT     H239787   2.848   5.111   1.703
 9770WAT    EPW39788   2.839   5.090   1.778
 9771WAT      O39789   2.871   5.910   1.626
 9771WAT     H139790   2.917   5.837   1.611
 9771WAT     H239791   2.789   5.885   1.613
 9771WAT    EPW39792   2.866   5.896   1.622
 9772WAT      O39793   2.211   6.102   2.720
 9772WAT     H139794   2.133   6.103   2.759
 9772WAT     H239795   2.217   6.182   2.685
 9772WAT    EPW39796   2.200   6.114   2.721
 9773WAT      O39797   1.272   5.124   2.905
 9773WAT     H139798   1.271   5.193   2.851
 9773WAT     H239799   1.188   5.102   2.912
 9773WAT    EPW39800   1.260   5.131   2.898
 9774WAT      O39801   1.758   6.786   2.292
 9774WAT     H139802   1.760   6.765   2.376
 9774WAT     H239803   1.732   6.712   2.253
 9774WAT    EPW39804   1.754   6.772   2.298
 9775WAT      O39805   1.623   5.334   1.564
 9775WAT     H139806   1.636   5.296   1.487
 9775WAT     H239807   1.542   5.309   1.585
 9775WAT    EPW39808   1.613   5.325   1.556
 9776WAT      O39809   2.529   6.099   1.860
 9776WAT     H139810   2.516   6.116   1.945
 9776WAT     H239811   2.559   6.017   1.861
 9776WAT    EPW39812   2.531   6.089   1.873
 9777WAT      O39813   2.274   6.021   1.775
 9777WAT     H139814   2.233   6.013   1.852
 9777WAT     H239815   2.354   6.049   1.797
 9777WAT    EPW39816   2.280   6.024   1.790
 9778WAT      O39817   2.242   6.361   2.620
 9778WAT     H139818   2.296   6.385   2.684
 9778WAT     H239819   2.293   6.361   2.549
 9778WAT    EPW39820   2.257   6.364   2.619
 9779WAT      O39821   3.080   5.636   2.797
 9779WAT     H139822   2.994   5.650   2.791
 9779WAT     H239823   3.107   5.638   2.714
 9779WAT    EPW39824   3.071   5.638   2.784
 9780WAT      O39825   2.523   5.730   2.560
 9780WAT     H139826   2.514   5.667   2.620
 9780WAT     H239827   2.607   5.727   2.538
 9780WAT    EPW39828   2.534   5.720   2.565
 9781WAT      O39829   1.417   6.726   2.803
 9781WAT     H139830   1.363   6.658   2.795
 9781WAT     H239831   1.364   6.790   2.829
 9781WAT    EPW39832   1.401   6.725   2.806
 9782WAT      O39833   2.288   5.866   3.062
 9782WAT     H139834   2.324   5.932   3.017
 9782WAT     H239835   2.207   5.894   3.078
 9782WAT    EPW39836   2.282   5.880   3.057
 9783WAT      O39837   2.599   6.728   2.116
 9783WAT     H139838   2.543   6.791   2.136
 9783WAT     H239839   2.663   6.738   2.174
 9783WAT    EPW39840   2.600   6.739   2.127
 9784WAT      O39841   2.252   6.191   2.266
 9784WAT     H139842   2.231   6.107   2.278
 9784WAT     H239843   2.285   6.215   2.343
 9784WAT    EPW39844   2.254   6.182   2.279
 9785WAT      O39845   2.820   6.446   3.017
 9785WAT     H139846   2.903   6.417   3.013
 9785WAT     H239847   2.787   6.403   3.085
 9785WAT    EPW39848   2.828   6.435   3.026
 9786WAT      O39849   1.650   5.573   2.684
 9786WAT     H139850   1.658   5.630   2.619
 9786WAT     H239851   1.728   5.534   2.686
 9786WAT    EPW39852   1.663   5.576   2.675
 9787WAT      O39853   1.456   5.416   2.561
 9787WAT     H139854   1.474   5.429   2.477
 9787WAT     H239855   1.517   5.461   2.603
 9787WAT    EPW39856   1.467   5.424   2.555
 9788WAT      O39857   2.954   5.653   1.546
 9788WAT     H139858   2.972   5.648   1.461
 9788WAT     H239859   3.024   5.618   1.585
 9788WAT    EPW39860   2.967   5.647   1.539
 9789WAT      O39861   1.656   5.097   2.799
 9789WAT     H139862   1.624   5.016   2.802
 9789WAT     H239863   1.638   5.123   2.717
 9789WAT    EPW39864   1.648   5.089   2.787
 9790WAT      O39865   2.366   6.392   1.712
 9790WAT     H139866   2.350   6.474   1.685
 9790WAT     H239867   2.296   6.348   1.686
 9790WAT    EPW39868   2.353   6.398   1.704
 9791WAT      O39869   2.791   5.712   2.474
 9791WAT     H139870   2.860   5.676   2.435
 9791WAT     H239871   2.810   5.704   2.559
 9791WAT    EPW39872   2.804   5.706   2.481
 9792WAT      O39873   1.332   5.902   2.543
 9792WAT     H139874   1.382   5.919   2.473
 9792WAT     H239875   1.315   5.817   2.536
 9792WAT    EPW39876   1.337   5.892   2.532
 9793WAT      O39877   1.509   5.502   1.208
 9793WAT     H139878   1.432   5.496   1.249
 9793WAT     H239879   1.518   5.424   1.170
 9793WAT    EPW39880   1.499   5.489   1.209
 9794WAT      O39881   2.350   5.127   2.865
 9794WAT     H139882   2.381   5.183   2.924
 9794WAT     H239883   2.275   5.099   2.900
 9794WAT    EPW39884   2.344   5.131   2.879
 9795WAT      O39885   2.413   5.185   1.993
 9795WAT     H139886   2.336   5.189   2.034
 9795WAT     H239887   2.395   5.140   1.921
 9795WAT    EPW39888   2.399   5.179   1.988
 9796WAT      O39889   1.804   6.397   1.298
 9796WAT     H139890   1.844   6.430   1.369
 9796WAT     H239891   1.729   6.366   1.329
 9796WAT    EPW39892   1.799   6.398   1.313
 9797WAT      O39893   2.696   5.159   2.355
 9797WAT     H139894   2.779   5.161   2.328
 9797WAT     H239895   2.683   5.240   2.387
 9797WAT    EPW39896   2.706   5.171   2.356
 9798WAT      O39897   1.871   5.882   2.603
 9798WAT     H139898   1.830   5.952   2.634
 9798WAT     H239899   1.809   5.839   2.560
 9798WAT    EPW39900   1.856   5.886   2.601
 9799WAT      O39901   2.783   5.711   2.021
 9799WAT     H139902   2.842   5.771   2.044
 9799WAT     H239903   2.731   5.753   1.965
 9799WAT    EPW39904   2.784   5.726   2.016
 9800WAT      O39905   2.782   6.544   1.749
 9800WAT     H139906   2.768   6.465   1.783
 9800WAT     H239907   2.820   6.527   1.672
 9800WAT    EPW39908   2.786   6.530   1.742
 9801WAT      O39909   1.581   6.296   1.428
 9801WAT     H139910   1.580   6.276   1.513
 9801WAT     H239911   1.579   6.218   1.389
 9801WAT    EPW39912   1.580   6.282   1.435
 9802WAT      O39913   1.869   6.132   1.229
 9802WAT     H139914   1.794   6.091   1.247
 9802WAT     H239915   1.854   6.214   1.253
 9802WAT    EPW39916   1.856   6.138   1.235
 9803WAT      O39917   1.855   5.194   2.468
 9803WAT     H139918   1.772   5.172   2.485
 9803WAT     H239919   1.901   5.128   2.501
 9803WAT    EPW39920   1.850   5.181   2.475
 9804WAT      O39921   3.041   5.023   2.542
 9804WAT     H139922   3.048   5.048   2.626
 9804WAT     H239923   3.122   4.999   2.521
 9804WAT    EPW39924   3.054   5.023   2.551
 9805WAT      O39925   2.239   5.184   2.221
 9805WAT     H139926   2.171   5.130   2.223
 9805WAT     H239927   2.305   5.135   2.250
 9805WAT    EPW39928   2.239   5.169   2.226
 9806WAT      O39929   2.451   6.343   2.424
 9806WAT     H139930   2.500   6.401   2.467
 9806WAT     H239931   2.442   6.377   2.344
 9806WAT    EPW39932   2.457   6.356   2.418
 9807WAT      O39933   2.426   6.665   2.944
 9807WAT     H139934   2.347   6.658   2.908
 9807WAT     H239935   2.443   6.751   2.940
 9807WAT    EPW39936   2.416   6.677   2.938
 9808WAT      O39937   2.038   5.700   2.741
 9808WAT     H139938   1.994   5.626   2.731
 9808WAT     H239939   1.989   5.760   2.701
 9808WAT    EPW39940   2.025   5.698   2.734
 9809WAT      O39941   2.063   4.997   1.330
 9809WAT     H139942   2.070   5.008   1.243
 9809WAT     H239943   1.976   4.998   1.343
 9809WAT    EPW39944   2.051   4.999   1.319
 9810WAT      O39945   2.996   6.201   2.426
 9810WAT     H139946   2.955   6.132   2.392
 9810WAT     H239947   2.952   6.269   2.394
 9810WAT    EPW39948   2.983   6.201   2.416
 9811WAT      O39949   1.859   6.634   2.824
 9811WAT     H139950   1.843   6.653   2.907
 9811WAT     H239951   1.917   6.569   2.828
 9811WAT    EPW39952   1.865   6.627   2.837
 9812WAT      O39953   2.888   6.438   2.328
 9812WAT     H139954   2.958   6.447   2.277
 9812WAT     H239955   2.825   6.416   2.271
 9812WAT    EPW39956   2.889   6.436   2.312
 9813WAT      O39957   1.585   5.167   2.544
 9813WAT     H139958   1.529   5.103   2.524
 9813WAT     H239959   1.536   5.239   2.541
 9813WAT    EPW39960   1.569   5.168   2.540
 9814WAT      O39961   2.487   5.040   2.220
 9814WAT     H139962   2.552   5.080   2.263
 9814WAT     H239963   2.482   5.085   2.145
 9814WAT    EPW39964   2.496   5.053   2.215
 9815WAT      O39965   1.579   6.536   2.941
 9815WAT     H139966   1.643   6.575   2.986
 9815WAT     H239967   1.539   6.603   2.901
 9815WAT    EPW39968   1.582   6.552   2.942
 9816WAT      O39969   2.425   5.627   1.922
 9816WAT     H139970   2.475   5.556   1.934
 9816WAT     H239971   2.388   5.638   2.000
 9816WAT    EPW39972   2.427   5.618   1.935
 9817WAT      O39973   1.430   5.491   1.878
 9817WAT     H139974   1.393   5.515   1.953
 9817WAT     H239975   1.473   5.417   1.898
 9817WAT    EPW39976   1.431   5.484   1.892
 9818WAT      O39977   1.436   6.305   2.666
 9818WAT     H139978   1.383   6.366   2.700
 9818WAT     H239979   1.515   6.342   2.671
 9818WAT    EPW39980   1.440   6.320   2.672
 9819WAT      O39981   2.628   5.765   1.570
 9819WAT     H139982   2.647   5.682   1.587
 9819WAT     H239983   2.553   5.760   1.527
 9819WAT    EPW39984   2.620   5.752   1.566
 9820WAT      O39985   1.617   6.631   1.533
 9820WAT     H139986   1.574   6.604   1.462
 9820WAT     H239987   1.691   6.584   1.532
 9820WAT    EPW39988   1.622   6.620   1.522
 9821WAT      O39989   2.001   5.843   1.503
 9821WAT     H139990   2.027   5.874   1.426
 9821WAT     H239991   2.075   5.828   1.546
 9821WAT    EPW39992   2.016   5.845   1.498
 9822WAT      O39993   2.901   6.699   1.186
 9822WAT     H139994   2.969   6.693   1.240
 9822WAT     H239995   2.880   6.616   1.170
 9822WAT    EPW39996   2.908   6.686   1.192
 9823WAT      O39997   3.028   6.090   2.951
 9823WAT     H139998   3.056   6.011   2.975
 9823WAT     H239999   3.042   6.092   2.865
 9823WAT    EPW40000   3.034   6.079   2.942
 9824WAT      O40001   2.535   6.337   1.492
 9824WAT     H140002   2.492   6.334   1.567
 9824WAT     H240003   2.496   6.277   1.442
 9824WAT    EPW40004   2.523   6.328   1.495
 9825WAT      O40005   2.898   5.347   3.143
 9825WAT     H140006   2.911   5.433   3.134
 9825WAT     H240007   2.843   5.327   3.078
 9825WAT    EPW40008   2.892   5.357   3.132
 9826WAT      O40009   2.956   5.395   2.163
 9826WAT     H140010   2.877   5.428   2.179
 9826WAT     H240011   2.958   5.322   2.209
 9826WAT    EPW40012   2.945   5.389   2.172
 9827WAT      O40013   1.922   5.180   2.816
 9827WAT     H140014   1.959   5.144   2.746
 9827WAT     H240015   1.840   5.151   2.813
 9827WAT    EPW40016   1.915   5.170   2.806
 9828WAT      O40017   2.702   6.030   3.087
 9828WAT     H140018   2.781   6.048   3.121
 9828WAT     H240019   2.712   6.049   3.003
 9828WAT    EPW40020   2.715   6.036   3.080
 9829WAT      O40021   1.638   6.553   2.182
 9829WAT     H140022   1.628   6.475   2.146
 9829WAT     H240023   1.601   6.608   2.125
 9829WAT    EPW40024   1.631   6.550   2.168
 9830WAT      O40025   2.186   6.164   1.362
 9830WAT     H140026   2.271   6.147   1.349
 9830WAT     H240027   2.174   6.240   1.320
 9830WAT    EPW40028   2.197   6.173   1.354
 9831WAT      O40029   1.400   6.775   2.527
 9831WAT     H140030   1.408   6.758   2.613
 9831WAT     H240031   1.435   6.705   2.489
 9831WAT    EPW40032   1.406   6.762   2.534
 9832WAT      O40033   2.307   5.644   0.337
 9832WAT     H140034   2.272   5.721   0.361
 9832WAT     H240035   2.371   5.631   0.395
 9832WAT    EPW40036   2.311   5.653   0.349
 9833WAT      O40037   1.353   6.334   0.510
 9833WAT     H140038   1.366   6.328   0.596
 9833WAT     H240039   1.296   6.270   0.493
 9833WAT    EPW40040   1.347   6.323   0.521
 9834WAT      O40041   1.961   6.154   0.969
 9834WAT     H140042   1.938   6.139   1.052
 9834WAT     H240043   1.888   6.139   0.924
 9834WAT    EPW40044   1.947   6.150   0.975
 9835WAT      O40045   1.914   5.433   0.537
 9835WAT     H140046   1.992   5.436   0.496
 9835WAT     H240047   1.891   5.349   0.531
 9835WAT    EPW40048   1.922   5.421   0.530
 9836WAT      O40049   1.941   6.454   0.706
 9836WAT     H140050   1.962   6.509   0.642
 9836WAT     H240051   2.018   6.421   0.732
 9836WAT    EPW40052   1.955   6.457   0.700
 9837WAT      O40053   2.255   5.728   0.904
 9837WAT     H140054   2.168   5.720   0.901
 9837WAT     H240055   2.269   5.773   0.978
 9837WAT    EPW40056   2.244   5.733   0.915
 9838WAT      O40057   2.681   4.902   0.805
 9838WAT     H140058   2.671   4.982   0.771
 9838WAT     H240059   2.612   4.893   0.858
 9838WAT    EPW40060   2.670   4.912   0.808
 9839WAT      O40061   1.315   5.655   0.299
 9839WAT     H140062   1.284   5.736   0.307
 9839WAT     H240063   1.251   5.605   0.330
 9839WAT    EPW40064   1.301   5.659   0.305
 9840WAT      O40065   1.552   5.077   0.367
 9840WAT     H140066   1.566   5.138   0.307
 9840WAT     H240067   1.612   5.016   0.348
 9840WAT    EPW40068   1.563   5.077   0.355
 9841WAT      O40069   1.930   5.320   1.185
 9841WAT     H140070   1.924   5.283   1.106
 9841WAT     H240071   1.972   5.395   1.169
 9841WAT    EPW40072   1.935   5.326   1.171
 9842WAT      O40073   2.539   6.617   0.588
 9842WAT     H140074   2.599   6.651   0.641
 9842WAT     H240075   2.568   6.637   0.509
 9842WAT    EPW40076   2.552   6.625   0.584
 9843WAT      O40077   1.523   5.240   1.105
 9843WAT     H140078   1.443   5.206   1.099
 9843WAT     H240079   1.564   5.208   1.034
 9843WAT    EPW40080   1.517   5.230   1.093
 9844WAT      O40081   2.094   5.032   1.057
 9844WAT     H140082   2.111   4.958   1.015
 9844WAT     H240083   2.023   5.063   1.017
 9844WAT    EPW40084   2.086   5.025   1.045
 9845WAT      O40085   1.737   6.697   0.606
 9845WAT     H140086   1.763   6.686   0.689
 9845WAT     H240087   1.681   6.632   0.594
 9845WAT    EPW40088   1.732   6.686   0.616
 9846WAT      O40089   3.012   5.223   0.454
 9846WAT     H140090   3.065   5.172   0.407
 9846WAT     H240091   3.007   5.181   0.531
 9846WAT    EPW40092   3.019   5.209   0.459
 9847WAT      O40093   1.271   5.346   0.854
 9847WAT     H140094   1.257   5.425   0.887
 9847WAT     H240095   1.327   5.360   0.789
 9847WAT    EPW40096   1.277   5.360   0.850
 9848WAT      O40097   2.426   6.429   0.892
 9848WAT     H140098   2.415   6.438   0.978
 9848WAT     H240099   2.512   6.412   0.884
 9848WAT    EPW40100   2.437   6.428   0.904
 9849WAT      O40101   1.543   6.532   0.480
 9849WAT     H140102   1.489   6.466   0.491
 9849WAT     H240103   1.572   6.521   0.398
 9849WAT    EPW40104   1.540   6.521   0.469
 9850WAT      O40105   2.278   6.676   0.649
 9850WAT     H140106   2.356   6.647   0.623
 9850WAT     H240107   2.223   6.643   0.590
 9850WAT    EPW40108   2.281   6.667   0.636
 9851WAT      O40109   1.679   6.397   0.825
 9851WAT     H140110   1.755   6.429   0.797
 9851WAT     H240111   1.666   6.439   0.901
 9851WAT    EPW40112   1.688   6.408   0.832
 9852WAT      O40113   1.891   6.041   0.244
 9852WAT     H140114   1.902   6.008   0.324
 9852WAT     H240115   1.878   5.971   0.194
 9852WAT    EPW40116   1.890   6.026   0.249
 9853WAT      O40117   2.464   5.347   0.663
 9853WAT     H140118   2.453   5.397   0.734
 9853WAT     H240119   2.396   5.294   0.664
 9853WAT    EPW40120   2.453   5.347   0.674
 9854WAT      O40121   1.953   5.985   0.511
 9854WAT     H140122   1.942   6.070   0.525
 9854WAT     H240123   1.928   5.948   0.586
 9854WAT    EPW40124   1.948   5.992   0.524
 9855WAT      O40125   2.534   6.088   0.455
 9855WAT     H140126   2.485   6.044   0.513
 9855WAT     H240127   2.526   6.171   0.480
 9855WAT    EPW40128   2.526   6.094   0.467
 9856WAT      O40129   1.248   6.380   1.155
 9856WAT     H140130   1.306   6.428   1.198
 9856WAT     H240131   1.259   6.300   1.189
 9856WAT    EPW40132   1.258   6.375   1.166
 9857WAT      O40133   2.871   5.372   0.751
 9857WAT     H140134   2.953   5.353   0.774
 9857WAT     H240135   2.830   5.381   0.827
 9857WAT    EPW40136   2.877   5.371   0.766
 9858WAT      O40137   1.512   5.480   0.389
 9858WAT     H140138   1.590   5.516   0.375
 9858WAT     H240139   1.457   5.535   0.352
 9858WAT    EPW40140   1.516   5.493   0.382
 9859WAT      O40141   3.138   6.513   0.897
 9859WAT     H140142   3.061   6.519   0.857
 9859WAT     H240143   3.121   6.470   0.970
 9859WAT    EPW40144   3.124   6.507   0.902
 9860WAT      O40145   2.065   5.565   1.162
 9860WAT     H140146   2.017   5.595   1.229
 9860WAT     H240147   2.038   5.614   1.095
 9860WAT    EPW40148   2.054   5.577   1.162
 9861WAT      O40149   3.142   5.630   0.639
 9861WAT     H140150   3.203   5.567   0.637
 9861WAT     H240151   3.083   5.603   0.580
 9861WAT    EPW40152   3.142   5.616   0.630
 9862WAT      O40153   1.673   6.196   0.341
 9862WAT     H140154   1.719   6.219   0.411
 9862WAT     H240155   1.730   6.150   0.294
 9862WAT    EPW40156   1.689   6.193   0.344
 9863WAT      O40157   2.884   6.534   0.771
 9863WAT     H140158   2.831   6.604   0.775
 9863WAT     H240159   2.874   6.506   0.688
 9863WAT    EPW40160   2.874   6.540   0.759
 9864WAT      O40161   1.618   5.696   1.039
 9864WAT     H140162   1.581   5.634   1.087
 9864WAT     H240163   1.616   5.664   0.958
 9864WAT    EPW40164   1.612   5.682   1.034
 9865WAT      O40165   1.666   5.772   0.567
 9865WAT     H140166   1.699   5.724   0.501
 9865WAT     H240167   1.617   5.832   0.526
 9865WAT    EPW40168   1.663   5.774   0.551
 9866WAT      O40169   2.724   5.502   0.361
 9866WAT     H140170   2.664   5.531   0.416
 9866WAT     H240171   2.691   5.519   0.282
 9866WAT    EPW40172   2.711   5.509   0.357
 9867WAT      O40173   2.049   6.610   0.500
 9867WAT     H140174   2.040   6.553   0.434
 9867WAT     H240175   2.029   6.687   0.463
 9867WAT    EPW40176   2.045   6.613   0.485
 9868WAT      O40177   2.284   5.119   0.690
 9868WAT     H140178   2.300   5.035   0.677
 9868WAT     H240179   2.301   5.131   0.774
 9868WAT    EPW40180   2.289   5.109   0.700
 9869WAT      O40181   1.468   5.922   1.084
 9869WAT     H140182   1.465   5.966   1.009
 9869WAT     H240183   1.518   5.854   1.066
 9869WAT    EPW40184   1.475   5.919   1.070
 9870WAT      O40185   2.638   6.103   0.936
 9870WAT     H140186   2.663   6.185   0.921
 9870WAT     H240187   2.669   6.059   0.866
 9870WAT    EPW40188   2.646   6.109   0.923
 9871WAT      O40189   2.028   6.427   1.008
 9871WAT     H140190   2.066   6.422   1.087
 9871WAT     H240191   2.009   6.344   0.990
 9871WAT    EPW40192   2.031   6.414   1.017
 9872WAT      O40193   2.144   5.424   0.390
 9872WAT     H140194   2.198   5.488   0.366
 9872WAT     H240195   2.192   5.352   0.381
 9872WAT    EPW40196   2.159   5.423   0.385
 9873WAT      O40197   2.643   6.377   0.237
 9873WAT     H140198   2.569   6.349   0.201
 9873WAT     H240199   2.633   6.464   0.239
 9873WAT    EPW40200   2.631   6.386   0.232
 9874WAT      O40201   2.426   6.193   0.207
 9874WAT     H140202   2.340   6.179   0.215
 9874WAT     H240203   2.461   6.145   0.271
 9874WAT    EPW40204   2.418   6.184   0.217
 9875WAT      O40205   2.751   5.959   0.722
 9875WAT     H140206   2.751   5.937   0.637
 9875WAT     H240207   2.835   5.976   0.739
 9875WAT    EPW40208   2.763   5.958   0.712
 9876WAT      O40209   2.409   6.540   1.160
 9876WAT     H140210   2.441   6.561   1.238
 9876WAT     H240211   2.428   6.609   1.110
 9876WAT    EPW40212   2.416   6.553   1.164
 9877WAT      O40213   2.905   4.988   0.945
 9877WAT     H140214   2.829   4.967   0.908
 9877WAT     H240215   2.902   4.949   1.023
 9877WAT    EPW40216   2.894   4.979   0.951
 9878WAT      O40217   2.360   5.967   0.639
 9878WAT     H140218   2.310   6.000   0.703
 9878WAT     H240219   2.403   5.901   0.678
 9878WAT    EPW40220   2.359   5.962   0.654
 9879WAT      O40221   2.790   6.193   0.383
 9879WAT     H140222   2.756   6.244   0.321
 9879WAT     H240223   2.722   6.144   0.408
 9879WAT    EPW40224   2.775   6.193   0.378
 9880WAT      O40225   2.161   6.133   0.287
 9880WAT     H140226   2.080   6.119   0.259
 9880WAT     H240227   2.183   6.058   0.326
 9880WAT    EPW40228   2.153   6.120   0.288
 9881WAT      O40229   1.509   5.969   0.430
 9881WAT     H140230   1.549   6.044   0.410
 9881WAT     H240231   1.457   5.956   0.361
 9881WAT    EPW40232   1.507   5.979   0.417
 9882WAT      O40233   2.779   5.834   0.471
 9882WAT     H140234   2.792   5.763   0.521
 9882WAT     H240235   2.697   5.823   0.442
 9882WAT    EPW40236   2.769   5.822   0.474
 9883WAT      O40237   1.459   6.055   0.845
 9883WAT     H140238   1.423   6.005   0.783
 9883WAT     H240239   1.429   6.135   0.826
 9883WAT    EPW40240   1.449   6.060   0.833
 9884WAT      O40241   3.012   5.913   0.340
 9884WAT     H140242   2.941   5.885   0.381
 9884WAT     H240243   2.981   5.960   0.274
 9884WAT    EPW40244   2.997   5.916   0.336
 9885WAT      O40245   2.692   5.335   0.975
 9885WAT     H140246   2.622   5.335   1.028
 9885WAT     H240247   2.673   5.273   0.917
 9885WAT    EPW40248   2.679   5.326   0.975
 9886WAT      O40249   3.067   6.503   0.376
 9886WAT     H140250   3.113   6.534   0.309
 9886WAT     H240251   3.125   6.457   0.422
 9886WAT    EPW40252   3.083   6.501   0.373
 9887WAT      O40253   2.560   5.681   1.086
 9887WAT     H140254   2.604   5.687   1.161
 9887WAT     H240255   2.491   5.732   1.099
 9887WAT    EPW40256   2.556   5.690   1.099
 9888WAT      O40257   2.791   5.709   0.925
 9888WAT     H140258   2.817   5.789   0.948
 9888WAT     H240259   2.720   5.695   0.974
 9888WAT    EPW40260   2.785   5.718   0.935
 9889WAT      O40261   3.114   5.789   1.108
 9889WAT     H140262   3.116   5.734   1.040
 9889WAT     H240263   3.192   5.828   1.105
 9889WAT    EPW40264   3.126   5.786   1.098
 9890WAT      O40265   3.016   6.033   0.762
 9890WAT     H140266   3.081   5.979   0.740
 9890WAT     H240267   3.014   6.089   0.695
 9890WAT    EPW40268   3.025   6.033   0.749
 9891WAT      O40269   1.890   6.258   0.513
 9891WAT     H140270   1.899   6.311   0.582
 9891WAT     H240271   1.921   6.306   0.447
 9891WAT    EPW40272   1.896   6.273   0.513
 9892WAT      O40273   1.726   6.121   0.822
 9892WAT     H140274   1.645   6.091   0.832
 9892WAT     H240275   1.716   6.207   0.815
 9892WAT    EPW40276   1.713   6.129   0.822
 9893WAT      O40277   2.669   5.175   0.742
 9893WAT     H140278   2.741   5.218   0.719
 9893WAT     H240279   2.605   5.221   0.706
 9893WAT    EPW40280   2.670   5.188   0.733
 9894WAT      O40281   2.203   5.895   0.426
 9894WAT     H140282   2.255   5.914   0.493
 9894WAT     H240283   2.122   5.907   0.458
 9894WAT    EPW40284   2.199   5.899   0.441
 9895WAT      O40285   1.867   5.464   0.807
 9895WAT     H140286   1.875   5.385   0.843
 9895WAT     H240287   1.892   5.452   0.725
 9895WAT    EPW40288   1.872   5.450   0.800
 9896WAT      O40289   2.782   4.959   0.504
 9896WAT     H140290   2.751   5.039   0.487
 9896WAT     H240291   2.850   4.973   0.556
 9896WAT    EPW40292   2.787   4.973   0.509
 9897WAT      O40293   2.011   5.057   0.739
 9897WAT     H140294   2.097   5.059   0.723
 9897WAT     H240295   1.997   4.975   0.765
 9897WAT    EPW40296   2.021   5.045   0.740
 9898WAT      O40297   1.947   6.431   0.298
 9898WAT     H140298   1.867   6.447   0.265
 9898WAT     H240299   1.994   6.409   0.228
 9898WAT    EPW40300   1.942   6.430   0.283
 9899WAT      O40301   2.383   6.103   1.038
 9899WAT     H140302   2.461   6.104   0.999
 9899WAT     H240303   2.327   6.110   0.972
 9899WAT    EPW40304   2.387   6.104   1.022
 9900WAT      O40305   2.704   6.373   0.909
 9900WAT     H140306   2.740   6.390   0.987
 9900WAT     H240307   2.757   6.413   0.853
 9900WAT    EPW40308   2.717   6.381   0.912
 9901WAT      O40309   1.766   5.597   0.371
 9901WAT     H140310   1.804   5.592   0.293
 9901WAT     H240311   1.816   5.545   0.421
 9901WAT    EPW40312   1.779   5.588   0.367
 9902WAT      O40313   2.447   5.537   0.867
 9902WAT     H140314   2.375   5.586   0.876
 9902WAT     H240315   2.489   5.547   0.942
 9902WAT    EPW40316   2.442   5.545   0.879
 9903WAT      O40317   2.512   5.582   0.516
 9903WAT     H140318   2.524   5.639   0.581
 9903WAT     H240319   2.493   5.508   0.556
 9903WAT    EPW40320   2.511   5.580   0.531
 9904WAT      O40321   2.172   6.645   0.903
 9904WAT     H140322   2.200   6.630   0.821
 9904WAT     H240323   2.138   6.568   0.926
 9904WAT    EPW40324   2.171   6.631   0.894
 9905WAT      O40325   2.010   5.016   0.373
 9905WAT     H140326   1.963   5.070   0.423
 9905WAT     H240327   1.950   4.979   0.321
 9905WAT    EPW40328   1.994   5.018   0.373
 9906WAT      O40329   2.201   6.104   0.830
 9906WAT     H140330   2.125   6.101   0.873
 9906WAT     H240331   2.202   6.185   0.798
 9906WAT    EPW40332   2.190   6.115   0.832
 9907WAT      O40333   1.278   5.124   1.019
 9907WAT     H140334   1.276   5.193   0.966
 9907WAT     H240335   1.205   5.081   0.998
 9907WAT    EPW40336   1.267   5.127   1.008
 9908WAT      O40337   1.733   6.753   0.325
 9908WAT     H140338   1.738   6.736   0.410
 9908WAT     H240339   1.714   6.676   0.289
 9908WAT    EPW40340   1.731   6.739   0.332
 9909WAT      O40341   2.202   6.363   0.739
 9909WAT     H140342   2.277   6.387   0.776
 9909WAT     H240343   2.221   6.360   0.654
 9909WAT    EPW40344   2.216   6.366   0.732
 9910WAT      O40345   3.060   5.613   0.902
 9910WAT     H140346   2.974   5.627   0.908
 9910WAT     H240347   3.078   5.627   0.818
 9910WAT    EPW40348   3.050   5.617   0.891
 9911WAT      O40349   2.534   5.767   0.722
 9911WAT     H140350   2.517   5.707   0.784
 9911WAT     H240351   2.605   5.807   0.752
 9911WAT    EPW40352   2.542   5.764   0.736
 9912WAT      O40353   1.422   6.737   0.930
 9912WAT     H140354   1.362   6.676   0.914
 9912WAT     H240355   1.374   6.805   0.958
 9912WAT    EPW40356   1.406   6.738   0.932
 9913WAT      O40357   2.328   5.855   1.145
 9913WAT     H140358   2.352   5.933   1.114
 9913WAT     H240359   2.247   5.869   1.174
 9913WAT    EPW40360   2.319   5.868   1.145
 9914WAT      O40361   2.623   6.647   0.319
 9914WAT     H140362   2.582   6.721   0.301
 9914WAT     H240363   2.696   6.672   0.359
 9914WAT    EPW40364   2.627   6.661   0.322
 9915WAT      O40365   2.237   6.345   0.465
 9915WAT     H140366   2.213   6.279   0.412
 9915WAT     H240367   2.323   6.348   0.456
 9915WAT    EPW40368   2.246   6.336   0.456
 9916WAT      O40369   2.849   6.433   1.140
 9916WAT     H140370   2.933   6.411   1.138
 9916WAT     H240371   2.819   6.396   1.213
 9916WAT    EPW40372   2.857   6.424   1.150
 9917WAT      O40373   1.622   5.591   0.778
 9917WAT     H140374   1.634   5.651   0.716
 9917WAT     H240375   1.700   5.553   0.785
 9917WAT    EPW40376   1.635   5.594   0.770
 9918WAT      O40377   1.453   5.418   0.648
 9918WAT     H140378   1.471   5.433   0.564
 9918WAT     H240379   1.510   5.468   0.690
 9918WAT    EPW40380   1.464   5.428   0.642
 9919WAT      O40381   1.633   5.100   0.890
 9919WAT     H140382   1.593   5.022   0.900
 9919WAT     H240383   1.617   5.121   0.807
 9919WAT    EPW40384   1.625   5.091   0.879
 9920WAT      O40385   2.819   5.631   0.656
 9920WAT     H140386   2.835   5.546   0.668
 9920WAT     H240387   2.803   5.661   0.736
 9920WAT    EPW40388   2.819   5.623   0.669
 9921WAT      O40389   1.348   5.894   0.650
 9921WAT     H140390   1.390   5.916   0.577
 9921WAT     H240391   1.331   5.809   0.638
 9921WAT    EPW40392   1.351   5.884   0.637
 9922WAT      O40393   2.330   5.150   0.962
 9922WAT     H140394   2.367   5.208   1.015
 9922WAT     H240395   2.257   5.127   1.004
 9922WAT    EPW40396   2.324   5.155   0.976
 9923WAT      O40397   2.735   5.225   0.406
 9923WAT     H140398   2.822   5.220   0.409
 9923WAT     H240399   2.719   5.310   0.397
 9923WAT    EPW40400   2.745   5.237   0.405
 9924WAT      O40401   1.849   5.878   0.746
 9924WAT     H140402   1.813   5.953   0.774
 9924WAT     H240403   1.788   5.844   0.695
 9924WAT    EPW40404   1.835   5.884   0.743
 9925WAT      O40405   1.852   5.167   0.544
 9925WAT     H140406   1.767   5.158   0.564
 9925WAT     H240407   1.893   5.127   0.609
 9925WAT    EPW40408   1.845   5.160   0.556
 9926WAT      O40409   2.991   5.047   0.674
 9926WAT     H140410   2.970   5.035   0.758
 9926WAT     H240411   3.072   5.015   0.669
 9926WAT    EPW40412   3.000   5.040   0.686
 9927WAT      O40413   2.259   5.163   0.405
 9927WAT     H140414   2.191   5.115   0.381
 9927WAT     H240415   2.263   5.153   0.491
 9927WAT    EPW40416   2.250   5.154   0.414
 9928WAT      O40417   2.515   6.360   0.485
 9928WAT     H140418   2.531   6.430   0.534
 9928WAT     H240419   2.560   6.376   0.412
 9928WAT    EPW40420   2.524   6.373   0.481
 9929WAT      O40421   2.454   6.732   0.959
 9929WAT     H140422   2.394   6.682   0.921
 9929WAT     H240423   2.416   6.810   0.965
 9929WAT    EPW40424   2.440   6.736   0.954
 9930WAT      O40425   1.980   5.692   0.919
 9930WAT     H140426   1.947   5.620   0.883
 9930WAT     H240427   1.941   5.757   0.876
 9930WAT    EPW40428   1.969   5.691   0.908
 9931WAT      O40429   3.034   6.140   0.502
 9931WAT     H140430   3.047   6.063   0.462
 9931WAT     H240431   2.959   6.168   0.468
 9931WAT    EPW40432   3.025   6.133   0.491
 9932WAT      O40433   1.859   6.667   0.869
 9932WAT     H140434   1.854   6.663   0.956
 9932WAT     H240435   1.905   6.595   0.848
 9932WAT    EPW40436   1.865   6.656   0.879
 9933WAT      O40437   2.836   6.442   0.517
 9933WAT     H140438   2.902   6.469   0.466
 9933WAT     H240439   2.815   6.365   0.483
 9933WAT    EPW40440   2.843   6.434   0.504
 9934WAT      O40441   1.584   5.170   0.629
 9934WAT     H140442   1.556   5.129   0.558
 9934WAT     H240443   1.538   5.245   0.629
 9934WAT    EPW40444   1.573   5.175   0.619
 9935WAT      O40445   2.512   5.067   0.307
 9935WAT     H140446   2.571   5.125   0.334
 9935WAT     H240447   2.436   5.103   0.333
 9935WAT    EPW40448   2.509   5.081   0.315
 9936WAT      O40449   1.577   6.540   1.058
 9936WAT     H140450   1.651   6.578   1.083
 9936WAT     H240451   1.532   6.604   1.020
 9936WAT    EPW40452   1.581   6.555   1.056
 9937WAT      O40453   1.412   6.324   0.778
 9937WAT     H140454   1.362   6.385   0.817
 9937WAT     H240455   1.493   6.354   0.790
 9937WAT    EPW40456   1.416   6.337   0.786
 9938WAT      O40457   2.909   5.947   1.012
 9938WAT     H140458   2.977   5.909   1.051
 9938WAT     H240459   2.946   5.990   0.945
 9938WAT    EPW40460   2.924   5.948   1.008
 9939WAT      O40461   2.933   5.385   1.107
 9939WAT     H140462   2.928   5.465   1.143
 9939WAT     H240463   2.852   5.373   1.074
 9939WAT    EPW40464   2.920   5.395   1.107
 9940WAT      O40465   3.001   5.504   0.425
 9940WAT     H140466   2.916   5.513   0.410
 9940WAT     H240467   3.012   5.418   0.435
 9940WAT    EPW40468   2.990   5.493   0.424
 9941WAT      O40469   1.887   5.204   0.930
 9941WAT     H140470   1.931   5.167   0.864
 9941WAT     H240471   1.808   5.169   0.924
 9941WAT    EPW40472   1.882   5.193   0.920
 9942WAT      O40473   2.692   6.009   1.220
 9942WAT     H140474   2.765   6.033   1.261
 9942WAT     H240475   2.710   6.023   1.136
 9942WAT    EPW40476   2.705   6.014   1.214
 9943WAT      O40477   1.669   6.462   0.224
 9943WAT     H140478   1.656   6.379   0.246
 9943WAT     H240479   1.641   6.466   0.141
 9943WAT    EPW40480   1.663   6.450   0.215
 9944WAT      O40481   1.382   6.726   0.629
 9944WAT     H140482   1.435   6.732   0.698
 9944WAT     H240483   1.427   6.677   0.572
 9944WAT    EPW40484   1.396   6.720   0.631
 9945WAT      O40485   2.369   3.149   7.414
 9945WAT     H140486   2.349   3.189   7.339
 9945WAT     H240487   2.455   3.136   7.408
 9945WAT    EPW40488   2.379   3.153   7.402
 9946WAT      O40489   1.297   4.260   7.380
 9946WAT     H140490   1.220   4.256   7.421
 9946WAT     H240491   1.308   4.179   7.350
 9946WAT    EPW40492   1.287   4.248   7.382
 9947WAT      O40493   2.959   4.692   7.171
 9947WAT     H140494   3.022   4.635   7.191
 9947WAT     H240495   2.900   4.643   7.130
 9947WAT    EPW40496   2.960   4.676   7.168
 9948WAT      O40497   1.281   3.613   7.057
 9948WAT     H140498   1.216   3.660   7.025
 9948WAT     H240499   1.254   3.531   7.047
 9948WAT    EPW40500   1.268   3.608   7.051
 9949WAT      O40501   1.581   4.220   6.982
 9949WAT     H140502   1.556   4.172   6.914
 9949WAT     H240503   1.598   4.161   7.044
 9949WAT    EPW40504   1.580   4.204   6.981
 9950WAT      O40505   2.557   3.999   7.544
 9950WAT     H140506   2.565   3.990   7.458
 9950WAT     H240507   2.512   3.928   7.568
 9950WAT    EPW40508   2.551   3.987   7.535
 9951WAT      O40509   1.551   4.378   7.373
 9951WAT     H140510   1.606   4.342   7.431
 9951WAT     H240511   1.477   4.334   7.386
 9951WAT    EPW40512   1.548   4.366   7.384
 9952WAT      O40513   1.976   3.272   7.284
 9952WAT     H140514   1.988   3.343   7.235
 9952WAT     H240515   2.047   3.224   7.269
 9952WAT    EPW40516   1.988   3.275   7.274
 9953WAT      O40517   1.433   4.659   6.961
 9953WAT     H140518   1.482   4.665   6.889
 9953WAT     H240519   1.473   4.598   7.009
 9953WAT    EPW40520   1.446   4.651   6.957
 9954WAT      O40521   1.522   4.018   7.529
 9954WAT     H140522   1.473   4.018   7.457
 9954WAT     H240523   1.577   3.952   7.516
 9954WAT    EPW40524   1.523   4.008   7.517
 9955WAT      O40525   1.680   3.804   7.457
 9955WAT     H140526   1.741   3.772   7.510
 9955WAT     H240527   1.612   3.751   7.469
 9955WAT    EPW40528   1.679   3.791   7.466
 9956WAT      O40529   2.005   4.434   7.626
 9956WAT     H140530   2.041   4.355   7.636
 9956WAT     H240531   2.073   4.488   7.629
 9956WAT    EPW40532   2.020   4.430   7.628
 9957WAT      O40533   2.086   4.333   7.304
 9957WAT     H140534   2.138   4.274   7.341
 9957WAT     H240535   2.109   4.331   7.220
 9957WAT    EPW40536   2.097   4.324   7.297
 9958WAT      O40537   1.729   3.336   7.414
 9958WAT     H140538   1.689   3.391   7.358
 9958WAT     H240539   1.807   3.322   7.376
 9958WAT    EPW40540   1.735   3.342   7.400
 9959WAT      O40541   2.065   3.268   7.550
 9959WAT     H140542   2.048   3.344   7.587
 9959WAT     H240543   2.031   3.275   7.470
 9959WAT    EPW40544   2.058   3.280   7.544
 9960WAT      O40545   2.457   3.437   6.858
 9960WAT     H140546   2.415   3.505   6.892
 9960WAT     H240547   2.472   3.385   6.926
 9960WAT    EPW40548   2.453   3.439   6.873
 9961WAT      O40549   1.454   3.795   7.791
 9961WAT     H140550   1.420   3.875   7.787
 9961WAT     H240551   1.408   3.755   7.854
 9961WAT    EPW40552   1.442   3.801   7.800
 9962WAT      O40553   1.310   4.719   7.625
 9962WAT     H140554   1.245   4.767   7.592
 9962WAT     H240555   1.349   4.686   7.555
 9962WAT    EPW40556   1.306   4.722   7.610
 9963WAT      O40557   1.913   4.554   7.295
 9963WAT     H140558   1.862   4.554   7.366
 9963WAT     H240559   1.966   4.486   7.309
 9963WAT    EPW40560   1.913   4.544   7.308
 9964WAT      O40561   2.509   4.750   7.074
 9964WAT     H140562   2.581   4.799   7.086
 9964WAT     H240563   2.532   4.672   7.105
 9964WAT    EPW40564   2.523   4.746   7.080
 9965WAT      O40565   2.293   4.760   7.242
 9965WAT     H140566   2.310   4.827   7.296
 9965WAT     H240567   2.361   4.761   7.187
 9965WAT    EPW40568   2.306   4.770   7.242
 9966WAT      O40569   1.444   4.633   7.394
 9966WAT     H140570   1.491   4.560   7.406
 9966WAT     H240571   1.499   4.687   7.355
 9966WAT    EPW40572   1.459   4.630   7.390
 9967WAT      O40573   3.018   3.423   7.494
 9967WAT     H140574   2.984   3.496   7.526
 9967WAT     H240575   2.951   3.385   7.454
 9967WAT    EPW40576   3.003   3.428   7.493
 9968WAT      O40577   1.631   4.427   7.739
 9968WAT     H140578   1.658   4.488   7.683
 9968WAT     H240579   1.663   4.353   7.705
 9968WAT    EPW40580   1.640   4.425   7.726
 9969WAT      O40581   1.906   4.806   7.524
 9969WAT     H140582   1.980   4.838   7.555
 9969WAT     H240583   1.846   4.864   7.548
 9969WAT    EPW40584   1.908   4.819   7.532
 9970WAT      O40585   2.237   3.698   7.457
 9970WAT     H140586   2.266   3.642   7.397
 9970WAT     H240587   2.306   3.712   7.507
 9970WAT    EPW40588   2.251   3.692   7.455
 9971WAT      O40589   2.316   3.642   6.994
 9971WAT     H140590   2.346   3.723   7.001
 9971WAT     H240591   2.239   3.652   6.953
 9971WAT    EPW40592   2.309   3.655   6.989
 9972WAT      O40593   2.723   4.931   7.081
 9972WAT     H140594   2.767   4.913   7.007
 9972WAT     H240595   2.785   4.963   7.134
 9972WAT    EPW40596   2.739   4.933   7.078
 9973WAT      O40597   2.175   4.587   6.900
 9973WAT     H140598   2.138   4.647   6.952
 9973WAT     H240599   2.250   4.624   6.877
 9973WAT    EPW40600   2.181   4.601   6.904
 9974WAT      O40601   2.527   3.278   7.075
 9974WAT     H140602   2.587   3.216   7.068
 9974WAT     H240603   2.564   3.338   7.126
 9974WAT    EPW40604   2.541   3.278   7.081
 9975WAT      O40605   1.351   3.397   7.327
 9975WAT     H140606   1.336   3.312   7.312
 9975WAT     H240607   1.304   3.413   7.399
 9975WAT    EPW40608   1.342   3.387   7.336
 9976WAT      O40609   2.321   3.531   7.249
 9976WAT     H140610   2.284   3.453   7.237
 9976WAT     H240611   2.312   3.570   7.172
 9976WAT    EPW40612   2.315   3.525   7.236
 9977WAT      O40613   2.270   3.260   7.175
 9977WAT     H140614   2.213   3.249   7.110
 9977WAT     H240615   2.348   3.260   7.134
 9977WAT    EPW40616   2.273   3.258   7.159
 9978WAT      O40617   2.996   4.855   7.532
 9978WAT     H140618   2.959   4.934   7.521
 9978WAT     H240619   2.939   4.801   7.494
 9978WAT    EPW40620   2.982   4.859   7.525
 9979WAT      O40621   2.081   3.540   7.627
 9979WAT     H140622   2.122   3.591   7.569
 9979WAT     H240623   2.109   3.570   7.704
 9979WAT    EPW40624   2.092   3.552   7.630
 9980WAT      O40625   2.716   4.455   7.466
 9980WAT     H140626   2.781   4.397   7.471
 9980WAT     H240627   2.645   4.407   7.477
 9980WAT    EPW40628   2.715   4.440   7.468
 9981WAT      O40629   1.654   3.095   7.534
 9981WAT     H140630   1.671   3.176   7.507
 9981WAT     H240631   1.644   3.050   7.460
 9981WAT    EPW40632   1.655   3.100   7.519
 9982WAT      O40633   2.642   3.097   7.438
 9982WAT     H140634   2.640   3.090   7.524
 9982WAT     H240635   2.673   3.021   7.411
 9982WAT    EPW40636   2.646   3.085   7.446
 9983WAT      O40637   1.633   3.463   7.640
 9983WAT     H140638   1.662   3.416   7.573
 9983WAT     H240639   1.569   3.413   7.673
 9983WAT    EPW40640   1.628   3.448   7.635
 9984WAT      O40641   2.897   4.266   7.045
 9984WAT     H140642   2.890   4.213   7.114
 9984WAT     H240643   2.983   4.272   7.033
 9984WAT    EPW40644   2.909   4.259   7.053
 9985WAT      O40645   1.703   4.223   7.554
 9985WAT     H140646   1.764   4.200   7.495
 9985WAT     H240647   1.647   4.156   7.554
 9985WAT    EPW40648   1.704   4.210   7.545
 9986WAT      O40649   1.535   4.825   7.748
 9986WAT     H140650   1.462   4.797   7.712
 9986WAT     H240651   1.578   4.863   7.683
 9986WAT    EPW40652   1.531   4.826   7.733
 9987WAT      O40653   2.641   3.915   6.887
 9987WAT     H140654   2.649   4.002   6.884
 9987WAT     H240655   2.575   3.903   6.943
 9987WAT    EPW40656   2.633   3.926   6.895
 9988WAT      O40657   1.861   4.154   7.331
 9988WAT     H140658   1.916   4.221   7.320
 9988WAT     H240659   1.905   4.086   7.297
 9988WAT    EPW40660   1.876   4.154   7.324
 9989WAT      O40661   3.045   3.323   6.871
 9989WAT     H140662   3.017   3.294   6.948
 9989WAT     H240663   3.018   3.406   6.869
 9989WAT    EPW40664   3.037   3.331   6.882
 9990WAT      O40665   1.381   4.319   7.813
 9990WAT     H140666   1.337   4.391   7.834
 9990WAT     H240667   1.459   4.349   7.787
 9990WAT    EPW40668   1.386   4.334   7.812
 9991WAT      O40669   1.378   4.010   7.293
 9991WAT     H140670   1.363   3.925   7.292
 9991WAT     H240671   1.453   4.018   7.249
 9991WAT    EPW40672   1.387   3.999   7.286
 9992WAT      O40673   2.938   3.257   7.128
 9992WAT     H140674   3.008   3.219   7.164
 9992WAT     H240675   2.897   3.293   7.196
 9992WAT    EPW40676   2.943   3.257   7.144
 9993WAT      O40677   2.234   4.598   7.625
 9993WAT     H140678   2.216   4.683   7.624
 9993WAT     H240679   2.259   4.580   7.544
 9993WAT    EPW40680   2.235   4.608   7.613
 9994WAT      O40681   1.273   4.487   7.228
 9994WAT     H140682   1.327   4.540   7.271
 9994WAT     H240683   1.270   4.416   7.278
 9994WAT    EPW40684   1.280   4.484   7.241
 9995WAT      O40685   2.574   3.516   7.665
 9995WAT     H140686   2.596   3.470   7.736
 9995WAT     H240687   2.509   3.470   7.630
 9995WAT    EPW40688   2.568   3.503   7.671
 9996WAT      O40689   1.293   4.315   7.003
 9996WAT     H140690   1.370   4.275   7.000
 9996WAT     H240691   1.302   4.372   7.069
 9996WAT    EPW40692   1.306   4.318   7.012
 9997WAT      O40693   1.353   4.052   7.746
 9997WAT     H140694   1.404   4.046   7.675
 9997WAT     H240695   1.369   4.132   7.775
 9997WAT    EPW40696   1.363   4.063   7.739
 9998WAT      O40697   2.012   3.477   7.110
 9998WAT     H140698   2.004   3.459   7.025
 9998WAT     H240699   1.976   3.556   7.118
 9998WAT    EPW40700   2.005   3.486   7.099
 9999WAT      O40701   1.777   4.562   7.541
 9999WAT     H140702   1.810   4.643   7.545
 9999WAT     H240703   1.842   4.512   7.572
 9999WAT    EPW40704   1.792   4.566   7.546
10000WAT      O40705   1.613   3.762   7.129
10000WAT     H140706   1.597   3.696   7.185
10000WAT     H240707   1.581   3.732   7.053
10000WAT    EPW40708   1.606   3.748   7.126
10001WAT      O40709   1.731   3.835   7.853
10001WAT     H140710   1.646   3.826   7.837
10001WAT     H240711   1.770   3.785   7.793
10001WAT    EPW40712   1.725   3.826   7.842
10002WAT      O40713   2.595   3.479   7.257
10002WAT     H140714   2.635   3.556   7.263
10002WAT     H240715   2.511   3.498   7.265
10002WAT    EPW40716   2.589   3.493   7.259
10003WAT      O40717   2.408   3.903   7.055
10003WAT     H140718   2.368   3.948   6.991
10003WAT     H240719   2.352   3.909   7.122
10003WAT    EPW40720   2.394   3.910   7.055
10004WAT      O40721   2.912   4.254   7.474
10004WAT     H140722   2.917   4.203   7.544
10004WAT     H240723   2.884   4.200   7.411
10004WAT    EPW40724   2.909   4.239   7.475
10005WAT      O40725   2.358   4.379   7.753
10005WAT     H140726   2.325   4.453   7.719
10005WAT     H240727   2.397   4.405   7.826
10005WAT    EPW40728   2.359   4.394   7.759
10006WAT      O40729   1.893   4.873   7.258
10006WAT     H140730   1.903   4.841   7.338
10006WAT     H240731   1.946   4.824   7.209
10006WAT    EPW40732   1.902   4.861   7.262
10007WAT      O40733   1.805   3.159   7.083
10007WAT     H140734   1.845   3.184   7.157
10007WAT     H240735   1.762   3.230   7.058
10007WAT    EPW40736   1.805   3.173   7.090
10008WAT      O40737   2.079   4.777   7.075
10008WAT     H140738   2.145   4.768   7.132
10008WAT     H240739   2.092   4.855   7.039
10008WAT    EPW40740   2.090   4.787   7.078
10009WAT      O40741   1.632   4.040   7.185
10009WAT     H140742   1.643   3.954   7.177
10009WAT     H240743   1.697   4.065   7.237
10009WAT    EPW40744   1.643   4.031   7.191
10010WAT      O40745   1.279   3.127   7.274
10010WAT     H140746   1.280   3.075   7.204
10010WAT     H240747   1.243   3.078   7.336
10010WAT    EPW40748   1.274   3.112   7.273
10011WAT      O40749   2.253   3.920   7.285
10011WAT     H140750   2.261   3.990   7.335
10011WAT     H240751   2.243   3.855   7.343
10011WAT    EPW40752   2.252   3.920   7.301
10012WAT      O40753   1.687   3.391   6.995
10012WAT     H140754   1.626   3.385   6.934
10012WAT     H240755   1.755   3.426   6.953
10012WAT    EPW40756   1.688   3.395   6.980
10013WAT      O40757   2.153   4.200   7.684
10013WAT     H140758   2.114   4.160   7.751
10013WAT     H240759   2.216   4.247   7.722
10013WAT    EPW40760   2.157   4.201   7.700
10014WAT      O40761   1.788   4.782   6.870
10014WAT     H140762   1.815   4.716   6.920
10014WAT     H240763   1.805   4.853   6.919
10014WAT    EPW40764   1.795   4.783   6.885
10015WAT      O40765   1.827   3.662   7.651
10015WAT     H140766   1.902   3.620   7.636
10015WAT     H240767   1.769   3.597   7.658
10015WAT    EPW40768   1.830   3.646   7.650
10016WAT      O40769   3.111   4.866   7.001
10016WAT     H140770   3.179   4.815   6.984
10016WAT     H240771   3.070   4.824   7.065
10016WAT    EPW40772   3.115   4.852   7.008
10017WAT      O40773   1.326   3.737   7.311
10017WAT     H140774   1.360   3.698   7.381
10017WAT     H240775   1.330   3.676   7.249
10017WAT    EPW40776   1.332   3.723   7.312
10018WAT      O40777   1.874   3.855   6.867
10018WAT     H140778   1.855   3.812   6.940
10018WAT     H240779   1.801   3.847   6.819
10018WAT    EPW40780   1.860   3.848   6.871
10019WAT      O40781   2.948   4.104   7.705
10019WAT     H140782   2.939   4.159   7.772
10019WAT     H240783   3.033   4.086   7.705
10019WAT    EPW40784   2.959   4.109   7.715
10020WAT      O40785   1.884   3.723   7.112
10020WAT     H140786   1.920   3.794   7.148
10020WAT     H240787   1.800   3.730   7.133
10020WAT    EPW40788   1.877   3.734   7.121
10021WAT      O40789   1.410   3.316   7.712
10021WAT     H140790   1.334   3.332   7.672
10021WAT     H240791   1.408   3.230   7.728
10021WAT    EPW40792   1.399   3.306   7.709
10022WAT      O40793   3.205   4.571   7.898
10022WAT     H140794   3.199   4.617   7.824
10022WAT     H240795   3.285   4.589   7.927
10022WAT    EPW40796   3.216   4.580   7.892
10023WAT      O40797   2.776   4.513   7.065
10023WAT     H140798   2.813   4.434   7.065
10023WAT     H240799   2.701   4.500   7.109
10023WAT    EPW40800   2.770   4.499   7.072
10024WAT      O40801   2.817   3.623   7.563
10024WAT     H140802   2.745   3.585   7.595
10024WAT     H240803   2.818   3.701   7.602
10024WAT    EPW40804   2.806   3.629   7.573
10025WAT      O40805   2.442   4.303   6.978
10025WAT     H140806   2.518   4.261   6.972
10025WAT     H240807   2.412   4.304   6.897
10025WAT    EPW40808   2.448   4.297   6.965
10026WAT      O40809   2.168   4.892   7.590
10026WAT     H140810   2.146   4.970   7.620
10026WAT     H240811   2.228   4.909   7.529
10026WAT    EPW40812   2.174   4.906   7.585
10027WAT      O40813   2.906   3.845   6.941
10027WAT     H140814   2.960   3.898   6.898
10027WAT     H240815   2.827   3.872   6.918
10027WAT    EPW40816   2.902   3.857   6.931
10028WAT      O40817   2.030   4.073   6.937
10028WAT     H140818   1.976   4.016   6.900
10028WAT     H240819   1.987   4.149   6.931
10028WAT    EPW40820   2.016   4.076   6.931
10029WAT      O40821   2.726   3.714   7.318
10029WAT     H140822   2.754   3.688   7.396
10029WAT     H240823   2.797   3.747   7.280
10029WAT    EPW40824   2.741   3.715   7.324
10030WAT      O40825   2.795   3.314   7.361
10030WAT     H140826   2.748   3.245   7.385
10030WAT     H240827   2.734   3.373   7.339
10030WAT    EPW40828   2.779   3.313   7.361
10031WAT      O40829   2.837   4.096   7.260
10031WAT     H140830   2.881   4.022   7.250
10031WAT     H240831   2.754   4.071   7.260
10031WAT    EPW40832   2.832   4.082   7.258
10032WAT      O40833   1.592   3.502   7.239
10032WAT     H140834   1.609   3.467   7.161
10032WAT     H240835   1.514   3.470   7.260
10032WAT    EPW40836   1.583   3.492   7.231
10033WAT      O40837   2.499   4.274   7.527
10033WAT     H140838   2.465   4.304   7.601
10033WAT     H240839   2.525   4.194   7.547
10033WAT    EPW40840   2.498   4.267   7.541
10034WAT      O40841   2.260   4.158   7.430
10034WAT     H140842   2.222   4.159   7.509
10034WAT     H240843   2.336   4.199   7.444
10034WAT    EPW40844   2.266   4.164   7.444
10035WAT      O40845   2.692   4.891   7.729
10035WAT     H140846   2.656   4.861   7.803
10035WAT     H240847   2.773   4.859   7.732
10035WAT    EPW40848   2.699   4.882   7.741
10036WAT      O40849   2.940   3.847   7.212
10036WAT     H140850   2.937   3.843   7.125
10036WAT     H240851   3.023   3.824   7.231
10036WAT    EPW40852   2.952   3.843   7.202
10037WAT      O40853   2.298   4.515   7.367
10037WAT     H140854   2.289   4.590   7.323
10037WAT     H240855   2.229   4.468   7.342
10037WAT    EPW40856   2.286   4.519   7.357
10038WAT      O40857   1.499   3.650   6.892
10038WAT     H140858   1.426   3.643   6.939
10038WAT     H240859   1.505   3.573   6.852
10038WAT    EPW40860   1.489   3.637   6.893
10039WAT      O40861   2.352   3.373   7.577
10039WAT     H140862   2.266   3.381   7.588
10039WAT     H240863   2.360   3.299   7.532
10039WAT    EPW40864   2.341   3.363   7.572
10040WAT      O40865   1.825   4.554   7.032
10040WAT     H140866   1.867   4.560   7.108
10040WAT     H240867   1.744   4.532   7.055
10040WAT    EPW40868   1.819   4.552   7.047
10041WAT      O40869   2.781   3.880   7.663
10041WAT     H140870   2.840   3.942   7.680
10041WAT     H240871   2.715   3.924   7.626
10041WAT    EPW40872   2.780   3.896   7.660
10042WAT      O40873   2.795   4.716   7.396
10042WAT     H140874   2.769   4.635   7.416
10042WAT     H240875   2.841   4.705   7.323
10042WAT    EPW40876   2.798   4.702   7.388
10043WAT      O40877   1.574   4.466   7.106
10043WAT     H140878   1.572   4.445   7.190
10043WAT     H240879   1.576   4.389   7.065
10043WAT    EPW40880   1.574   4.452   7.112
10044WAT      O40881   1.854   4.297   6.910
10044WAT     H140882   1.772   4.272   6.927
10044WAT     H240883   1.860   4.375   6.948
10044WAT    EPW40884   1.842   4.304   6.918
10045WAT      O40885   2.075   3.186   6.987
10045WAT     H140886   2.087   3.191   6.900
10045WAT     H240887   1.989   3.191   6.996
10045WAT    EPW40888   2.064   3.187   6.975
10046WAT      O40889   2.440   3.761   7.640
10046WAT     H140890   2.491   3.691   7.646
10046WAT     H240891   2.423   3.782   7.724
10046WAT    EPW40892   2.445   3.754   7.654
10047WAT      O40893   1.460   3.659   7.544
10047WAT     H140894   1.450   3.703   7.618
10047WAT     H240895   1.504   3.588   7.569
10047WAT    EPW40896   1.465   3.655   7.559
10048WAT      O40897   2.594   3.955   7.272
10048WAT     H140898   2.629   3.876   7.281
10048WAT     H240899   2.540   3.947   7.204
10048WAT    EPW40900   2.591   3.942   7.263
10049WAT      O40901   1.618   4.802   7.258
10049WAT     H140902   1.591   4.808   7.175
10049WAT     H240903   1.705   4.808   7.251
10049WAT    EPW40904   1.627   4.804   7.245
10050WAT      O40905   1.999   3.962   7.189
10050WAT     H140906   2.012   4.002   7.112
10050WAT     H240907   2.079   3.947   7.218
10050WAT    EPW40908   2.013   3.966   7.182
10051WAT      O40909   2.876   4.877   6.859
10051WAT     H140910   2.954   4.874   6.898
10051WAT     H240911   2.860   4.794   6.839
10051WAT    EPW40912   2.885   4.864   6.862
10052WAT      O40913   2.518   4.490   7.173
10052WAT     H140914   2.469   4.480   7.244
10052WAT     H240915   2.484   4.433   7.116
10052WAT    EPW40916   2.506   4.480   7.175
10053WAT      O40917   1.563   4.622   7.945
10053WAT     H140918   1.592   4.558   7.894
10053WAT     H240919   1.567   4.693   7.894
10053WAT    EPW40920   1.568   4.623   7.930
10054WAT      O40921   2.176   4.352   7.049
10054WAT     H140922   2.256   4.323   7.033
10054WAT     H240923   2.169   4.423   6.999
10054WAT    EPW40924   2.187   4.358   7.040
10055WAT      O40925   2.384   3.159   5.570
10055WAT     H140926   2.373   3.209   5.499
10055WAT     H240927   2.471   3.147   5.572
10055WAT    EPW40928   2.395   3.165   5.560
10056WAT      O40929   2.326   3.797   5.984
10056WAT     H140930   2.296   3.874   6.012
10056WAT     H240931   2.380   3.771   6.047
10056WAT    EPW40932   2.329   3.805   5.997
10057WAT      O40933   1.295   4.272   5.490
10057WAT     H140934   1.234   4.263   5.552
10057WAT     H240935   1.305   4.190   5.460
10057WAT    EPW40936   1.287   4.258   5.494
10058WAT      O40937   1.292   3.625   5.171
10058WAT     H140938   1.228   3.672   5.136
10058WAT     H240939   1.263   3.543   5.166
10058WAT    EPW40940   1.279   3.619   5.165
10059WAT      O40941   1.665   4.203   5.059
10059WAT     H140942   1.614   4.170   4.997
10059WAT     H240943   1.659   4.146   5.124
10059WAT    EPW40944   1.657   4.190   5.059
10060WAT      O40945   2.556   4.007   5.661
10060WAT     H140946   2.597   3.987   5.586
10060WAT     H240947   2.512   3.935   5.680
10060WAT    EPW40948   2.556   3.994   5.653
10061WAT      O40949   1.552   4.381   5.460
10061WAT     H140950   1.606   4.340   5.515
10061WAT     H240951   1.475   4.343   5.476
10061WAT    EPW40952   1.549   4.369   5.470
10062WAT      O40953   1.994   3.296   5.404
10062WAT     H140954   1.984   3.369   5.358
10062WAT     H240955   2.078   3.276   5.395
10062WAT    EPW40956   2.005   3.304   5.396
10063WAT      O40957   1.457   4.670   5.115
10063WAT     H140958   1.493   4.692   5.039
10063WAT     H240959   1.490   4.592   5.132
10063WAT    EPW40960   1.467   4.662   5.107
10064WAT      O40961   1.335   4.483   6.191
10064WAT     H140962   1.360   4.465   6.272
10064WAT     H240963   1.267   4.429   6.179
10064WAT    EPW40964   1.328   4.472   6.201
10065WAT      O40965   1.948   4.332   6.647
10065WAT     H140966   1.924   4.318   6.730
10065WAT     H240967   1.879   4.305   6.601
10065WAT    EPW40968   1.934   4.326   6.652
10066WAT      O40969   1.491   4.025   5.648
10066WAT     H140970   1.448   4.028   5.572
10066WAT     H240971   1.543   3.955   5.640
10066WAT    EPW40972   1.493   4.015   5.636
10067WAT      O40973   1.947   3.611   6.201
10067WAT     H140974   2.012   3.610   6.143
10067WAT     H240975   1.912   3.531   6.193
10067WAT    EPW40976   1.952   3.599   6.192
10068WAT      O40977   1.941   4.606   6.371
10068WAT     H140978   1.945   4.675   6.318
10068WAT     H240979   2.025   4.584   6.384
10068WAT    EPW40980   1.954   4.613   6.365
10069WAT      O40981   1.654   3.804   5.644
10069WAT     H140982   1.719   3.752   5.670
10069WAT     H240983   1.584   3.751   5.647
10069WAT    EPW40984   1.653   3.788   5.648
10070WAT      O40985   2.085   4.448   5.838
10070WAT     H140986   2.116   4.367   5.840
10070WAT     H240987   2.156   4.498   5.830
10070WAT    EPW40988   2.100   4.444   5.837
10071WAT      O40989   2.204   4.342   5.443
10071WAT     H140990   2.234   4.269   5.480
10071WAT     H240991   2.246   4.345   5.367
10071WAT    EPW40992   2.214   4.332   5.437
10072WAT      O40993   2.242   3.809   6.649
10072WAT     H140994   2.171   3.835   6.606
10072WAT     H240995   2.262   3.877   6.699
10072WAT    EPW40996   2.234   3.823   6.650
10073WAT      O40997   1.736   3.328   5.526
10073WAT     H140998   1.696   3.382   5.471
10073WAT     H240999   1.819   3.328   5.499
10073WAT    EPW41000   1.742   3.336   5.514
10074WAT      O41001   2.742   3.035   6.513
10074WAT     H141002   2.728   3.069   6.434
10074WAT     H241003   2.662   3.022   6.544
10074WAT    EPW41004   2.728   3.038   6.506
10075WAT      O41005   2.052   3.255   5.684
10075WAT     H141006   2.066   3.338   5.705
10075WAT     H241007   2.024   3.260   5.601
10075WAT    EPW41008   2.050   3.268   5.675
10076WAT      O41009   2.570   3.531   4.973
10076WAT     H141010   2.545   3.615   4.962
10076WAT     H241011   2.595   3.529   5.057
10076WAT    EPW41012   2.570   3.543   4.984
10077WAT      O41013   1.329   3.760   5.916
10077WAT     H141014   1.326   3.846   5.923
10077WAT     H241015   1.261   3.733   5.965
10077WAT    EPW41016   1.318   3.768   5.924
10078WAT      O41017   1.338   4.721   5.733
10078WAT     H141018   1.273   4.771   5.702
10078WAT     H241019   1.373   4.686   5.661
10078WAT    EPW41020   1.333   4.724   5.718
10079WAT      O41021   1.929   4.400   5.441
10079WAT     H141022   1.904   4.420   5.522
10079WAT     H241023   2.014   4.384   5.449
10079WAT    EPW41024   1.938   4.401   5.454
10080WAT      O41025   2.581   4.698   5.209
10080WAT     H141026   2.652   4.743   5.229
10080WAT     H241027   2.599   4.617   5.239
10080WAT    EPW41028   2.594   4.693   5.216
10081WAT      O41029   2.375   4.697   5.393
10081WAT     H141030   2.383   4.770   5.440
10081WAT     H241031   2.440   4.702   5.335
10081WAT    EPW41032   2.385   4.708   5.391
10082WAT      O41033   1.561   3.264   5.945
10082WAT     H141034   1.539   3.188   5.909
10082WAT     H241035   1.624   3.242   6.002
10082WAT    EPW41036   1.567   3.250   5.948
10083WAT      O41037   1.919   3.455   6.837
10083WAT     H141038   1.920   3.418   6.758
10083WAT     H241039   1.969   3.526   6.827
10083WAT    EPW41040   1.927   3.460   6.824
10084WAT      O41041   1.463   4.641   5.490
10084WAT     H141042   1.505   4.565   5.496
10084WAT     H241043   1.519   4.692   5.447
10084WAT    EPW41044   1.478   4.638   5.485
10085WAT      O41045   3.016   3.481   5.764
10085WAT     H141046   2.964   3.540   5.726
10085WAT     H241047   2.984   3.404   5.737
10085WAT    EPW41048   3.004   3.478   5.754
10086WAT      O41049   2.573   4.721   6.223
10086WAT     H141050   2.634   4.783   6.214
10086WAT     H241051   2.550   4.704   6.140
10086WAT    EPW41052   2.579   4.728   6.209
10087WAT      O41053   1.506   3.388   6.783
10087WAT     H141054   1.425   3.358   6.768
10087WAT     H241055   1.553   3.354   6.718
10087WAT    EPW41056   1.501   3.379   6.771
10088WAT      O41057   1.606   4.448   5.847
10088WAT     H141058   1.665   4.437   5.784
10088WAT     H241059   1.628   4.390   5.907
10088WAT    EPW41060   1.618   4.438   5.846
10089WAT      O41061   1.894   4.761   5.707
10089WAT     H141062   1.974   4.788   5.687
10089WAT     H241063   1.842   4.813   5.660
10089WAT    EPW41064   1.898   4.773   5.697
10090WAT      O41065   2.108   3.189   6.713
10090WAT     H141066   2.126   3.114   6.672
10090WAT     H241067   2.043   3.223   6.666
10090WAT    EPW41068   2.101   3.183   6.700
10091WAT      O41069   2.208   3.711   5.548
10091WAT     H141070   2.236   3.661   5.482
10091WAT     H241071   2.280   3.724   5.596
10091WAT    EPW41072   2.223   3.705   5.545
10092WAT      O41073   2.293   3.728   5.087
10092WAT     H141074   2.363   3.757   5.044
10092WAT     H241075   2.232   3.723   5.024
10092WAT    EPW41076   2.294   3.732   5.071
10093WAT      O41077   2.810   4.831   5.275
10093WAT     H141078   2.859   4.806   5.207
10093WAT     H241079   2.859   4.810   5.344
10093WAT    EPW41080   2.824   4.825   5.275
10094WAT      O41081   1.736   4.849   6.353
10094WAT     H141082   1.774   4.829   6.430
10094WAT     H241083   1.678   4.785   6.342
10094WAT    EPW41084   1.733   4.836   6.363
10095WAT      O41085   2.993   3.391   6.146
10095WAT     H141086   3.056   3.388   6.086
10095WAT     H241087   3.007   3.320   6.194
10095WAT    EPW41088   3.004   3.380   6.144
10096WAT      O41089   1.241   3.494   6.522
10096WAT     H141090   1.233   3.570   6.565
10096WAT     H241091   1.302   3.509   6.462
10096WAT    EPW41092   1.249   3.507   6.520
10097WAT      O41093   2.419   4.588   6.555
10097WAT     H141094   2.405   4.602   6.639
10097WAT     H241095   2.506   4.588   6.548
10097WAT    EPW41096   2.430   4.590   6.566
10098WAT      O41097   2.248   4.557   5.017
10098WAT     H141098   2.217   4.612   5.077
10098WAT     H241099   2.324   4.592   4.993
10098WAT    EPW41100   2.254   4.570   5.022
10099WAT      O41101   1.366   3.395   5.434
10099WAT     H141102   1.347   3.312   5.418
10099WAT     H241103   1.318   3.414   5.505
10099WAT    EPW41104   1.356   3.386   5.442
10100WAT      O41105   1.521   4.703   6.207
10100WAT     H141106   1.465   4.636   6.203
10100WAT     H241107   1.567   4.696   6.133
10100WAT    EPW41108   1.519   4.692   6.195
10101WAT      O41109   2.252   3.566   5.311
10101WAT     H141110   2.169   3.553   5.289
10101WAT     H241111   2.282   3.617   5.247
10101WAT    EPW41112   2.244   3.571   5.298
10102WAT      O41113   2.327   4.839   6.308
10102WAT     H141114   2.398   4.794   6.284
10102WAT     H241115   2.265   4.809   6.254
10102WAT    EPW41116   2.329   4.828   6.296
10103WAT      O41117   2.271   3.288   5.340
10103WAT     H141118   2.247   3.260   5.261
10103WAT     H241119   2.280   3.374   5.330
10103WAT    EPW41120   2.269   3.296   5.327
10104WAT      O41121   2.072   3.534   5.727
10104WAT     H141122   2.110   3.591   5.674
10104WAT     H241123   2.095   3.561   5.807
10104WAT    EPW41124   2.081   3.546   5.731
10105WAT      O41125   2.720   4.565   5.562
10105WAT     H141126   2.803   4.537   5.562
10105WAT     H241127   2.687   4.533   5.488
10105WAT    EPW41128   2.727   4.556   5.551
10106WAT      O41129   1.687   4.549   6.494
10106WAT     H141130   1.765   4.578   6.468
10106WAT     H241131   1.674   4.592   6.569
10106WAT    EPW41132   1.697   4.560   6.502
10107WAT      O41133   1.695   3.066   5.610
10107WAT     H141134   1.704   3.150   5.587
10107WAT     H241135   1.681   3.025   5.534
10107WAT    EPW41136   1.694   3.072   5.595
10108WAT      O41137   1.903   4.141   5.907
10108WAT     H141138   1.925   4.124   5.989
10108WAT     H241139   1.846   4.078   5.887
10108WAT    EPW41140   1.898   4.129   5.916
10109WAT      O41141   2.490   3.468   6.341
10109WAT     H141142   2.462   3.513   6.410
10109WAT     H241143   2.429   3.406   6.331
10109WAT    EPW41144   2.476   3.465   6.350
10110WAT      O41145   1.985   4.132   6.169
10110WAT     H141146   1.971   4.218   6.181
10110WAT     H241147   1.949   4.095   6.239
10110WAT    EPW41148   1.978   4.140   6.181
10111WAT      O41149   2.649   4.183   6.103
10111WAT     H141150   2.628   4.115   6.154
10111WAT     H241151   2.644   4.252   6.157
10111WAT    EPW41152   2.645   4.183   6.119
10112WAT      O41153   2.654   3.092   5.631
10112WAT     H141154   2.654   3.074   5.716
10112WAT     H241155   2.683   3.019   5.594
10112WAT    EPW41156   2.658   3.078   5.638
10113WAT      O41157   1.234   4.523   6.818
10113WAT     H141158   1.293   4.571   6.860
10113WAT     H241159   1.243   4.444   6.853
10113WAT    EPW41160   1.244   4.519   6.829
10114WAT      O41161   2.874   3.588   6.397
10114WAT     H141162   2.953   3.560   6.421
10114WAT     H241163   2.865   3.664   6.439
10114WAT    EPW41164   2.884   3.595   6.407
10115WAT      O41165   1.612   3.449   5.746
10115WAT     H141166   1.644   3.400   5.681
10115WAT     H241167   1.599   3.392   5.811
10115WAT    EPW41168   1.615   3.433   5.746
10116WAT      O41169   1.691   4.219   5.634
10116WAT     H141170   1.747   4.176   5.582
10116WAT     H241171   1.629   4.160   5.651
10116WAT    EPW41172   1.690   4.204   5.629
10117WAT      O41173   1.558   4.871   5.802
10117WAT     H141174   1.483   4.830   5.782
10117WAT     H241175   1.598   4.878   5.725
10117WAT    EPW41176   1.553   4.866   5.787
10118WAT      O41177   1.508   3.623   6.087
10118WAT     H141178   1.587   3.648   6.062
10118WAT     H241179   1.455   3.659   6.028
10118WAT    EPW41180   1.512   3.632   6.075
10119WAT      O41181   3.137   4.651   6.536
10119WAT     H141182   3.058   4.663   6.501
10119WAT     H241183   3.120   4.607   6.609
10119WAT    EPW41184   3.123   4.646   6.542
10120WAT      O41185   2.730   3.920   5.037
10120WAT     H141186   2.776   3.992   5.022
10120WAT     H241187   2.677   3.943   5.103
10120WAT    EPW41188   2.729   3.934   5.045
10121WAT      O41189   1.843   4.138   5.404
10121WAT     H141190   1.867   4.222   5.407
10121WAT     H241191   1.910   4.099   5.365
10121WAT    EPW41192   1.856   4.145   5.399
10122WAT      O41193   3.069   3.530   5.202
10122WAT     H141194   3.155   3.543   5.211
10122WAT     H241195   3.042   3.600   5.159
10122WAT    EPW41196   3.078   3.542   5.197
10123WAT      O41197   1.343   4.338   5.843
10123WAT     H141198   1.292   4.403   5.869
10123WAT     H241199   1.422   4.376   5.835
10123WAT    EPW41200   1.347   4.353   5.846
10124WAT      O41201   2.086   3.678   6.833
10124WAT     H141202   2.023   3.738   6.841
10124WAT     H241203   2.136   3.709   6.769
10124WAT    EPW41204   2.084   3.691   6.825
10125WAT      O41205   3.169   3.843   6.377
10125WAT     H141206   3.198   3.769   6.342
10125WAT     H241207   3.090   3.853   6.342
10125WAT    EPW41208   3.162   3.834   6.367
10126WAT      O41209   1.374   4.022   5.398
10126WAT     H141210   1.359   3.936   5.400
10126WAT     H241211   1.449   4.029   5.353
10126WAT    EPW41212   1.383   4.011   5.391
10127WAT      O41213   2.952   3.350   5.384
10127WAT     H141214   3.001   3.279   5.372
10127WAT     H241215   3.003   3.415   5.358
10127WAT    EPW41216   2.966   3.349   5.379
10128WAT      O41217   2.290   4.631   5.800
10128WAT     H141218   2.245   4.699   5.768
10128WAT     H241219   2.320   4.591   5.728
10128WAT    EPW41220   2.288   4.635   5.784
10129WAT      O41221   1.272   4.500   5.343
10129WAT     H141222   1.329   4.552   5.382
10129WAT     H241223   1.268   4.430   5.395
10129WAT    EPW41224   1.280   4.497   5.356
10130WAT      O41225   1.694   4.273   6.039
10130WAT     H141226   1.745   4.313   6.097
10130WAT     H241227   1.751   4.232   5.987
10130WAT    EPW41228   1.710   4.273   6.040
10131WAT      O41229   2.590   3.562   5.739
10131WAT     H141230   2.622   3.577   5.819
10131WAT     H241231   2.541   3.491   5.750
10131WAT    EPW41232   2.588   3.554   5.753
10132WAT      O41233   1.270   4.329   5.120
10132WAT     H141234   1.338   4.276   5.122
10132WAT     H241235   1.283   4.382   5.188
10132WAT    EPW41236   1.282   4.329   5.130
10133WAT      O41237   1.351   4.065   5.884
10133WAT     H141238   1.398   4.044   5.813
10133WAT     H241239   1.346   4.152   5.880
10133WAT    EPW41240   1.357   4.075   5.873
10134WAT      O41241   1.991   3.511   5.232
10134WAT     H141242   1.988   3.489   5.147
10134WAT     H241243   1.962   3.594   5.232
10134WAT    EPW41244   1.986   3.520   5.219
10135WAT      O41245   2.887   4.707   6.405
10135WAT     H141246   2.841   4.780   6.418
10135WAT     H241247   2.892   4.701   6.318
10135WAT    EPW41248   2.881   4.717   6.394
10136WAT      O41249   1.851   4.491   5.691
10136WAT     H141250   1.858   4.578   5.694
10136WAT     H241251   1.918   4.463   5.739
10136WAT    EPW41252   1.862   4.500   5.698
10137WAT      O41253   1.629   3.832   6.728
10137WAT     H141254   1.583   3.774   6.774
10137WAT     H241255   1.627   3.801   6.647
10137WAT    EPW41256   1.622   3.819   6.723
10138WAT      O41257   1.635   3.759   5.244
10138WAT     H141258   1.623   3.691   5.297
10138WAT     H241259   1.602   3.731   5.168
10138WAT    EPW41260   1.628   3.745   5.241
10139WAT      O41261   1.710   3.950   5.879
10139WAT     H141262   1.691   3.911   5.804
10139WAT     H241263   1.726   3.885   5.934
10139WAT    EPW41264   1.709   3.935   5.876
10140WAT      O41265   1.654   3.893   6.246
10140WAT     H141266   1.685   3.845   6.180
10140WAT     H241267   1.601   3.950   6.207
10140WAT    EPW41268   1.651   3.894   6.231
10141WAT      O41269   2.696   3.672   5.970
10141WAT     H141270   2.638   3.688   6.033
10141WAT     H241271   2.709   3.750   5.933
10141WAT    EPW41272   2.690   3.686   5.974
10142WAT      O41273   2.077   4.808   6.172
10142WAT     H141274   2.048   4.740   6.125
10142WAT     H241275   2.068   4.876   6.118
10142WAT    EPW41276   2.072   4.808   6.157
10143WAT      O41277   2.296   3.259   6.365
10143WAT     H141278   2.312   3.174   6.351
10143WAT     H241279   2.314   3.269   6.450
10143WAT    EPW41280   2.301   3.248   6.376
10144WAT      O41281   2.694   3.507   5.227
10144WAT     H141282   2.742   3.573   5.259
10144WAT     H241283   2.657   3.472   5.297
10144WAT    EPW41284   2.695   3.512   5.242
10145WAT      O41285   1.488   4.066   6.776
10145WAT     H141286   1.481   4.108   6.700
10145WAT     H241287   1.538   3.997   6.756
10145WAT    EPW41288   1.494   4.062   6.761
10146WAT      O41289   2.643   4.311   6.644
10146WAT     H141290   2.655   4.396   6.630
10146WAT     H241291   2.683   4.273   6.576
10146WAT    EPW41292   2.651   4.318   6.632
10147WAT      O41293   2.053   4.594   6.655
10147WAT     H141294   2.087   4.591   6.735
10147WAT     H241295   2.018   4.515   6.644
10147WAT    EPW41296   2.053   4.582   6.665
10148WAT      O41297   2.132   3.600   5.992
10148WAT     H141298   2.193   3.661   5.993
10148WAT     H241299   2.176   3.526   6.005
10148WAT    EPW41300   2.147   3.598   5.994
10149WAT      O41301   2.510   3.977   5.220
10149WAT     H141302   2.503   4.053   5.179
10149WAT     H241303   2.430   3.962   5.251
10149WAT    EPW41304   2.497   3.986   5.219
10150WAT      O41305   2.838   4.247   5.643
10150WAT     H141306   2.878   4.206   5.708
10150WAT     H241307   2.865   4.205   5.572
10150WAT    EPW41308   2.848   4.235   5.642
10151WAT      O41309   2.515   4.668   5.958
10151WAT     H141310   2.440   4.658   5.916
10151WAT     H241311   2.548   4.741   5.924
10151WAT    EPW41312   2.509   4.677   5.947
10152WAT      O41313   2.457   4.289   5.928
10152WAT     H141314   2.410   4.331   5.988
10152WAT     H241315   2.512   4.240   5.976
10152WAT    EPW41316   2.458   4.288   5.944
10153WAT      O41317   1.898   4.642   5.314
10153WAT     H141318   1.908   4.568   5.359
10153WAT     H241319   1.980   4.668   5.298
10153WAT    EPW41320   1.912   4.635   5.318
10154WAT      O41321   1.843   3.162   5.191
10154WAT     H141322   1.874   3.186   5.269
10154WAT     H241323   1.795   3.230   5.166
10154WAT    EPW41324   1.841   3.176   5.199
10155WAT      O41325   2.153   4.716   5.228
10155WAT     H141326   2.218   4.705   5.285
10155WAT     H241327   2.155   4.802   5.211
10155WAT    EPW41328   2.163   4.727   5.234
10156WAT      O41329   2.759   4.257   6.394
10156WAT     H141330   2.732   4.174   6.391
10156WAT     H241331   2.845   4.250   6.399
10156WAT    EPW41332   2.767   4.244   6.394
10157WAT      O41333   2.414   4.706   6.817
10157WAT     H141334   2.451   4.721   6.894
10157WAT     H241335   2.443   4.771   6.767
10157WAT    EPW41336   2.424   4.718   6.821
10158WAT      O41337   1.620   4.036   5.274
10158WAT     H141338   1.630   3.949   5.269
10158WAT     H241339   1.687   4.061   5.324
10158WAT    EPW41340   1.631   4.027   5.281
10159WAT      O41341   2.343   4.160   6.305
10159WAT     H141342   2.291   4.176   6.373
10159WAT     H241343   2.402   4.105   6.337
10159WAT    EPW41344   2.344   4.154   6.320
10160WAT      O41345   1.280   3.128   5.390
10160WAT     H141346   1.274   3.074   5.321
10160WAT     H241347   1.247   3.081   5.455
10160WAT    EPW41348   1.274   3.113   5.389
10161WAT      O41349   2.271   3.946   5.399
10161WAT     H141350   2.283   4.004   5.463
10161WAT     H241351   2.247   3.874   5.442
10161WAT    EPW41352   2.269   3.944   5.415
10162WAT      O41353   2.717   4.482   5.935
10162WAT     H141354   2.654   4.543   5.939
10162WAT     H241355   2.707   4.437   6.009
10162WAT    EPW41356   2.706   4.484   5.947
10163WAT      O41357   1.702   3.386   5.105
10163WAT     H141358   1.639   3.382   5.045
10163WAT     H241359   1.764   3.433   5.066
10163WAT    EPW41360   1.702   3.392   5.090
10164WAT      O41361   2.166   4.180   5.826
10164WAT     H141362   2.083   4.158   5.838
10164WAT     H241363   2.206   4.148   5.898
10164WAT    EPW41364   2.160   4.172   5.838
10165WAT      O41365   1.812   4.813   4.974
10165WAT     H141366   1.825   4.732   5.003
10165WAT     H241367   1.838   4.863   5.040
10165WAT    EPW41368   1.818   4.808   4.988
10166WAT      O41369   1.501   4.088   6.120
10166WAT     H141370   1.559   4.150   6.100
10166WAT     H241371   1.460   4.073   6.044
10166WAT    EPW41372   1.503   4.095   6.106
10167WAT      O41373   1.816   3.628   5.784
10167WAT     H141374   1.893   3.594   5.761
10167WAT     H241375   1.760   3.563   5.774
10167WAT    EPW41376   1.819   3.614   5.779
10168WAT      O41377   1.330   3.748   5.427
10168WAT     H141378   1.355   3.705   5.499
10168WAT     H241379   1.337   3.688   5.364
10168WAT    EPW41380   1.335   3.733   5.428
10169WAT      O41381   2.926   4.151   6.113
10169WAT     H141382   2.937   4.075   6.156
10169WAT     H241383   2.840   4.161   6.111
10169WAT    EPW41384   2.915   4.141   6.119
10170WAT      O41385   1.899   3.899   4.954
10170WAT     H141386   1.889   3.860   5.032
10170WAT     H241387   1.822   3.887   4.916
10170WAT    EPW41388   1.886   3.892   4.960
10171WAT      O41389   1.459   4.199   6.535
10171WAT     H141390   1.420   4.150   6.474
10171WAT     H241391   1.434   4.280   6.516
10171WAT    EPW41392   1.450   4.204   6.523
10172WAT      O41393   2.958   4.095   5.845
10172WAT     H141394   2.950   4.114   5.930
10172WAT     H241395   3.045   4.095   5.833
10172WAT    EPW41396   2.970   4.098   5.856
10173WAT      O41397   1.906   3.771   5.199
10173WAT     H141398   1.944   3.842   5.234
10173WAT     H241399   1.824   3.776   5.227
10173WAT    EPW41400   1.900   3.782   5.209
10174WAT      O41401   2.718   3.445   6.766
10174WAT     H141402   2.637   3.451   6.798
10174WAT     H241403   2.706   3.453   6.680
10174WAT    EPW41404   2.704   3.447   6.758
10175WAT      O41405   1.299   3.391   5.923
10175WAT     H141406   1.283   3.395   5.837
10175WAT     H241407   1.380   3.360   5.927
10175WAT    EPW41408   1.309   3.387   5.911
10176WAT      O41409   3.164   4.664   5.825
10176WAT     H141410   3.163   4.694   5.743
10176WAT     H241411   3.237   4.699   5.859
10176WAT    EPW41412   3.175   4.673   5.818
10177WAT      O41413   2.617   3.778   6.646
10177WAT     H141414   2.614   3.825   6.719
10177WAT     H241415   2.598   3.835   6.584
10177WAT    EPW41416   2.614   3.793   6.648
10178WAT      O41417   2.878   3.806   6.576
10178WAT     H141418   2.883   3.893   6.571
10178WAT     H241419   2.796   3.792   6.604
10178WAT    EPW41420   2.867   3.817   6.580
10179WAT      O41421   2.782   4.364   5.135
10179WAT     H141422   2.817   4.292   5.100
10179WAT     H241423   2.835   4.428   5.109
10179WAT    EPW41424   2.795   4.363   5.126
10180WAT      O41425   2.837   3.663   5.650
10180WAT     H141426   2.761   3.623   5.666
10180WAT     H241427   2.830   3.739   5.694
10180WAT    EPW41428   2.825   3.669   5.659
10181WAT      O41429   3.104   3.981   6.798
10181WAT     H141430   3.128   3.909   6.756
10181WAT     H241431   3.179   4.026   6.805
10181WAT    EPW41432   3.119   3.977   6.793
10182WAT      O41433   3.040   4.255   6.411
10182WAT     H141434   3.099   4.197   6.385
10182WAT     H241435   3.051   4.322   6.355
10182WAT    EPW41436   3.050   4.257   6.398
10183WAT      O41437   2.545   4.218   5.076
10183WAT     H141438   2.620   4.256   5.100
10183WAT     H241439   2.556   4.204   4.990
10183WAT    EPW41440   2.558   4.221   5.067
10184WAT      O41441   1.896   4.398   6.188
10184WAT     H141442   1.898   4.444   6.262
10184WAT     H241443   1.917   4.456   6.127
10184WAT    EPW41444   1.899   4.413   6.190
10185WAT      O41445   1.724   4.270   6.491
10185WAT     H141446   1.644   4.240   6.508
10185WAT     H241447   1.712   4.356   6.482
10185WAT    EPW41448   1.711   4.278   6.492
10186WAT      O41449   2.716   3.388   6.495
10186WAT     H141450   2.766   3.450   6.459
10186WAT     H241451   2.639   3.398   6.454
10186WAT    EPW41452   2.712   3.398   6.483
10187WAT      O41453   2.233   4.047   6.074
10187WAT     H141454   2.281   4.077   6.140
10187WAT     H241455   2.151   4.061   6.101
10187WAT    EPW41456   2.228   4.054   6.088
10188WAT      O41457   1.880   3.608   6.472
10188WAT     H141458   1.894   3.527   6.501
10188WAT     H241459   1.911   3.607   6.391
10188WAT    EPW41460   1.887   3.596   6.465
10189WAT      O41461   2.163   4.852   5.680
10189WAT     H141462   2.140   4.930   5.711
10189WAT     H241463   2.229   4.871   5.625
10189WAT    EPW41464   2.170   4.866   5.676
10190WAT      O41465   2.747   3.106   6.242
10190WAT     H141466   2.728   3.188   6.219
10190WAT     H241467   2.834   3.106   6.247
10190WAT    EPW41468   2.757   3.118   6.239
10191WAT      O41469   2.018   3.209   6.342
10191WAT     H141470   2.102   3.231   6.340
10191WAT     H241471   2.017   3.130   6.306
10191WAT    EPW41472   2.030   3.201   6.336
10192WAT      O41473   1.951   4.611   6.020
10192WAT     H141474   1.877   4.638   5.982
10192WAT     H241475   1.991   4.566   5.956
10192WAT    EPW41476   1.946   4.608   6.005
10193WAT      O41477   2.376   4.253   6.713
10193WAT     H141478   2.455   4.269   6.678
10193WAT     H241479   2.321   4.269   6.648
10193WAT    EPW41480   2.380   4.258   6.699
10194WAT      O41481   2.699   4.577   6.572
10194WAT     H141482   2.736   4.594   6.649
10194WAT     H241483   2.757   4.608   6.514
10194WAT    EPW41484   2.713   4.584   6.575
10195WAT      O41485   2.111   4.086   4.994
10195WAT     H141486   2.054   4.027   4.965
10195WAT     H241487   2.066   4.161   4.994
10195WAT    EPW41488   2.096   4.089   4.990
10196WAT      O41489   1.763   3.726   6.036
10196WAT     H141490   1.785   3.692   5.959
10196WAT     H241491   1.823   3.695   6.091
10196WAT    EPW41492   1.775   3.717   6.033
10197WAT      O41493   2.418   3.606   6.566
10197WAT     H141494   2.351   3.660   6.581
10197WAT     H241495   2.487   3.648   6.597
10197WAT    EPW41496   2.418   3.620   6.573
10198WAT      O41497   2.505   3.696   6.171
10198WAT     H141498   2.529   3.759   6.227
10198WAT     H241499   2.494   3.626   6.222
10198WAT    EPW41500   2.507   3.695   6.187
10199WAT      O41501   2.199   4.817   6.557
10199WAT     H141502   2.228   4.807   6.475
10199WAT     H241503   2.164   4.740   6.576
10199WAT    EPW41504   2.198   4.804   6.547
10200WAT      O41505   2.840   3.701   5.373
10200WAT     H141506   2.853   3.682   5.457
10200WAT     H241507   2.920   3.717   5.343
10200WAT    EPW41508   2.853   3.701   5.381
10201WAT      O41509   2.016   3.181   5.962
10201WAT     H141510   1.933   3.170   5.987
10201WAT     H241511   2.011   3.189   5.875
10201WAT    EPW41512   2.003   3.181   5.953
10202WAT      O41513   2.884   3.261   5.639
10202WAT     H141514   2.804   3.227   5.633
10202WAT     H241515   2.897   3.297   5.561
10202WAT    EPW41516   2.875   3.261   5.627
10203WAT      O41517   2.916   4.076   5.437
10203WAT     H141518   2.977   4.031   5.393
10203WAT     H241519   2.844   4.028   5.427
10203WAT    EPW41520   2.914   4.063   5.429
10204WAT      O41521   2.190   4.284   6.510
10204WAT     H141522   2.114   4.284   6.553
10204WAT     H241523   2.192   4.362   6.471
10204WAT    EPW41524   2.179   4.295   6.511
10205WAT      O41525   1.260   3.271   6.686
10205WAT     H141526   1.259   3.341   6.634
10205WAT     H241527   1.176   3.248   6.691
10205WAT    EPW41528   1.247   3.278   6.679
10206WAT      O41529   1.770   4.935   6.088
10206WAT     H141530   1.761   4.919   6.173
10206WAT     H241531   1.751   4.859   6.050
10206WAT    EPW41532   1.766   4.921   6.095
10207WAT      O41533   1.609   3.498   5.349
10207WAT     H141534   1.626   3.462   5.271
10207WAT     H241535   1.529   3.469   5.368
10207WAT    EPW41536   1.600   3.488   5.341
10208WAT      O41537   2.320   4.139   5.596
10208WAT     H141538   2.274   4.147   5.670
10208WAT     H241539   2.395   4.103   5.623
10208WAT    EPW41540   2.324   4.135   5.611
10209WAT      O41541   2.215   4.528   6.376
10209WAT     H141542   2.280   4.551   6.429
10209WAT     H241543   2.255   4.498   6.305
10209WAT    EPW41544   2.230   4.527   6.374
10210WAT      O41545   3.138   3.756   6.641
10210WAT     H141546   3.051   3.761   6.633
10210WAT     H241547   3.167   3.790   6.566
10210WAT    EPW41548   3.130   3.762   6.629
10211WAT      O41549   1.413   4.881   6.590
10211WAT     H141550   1.356   4.815   6.584
10211WAT     H241551   1.365   4.947   6.621
10211WAT    EPW41552   1.397   4.881   6.594
10212WAT      O41553   2.284   4.018   6.835
10212WAT     H141554   2.315   4.089   6.796
10212WAT     H241555   2.204   4.043   6.862
10212WAT    EPW41556   2.277   4.032   6.834
10213WAT      O41557   2.658   4.892   5.889
10213WAT     H141558   2.607   4.961   5.906
10213WAT     H241559   2.713   4.890   5.956
10213WAT    EPW41560   2.659   4.902   5.901
10214WAT      O41561   2.364   4.402   6.174
10214WAT     H141562   2.354   4.324   6.212
10214WAT     H241563   2.447   4.422   6.192
10214WAT    EPW41564   2.375   4.393   6.183
10215WAT      O41565   2.835   4.610   6.811
10215WAT     H141566   2.916   4.579   6.805
10215WAT     H241567   2.806   4.577   6.886
10215WAT    EPW41568   2.842   4.600   6.821
10216WAT      O41569   1.628   3.724   6.468
10216WAT     H141570   1.635   3.782   6.404
10216WAT     H241571   1.707   3.686   6.470
10216WAT    EPW41572   1.641   3.727   6.459
10217WAT      O41573   1.448   3.557   6.342
10217WAT     H141574   1.466   3.572   6.258
10217WAT     H241575   1.507   3.604   6.385
10217WAT    EPW41576   1.459   3.566   6.336
10218WAT      O41577   1.639   3.244   6.584
10218WAT     H141578   1.595   3.169   6.593
10218WAT     H241579   1.622   3.268   6.502
10218WAT    EPW41580   1.630   3.236   6.573
10219WAT      O41581   2.390   4.493   5.583
10219WAT     H141582   2.400   4.554   5.522
10219WAT     H241583   2.327   4.441   5.551
10219WAT    EPW41584   2.382   4.494   5.569
10220WAT      O41585   2.932   3.902   6.247
10220WAT     H141586   2.930   3.829   6.198
10220WAT     H241587   2.854   3.903   6.286
10220WAT    EPW41588   2.920   3.891   6.245
10221WAT      O41589   1.329   4.055   6.336
10221WAT     H141590   1.376   4.074   6.265
10221WAT     H241591   1.314   3.970   6.329
10221WAT    EPW41592   1.334   4.046   6.325
10222WAT      O41593   1.515   3.657   5.008
10222WAT     H141594   1.441   3.653   5.053
10222WAT     H241595   1.518   3.581   4.966
10222WAT    EPW41596   1.504   3.645   5.008
10223WAT      O41597   2.359   3.283   6.638
10223WAT     H141598   2.387   3.348   6.688
10223WAT     H241599   2.281   3.264   6.671
10223WAT    EPW41600   2.351   3.290   6.650
10224WAT      O41601   2.417   3.346   5.778
10224WAT     H141602   2.345   3.353   5.827
10224WAT     H241603   2.395   3.287   5.717
10224WAT    EPW41604   2.403   3.338   5.776
10225WAT      O41605   1.826   4.548   5.068
10225WAT     H141606   1.863   4.569   5.145
10225WAT     H241607   1.750   4.513   5.091
10225WAT    EPW41608   1.820   4.546   5.083
10226WAT      O41609   2.709   3.367   6.152
10226WAT     H141610   2.793   3.387   6.143
10226WAT     H241611   2.680   3.426   6.209
10226WAT    EPW41612   2.717   3.379   6.159
10227WAT      O41613   1.846   4.037   6.387
10227WAT     H141614   1.808   4.109   6.418
10227WAT     H241615   1.781   3.997   6.345
10227WAT    EPW41616   1.830   4.042   6.385
10228WAT      O41617   2.769   3.892   5.807
10228WAT     H141618   2.834   3.948   5.818
10228WAT     H241619   2.708   3.938   5.766
10228WAT    EPW41620   2.769   3.907   5.803
10229WAT      O41621   1.591   4.437   5.184
10229WAT     H141622   1.587   4.416   5.269
10229WAT     H241623   1.610   4.361   5.146
10229WAT    EPW41624   1.593   4.422   5.191
10230WAT      O41625   1.922   4.295   4.976
10230WAT     H141626   1.847   4.255   4.997
10230WAT     H241627   1.908   4.378   5.001
10230WAT    EPW41628   1.909   4.301   4.983
10231WAT      O41629   1.829   3.367   6.205
10231WAT     H141630   1.752   3.344   6.237
10231WAT     H241631   1.884   3.309   6.240
10231WAT    EPW41632   1.826   3.355   6.215
10232WAT      O41633   3.019   3.151   6.290
10232WAT     H141634   3.043   3.177   6.370
10232WAT     H241635   3.087   3.104   6.263
10232WAT    EPW41636   3.033   3.148   6.298
10233WAT      O41637   2.241   3.345   5.999
10233WAT     H141638   2.172   3.292   5.997
10233WAT     H241639   2.302   3.298   6.040
10233WAT    EPW41640   2.240   3.330   6.005
10234WAT      O41641   2.637   4.444   6.224
10234WAT     H141642   2.675   4.408   6.295
10234WAT     H241643   2.632   4.528   6.244
10234WAT    EPW41644   2.642   4.451   6.238
10235WAT      O41645   2.487   4.887   6.611
10235WAT     H141646   2.423   4.842   6.572
10235WAT     H241647   2.452   4.966   6.623
10235WAT    EPW41648   2.472   4.892   6.607
10236WAT      O41649   1.995   3.858   6.542
10236WAT     H141650   1.956   3.782   6.524
10236WAT     H241651   1.950   3.917   6.496
10236WAT    EPW41652   1.983   3.855   6.533
10237WAT      O41653   2.116   3.194   5.116
10237WAT     H141654   2.126   3.204   5.029
10237WAT     H241655   2.030   3.197   5.127
10237WAT    EPW41656   2.105   3.196   5.104
10238WAT      O41657   3.083   4.384   6.159
10238WAT     H141658   3.037   4.312   6.138
10238WAT     H241659   3.041   4.448   6.118
10238WAT    EPW41660   3.070   4.383   6.150
10239WAT      O41661   1.858   4.797   6.601
10239WAT     H141662   1.843   4.803   6.687
10239WAT     H241663   1.921   4.737   6.595
10239WAT    EPW41664   1.865   4.789   6.613
10240WAT      O41665   2.964   4.592   6.020
10240WAT     H141666   3.015   4.621   5.955
10240WAT     H241667   2.892   4.564   5.979
10240WAT    EPW41668   2.961   4.592   6.004
10241WAT      O41669   1.582   3.311   6.325
10241WAT     H141670   1.525   3.247   6.305
10241WAT     H241671   1.533   3.383   6.323
10241WAT    EPW41672   1.566   3.312   6.322
10242WAT      O41673   2.514   3.227   6.011
10242WAT     H141674   2.571   3.279   6.050
10242WAT     H241675   2.498   3.267   5.935
10242WAT    EPW41676   2.520   3.240   6.006
10243WAT      O41677   1.575   4.688   6.723
10243WAT     H141678   1.643   4.725   6.764
10243WAT     H241679   1.535   4.756   6.686
10243WAT    EPW41680   1.579   4.703   6.724
10244WAT      O41681   2.417   3.776   5.720
10244WAT     H141682   2.472   3.709   5.724
10244WAT     H241683   2.387   3.783   5.802
10244WAT    EPW41684   2.421   3.767   5.733
10245WAT      O41685   1.427   3.650   5.674
10245WAT     H141686   1.389   3.677   5.748
10245WAT     H241687   1.468   3.577   5.698
10245WAT    EPW41688   1.427   3.643   5.688
10246WAT      O41689   1.422   4.464   6.453
10246WAT     H141690   1.371   4.525   6.490
10246WAT     H241691   1.502   4.498   6.459
10246WAT    EPW41692   1.426   4.478   6.459
10247WAT      O41693   2.683   3.924   5.428
10247WAT     H141694   2.724   3.850   5.407
10247WAT     H241695   2.630   3.938   5.360
10247WAT    EPW41696   2.681   3.915   5.415
10248WAT      O41697   1.653   4.779   5.315
10248WAT     H141698   1.603   4.754   5.248
10248WAT     H241699   1.720   4.723   5.312
10248WAT    EPW41700   1.656   4.767   5.304
10249WAT      O41701   2.042   4.008   5.258
10249WAT     H141702   2.070   4.035   5.180
10249WAT     H241703   2.116   3.988   5.300
10249WAT    EPW41704   2.057   4.009   5.253
10250WAT      O41705   2.927   4.081   6.607
10250WAT     H141706   2.984   4.065   6.672
10250WAT     H241707   2.967   4.142   6.559
10250WAT    EPW41708   2.942   4.087   6.610
10251WAT      O41709   2.608   4.453   5.332
10251WAT     H141710   2.532   4.422   5.303
10251WAT     H241711   2.667   4.415   5.279
10251WAT    EPW41712   2.606   4.443   5.320
10252WAT      O41713   2.931   3.574   6.893
10252WAT     H141714   2.920   3.661   6.899
10252WAT     H241715   2.857   3.546   6.857
10252WAT    EPW41716   2.919   3.583   6.888
10253WAT      O41717   2.943   3.671   6.093
10253WAT     H141718   2.866   3.661   6.053
10253WAT     H241719   2.957   3.593   6.131
10253WAT    EPW41720   2.934   3.658   6.093
10254WAT      O41721   1.906   3.329   6.571
10254WAT     H141722   1.937   3.293   6.497
10254WAT     H241723   1.826   3.296   6.578
10254WAT    EPW41724   1.899   3.319   6.561
10255WAT      O41725   2.679   4.186   6.893
10255WAT     H141726   2.754   4.211   6.930
10255WAT     H241727   2.681   4.224   6.814
10255WAT    EPW41728   2.691   4.196   6.887
10256WAT      O41729   1.674   4.687   5.968
10256WAT     H141730   1.653   4.610   5.934
10256WAT     H241731   1.642   4.745   5.911
10256WAT    EPW41732   1.666   4.684   5.955
10257WAT      O41733   2.361   4.377   5.208
10257WAT     H141734   2.405   4.320   5.160
10257WAT     H241735   2.320   4.427   5.149
10257WAT    EPW41736   2.361   4.376   5.193
10258WAT      O41737   1.406   4.937   6.315
10258WAT     H141738   1.415   4.916   6.399
10258WAT     H241739   1.439   4.868   6.273
10258WAT    EPW41740   1.413   4.924   6.321
10259WAT      O41741   2.373   3.137   3.630
10259WAT     H141742   2.366   3.190   3.561
10259WAT     H241743   2.459   3.123   3.637
10259WAT    EPW41744   2.385   3.143   3.621
10260WAT      O41745   2.394   3.774   4.094
10260WAT     H141746   2.358   3.850   4.117
10260WAT     H241747   2.462   3.766   4.149
10260WAT    EPW41748   2.399   3.784   4.106
10261WAT      O41749   1.306   4.260   3.593
10261WAT     H141750   1.244   4.251   3.653
10261WAT     H241751   1.320   4.179   3.565
10261WAT    EPW41752   1.299   4.247   3.598
10262WAT      O41753   2.998   4.524   3.457
10262WAT     H141754   3.076   4.490   3.477
10262WAT     H241755   2.958   4.460   3.413
10262WAT    EPW41756   3.004   4.509   3.453
10263WAT      O41757   1.293   3.618   3.275
10263WAT     H141758   1.227   3.665   3.242
10263WAT     H241759   1.263   3.536   3.274
10263WAT    EPW41760   1.279   3.613   3.270
10264WAT      O41761   1.480   4.196   3.206
10264WAT     H141762   1.477   4.165   3.125
10264WAT     H241763   1.518   4.132   3.252
10264WAT    EPW41764   1.485   4.182   3.201
10265WAT      O41765   1.560   4.380   3.585
10265WAT     H141766   1.615   4.338   3.639
10265WAT     H241767   1.484   4.339   3.598
10265WAT    EPW41768   1.557   4.368   3.595
10266WAT      O41769   1.993   3.268   3.568
10266WAT     H141770   1.993   3.326   3.502
10266WAT     H241771   2.060   3.216   3.549
10266WAT    EPW41772   2.003   3.269   3.555
10267WAT      O41773   1.461   4.669   3.223
10267WAT     H141774   1.500   4.681   3.146
10267WAT     H241775   1.489   4.590   3.248
10267WAT    EPW41776   1.471   4.659   3.215
10268WAT      O41777   1.347   4.490   4.308
10268WAT     H141778   1.369   4.475   4.391
10268WAT     H241779   1.281   4.436   4.294
10268WAT    EPW41780   1.341   4.480   4.318
10269WAT      O41781   2.011   4.307   4.710
10269WAT     H141782   1.989   4.288   4.793
10269WAT     H241783   1.936   4.302   4.667
10269WAT    EPW41784   1.997   4.304   4.716
10270WAT      O41785   1.500   4.020   3.768
10270WAT     H141786   1.462   4.020   3.689
10270WAT     H241787   1.552   3.950   3.764
10270WAT    EPW41788   1.502   4.009   3.756
10271WAT      O41789   1.970   3.593   4.306
10271WAT     H141790   2.042   3.596   4.256
10271WAT     H241791   1.946   3.509   4.302
10271WAT    EPW41792   1.977   3.581   4.298
10272WAT      O41793   2.035   4.544   4.480
10272WAT     H141794   1.985   4.612   4.459
10272WAT     H241795   2.054   4.557   4.564
10272WAT    EPW41796   2.031   4.556   4.489
10273WAT      O41797   1.662   3.798   3.765
10273WAT     H141798   1.726   3.746   3.795
10273WAT     H241799   1.592   3.746   3.763
10273WAT    EPW41800   1.661   3.783   3.769
10274WAT      O41801   2.090   4.400   3.897
10274WAT     H141802   2.114   4.318   3.914
10274WAT     H241803   2.166   4.441   3.884
10274WAT    EPW41804   2.105   4.394   3.898
10275WAT      O41805   2.196   4.329   3.562
10275WAT     H141806   2.231   4.262   3.605
10275WAT     H241807   2.213   4.312   3.478
10275WAT    EPW41808   2.204   4.317   3.556
10276WAT      O41809   2.315   3.901   4.588
10276WAT     H141810   2.229   3.884   4.589
10276WAT     H241811   2.329   3.942   4.663
10276WAT    EPW41812   2.304   3.904   4.599
10277WAT      O41813   1.726   3.324   3.634
10277WAT     H141814   1.694   3.377   3.574
10277WAT     H241815   1.810   3.316   3.613
10277WAT    EPW41816   1.734   3.330   3.622
10278WAT      O41817   2.681   3.100   4.633
10278WAT     H141818   2.685   3.174   4.587
10278WAT     H241819   2.605   3.106   4.674
10278WAT    EPW41820   2.671   3.112   4.632
10279WAT      O41821   2.033   3.270   3.854
10279WAT     H141822   2.057   3.352   3.867
10279WAT     H241823   2.006   3.269   3.771
10279WAT    EPW41824   2.032   3.282   3.843
10280WAT      O41825   2.421   3.543   3.089
10280WAT     H141826   2.475   3.612   3.083
10280WAT     H241827   2.464   3.488   3.142
10280WAT    EPW41828   2.436   3.545   3.096
10281WAT      O41829   1.325   3.762   4.010
10281WAT     H141830   1.320   3.849   4.020
10281WAT     H241831   1.256   3.732   4.055
10281WAT    EPW41832   1.314   3.771   4.018
10282WAT      O41833   1.353   4.737   3.848
10282WAT     H141834   1.285   4.781   3.815
10282WAT     H241835   1.388   4.697   3.779
10282WAT    EPW41836   1.348   4.738   3.833
10283WAT      O41837   1.921   4.382   3.541
10283WAT     H141838   1.892   4.408   3.619
10283WAT     H241839   2.006   4.368   3.555
10283WAT    EPW41840   1.929   4.384   3.555
10284WAT      O41841   2.571   4.689   3.298
10284WAT     H141842   2.650   4.724   3.303
10284WAT     H241843   2.584   4.606   3.323
10284WAT    EPW41844   2.585   4.682   3.302
10285WAT      O41845   2.361   4.711   3.479
10285WAT     H141846   2.374   4.779   3.532
10285WAT     H241847   2.427   4.716   3.422
10285WAT    EPW41848   2.373   4.722   3.479
10286WAT      O41849   1.557   3.249   4.046
10286WAT     H141850   1.547   3.176   3.999
10286WAT     H241851   1.612   3.226   4.109
10286WAT    EPW41852   1.563   3.235   4.048
10287WAT      O41853   1.929   3.489   4.956
10287WAT     H141854   1.920   3.447   4.880
10287WAT     H241855   1.977   3.558   4.935
10287WAT    EPW41856   1.935   3.493   4.941
10288WAT      O41857   1.468   4.641   3.608
10288WAT     H141858   1.510   4.565   3.616
10288WAT     H241859   1.524   4.690   3.562
10288WAT    EPW41860   1.483   4.637   3.602
10289WAT      O41861   2.561   4.826   4.295
10289WAT     H141862   2.605   4.863   4.361
10289WAT     H241863   2.541   4.894   4.244
10289WAT    EPW41864   2.564   4.842   4.297
10290WAT      O41865   1.514   3.395   4.896
10290WAT     H141866   1.432   3.366   4.885
10290WAT     H241867   1.557   3.364   4.827
10290WAT    EPW41868   1.508   3.386   4.885
10291WAT      O41869   1.617   4.456   3.954
10291WAT     H141870   1.677   4.452   3.892
10291WAT     H241871   1.643   4.397   4.012
10291WAT    EPW41872   1.629   4.447   3.954
10292WAT      O41873   1.924   4.742   3.836
10292WAT     H141874   2.006   4.763   3.817
10292WAT     H241875   1.877   4.796   3.788
10292WAT    EPW41876   1.929   4.753   3.826
10293WAT      O41877   2.117   3.218   4.838
10293WAT     H141878   2.133   3.148   4.789
10293WAT     H241879   2.044   3.251   4.804
10293WAT    EPW41880   2.109   3.213   4.826
10294WAT      O41881   2.219   3.676   3.674
10294WAT     H141882   2.235   3.634   3.599
10294WAT     H241883   2.297   3.678   3.713
10294WAT    EPW41884   2.233   3.670   3.669
10295WAT      O41885   2.825   4.795   3.349
10295WAT     H141886   2.829   4.881   3.364
10295WAT     H241887   2.820   4.760   3.429
10295WAT    EPW41888   2.825   4.803   3.363
10296WAT      O41889   1.836   4.740   4.423
10296WAT     H141890   1.841   4.776   4.502
10296WAT     H241891   1.750   4.726   4.413
10296WAT    EPW41892   1.824   4.743   4.433
10297WAT      O41893   1.245   3.499   4.633
10297WAT     H141894   1.240   3.575   4.676
10297WAT     H241895   1.311   3.511   4.577
10297WAT    EPW41896   1.254   3.512   4.631
10298WAT      O41897   2.584   4.479   4.737
10298WAT     H141898   2.566   4.527   4.807
10298WAT     H241899   2.672   4.475   4.736
10298WAT    EPW41900   2.595   4.485   4.747
10299WAT      O41901   2.211   4.528   3.133
10299WAT     H141902   2.179   4.583   3.192
10299WAT     H241903   2.285   4.565   3.107
10299WAT    EPW41904   2.217   4.542   3.138
10300WAT      O41905   2.543   3.365   3.269
10300WAT     H141906   2.601   3.300   3.265
10300WAT     H241907   2.576   3.417   3.330
10300WAT    EPW41908   2.557   3.363   3.277
10301WAT      O41909   1.356   3.399   3.540
10301WAT     H141910   1.339   3.315   3.525
10301WAT     H241911   1.312   3.417   3.613
10301WAT    EPW41912   1.347   3.389   3.549
10302WAT      O41913   1.552   4.702   4.337
10302WAT     H141914   1.494   4.638   4.333
10302WAT     H241915   1.586   4.705   4.256
10302WAT    EPW41916   1.549   4.693   4.324
10303WAT      O41917   2.228   3.547   3.417
10303WAT     H141918   2.275   3.474   3.419
10303WAT     H241919   2.146   3.519   3.411
10303WAT    EPW41920   2.223   3.532   3.416
10304WAT      O41921   2.329   4.792   4.442
10304WAT     H141922   2.404   4.803   4.398
10304WAT     H241923   2.270   4.776   4.379
10304WAT    EPW41924   2.331   4.791   4.426
10305WAT      O41925   2.317   3.280   3.400
10305WAT     H141926   2.260   3.249   3.341
10305WAT     H241927   2.388   3.297   3.353
10305WAT    EPW41928   2.319   3.278   3.384
10306WAT      O41929   3.113   4.871   3.501
10306WAT     H141930   3.057   4.924   3.541
10306WAT     H241931   3.149   4.827   3.567
10306WAT    EPW41932   3.110   4.872   3.517
10307WAT      O41933   2.076   3.543   3.878
10307WAT     H141934   2.120   3.586   3.816
10307WAT     H241935   2.119   3.562   3.951
10307WAT    EPW41936   2.089   3.552   3.880
10308WAT      O41937   2.724   4.454   3.785
10308WAT     H141938   2.773   4.385   3.765
10308WAT     H241939   2.642   4.424   3.780
10308WAT    EPW41940   2.719   4.439   3.781
10309WAT      O41941   1.676   4.563   4.681
10309WAT     H141942   1.748   4.612   4.672
10309WAT     H241943   1.633   4.600   4.747
10309WAT    EPW41944   1.681   4.575   4.689
10310WAT      O41945   1.680   3.055   3.661
10310WAT     H141946   1.687   3.142   3.651
10310WAT     H241947   1.649   3.028   3.585
10310WAT    EPW41948   1.677   3.064   3.648
10311WAT      O41949   1.921   4.106   4.050
10311WAT     H141950   1.943   4.087   4.132
10311WAT     H241951   1.860   4.046   4.031
10311WAT    EPW41952   1.915   4.095   4.059
10312WAT      O41953   2.494   3.514   4.442
10312WAT     H141954   2.478   3.559   4.515
10312WAT     H241955   2.423   3.465   4.431
10312WAT    EPW41956   2.481   3.514   4.451
10313WAT      O41957   2.045   4.143   4.311
10313WAT     H141958   2.002   4.217   4.294
10313WAT     H241959   2.000   4.107   4.376
10313WAT    EPW41960   2.032   4.149   4.318
10314WAT      O41961   2.690   4.127   4.355
10314WAT     H141962   2.749   4.072   4.323
10314WAT     H241963   2.726   4.157   4.429
10314WAT    EPW41964   2.704   4.124   4.361
10315WAT      O41965   2.639   3.084   3.673
10315WAT     H141966   2.648   3.064   3.757
10315WAT     H241967   2.684   3.021   3.632
10315WAT    EPW41968   2.647   3.072   3.679
10316WAT      O41969   1.241   4.547   4.945
10316WAT     H141970   1.301   4.595   4.986
10316WAT     H241971   1.248   4.469   4.983
10316WAT    EPW41972   1.251   4.542   4.957
10317WAT      O41973   2.885   3.541   4.411
10317WAT     H141974   2.971   3.549   4.393
10317WAT     H241975   2.859   3.623   4.422
10317WAT    EPW41976   2.894   3.554   4.410
10318WAT      O41977   1.617   3.443   3.858
10318WAT     H141978   1.648   3.397   3.791
10318WAT     H241979   1.602   3.383   3.920
10318WAT    EPW41980   1.619   3.427   3.858
10319WAT      O41981   1.705   4.205   3.744
10319WAT     H141982   1.746   4.164   3.678
10319WAT     H241983   1.640   4.150   3.765
10319WAT    EPW41984   1.702   4.191   3.737
10320WAT      O41985   1.574   4.893   3.908
10320WAT     H141986   1.499   4.854   3.888
10320WAT     H241987   1.620   4.890   3.834
10320WAT    EPW41988   1.570   4.887   3.894
10321WAT      O41989   1.473   3.685   4.236
10321WAT     H141990   1.556   3.680   4.211
10321WAT     H241991   1.430   3.697   4.160
10321WAT    EPW41992   1.479   3.686   4.221
10322WAT      O41993   2.623   3.962   3.297
10322WAT     H141994   2.698   4.002   3.277
10322WAT     H241995   2.638   3.926   3.375
10322WAT    EPW41996   2.636   3.963   3.306
10323WAT      O41997   1.812   4.130   3.493
10323WAT     H141998   1.842   4.212   3.497
10323WAT     H241999   1.883   4.083   3.474
10323WAT    EPW42000   1.827   4.135   3.491
10324WAT      O42001   3.083   3.410   3.232
10324WAT     H142002   3.121   3.347   3.185
10324WAT     H242003   3.150   3.449   3.271
10324WAT    EPW42004   3.099   3.406   3.231
10325WAT      O42005   1.355   4.345   3.957
10325WAT     H142006   1.305   4.411   3.985
10325WAT     H242007   1.433   4.381   3.948
10325WAT    EPW42008   1.359   4.360   3.960
10326WAT      O42009   2.088   3.711   4.886
10326WAT     H142010   2.029   3.772   4.908
10326WAT     H242011   2.109   3.731   4.804
10326WAT    EPW42012   2.082   3.723   4.877
10327WAT      O42013   1.396   4.008   3.512
10327WAT     H142014   1.372   3.924   3.516
10327WAT     H242015   1.464   4.007   3.457
10327WAT    EPW42016   1.402   3.995   3.504
10328WAT      O42017   2.930   3.268   3.434
10328WAT     H142018   2.992   3.210   3.456
10328WAT     H242019   2.970   3.320   3.376
10328WAT    EPW42020   2.945   3.267   3.429
10329WAT      O42021   2.328   4.540   3.889
10329WAT     H142022   2.297   4.621   3.878
10329WAT     H242023   2.367   4.522   3.813
10329WAT    EPW42024   2.329   4.550   3.876
10330WAT      O42025   1.274   4.499   3.463
10330WAT     H142026   1.332   4.550   3.504
10330WAT     H242027   1.276   4.425   3.510
10330WAT    EPW42028   1.283   4.496   3.476
10331WAT      O42029   1.712   4.274   4.140
10331WAT     H142030   1.764   4.317   4.195
10331WAT     H242031   1.768   4.225   4.094
10331WAT    EPW42032   1.728   4.273   4.141
10332WAT      O42033   2.632   3.481   3.846
10332WAT     H142034   2.676   3.540   3.894
10332WAT     H242035   2.693   3.448   3.794
10332WAT    EPW42036   2.648   3.485   3.846
10333WAT      O42037   1.249   4.349   3.228
10333WAT     H142038   1.316   4.294   3.224
10333WAT     H242039   1.266   4.397   3.299
10333WAT    EPW42040   1.261   4.348   3.238
10334WAT      O42041   1.358   4.071   3.999
10334WAT     H142042   1.405   4.049   3.929
10334WAT     H242043   1.354   4.158   3.995
10334WAT    EPW42044   1.364   4.080   3.988
10335WAT      O42045   1.973   3.454   3.362
10335WAT     H142046   1.958   3.440   3.277
10335WAT     H242047   1.948   3.537   3.374
10335WAT    EPW42048   1.967   3.464   3.351
10336WAT      O42049   2.972   4.878   4.318
10336WAT     H142050   2.931   4.846   4.388
10336WAT     H242051   3.051   4.898   4.348
10336WAT    EPW42052   2.977   4.876   4.333
10337WAT      O42053   1.845   4.484   3.787
10337WAT     H142054   1.865   4.568   3.798
10337WAT     H242055   1.912   4.441   3.824
10337WAT    EPW42056   1.858   4.490   3.794
10338WAT      O42057   1.642   3.847   4.844
10338WAT     H142058   1.599   3.788   4.891
10338WAT     H242059   1.639   3.814   4.763
10338WAT    EPW42060   1.635   3.833   4.839
10339WAT      O42061   1.662   3.725   3.322
10339WAT     H142062   1.641   3.661   3.378
10339WAT     H242063   1.622   3.701   3.248
10339WAT    EPW42064   1.653   3.712   3.319
10340WAT      O42065   1.716   3.930   4.011
10340WAT     H142066   1.698   3.896   3.933
10340WAT     H242067   1.726   3.860   4.063
10340WAT    EPW42068   1.715   3.915   4.007
10341WAT      O42069   1.684   3.910   4.365
10341WAT     H142070   1.704   3.851   4.304
10341WAT     H242071   1.627   3.963   4.325
10341WAT    EPW42072   1.679   3.909   4.350
10342WAT      O42073   2.734   3.687   4.004
10342WAT     H142074   2.723   3.743   4.070
10342WAT     H242075   2.787   3.730   3.950
10342WAT    EPW42076   2.740   3.702   4.006
10343WAT      O42077   2.178   4.749   4.214
10343WAT     H142078   2.122   4.690   4.184
10343WAT     H242079   2.157   4.822   4.171
10343WAT    EPW42080   2.167   4.751   4.203
10344WAT      O42081   2.295   3.290   4.458
10344WAT     H142082   2.315   3.205   4.452
10344WAT     H242083   2.314   3.308   4.542
10344WAT    EPW42084   2.301   3.280   4.470
10345WAT      O42085   2.622   3.541   3.469
10345WAT     H142086   2.697   3.541   3.513
10345WAT     H242087   2.593   3.622   3.477
10345WAT    EPW42088   2.629   3.553   3.476
10346WAT      O42089   1.497   4.080   4.879
10346WAT     H142090   1.494   4.122   4.803
10346WAT     H242091   1.545   4.009   4.862
10346WAT    EPW42092   1.504   4.076   4.865
10347WAT      O42093   2.103   4.558   4.775
10347WAT     H142094   2.141   4.552   4.854
10347WAT     H242095   2.080   4.475   4.758
10347WAT    EPW42096   2.105   4.544   4.784
10348WAT      O42097   2.193   3.583   4.129
10348WAT     H142098   2.257   3.641   4.122
10348WAT     H242099   2.234   3.507   4.142
10348WAT    EPW42100   2.208   3.580   4.130
10349WAT      O42101   2.351   3.866   3.316
10349WAT     H142102   2.432   3.898   3.311
10349WAT     H242103   2.326   3.885   3.397
10349WAT    EPW42104   2.360   3.874   3.327
10350WAT      O42105   2.876   4.215   3.786
10350WAT     H142106   2.937   4.264   3.823
10350WAT     H242107   2.916   4.138   3.773
10350WAT    EPW42108   2.891   4.211   3.789
10351WAT      O42109   2.607   4.258   4.107
10351WAT     H142110   2.533   4.294   4.136
10351WAT     H242111   2.637   4.213   4.176
10351WAT    EPW42112   2.601   4.257   4.122
10352WAT      O42113   1.878   4.612   3.396
10352WAT     H142114   1.892   4.541   3.446
10352WAT     H242115   1.958   4.645   3.385
10352WAT    EPW42116   1.892   4.606   3.402
10353WAT      O42117   1.835   3.129   3.261
10353WAT     H142118   1.811   3.093   3.337
10353WAT     H242119   1.779   3.195   3.250
10353WAT    EPW42120   1.823   3.133   3.270
10354WAT      O42121   2.128   4.706   3.327
10354WAT     H142122   2.197   4.709   3.380
10354WAT     H242123   2.124   4.787   3.294
10354WAT    EPW42124   2.138   4.719   3.330
10355WAT      O42125   2.501   4.656   4.944
10355WAT     H142126   2.537   4.671   5.022
10355WAT     H242127   2.519   4.729   4.900
10355WAT    EPW42128   2.509   4.669   4.949
10356WAT      O42129   2.832   3.211   4.853
10356WAT     H142130   2.788   3.184   4.783
10356WAT     H242131   2.874   3.139   4.880
10356WAT    EPW42132   2.832   3.197   4.846
10357WAT      O42133   1.620   3.999   3.344
10357WAT     H142134   1.634   3.913   3.353
10357WAT     H242135   1.681   4.034   3.395
10357WAT    EPW42136   1.631   3.991   3.353
10358WAT      O42137   2.411   4.102   4.409
10358WAT     H142138   2.498   4.099   4.399
10358WAT     H242139   2.394   4.035   4.462
10358WAT    EPW42140   2.422   4.092   4.416
10359WAT      O42141   1.276   3.130   3.500
10359WAT     H142142   1.272   3.076   3.432
10359WAT     H242143   1.245   3.083   3.566
10359WAT    EPW42144   1.271   3.115   3.500
10360WAT      O42145   2.245   3.930   3.563
10360WAT     H142146   2.279   3.987   3.619
10360WAT     H242147   2.235   3.858   3.611
10360WAT    EPW42148   2.249   3.928   3.579
10361WAT      O42149   2.941   4.222   4.150
10361WAT     H142150   3.004   4.204   4.092
10361WAT     H242151   2.933   4.148   4.196
10361WAT    EPW42152   2.949   4.209   4.149
10362WAT      O42153   1.676   3.353   3.210
10362WAT     H142154   1.611   3.353   3.151
10362WAT     H242155   1.737   3.403   3.173
10362WAT    EPW42156   1.675   3.361   3.196
10363WAT      O42157   2.176   4.139   3.949
10363WAT     H142158   2.093   4.118   3.966
10363WAT     H242159   2.221   4.105   4.015
10363WAT    EPW42160   2.170   4.131   3.961
10364WAT      O42161   1.829   4.735   3.029
10364WAT     H142162   1.842   4.657   3.066
10364WAT     H242163   1.835   4.791   3.096
10364WAT    EPW42164   1.832   4.732   3.045
10365WAT      O42165   1.518   4.093   4.231
10365WAT     H142166   1.575   4.155   4.207
10365WAT     H242167   1.475   4.075   4.158
10365WAT    EPW42168   1.520   4.100   4.217
10366WAT      O42169   1.814   3.625   3.919
10366WAT     H142170   1.895   3.596   3.902
10366WAT     H242171   1.764   3.556   3.900
10366WAT    EPW42172   1.819   3.610   3.914
10367WAT      O42173   3.354   4.720   3.234
10367WAT     H142174   3.393   4.677   3.170
10367WAT     H242175   3.405   4.705   3.304
10367WAT    EPW42176   3.367   4.712   3.235
10368WAT      O42177   1.334   3.738   3.532
10368WAT     H142178   1.360   3.696   3.604
10368WAT     H242179   1.338   3.677   3.470
10368WAT    EPW42180   1.339   3.723   3.534
10369WAT      O42181   1.779   3.978   3.105
10369WAT     H142182   1.730   3.984   3.177
10369WAT     H242183   1.726   3.941   3.047
10369WAT    EPW42184   1.764   3.973   3.107
10370WAT      O42185   1.488   4.213   4.637
10370WAT     H142186   1.445   4.165   4.578
10370WAT     H242187   1.458   4.294   4.624
10370WAT    EPW42188   1.477   4.217   4.626
10371WAT      O42189   1.939   3.725   3.351
10371WAT     H142190   1.963   3.804   3.378
10371WAT     H242191   1.853   3.732   3.339
10371WAT    EPW42192   1.930   3.737   3.353
10372WAT      O42193   2.833   3.502   4.895
10372WAT     H142194   2.747   3.511   4.903
10372WAT     H242195   2.841   3.433   4.841
10372WAT    EPW42196   2.821   3.493   4.888
10373WAT      O42197   1.308   3.392   4.029
10373WAT     H142198   1.287   3.395   3.945
10373WAT     H242199   1.383   3.347   4.031
10373WAT    EPW42200   1.316   3.386   4.017
10374WAT      O42201   3.185   4.631   3.954
10374WAT     H142202   3.199   4.651   3.871
10374WAT     H242203   3.265   4.628   3.989
10374WAT    EPW42204   3.198   4.633   3.947
10375WAT      O42205   2.509   3.801   4.912
10375WAT     H142206   2.584   3.835   4.940
10375WAT     H242207   2.463   3.870   4.885
10375WAT    EPW42208   2.513   3.816   4.912
10376WAT      O42209   2.844   4.377   3.277
10376WAT     H142210   2.844   4.291   3.263
10376WAT     H242211   2.766   4.391   3.315
10376WAT    EPW42212   2.832   4.366   3.281
10377WAT      O42213   2.501   4.217   3.231
10377WAT     H142214   2.535   4.139   3.250
10377WAT     H242215   2.498   4.217   3.144
10377WAT    EPW42216   2.505   4.205   3.221
10378WAT      O42217   1.928   4.389   4.277
10378WAT     H142218   1.941   4.434   4.350
10378WAT     H242219   1.945   4.448   4.214
10378WAT    EPW42220   1.932   4.405   4.278
10379WAT      O42221   1.752   4.294   4.603
10379WAT     H142222   1.673   4.258   4.611
10379WAT     H242223   1.737   4.379   4.621
10379WAT    EPW42224   1.738   4.302   4.607
10380WAT      O42225   2.706   3.337   4.482
10380WAT     H142226   2.775   3.390   4.478
10380WAT     H242227   2.638   3.390   4.469
10380WAT    EPW42228   2.706   3.352   4.479
10381WAT      O42229   2.272   4.019   4.184
10381WAT     H142230   2.332   4.039   4.245
10381WAT     H242231   2.196   4.036   4.223
10381WAT    EPW42232   2.270   4.024   4.199
10382WAT      O42233   1.890   3.614   4.573
10382WAT     H142234   1.895   3.536   4.610
10382WAT     H242235   1.919   3.601   4.492
10382WAT    EPW42236   1.895   3.601   4.566
10383WAT      O42237   2.209   4.794   3.831
10383WAT     H142238   2.194   4.846   3.899
10383WAT     H242239   2.264   4.841   3.781
10383WAT    EPW42240   2.215   4.809   3.834
10384WAT      O42241   2.749   3.159   4.265
10384WAT     H142242   2.744   3.216   4.331
10384WAT     H242243   2.822   3.182   4.224
10384WAT    EPW42244   2.759   3.171   4.269
10385WAT      O42245   2.034   3.209   4.520
10385WAT     H142246   2.114   3.235   4.496
10385WAT     H242247   2.045   3.125   4.542
10385WAT    EPW42248   2.048   3.200   4.520
10386WAT      O42249   1.996   4.577   4.086
10386WAT     H142250   1.951   4.637   4.042
10386WAT     H242251   2.027   4.524   4.023
10386WAT    EPW42252   1.994   4.578   4.070
10387WAT      O42253   2.589   4.203   4.802
10387WAT     H142254   2.675   4.189   4.791
10387WAT     H242255   2.579   4.286   4.776
10387WAT    EPW42256   2.600   4.213   4.796
10388WAT      O42257   2.133   4.079   3.171
10388WAT     H142258   2.067   4.115   3.129
10388WAT     H242259   2.172   4.146   3.211
10388WAT    EPW42260   2.129   4.094   3.171
10389WAT      O42261   1.754   3.703   4.175
10389WAT     H142262   1.769   3.671   4.095
10389WAT     H242263   1.820   3.674   4.223
10389WAT    EPW42264   1.766   3.694   4.170
10390WAT      O42265   2.412   3.650   4.676
10390WAT     H142266   2.383   3.723   4.639
10390WAT     H242267   2.463   3.679   4.741
10390WAT    EPW42268   2.415   3.665   4.680
10391WAT      O42269   2.602   3.739   4.282
10391WAT     H142270   2.669   3.770   4.329
10391WAT     H242271   2.579   3.667   4.325
10391WAT    EPW42272   2.609   3.733   4.296
10392WAT      O42273   2.266   4.777   4.712
10392WAT     H142274   2.267   4.786   4.625
10392WAT     H242275   2.223   4.702   4.725
10392WAT    EPW42276   2.260   4.767   4.701
10393WAT      O42277   2.854   3.638   3.606
10393WAT     H142278   2.857   3.681   3.682
10393WAT     H242279   2.938   3.638   3.579
10393WAT    EPW42280   2.867   3.644   3.613
10394WAT      O42281   2.042   3.199   4.134
10394WAT     H142282   1.972   3.231   4.174
10394WAT     H242283   2.024   3.210   4.049
10394WAT    EPW42284   2.029   3.205   4.127
10395WAT      O42285   2.802   3.310   3.694
10395WAT     H142286   2.751   3.241   3.678
10395WAT     H242287   2.846   3.321   3.620
10395WAT    EPW42288   2.801   3.302   3.681
10396WAT      O42289   1.270   3.277   4.797
10396WAT     H142290   1.269   3.346   4.744
10396WAT     H242291   1.186   3.257   4.806
10396WAT    EPW42292   1.257   3.284   4.791
10397WAT      O42293   1.881   4.861   4.162
10397WAT     H142294   1.885   4.840   4.246
10397WAT     H242295   1.814   4.813   4.132
10397WAT    EPW42296   1.871   4.851   4.170
10398WAT      O42297   1.603   3.484   3.448
10398WAT     H142298   1.615   3.438   3.374
10398WAT     H242299   1.523   3.461   3.473
10398WAT    EPW42300   1.593   3.474   3.441
10399WAT      O42301   2.589   4.190   3.833
10399WAT     H142302   2.591   4.199   3.920
10399WAT     H242303   2.671   4.173   3.812
10399WAT    EPW42304   2.601   4.189   3.843
10400WAT      O42305   2.333   4.142   3.720
10400WAT     H142306   2.286   4.138   3.793
10400WAT     H242307   2.415   4.154   3.749
10400WAT    EPW42308   2.338   4.143   3.735
10401WAT      O42309   2.395   4.516   4.525
10401WAT     H142310   2.452   4.512   4.590
10401WAT     H242311   2.384   4.602   4.511
10401WAT    EPW42312   2.402   4.528   4.532
10402WAT      O42313   1.392   4.891   4.711
10402WAT     H142314   1.332   4.828   4.704
10402WAT     H242315   1.348   4.958   4.746
10402WAT    EPW42316   1.377   4.892   4.715
10403WAT      O42317   2.363   4.024   4.831
10403WAT     H142318   2.423   4.087   4.823
10403WAT     H242319   2.301   4.061   4.881
10403WAT    EPW42320   2.363   4.039   4.837
10404WAT      O42321   2.722   4.881   3.948
10404WAT     H142322   2.672   4.906   4.015
10404WAT     H242323   2.783   4.831   3.986
10404WAT    EPW42324   2.724   4.877   3.964
10405WAT      O42325   2.385   4.424   4.173
10405WAT     H142326   2.360   4.456   4.096
10405WAT     H242327   2.450   4.477   4.198
10405WAT    EPW42328   2.391   4.436   4.166
10406WAT      O42329   1.641   3.738   4.586
10406WAT     H142330   1.644   3.796   4.521
10406WAT     H242331   1.718   3.699   4.582
10406WAT    EPW42332   1.653   3.741   4.575
10407WAT      O42333   1.468   3.547   4.474
10407WAT     H142334   1.459   3.583   4.395
10407WAT     H242335   1.517   3.604   4.517
10407WAT    EPW42336   1.474   3.561   4.469
10408WAT      O42337   1.639   3.258   4.687
10408WAT     H142338   1.601   3.180   4.693
10408WAT     H242339   1.632   3.278   4.602
10408WAT    EPW42340   1.632   3.250   4.676
10409WAT      O42341   2.420   4.482   3.624
10409WAT     H142342   2.402   4.556   3.582
10409WAT     H242343   2.350   4.432   3.609
10409WAT    EPW42344   2.407   4.486   3.616
10410WAT      O42345   1.343   4.076   4.446
10410WAT     H142346   1.392   4.091   4.375
10410WAT     H242347   1.323   3.992   4.440
10410WAT    EPW42348   1.347   4.066   4.434
10411WAT      O42349   1.508   3.642   3.101
10411WAT     H142350   1.438   3.640   3.152
10411WAT     H242351   1.506   3.564   3.062
10411WAT    EPW42352   1.497   3.630   3.103
10412WAT      O42353   2.337   3.366   4.720
10412WAT     H142354   2.360   3.449   4.732
10412WAT     H242355   2.269   3.356   4.774
10412WAT    EPW42356   2.330   3.377   4.730
10413WAT      O42357   2.411   3.307   3.856
10413WAT     H142358   2.466   3.369   3.830
10413WAT     H242359   2.395   3.261   3.783
10413WAT    EPW42360   2.417   3.309   3.842
10414WAT      O42361   1.817   4.474   3.163
10414WAT     H142362   1.857   4.508   3.232
10414WAT     H242363   1.737   4.456   3.192
10414WAT    EPW42364   1.811   4.476   3.177
10415WAT      O42365   2.739   3.463   4.176
10415WAT     H142366   2.784   3.486   4.247
10415WAT     H242367   2.744   3.534   4.126
10415WAT    EPW42368   2.746   3.477   4.179
10416WAT      O42369   1.879   4.047   4.510
10416WAT     H142370   1.840   4.118   4.543
10416WAT     H242371   1.815   4.007   4.467
10416WAT    EPW42372   1.864   4.052   4.509
10417WAT      O42373   2.800   4.657   3.599
10417WAT     H142374   2.767   4.602   3.658
10417WAT     H242375   2.869   4.614   3.567
10417WAT    EPW42376   2.806   4.643   3.603
10418WAT      O42377   1.578   4.432   3.306
10418WAT     H142378   1.583   4.417   3.392
10418WAT     H242379   1.548   4.357   3.274
10418WAT    EPW42380   1.574   4.419   3.314
10419WAT      O42381   1.922   4.222   3.061
10419WAT     H142382   1.861   4.160   3.071
10419WAT     H242383   1.885   4.293   3.097
10419WAT    EPW42384   1.907   4.224   3.068
10420WAT      O42385   1.877   3.337   4.330
10420WAT     H142386   1.792   3.321   4.344
10420WAT     H242387   1.917   3.285   4.388
10420WAT    EPW42388   1.870   3.327   4.341
10421WAT      O42389   2.297   3.328   4.181
10421WAT     H142390   2.228   3.283   4.153
10421WAT     H242391   2.294   3.319   4.268
10421WAT    EPW42392   2.286   3.320   4.190
10422WAT      O42393   2.623   4.558   4.245
10422WAT     H142394   2.641   4.533   4.327
10422WAT     H242395   2.608   4.643   4.252
10422WAT    EPW42396   2.624   4.567   4.258
10423WAT      O42397   2.519   4.877   4.766
10423WAT     H142398   2.446   4.837   4.741
10423WAT     H242399   2.495   4.960   4.775
10423WAT    EPW42400   2.505   4.884   4.764
10424WAT      O42401   2.045   3.842   4.624
10424WAT     H142402   1.996   3.772   4.606
10424WAT     H242403   1.994   3.909   4.602
10424WAT    EPW42404   2.030   3.841   4.618
10425WAT      O42405   2.110   3.179   3.233
10425WAT     H142406   2.118   3.186   3.147
10425WAT     H242407   2.023   3.176   3.246
10425WAT    EPW42408   2.098   3.179   3.222
10426WAT      O42409   1.894   4.737   4.709
10426WAT     H142410   1.874   4.789   4.776
10426WAT     H242411   1.958   4.687   4.740
10426WAT    EPW42412   1.901   4.737   4.723
10427WAT      O42413   2.927   4.708   4.079
10427WAT     H142414   3.006   4.695   4.043
10427WAT     H242415   2.944   4.753   4.151
10427WAT    EPW42416   2.941   4.713   4.084
10428WAT      O42417   1.607   3.314   4.419
10428WAT     H142418   1.549   3.251   4.402
10428WAT     H242419   1.558   3.385   4.427
10428WAT    EPW42420   1.591   3.315   4.418
10429WAT      O42421   1.562   4.738   4.872
10429WAT     H142422   1.636   4.780   4.892
10429WAT     H242423   1.519   4.795   4.821
10429WAT    EPW42424   1.567   4.753   4.867
10430WAT      O42425   2.452   3.703   3.816
10430WAT     H142426   2.512   3.640   3.821
10430WAT     H242427   2.445   3.731   3.898
10430WAT    EPW42428   2.460   3.698   3.829
10431WAT      O42429   1.434   3.644   3.779
10431WAT     H142430   1.394   3.673   3.850
10431WAT     H242431   1.475   3.571   3.805
10431WAT    EPW42432   1.434   3.637   3.793
10432WAT      O42433   1.427   4.479   4.574
10432WAT     H142434   1.370   4.536   4.607
10432WAT     H242435   1.505   4.515   4.593
10432WAT    EPW42436   1.431   4.493   4.582
10433WAT      O42437   2.647   3.822   3.537
10433WAT     H142438   2.723   3.783   3.554
10433WAT     H242439   2.617   3.842   3.617
10433WAT    EPW42440   2.654   3.819   3.552
10434WAT      O42441   1.652   4.769   3.424
10434WAT     H142442   1.596   4.746   3.361
10434WAT     H242443   1.717   4.712   3.416
10434WAT    EPW42444   1.653   4.757   3.413
10435WAT      O42445   2.025   3.979   3.407
10435WAT     H142446   2.060   4.009   3.333
10435WAT     H242447   2.094   3.970   3.460
10435WAT    EPW42448   2.040   3.982   3.404
10436WAT      O42449   2.591   4.429   3.390
10436WAT     H142450   2.552   4.425   3.468
10436WAT     H242451   2.556   4.361   3.347
10436WAT    EPW42452   2.580   4.418   3.395
10437WAT      O42453   2.922   3.719   5.058
10437WAT     H142454   2.864   3.784   5.049
10437WAT     H242455   2.904   3.666   4.990
10437WAT    EPW42456   2.911   3.721   5.046
10438WAT      O42457   1.899   3.355   4.707
10438WAT     H142458   1.939   3.312   4.642
10438WAT     H242459   1.818   3.321   4.707
10438WAT    EPW42460   1.893   3.343   4.698
10439WAT      O42461   1.663   4.701   4.082
10439WAT     H142462   1.650   4.625   4.042
10439WAT     H242463   1.632   4.760   4.025
10439WAT    EPW42464   1.656   4.698   4.068
10440WAT      O42465   2.246   4.298   3.291
10440WAT     H142466   2.329   4.275   3.273
10440WAT     H242467   2.233   4.367   3.239
10440WAT    EPW42468   2.257   4.305   3.281
10441WAT      O42469   1.421   4.933   4.436
10441WAT     H142470   1.420   4.916   4.522
10441WAT     H242471   1.460   4.863   4.402
10441WAT    EPW42472   1.426   4.920   4.444
10442WAT      O42473   2.442   3.192   1.750
10442WAT     H142474   2.471   3.259   1.701
10442WAT     H242475   2.515   3.151   1.773
10442WAT    EPW42476   2.457   3.196   1.746
10443WAT      O42477   2.332   3.817   2.218
10443WAT     H142478   2.298   3.894   2.241
10443WAT     H242479   2.393   3.802   2.278
10443WAT    EPW42480   2.336   3.826   2.230
10444WAT      O42481   1.296   4.260   1.698
10444WAT     H142482   1.234   4.255   1.759
10444WAT     H242483   1.305   4.177   1.672
10444WAT    EPW42484   1.288   4.247   1.703
10445WAT      O42485   2.949   4.641   1.515
10445WAT     H142486   3.012   4.585   1.541
10445WAT     H242487   2.897   4.592   1.465
10445WAT    EPW42488   2.951   4.626   1.512
10446WAT      O42489   1.275   3.616   1.347
10446WAT     H142490   1.211   3.668   1.318
10446WAT     H242491   1.243   3.536   1.334
10446WAT    EPW42492   1.261   3.612   1.341
10447WAT      O42493   1.558   4.209   1.299
10447WAT     H142494   1.537   4.169   1.225
10447WAT     H242495   1.573   4.144   1.355
10447WAT    EPW42496   1.557   4.194   1.297
10448WAT      O42497   2.586   3.969   1.838
10448WAT     H142498   2.591   3.947   1.754
10448WAT     H242499   2.530   3.912   1.871
10448WAT    EPW42500   2.579   3.957   1.830
10449WAT      O42501   1.547   4.386   1.698
10449WAT     H142502   1.601   4.346   1.754
10449WAT     H242503   1.472   4.342   1.707
10449WAT    EPW42504   1.544   4.373   1.708
10450WAT      O42505   2.035   3.313   1.649
10450WAT     H142506   2.020   3.382   1.599
10450WAT     H242507   2.106   3.277   1.613
10450WAT    EPW42508   2.044   3.318   1.636
10451WAT      O42509   1.458   4.666   1.304
10451WAT     H142510   1.502   4.673   1.229
10451WAT     H242511   1.490   4.592   1.339
10451WAT    EPW42512   1.469   4.656   1.298
10452WAT      O42513   1.326   4.493   2.401
10452WAT     H142514   1.356   4.474   2.481
10452WAT     H242515   1.259   4.439   2.390
10452WAT    EPW42516   1.321   4.482   2.411
10453WAT      O42517   2.014   4.307   2.814
10453WAT     H142518   1.993   4.278   2.893
10453WAT     H242519   1.941   4.297   2.768
10453WAT    EPW42520   2.000   4.301   2.819
10454WAT      O42521   1.493   4.016   1.866
10454WAT     H142522   1.446   4.013   1.793
10454WAT     H242523   1.550   3.950   1.857
10454WAT    EPW42524   1.494   4.006   1.854
10455WAT      O42525   1.951   3.589   2.418
10455WAT     H142526   2.021   3.589   2.366
10455WAT     H242527   1.926   3.505   2.419
10455WAT    EPW42528   1.958   3.576   2.411
10456WAT      O42529   2.054   4.612   2.565
10456WAT     H142530   2.073   4.664   2.497
10456WAT     H242531   2.132   4.580   2.587
10456WAT    EPW42532   2.069   4.615   2.558
10457WAT      O42533   1.667   3.804   1.860
10457WAT     H142534   1.732   3.753   1.887
10457WAT     H242535   1.598   3.751   1.857
10457WAT    EPW42536   1.667   3.789   1.864
10458WAT      O42537   2.065   4.418   1.997
10458WAT     H142538   2.095   4.339   2.018
10458WAT     H242539   2.138   4.463   1.982
10458WAT    EPW42540   2.080   4.413   1.998
10459WAT      O42541   2.159   4.380   1.631
10459WAT     H142542   2.186   4.311   1.678
10459WAT     H242543   2.169   4.353   1.548
10459WAT    EPW42544   2.165   4.366   1.626
10460WAT      O42545   2.246   3.743   2.899
10460WAT     H142546   2.176   3.762   2.850
10460WAT     H242547   2.276   3.821   2.922
10460WAT    EPW42548   2.240   3.758   2.895
10461WAT      O42549   1.762   3.316   1.731
10461WAT     H142550   1.726   3.372   1.675
10461WAT     H242551   1.846   3.315   1.708
10461WAT    EPW42552   1.769   3.324   1.719
10462WAT      O42553   2.718   3.024   2.746
10462WAT     H142554   2.707   3.074   2.675
10462WAT     H242555   2.637   3.019   2.780
10462WAT    EPW42556   2.704   3.031   2.741
10463WAT      O42557   2.090   3.263   1.920
10463WAT     H142558   2.093   3.345   1.949
10463WAT     H242559   2.069   3.272   1.836
10463WAT    EPW42560   2.087   3.276   1.912
10464WAT      O42561   2.466   3.461   1.148
10464WAT     H142562   2.423   3.527   1.186
10464WAT     H242563   2.482   3.406   1.214
10464WAT    EPW42564   2.462   3.462   1.163
10465WAT      O42565   1.332   3.755   2.116
10465WAT     H142566   1.331   3.842   2.126
10465WAT     H242567   1.265   3.728   2.165
10465WAT    EPW42568   1.322   3.764   2.124
10466WAT      O42569   1.314   4.718   1.931
10466WAT     H142570   1.251   4.769   1.899
10466WAT     H242571   1.351   4.684   1.861
10466WAT    EPW42572   1.310   4.720   1.916
10467WAT      O42573   1.886   4.412   1.637
10467WAT     H142574   1.861   4.432   1.719
10467WAT     H242575   1.972   4.401   1.644
10467WAT    EPW42576   1.895   4.413   1.650
10468WAT      O42577   2.502   4.758   1.417
10468WAT     H142578   2.574   4.808   1.414
10468WAT     H242579   2.533   4.680   1.439
10468WAT    EPW42580   2.518   4.754   1.419
10469WAT      O42581   2.323   4.806   1.621
10469WAT     H142582   2.343   4.884   1.655
10469WAT     H242583   2.380   4.798   1.555
10469WAT    EPW42584   2.334   4.816   1.616
10470WAT      O42585   1.566   3.262   2.139
10470WAT     H142586   1.549   3.188   2.096
10470WAT     H242587   1.627   3.239   2.197
10470WAT    EPW42588   1.573   3.248   2.141
10471WAT      O42589   1.894   3.484   3.087
10471WAT     H142590   1.903   3.450   3.007
10471WAT     H242591   1.902   3.570   3.073
10471WAT    EPW42592   1.897   3.492   3.073
10472WAT      O42593   1.448   4.643   1.696
10472WAT     H142594   1.495   4.571   1.712
10472WAT     H242595   1.503   4.694   1.652
10472WAT    EPW42596   1.463   4.640   1.692
10473WAT      O42597   3.047   3.446   1.855
10473WAT     H142598   2.990   3.511   1.866
10473WAT     H242599   2.995   3.376   1.842
10473WAT    EPW42600   3.031   3.445   1.855
10474WAT      O42601   2.607   4.740   2.462
10474WAT     H142602   2.652   4.807   2.496
10474WAT     H242603   2.653   4.719   2.391
10474WAT    EPW42604   2.621   4.747   2.457
10475WAT      O42605   1.493   3.379   2.999
10475WAT     H142606   1.413   3.353   2.979
10475WAT     H242607   1.543   3.347   2.935
10475WAT    EPW42608   1.489   3.371   2.987
10476WAT      O42609   1.599   4.461   2.068
10476WAT     H142610   1.658   4.454   2.004
10476WAT     H242611   1.629   4.407   2.129
10476WAT    EPW42612   1.612   4.452   2.067
10477WAT      O42613   1.888   4.758   1.947
10477WAT     H142614   1.967   4.779   1.916
10477WAT     H242615   1.834   4.806   1.897
10477WAT    EPW42616   1.891   4.768   1.935
10478WAT      O42617   2.118   3.204   2.957
10478WAT     H142618   2.134   3.134   2.908
10478WAT     H242619   2.047   3.239   2.921
10478WAT    EPW42620   2.110   3.199   2.945
10479WAT      O42621   2.232   3.703   1.786
10479WAT     H142622   2.260   3.657   1.718
10479WAT     H242623   2.303   3.716   1.835
10479WAT    EPW42624   2.246   3.698   1.784
10480WAT      O42625   2.320   3.661   1.280
10480WAT     H142626   2.348   3.739   1.306
10480WAT     H242627   2.245   3.678   1.239
10480WAT    EPW42628   2.313   3.675   1.278
10481WAT      O42629   2.711   4.944   1.379
10481WAT     H142630   2.761   4.920   1.312
10481WAT     H242631   2.765   4.988   1.431
10481WAT    EPW42632   2.726   4.947   1.376
10482WAT      O42633   1.722   4.872   2.540
10482WAT     H142634   1.771   4.832   2.601
10482WAT     H242635   1.662   4.812   2.520
10482WAT    EPW42636   1.720   4.857   2.546
10483WAT      O42637   2.985   3.405   2.286
10483WAT     H142638   3.042   3.382   2.224
10483WAT     H242639   2.989   3.339   2.343
10483WAT    EPW42640   2.994   3.392   2.285
10484WAT      O42641   1.234   3.493   2.724
10484WAT     H142642   1.227   3.568   2.768
10484WAT     H242643   1.294   3.510   2.664
10484WAT    EPW42644   1.242   3.507   2.722
10485WAT      O42645   2.514   4.528   2.823
10485WAT     H142646   2.491   4.561   2.900
10485WAT     H242647   2.599   4.510   2.833
10485WAT    EPW42648   2.523   4.530   2.836
10486WAT      O42649   2.182   4.572   1.247
10486WAT     H142650   2.160   4.628   1.310
10486WAT     H242651   2.257   4.605   1.216
10486WAT    EPW42652   2.190   4.585   1.252
10487WAT      O42653   2.511   3.286   1.362
10487WAT     H142654   2.572   3.224   1.358
10487WAT     H242655   2.531   3.330   1.435
10487WAT    EPW42656   2.523   3.283   1.372
10488WAT      O42657   1.370   3.404   1.636
10488WAT     H142658   1.349   3.321   1.618
10488WAT     H242659   1.323   3.421   1.708
10488WAT    EPW42660   1.360   3.394   1.644
10489WAT      O42661   1.505   4.720   2.425
10489WAT     H142662   1.449   4.653   2.422
10489WAT     H242663   1.545   4.717   2.348
10489WAT    EPW42664   1.503   4.709   2.413
10490WAT      O42665   2.297   3.567   1.546
10490WAT     H142666   2.226   3.516   1.535
10490WAT     H242667   2.310   3.601   1.466
10490WAT    EPW42668   2.288   3.564   1.532
10491WAT      O42669   2.338   4.835   2.511
10491WAT     H142670   2.415   4.804   2.487
10491WAT     H242671   2.285   4.815   2.445
10491WAT    EPW42672   2.341   4.828   2.498
10492WAT      O42673   2.255   3.252   1.483
10492WAT     H142674   2.199   3.220   1.424
10492WAT     H242675   2.331   3.255   1.440
10492WAT    EPW42676   2.258   3.247   1.468
10493WAT      O42677   2.996   4.856   1.809
10493WAT     H142678   2.955   4.933   1.818
10493WAT     H242679   2.932   4.800   1.792
10493WAT    EPW42680   2.980   4.859   1.808
10494WAT      O42681   2.087   3.538   1.967
10494WAT     H142682   2.129   3.592   1.913
10494WAT     H242683   2.113   3.565   2.046
10494WAT    EPW42684   2.097   3.550   1.971
10495WAT      O42685   2.726   4.437   1.837
10495WAT     H142686   2.788   4.378   1.822
10495WAT     H242687   2.653   4.390   1.835
10495WAT    EPW42688   2.724   4.421   1.835
10496WAT      O42689   1.674   4.548   2.756
10496WAT     H142690   1.737   4.605   2.740
10496WAT     H242691   1.637   4.577   2.830
10496WAT    EPW42692   1.678   4.561   2.764
10497WAT      O42693   1.696   3.051   1.776
10497WAT     H142694   1.715   3.135   1.763
10497WAT     H242695   1.671   3.023   1.697
10497WAT    EPW42696   1.695   3.060   1.762
10498WAT      O42697   1.903   4.140   2.151
10498WAT     H142698   1.924   4.124   2.234
10498WAT     H242699   1.846   4.077   2.131
10498WAT    EPW42700   1.898   4.128   2.160
10499WAT      O42701   2.429   3.520   2.539
10499WAT     H142702   2.431   3.551   2.620
10499WAT     H242703   2.378   3.449   2.546
10499WAT    EPW42704   2.422   3.514   2.552
10500WAT      O42705   1.996   4.150   2.413
10500WAT     H142706   1.977   4.235   2.419
10500WAT     H242707   1.960   4.116   2.484
10500WAT    EPW42708   1.988   4.158   2.424
10501WAT      O42709   2.586   4.227   2.361
10501WAT     H142710   2.538   4.186   2.422
10501WAT     H242711   2.572   4.312   2.379
10501WAT    EPW42712   2.577   4.233   2.373
10502WAT      O42713   2.668   3.055   1.836
10502WAT     H142714   2.664   3.031   1.920
10502WAT     H242715   2.702   2.985   1.796
10502WAT    EPW42716   2.673   3.041   1.843
10503WAT      O42717   1.244   4.555   3.040
10503WAT     H142718   1.306   4.602   3.080
10503WAT     H242719   1.244   4.480   3.084
10503WAT    EPW42720   1.253   4.551   3.053
10504WAT      O42721   1.628   3.444   1.941
10504WAT     H142722   1.665   3.395   1.880
10504WAT     H242723   1.611   3.388   2.006
10504WAT    EPW42724   1.631   3.429   1.942
10505WAT      O42725   2.917   4.224   1.371
10505WAT     H142726   2.916   4.173   1.442
10505WAT     H242727   3.002   4.237   1.357
10505WAT    EPW42728   2.929   4.218   1.379
10506WAT      O42729   1.688   4.215   1.863
10506WAT     H142730   1.734   4.180   1.798
10506WAT     H242731   1.624   4.156   1.877
10506WAT    EPW42732   1.685   4.201   1.856
10507WAT      O42733   1.525   4.879   1.994
10507WAT     H142734   1.454   4.833   1.971
10507WAT     H242735   1.573   4.880   1.921
10507WAT    EPW42736   1.522   4.873   1.980
10508WAT      O42737   1.509   3.630   2.294
10508WAT     H142738   1.590   3.653   2.272
10508WAT     H242739   1.460   3.666   2.232
10508WAT    EPW42740   1.514   3.639   2.282
10509WAT      O42741   3.183   4.650   2.787
10509WAT     H142742   3.098   4.658   2.769
10509WAT     H242743   3.185   4.586   2.847
10509WAT    EPW42744   3.171   4.642   2.793
10510WAT      O42745   2.720   3.902   1.299
10510WAT     H142746   2.713   3.985   1.273
10510WAT     H242747   2.693   3.904   1.382
10510WAT    EPW42748   2.715   3.915   1.307
10511WAT      O42749   1.801   4.147   1.616
10511WAT     H142750   1.827   4.230   1.610
10511WAT     H242751   1.872   4.102   1.590
10511WAT    EPW42752   1.815   4.153   1.611
10512WAT      O42753   3.033   3.365   1.283
10512WAT     H142754   3.076   3.309   1.231
10512WAT     H242755   2.992   3.418   1.227
10512WAT    EPW42756   3.033   3.365   1.267
10513WAT      O42757   1.346   4.334   2.057
10513WAT     H142758   1.291   4.398   2.080
10513WAT     H242759   1.424   4.375   2.052
10513WAT    EPW42760   1.350   4.349   2.059
10514WAT      O42761   1.956   3.757   3.045
10514WAT     H142762   1.910   3.822   3.081
10514WAT     H242763   1.968   3.783   2.963
10514WAT    EPW42764   1.951   3.771   3.038
10515WAT      O42765   3.140   3.809   2.576
10515WAT     H142766   3.182   3.743   2.536
10515WAT     H242767   3.058   3.803   2.545
10515WAT    EPW42768   3.134   3.798   2.565
10516WAT      O42769   1.359   3.998   1.626
10516WAT     H142770   1.341   3.912   1.625
10516WAT     H242771   1.430   4.005   1.576
10516WAT    EPW42772   1.367   3.986   1.618
10517WAT      O42773   2.909   3.242   1.506
10517WAT     H142774   2.983   3.204   1.531
10517WAT     H242775   2.933   3.293   1.440
10517WAT    EPW42776   2.923   3.244   1.500
10518WAT      O42777   2.277   4.588   1.955
10518WAT     H142778   2.240   4.665   1.936
10518WAT     H242779   2.321   4.568   1.882
10518WAT    EPW42780   2.278   4.597   1.941
10519WAT      O42781   1.276   4.485   1.545
10519WAT     H142782   1.330   4.538   1.587
10519WAT     H242783   1.272   4.415   1.597
10519WAT    EPW42784   1.283   4.482   1.559
10520WAT      O42785   1.703   4.295   2.264
10520WAT     H142786   1.752   4.339   2.321
10520WAT     H242787   1.761   4.252   2.215
10520WAT    EPW42788   1.718   4.295   2.265
10521WAT      O42789   2.598   3.549   2.038
10521WAT     H142790   2.631   3.524   2.115
10521WAT     H242791   2.546   3.483   2.015
10521WAT    EPW42792   2.595   3.535   2.046
10522WAT      O42793   1.289   4.315   1.322
10522WAT     H142794   1.366   4.273   1.318
10522WAT     H242795   1.299   4.368   1.391
10522WAT    EPW42796   1.302   4.317   1.332
10523WAT      O42797   1.362   4.062   2.103
10523WAT     H142798   1.406   4.041   2.031
10523WAT     H242799   1.355   4.149   2.098
10523WAT    EPW42800   1.367   4.072   2.092
10524WAT      O42801   2.017   3.513   1.459
10524WAT     H142802   2.004   3.480   1.379
10524WAT     H242803   1.987   3.595   1.452
10524WAT    EPW42804   2.010   3.520   1.446
10525WAT      O42805   2.915   4.667   2.705
10525WAT     H142806   2.863   4.731   2.732
10525WAT     H242807   2.904   4.667   2.618
10525WAT    EPW42808   2.906   4.676   2.696
10526WAT      O42809   1.820   4.498   1.890
10526WAT     H142810   1.837   4.582   1.904
10526WAT     H242811   1.888   4.457   1.928
10526WAT    EPW42812   1.833   4.504   1.898
10527WAT      O42813   1.603   3.843   2.932
10527WAT     H142814   1.568   3.778   2.978
10527WAT     H242815   1.608   3.810   2.851
10527WAT    EPW42816   1.599   3.829   2.927
10528WAT      O42817   1.643   3.740   1.442
10528WAT     H142818   1.633   3.672   1.496
10528WAT     H242819   1.603   3.715   1.369
10528WAT    EPW42820   1.636   3.726   1.439
10529WAT      O42821   1.717   3.944   2.105
10529WAT     H142822   1.701   3.911   2.025
10529WAT     H242823   1.735   3.874   2.153
10529WAT    EPW42824   1.717   3.929   2.100
10530WAT      O42825   1.684   3.903   2.460
10530WAT     H142826   1.711   3.851   2.395
10530WAT     H242827   1.631   3.960   2.421
10530WAT    EPW42828   1.680   3.904   2.445
10531WAT      O42829   2.762   3.829   2.278
10531WAT     H142830   2.684   3.798   2.302
10531WAT     H242831   2.756   3.832   2.191
10531WAT    EPW42832   2.749   3.825   2.269
10532WAT      O42833   2.114   4.778   2.342
10532WAT     H142834   2.082   4.716   2.290
10532WAT     H242835   2.091   4.853   2.303
10532WAT    EPW42836   2.106   4.780   2.329
10533WAT      O42837   2.290   3.287   2.619
10533WAT     H142838   2.314   3.207   2.594
10533WAT     H242839   2.322   3.293   2.701
10533WAT    EPW42840   2.298   3.276   2.628
10534WAT      O42841   2.531   3.423   1.602
10534WAT     H142842   2.592   3.485   1.610
10534WAT     H242843   2.457   3.469   1.590
10534WAT    EPW42844   2.529   3.439   1.601
10535WAT      O42845   1.463   4.078   2.960
10535WAT     H142846   1.468   4.123   2.885
10535WAT     H242847   1.510   4.006   2.944
10535WAT    EPW42848   1.470   4.074   2.946
10536WAT      O42849   2.723   4.207   2.866
10536WAT     H142850   2.750   4.289   2.864
10536WAT     H242851   2.754   4.173   2.792
10536WAT    EPW42852   2.731   4.214   2.855
10537WAT      O42853   2.096   4.572   2.880
10537WAT     H142854   2.125   4.556   2.961
10537WAT     H242855   2.070   4.493   2.852
10537WAT    EPW42856   2.096   4.558   2.888
10538WAT      O42857   2.158   3.594   2.230
10538WAT     H142858   2.217   3.658   2.231
10538WAT     H242859   2.206   3.522   2.238
10538WAT    EPW42860   2.174   3.593   2.231
10539WAT      O42861   2.397   3.899   1.403
10539WAT     H142862   2.378   3.955   1.339
10539WAT     H242863   2.340   3.918   1.465
10539WAT    EPW42864   2.386   3.910   1.402
10540WAT      O42865   2.911   4.235   1.804
10540WAT     H142866   2.929   4.187   1.874
10540WAT     H242867   2.903   4.176   1.740
10540WAT    EPW42868   2.912   4.220   1.805
10541WAT      O42869   2.449   4.616   2.170
10541WAT     H142870   2.392   4.600   2.106
10541WAT     H242871   2.499   4.680   2.138
10541WAT    EPW42872   2.448   4.623   2.156
10542WAT      O42873   2.448   4.251   2.115
10542WAT     H142874   2.384   4.299   2.150
10542WAT     H242875   2.501   4.236   2.183
10542WAT    EPW42876   2.446   4.256   2.131
10543WAT      O42877   1.867   4.664   1.532
10543WAT     H142878   1.878   4.587   1.571
10543WAT     H242879   1.948   4.693   1.521
10543WAT    EPW42880   1.880   4.657   1.536
10544WAT      O42881   1.780   3.117   1.354
10544WAT     H142882   1.732   3.081   1.418
10544WAT     H242883   1.749   3.198   1.348
10544WAT    EPW42884   1.768   3.123   1.363
10545WAT      O42885   2.114   4.753   1.446
10545WAT     H142886   2.177   4.771   1.503
10545WAT     H242887   2.100   4.829   1.406
10545WAT    EPW42888   2.121   4.767   1.449
10546WAT      O42889   2.856   4.098   2.643
10546WAT     H142890   2.868   4.154   2.577
10546WAT     H242891   2.927   4.110   2.693
10546WAT    EPW42892   2.868   4.108   2.641
10547WAT      O42893   2.440   4.665   3.055
10547WAT     H142894   2.487   4.676   3.128
10547WAT     H242895   2.452   4.740   3.011
10547WAT    EPW42896   2.448   4.678   3.059
10548WAT      O42897   2.824   3.202   2.929
10548WAT     H142898   2.789   3.143   2.875
10548WAT     H242899   2.858   3.154   2.994
10548WAT    EPW42900   2.824   3.186   2.931
10549WAT      O42901   1.594   4.013   1.488
10549WAT     H142902   1.616   3.929   1.479
10549WAT     H242903   1.661   4.047   1.534
10549WAT    EPW42904   1.607   4.006   1.494
10550WAT      O42905   2.413   4.094   2.544
10550WAT     H142906   2.372   4.140   2.606
10550WAT     H242907   2.450   4.029   2.588
10550WAT    EPW42908   2.412   4.092   2.560
10551WAT      O42909   1.274   3.142   1.589
10551WAT     H142910   1.271   3.084   1.523
10551WAT     H242911   1.242   3.097   1.656
10551WAT    EPW42912   1.269   3.127   1.589
10552WAT      O42913   2.244   3.938   1.632
10552WAT     H142914   2.255   4.007   1.685
10552WAT     H242915   2.234   3.871   1.688
10552WAT    EPW42916   2.244   3.938   1.648
10553WAT      O42917   2.800   4.444   2.109
10553WAT     H142918   2.886   4.454   2.097
10553WAT     H242919   2.768   4.443   2.028
10553WAT    EPW42920   2.808   4.446   2.095
10554WAT      O42921   1.699   3.378   1.319
10554WAT     H142922   1.640   3.381   1.254
10554WAT     H242923   1.769   3.416   1.284
10554WAT    EPW42924   1.700   3.384   1.304
10555WAT      O42925   2.152   4.151   2.034
10555WAT     H142926   2.072   4.137   2.065
10555WAT     H242927   2.204   4.134   2.103
10555WAT    EPW42928   2.148   4.146   2.049
10556WAT      O42929   1.820   4.799   1.139
10556WAT     H142930   1.841   4.722   1.173
10556WAT     H242931   1.812   4.851   1.208
10556WAT    EPW42932   1.822   4.795   1.154
10557WAT      O42933   1.521   4.093   2.335
10557WAT     H142934   1.573   4.161   2.317
10557WAT     H242935   1.483   4.075   2.259
10557WAT    EPW42936   1.523   4.100   2.321
10558WAT      O42937   1.827   3.625   2.000
10558WAT     H142938   1.905   3.593   1.983
10558WAT     H242939   1.772   3.559   1.983
10558WAT    EPW42940   1.830   3.611   1.995
10559WAT      O42941   3.107   4.817   1.374
10559WAT     H142942   3.178   4.772   1.351
10559WAT     H242943   3.059   4.758   1.417
10559WAT    EPW42944   3.111   4.801   1.377
10560WAT      O42945   1.321   3.720   1.628
10560WAT     H142946   1.353   3.687   1.702
10560WAT     H242947   1.330   3.655   1.571
10560WAT    EPW42948   1.327   3.705   1.630
10561WAT      O42949   2.825   4.107   2.272
10561WAT     H142950   2.802   4.024   2.280
10561WAT     H242951   2.751   4.151   2.287
10561WAT    EPW42952   2.811   4.101   2.275
10562WAT      O42953   1.825   3.973   1.202
10562WAT     H142954   1.836   3.908   1.260
10562WAT     H242955   1.773   3.939   1.141
10562WAT    EPW42956   1.819   3.958   1.202
10563WAT      O42957   1.480   4.210   2.720
10563WAT     H142958   1.436   4.161   2.662
10563WAT     H242959   1.451   4.291   2.705
10563WAT    EPW42960   1.469   4.215   2.709
10564WAT      O42961   2.968   4.078   2.029
10564WAT     H142962   2.931   4.105   2.104
10564WAT     H242963   3.052   4.065   2.052
10564WAT    EPW42964   2.975   4.080   2.044
10565WAT      O42965   1.909   3.769   1.389
10565WAT     H142966   1.936   3.834   1.441
10565WAT     H242967   1.826   3.756   1.414
10565WAT    EPW42968   1.901   3.777   1.401
10566WAT      O42969   2.701   3.469   2.914
10566WAT     H142970   2.761   3.502   2.968
10566WAT     H242971   2.717   3.384   2.914
10566WAT    EPW42972   2.712   3.462   2.922
10567WAT      O42973   1.295   3.368   2.120
10567WAT     H142974   1.281   3.381   2.035
10567WAT     H242975   1.379   3.343   2.123
10567WAT    EPW42976   1.306   3.366   2.108
10568WAT      O42977   3.074   4.509   2.110
10568WAT     H142978   3.105   4.581   2.072
10568WAT     H242979   3.077   4.528   2.195
10568WAT    EPW42980   3.079   4.523   2.117
10569WAT      O42981   2.559   3.798   3.071
10569WAT     H142982   2.592   3.830   3.145
10569WAT     H242983   2.493   3.852   3.053
10569WAT    EPW42984   2.554   3.811   3.079
10570WAT      O42985   2.753   3.844   2.870
10570WAT     H142986   2.816   3.892   2.907
10570WAT     H242987   2.697   3.829   2.935
10570WAT    EPW42988   2.754   3.849   2.885
10571WAT      O42989   2.795   4.472   1.369
10571WAT     H142990   2.827   4.391   1.377
10571WAT     H242991   2.718   4.469   1.410
10571WAT    EPW42992   2.788   4.460   1.376
10572WAT      O42993   2.822   3.619   1.888
10572WAT     H142994   2.757   3.583   1.934
10572WAT     H242995   2.827   3.700   1.920
10572WAT    EPW42996   2.813   3.626   1.899
10573WAT      O42997   3.089   4.170   2.786
10573WAT     H142998   3.137   4.146   2.717
10573WAT     H242999   3.099   4.257   2.788
10573WAT    EPW43000   3.097   4.180   2.776
10574WAT      O43001   2.464   4.297   1.298
10574WAT     H143002   2.538   4.252   1.289
10574WAT     H243003   2.435   4.305   1.216
10574WAT    EPW43004   2.470   4.291   1.284
10575WAT      O43005   1.914   4.423   2.405
10575WAT     H143006   1.948   4.472   2.469
10575WAT     H243007   1.931   4.470   2.333
10575WAT    EPW43008   1.922   4.437   2.404
10576WAT      O43009   1.750   4.278   2.705
10576WAT     H143010   1.669   4.246   2.709
10576WAT     H243011   1.739   4.364   2.715
10576WAT    EPW43012   1.736   4.286   2.707
10577WAT      O43013   2.698   3.458   2.550
10577WAT     H143014   2.704   3.371   2.549
10577WAT     H243015   2.612   3.472   2.551
10577WAT    EPW43016   2.686   3.447   2.550
10578WAT      O43017   2.244   4.070   2.322
10578WAT     H143018   2.296   4.069   2.392
10578WAT     H243019   2.164   4.081   2.355
10578WAT    EPW43020   2.240   4.071   2.337
10579WAT      O43021   1.867   3.602   2.685
10579WAT     H143022   1.877   3.523   2.722
10579WAT     H243023   1.897   3.591   2.604
10579WAT    EPW43024   1.873   3.589   2.679
10580WAT      O43025   2.149   4.824   1.862
10580WAT     H143026   2.152   4.907   1.889
10580WAT     H243027   2.191   4.826   1.785
10580WAT    EPW43028   2.156   4.836   1.855
10581WAT      O43029   2.702   3.180   2.515
10581WAT     H143030   2.653   3.127   2.467
10581WAT     H243031   2.783   3.167   2.484
10581WAT    EPW43032   2.707   3.170   2.503
10582WAT      O43033   2.024   3.200   2.642
10582WAT     H143034   2.106   3.225   2.627
10582WAT     H243035   2.031   3.115   2.659
10582WAT    EPW43036   2.037   3.191   2.642
10583WAT      O43037   1.970   4.595   2.188
10583WAT     H143038   1.923   4.646   2.134
10583WAT     H243039   2.006   4.537   2.134
10583WAT    EPW43040   1.968   4.594   2.172
10584WAT      O43041   2.461   4.208   2.951
10584WAT     H143042   2.542   4.209   2.917
10584WAT     H243043   2.412   4.241   2.886
10584WAT    EPW43044   2.466   4.213   2.936
10585WAT      O43045   2.795   4.478   2.870
10585WAT     H143046   2.837   4.500   2.943
10585WAT     H243047   2.832   4.530   2.810
10585WAT    EPW43048   2.807   4.489   2.872
10586WAT      O43049   2.963   3.780   1.262
10586WAT     H143050   3.014   3.837   1.222
10586WAT     H243051   2.886   3.820   1.266
10586WAT    EPW43052   2.959   3.794   1.257
10587WAT      O43053   2.086   4.073   1.259
10587WAT     H143054   2.007   4.064   1.224
10587WAT     H243055   2.092   4.158   1.276
10587WAT    EPW43056   2.075   4.084   1.257
10588WAT      O43057   1.773   3.716   2.254
10588WAT     H143058   1.794   3.682   2.176
10588WAT     H243059   1.829   3.678   2.309
10588WAT    EPW43060   1.784   3.705   2.251
10589WAT      O43061   2.479   3.628   2.788
10589WAT     H143062   2.408   3.647   2.835
10589WAT     H243063   2.527   3.579   2.842
10589WAT    EPW43064   2.476   3.623   2.803
10590WAT      O43065   2.524   3.752   2.409
10590WAT     H143066   2.533   3.797   2.483
10590WAT     H243067   2.493   3.675   2.435
10590WAT    EPW43068   2.520   3.748   2.424
10591WAT      O43069   2.215   4.803   2.768
10591WAT     H143070   2.246   4.789   2.688
10591WAT     H243071   2.184   4.725   2.792
10591WAT    EPW43072   2.215   4.789   2.760
10592WAT      O43073   2.715   3.644   1.632
10592WAT     H143074   2.741   3.632   1.715
10592WAT     H243075   2.788   3.671   1.592
10592WAT    EPW43076   2.730   3.646   1.639
10593WAT      O43077   2.036   3.166   2.199
10593WAT     H143078   1.952   3.161   2.223
10593WAT     H243079   2.032   3.177   2.113
10593WAT    EPW43080   2.023   3.167   2.190
10594WAT      O43081   2.874   3.236   1.787
10594WAT     H143082   2.802   3.192   1.807
10594WAT     H243083   2.868   3.249   1.701
10594WAT    EPW43084   2.863   3.231   1.777
10595WAT      O43085   2.867   4.053   1.590
10595WAT     H143086   2.907   3.976   1.584
10595WAT     H243087   2.782   4.033   1.592
10595WAT    EPW43088   2.860   4.039   1.590
10596WAT      O43089   2.283   4.261   2.731
10596WAT     H143090   2.199   4.259   2.757
10596WAT     H243091   2.293   4.341   2.699
10596WAT    EPW43092   2.272   4.272   2.730
10597WAT      O43093   1.261   3.268   2.882
10597WAT     H143094   1.258   3.337   2.829
10597WAT     H243095   1.177   3.250   2.897
10597WAT    EPW43096   1.248   3.275   2.876
10598WAT      O43097   1.760   4.951   2.272
10598WAT     H143098   1.755   4.939   2.358
10598WAT     H243099   1.737   4.874   2.239
10598WAT    EPW43100   1.756   4.938   2.280
10599WAT      O43101   1.624   3.489   1.564
10599WAT     H143102   1.638   3.451   1.486
10599WAT     H243103   1.544   3.463   1.585
10599WAT    EPW43104   1.615   3.479   1.555
10600WAT      O43105   2.521   4.242   1.853
10600WAT     H143106   2.501   4.251   1.937
10600WAT     H243107   2.553   4.161   1.848
10600WAT    EPW43108   2.523   4.231   1.864
10601WAT      O43109   2.264   4.171   1.781
10601WAT     H143110   2.226   4.162   1.859
10601WAT     H243111   2.345   4.197   1.800
10601WAT    EPW43112   2.270   4.173   1.795
10602WAT      O43113   2.314   4.518   2.630
10602WAT     H143114   2.374   4.531   2.692
10602WAT     H243115   2.362   4.512   2.557
10602WAT    EPW43116   2.330   4.519   2.628
10603WAT      O43117   3.072   3.756   2.847
10603WAT     H143118   3.064   3.828   2.895
10603WAT     H243119   3.106   3.786   2.772
10603WAT    EPW43120   3.076   3.771   2.843
10604WAT      O43121   2.547   3.872   2.665
10604WAT     H143122   2.515   3.802   2.706
10604WAT     H243123   2.619   3.892   2.709
10604WAT    EPW43124   2.553   3.865   2.677
10605WAT      O43125   1.424   4.897   2.815
10605WAT     H143126   1.367   4.832   2.803
10605WAT     H243127   1.375   4.962   2.845
10605WAT    EPW43128   1.409   4.897   2.818
10606WAT      O43129   2.342   3.970   3.017
10606WAT     H143130   2.380   4.043   2.986
10606WAT     H243131   2.281   4.000   3.071
10606WAT    EPW43132   2.339   3.985   3.020
10607WAT      O43133   2.613   4.829   2.090
10607WAT     H143134   2.576   4.889   2.142
10607WAT     H243135   2.679   4.798   2.139
10607WAT    EPW43136   2.617   4.833   2.105
10608WAT      O43137   2.251   4.353   2.283
10608WAT     H143138   2.246   4.270   2.308
10608WAT     H243139   2.305   4.389   2.341
10608WAT    EPW43140   2.258   4.346   2.295
10609WAT      O43141   2.972   4.534   3.089
10609WAT     H143142   3.043   4.491   3.062
10609WAT     H243143   2.934   4.480   3.146
10609WAT    EPW43144   2.977   4.520   3.094
10610WAT      O43145   1.622   3.732   2.673
10610WAT     H143146   1.635   3.790   2.610
10610WAT     H243147   1.697   3.688   2.678
10610WAT    EPW43148   1.635   3.734   2.665
10611WAT      O43149   1.438   3.567   2.547
10611WAT     H143150   1.458   3.580   2.463
10611WAT     H243151   1.497   3.614   2.590
10611WAT    EPW43152   1.450   3.576   2.541
10612WAT      O43153   2.939   3.787   1.542
10612WAT     H143154   2.955   3.785   1.456
10612WAT     H243155   3.015   3.763   1.577
10612WAT    EPW43156   2.953   3.783   1.534
10613WAT      O43157   1.639   3.251   2.802
10613WAT     H143158   1.605   3.171   2.804
10613WAT     H243159   1.624   3.278   2.720
10613WAT    EPW43160   1.631   3.243   2.790
10614WAT      O43161   2.374   4.541   1.699
10614WAT     H143162   2.355   4.623   1.675
10614WAT     H243163   2.302   4.496   1.676
10614WAT    EPW43164   2.360   4.546   1.692
10615WAT      O43165   2.861   3.831   2.548
10615WAT     H143166   2.831   3.835   2.466
10615WAT     H243167   2.853   3.913   2.576
10615WAT    EPW43168   2.855   3.844   2.540
10616WAT      O43169   1.332   4.066   2.537
10616WAT     H143170   1.383   4.080   2.468
10616WAT     H243171   1.315   3.980   2.533
10616WAT    EPW43172   1.337   4.055   2.526
10617WAT      O43173   1.511   3.656   1.208
10617WAT     H143174   1.434   3.651   1.248
10617WAT     H243175   1.520   3.579   1.169
10617WAT    EPW43176   1.501   3.644   1.208
10618WAT      O43177   2.362   3.326   2.895
10618WAT     H143178   2.385   3.392   2.947
10618WAT     H243179   2.284   3.301   2.926
10618WAT    EPW43180   2.354   3.332   2.907
10619WAT      O43181   2.428   3.337   1.987
10619WAT     H143182   2.350   3.335   2.024
10619WAT     H243183   2.417   3.291   1.913
10619WAT    EPW43184   2.415   3.330   1.981
10620WAT      O43185   1.805   4.552   1.290
10620WAT     H143186   1.845   4.584   1.360
10620WAT     H243187   1.730   4.520   1.321
10620WAT    EPW43188   1.799   4.552   1.305
10621WAT      O43189   2.712   3.443   2.271
10621WAT     H143190   2.797   3.427   2.261
10621WAT     H243191   2.703   3.458   2.356
10621WAT    EPW43192   2.723   3.443   2.282
10622WAT      O43193   1.869   4.030   2.628
10622WAT     H143194   1.830   4.102   2.658
10622WAT     H243195   1.809   3.992   2.578
10622WAT    EPW43196   1.854   4.035   2.625
10623WAT      O43197   2.788   3.871   2.003
10623WAT     H143198   2.851   3.931   2.003
10623WAT     H243199   2.726   3.906   1.953
10623WAT    EPW43200   2.788   3.885   1.995
10624WAT      O43201   2.781   4.693   1.731
10624WAT     H143202   2.760   4.615   1.765
10624WAT     H243203   2.826   4.672   1.659
10624WAT    EPW43204   2.784   4.678   1.725
10625WAT      O43205   1.583   4.451   1.424
10625WAT     H143206   1.584   4.432   1.509
10625WAT     H243207   1.577   4.373   1.385
10625WAT    EPW43208   1.582   4.436   1.431
10626WAT      O43209   1.879   4.288   1.224
10626WAT     H143210   1.807   4.242   1.243
10626WAT     H243211   1.858   4.369   1.248
10626WAT    EPW43212   1.865   4.293   1.230
10627WAT      O43213   1.850   3.341   2.469
10627WAT     H143214   1.766   3.324   2.486
10627WAT     H243215   1.893   3.279   2.513
10627WAT    EPW43216   1.844   3.329   2.478
10628WAT      O43217   2.978   3.187   2.462
10628WAT     H143218   2.989   3.206   2.546
10628WAT     H243219   3.045   3.134   2.444
10628WAT    EPW43220   2.989   3.182   2.472
10629WAT      O43221   2.264   3.333   2.224
10629WAT     H143222   2.195   3.279   2.229
10629WAT     H243223   2.329   3.285   2.256
10629WAT    EPW43224   2.263   3.318   2.229
10630WAT      O43225   2.483   4.490   2.409
10630WAT     H143226   2.534   4.549   2.449
10630WAT     H243227   2.471   4.524   2.330
10630WAT    EPW43228   2.489   4.504   2.404
10631WAT      O43229   2.469   4.875   2.871
10631WAT     H143230   2.400   4.840   2.831
10631WAT     H243231   2.448   4.959   2.877
10631WAT    EPW43232   2.456   4.882   2.866
10632WAT      O43233   2.002   3.824   2.779
10632WAT     H143234   1.960   3.757   2.743
10632WAT     H243235   1.970   3.893   2.737
10632WAT    EPW43236   1.991   3.824   2.768
10633WAT      O43237   2.058   3.139   1.325
10633WAT     H143238   2.068   3.153   1.239
10633WAT     H243239   1.972   3.142   1.337
10633WAT    EPW43240   2.047   3.141   1.314
10634WAT      O43241   2.977   4.263   2.445
10634WAT     H143242   3.044   4.211   2.464
10634WAT     H243243   2.936   4.220   2.381
10634WAT    EPW43244   2.980   4.249   2.438
10635WAT      O43245   1.874   4.740   2.737
10635WAT     H143246   1.893   4.735   2.822
10635WAT     H243247   1.939   4.696   2.699
10635WAT    EPW43248   1.887   4.733   2.744
10636WAT      O43249   2.785   4.675   2.259
10636WAT     H143250   2.865   4.668   2.294
10636WAT     H243251   2.777   4.601   2.213
10636WAT    EPW43252   2.796   4.663   2.257
10637WAT      O43253   1.579   3.322   2.544
10637WAT     H143254   1.526   3.256   2.521
10637WAT     H243255   1.528   3.393   2.536
10637WAT    EPW43256   1.563   3.323   2.539
10638WAT      O43257   2.550   3.220   2.208
10638WAT     H143258   2.604   3.283   2.235
10638WAT     H243259   2.518   3.251   2.133
10638WAT    EPW43260   2.553   3.234   2.201
10639WAT      O43261   1.564   4.702   2.970
10639WAT     H143262   1.647   4.725   2.983
10639WAT     H243263   1.532   4.769   2.923
10639WAT    EPW43264   1.572   4.715   2.965
10640WAT      O43265   2.439   3.766   1.962
10640WAT     H143266   2.492   3.701   1.985
10640WAT     H243267   2.402   3.790   2.037
10640WAT    EPW43268   2.442   3.760   1.976
10641WAT      O43269   1.440   3.647   1.874
10641WAT     H143270   1.400   3.671   1.947
10641WAT     H243271   1.483   3.574   1.896
10641WAT    EPW43272   1.441   3.640   1.888
10642WAT      O43273   1.421   4.476   2.661
10642WAT     H143274   1.371   4.537   2.697
10642WAT     H243275   1.502   4.505   2.675
10642WAT    EPW43276   1.426   4.489   2.668
10643WAT      O43277   2.620   3.900   1.567
10643WAT     H143278   2.639   3.817   1.585
10643WAT     H243279   2.545   3.895   1.524
10643WAT    EPW43280   2.612   3.887   1.563
10644WAT      O43281   1.622   4.788   1.522
10644WAT     H143282   1.578   4.761   1.453
10644WAT     H243283   1.695   4.740   1.521
10644WAT    EPW43284   1.627   4.777   1.512
10645WAT      O43285   2.006   3.995   1.511
10645WAT     H143286   2.035   4.026   1.435
10645WAT     H243287   2.079   3.978   1.555
10645WAT    EPW43288   2.021   3.997   1.506
10646WAT      O43289   2.901   4.862   1.190
10646WAT     H143290   2.969   4.856   1.245
10646WAT     H243291   2.883   4.779   1.171
10646WAT    EPW43292   2.908   4.849   1.196
10647WAT      O43293   3.007   3.989   2.990
10647WAT     H143294   3.046   4.002   3.067
10647WAT     H243295   3.040   4.051   2.939
10647WAT    EPW43296   3.018   4.000   2.993
10648WAT      O43297   2.547   4.491   1.484
10648WAT     H143298   2.504   4.489   1.559
10648WAT     H243299   2.506   4.433   1.434
10648WAT    EPW43300   2.535   4.482   1.487
10649WAT      O43301   2.940   3.564   3.024
10649WAT     H143302   2.997   3.626   2.999
10649WAT     H243303   2.980   3.525   3.090
10649WAT    EPW43304   2.954   3.567   3.030
10650WAT      O43305   3.010   3.687   2.281
10650WAT     H143306   2.927   3.715   2.279
10650WAT     H243307   3.002   3.600   2.288
10650WAT    EPW43308   2.997   3.678   2.282
10651WAT      O43309   1.897   3.351   2.831
10651WAT     H143310   1.937   3.311   2.764
10651WAT     H243311   1.817   3.317   2.830
10651WAT    EPW43312   1.891   3.340   2.821
10652WAT      O43313   2.841   4.108   3.207
10652WAT     H143314   2.922   4.090   3.235
10652WAT     H243315   2.847   4.101   3.120
10652WAT    EPW43316   2.854   4.104   3.198
10653WAT      O43317   1.635   4.712   2.181
10653WAT     H143318   1.630   4.632   2.148
10653WAT     H243319   1.599   4.762   2.119
10653WAT    EPW43320   1.629   4.708   2.167
10654WAT      O43321   2.193   4.317   1.364
10654WAT     H143322   2.278   4.301   1.351
10654WAT     H243323   2.180   4.393   1.322
10654WAT    EPW43324   2.204   4.326   1.356
10655WAT      O43325   1.400   4.954   2.538
10655WAT     H143326   1.414   4.934   2.622
10655WAT     H243327   1.429   4.884   2.495
10655WAT    EPW43328   1.407   4.941   2.544
10656WAT      O43329   2.307   3.796   0.341
10656WAT     H143330   2.275   3.874   0.364
10656WAT     H243331   2.372   3.783   0.397
10656WAT    EPW43332   2.312   3.806   0.352
10657WAT      O43333   1.351   4.491   0.510
10657WAT     H143334   1.366   4.482   0.595
10657WAT     H243335   1.294   4.427   0.492
10657WAT    EPW43336   1.345   4.480   0.520
10658WAT      O43337   1.967   4.317   0.964
10658WAT     H143338   1.945   4.301   1.047
10658WAT     H243339   1.893   4.300   0.921
10658WAT    EPW43340   1.953   4.312   0.970
10659WAT      O43341   1.918   3.585   0.540
10659WAT     H143342   1.994   3.587   0.499
10659WAT     H243343   1.893   3.501   0.533
10659WAT    EPW43344   1.925   3.573   0.533
10660WAT      O43345   1.946   4.612   0.711
10660WAT     H143346   1.967   4.667   0.646
10660WAT     H243347   2.024   4.582   0.737
10660WAT    EPW43348   1.961   4.616   0.706
10661WAT      O43349   2.255   3.881   0.903
10661WAT     H143350   2.168   3.872   0.902
10661WAT     H243351   2.269   3.925   0.977
10661WAT    EPW43352   2.244   3.886   0.914
10662WAT      O43353   2.683   3.054   0.808
10662WAT     H143354   2.673   3.134   0.775
10662WAT     H243355   2.614   3.045   0.861
10662WAT    EPW43356   2.671   3.064   0.811
10663WAT      O43357   1.319   3.812   0.301
10663WAT     H143358   1.285   3.893   0.309
10663WAT     H243359   1.255   3.761   0.332
10663WAT    EPW43360   1.304   3.817   0.307
10664WAT      O43361   1.552   3.228   0.366
10664WAT     H143362   1.564   3.289   0.305
10664WAT     H243363   1.613   3.168   0.349
10664WAT    EPW43364   1.563   3.228   0.355
10665WAT      O43365   1.931   3.472   1.187
10665WAT     H143366   1.926   3.434   1.109
10665WAT     H243367   1.973   3.546   1.171
10665WAT    EPW43368   1.936   3.477   1.173
10666WAT      O43369   2.535   4.779   0.591
10666WAT     H143370   2.594   4.812   0.646
10666WAT     H243371   2.565   4.801   0.512
10666WAT    EPW43372   2.548   4.787   0.588
10667WAT      O43373   1.524   3.394   1.104
10667WAT     H143374   1.444   3.361   1.099
10667WAT     H243375   1.564   3.362   1.033
10667WAT    EPW43376   1.518   3.385   1.093
10668WAT      O43377   2.095   3.182   1.055
10668WAT     H143378   2.112   3.108   1.013
10668WAT     H243379   2.024   3.213   1.014
10668WAT    EPW43380   2.087   3.176   1.043
10669WAT      O43381   1.745   4.853   0.609
10669WAT     H143382   1.771   4.848   0.692
10669WAT     H243383   1.681   4.794   0.603
10669WAT    EPW43384   1.739   4.844   0.620
10670WAT      O43385   3.017   3.372   0.461
10670WAT     H143386   3.075   3.324   0.417
10670WAT     H243387   3.009   3.330   0.537
10670WAT    EPW43388   3.024   3.359   0.466
10671WAT      O43389   1.271   3.499   0.854
10671WAT     H143390   1.257   3.579   0.888
10671WAT     H243391   1.328   3.514   0.789
10671WAT    EPW43392   1.278   3.513   0.850
10672WAT      O43393   2.437   4.578   0.895
10672WAT     H143394   2.427   4.596   0.980
10672WAT     H243395   2.523   4.562   0.888
10672WAT    EPW43396   2.448   4.578   0.907
10673WAT      O43397   1.539   4.694   0.493
10673WAT     H143398   1.483   4.628   0.501
10673WAT     H243399   1.574   4.682   0.414
10673WAT    EPW43400   1.536   4.683   0.482
10674WAT      O43401   2.276   4.846   0.655
10674WAT     H143402   2.354   4.816   0.630
10674WAT     H243403   2.221   4.811   0.597
10674WAT    EPW43404   2.279   4.836   0.642
10675WAT      O43405   1.684   4.554   0.825
10675WAT     H143406   1.761   4.585   0.799
10675WAT     H243407   1.670   4.595   0.901
10675WAT    EPW43408   1.693   4.565   0.832
10676WAT      O43409   1.899   4.197   0.249
10676WAT     H143410   1.911   4.162   0.329
10676WAT     H243411   1.891   4.127   0.198
10676WAT    EPW43412   1.900   4.181   0.253
10677WAT      O43413   2.466   3.499   0.663
10677WAT     H143414   2.454   3.549   0.734
10677WAT     H243415   2.397   3.445   0.665
10677WAT    EPW43416   2.454   3.498   0.674
10678WAT      O43417   1.960   4.137   0.515
10678WAT     H143418   1.952   4.223   0.531
10678WAT     H243419   1.935   4.100   0.590
10678WAT    EPW43420   1.955   4.144   0.529
10679WAT      O43421   2.544   4.250   0.461
10679WAT     H143422   2.495   4.205   0.518
10679WAT     H243423   2.535   4.333   0.488
10679WAT    EPW43424   2.535   4.255   0.473
10680WAT      O43425   1.251   4.535   1.152
10680WAT     H143426   1.310   4.582   1.195
10680WAT     H243427   1.260   4.455   1.186
10680WAT    EPW43428   1.261   4.530   1.163
10681WAT      O43429   2.872   3.524   0.755
10681WAT     H143430   2.954   3.506   0.779
10681WAT     H243431   2.831   3.534   0.831
10681WAT    EPW43432   2.878   3.523   0.770
10682WAT      O43433   1.515   3.636   0.391
10682WAT     H143434   1.594   3.670   0.377
10682WAT     H243435   1.461   3.693   0.354
10682WAT    EPW43436   1.519   3.649   0.384
10683WAT      O43437   3.146   4.671   0.893
10683WAT     H143438   3.068   4.678   0.856
10683WAT     H243439   3.131   4.624   0.965
10683WAT    EPW43440   3.133   4.665   0.898
10684WAT      O43441   2.066   3.716   1.164
10684WAT     H143442   2.018   3.747   1.230
10684WAT     H243443   2.041   3.764   1.096
10684WAT    EPW43444   2.055   3.728   1.163
10685WAT      O43445   3.144   3.787   0.641
10685WAT     H143446   3.204   3.723   0.640
10685WAT     H243447   3.084   3.760   0.584
10685WAT    EPW43448   3.144   3.774   0.632
10686WAT      O43449   1.684   4.347   0.354
10686WAT     H143450   1.731   4.369   0.424
10686WAT     H243451   1.740   4.302   0.305
10686WAT    EPW43452   1.699   4.343   0.357
10687WAT      O43453   2.889   4.698   0.770
10687WAT     H143454   2.833   4.765   0.777
10687WAT     H243455   2.880   4.673   0.687
10687WAT    EPW43456   2.879   4.704   0.759
10688WAT      O43457   1.624   3.851   1.041
10688WAT     H143458   1.586   3.789   1.089
10688WAT     H243459   1.621   3.818   0.960
10688WAT    EPW43460   1.618   3.837   1.036
10689WAT      O43461   1.670   3.924   0.570
10689WAT     H143462   1.703   3.877   0.505
10689WAT     H243463   1.621   3.984   0.529
10689WAT    EPW43464   1.668   3.926   0.555
10690WAT      O43465   2.726   3.650   0.363
10690WAT     H143466   2.665   3.680   0.417
10690WAT     H243467   2.694   3.667   0.284
10690WAT    EPW43468   2.712   3.657   0.359
10691WAT      O43469   2.053   4.770   0.505
10691WAT     H143470   2.047   4.712   0.440
10691WAT     H243471   2.035   4.846   0.466
10691WAT    EPW43472   2.049   4.772   0.489
10692WAT      O43473   2.285   3.271   0.691
10692WAT     H143474   2.301   3.187   0.678
10692WAT     H243475   2.303   3.283   0.775
10692WAT    EPW43476   2.290   3.261   0.701
10693WAT      O43477   1.469   4.074   1.080
10693WAT     H143478   1.467   4.119   1.005
10693WAT     H243479   1.521   4.007   1.063
10693WAT    EPW43480   1.476   4.071   1.067
10694WAT      O43481   2.644   4.256   0.937
10694WAT     H143482   2.671   4.338   0.923
10694WAT     H243483   2.675   4.212   0.869
10694WAT    EPW43484   2.653   4.262   0.925
10695WAT      O43485   2.036   4.589   1.012
10695WAT     H143486   2.075   4.581   1.089
10695WAT     H243487   2.016   4.507   0.990
10695WAT    EPW43488   2.038   4.576   1.020
10696WAT      O43489   2.144   3.576   0.389
10696WAT     H143490   2.198   3.640   0.367
10696WAT     H243491   2.193   3.504   0.381
10696WAT    EPW43492   2.159   3.575   0.385
10697WAT      O43493   2.649   4.542   0.242
10697WAT     H143494   2.574   4.512   0.209
10697WAT     H243495   2.636   4.629   0.245
10697WAT    EPW43496   2.636   4.551   0.238
10698WAT      O43497   2.433   4.356   0.216
10698WAT     H143498   2.348   4.339   0.222
10698WAT     H243499   2.469   4.308   0.280
10698WAT    EPW43500   2.426   4.347   0.226
10699WAT      O43501   2.755   4.113   0.721
10699WAT     H143502   2.754   4.090   0.636
10699WAT     H243503   2.839   4.133   0.735
10699WAT    EPW43504   2.767   4.113   0.710
10700WAT      O43505   2.418   4.695   1.159
10700WAT     H143506   2.448   4.716   1.238
10700WAT     H243507   2.434   4.766   1.111
10700WAT    EPW43508   2.425   4.709   1.164
10701WAT      O43509   2.909   3.139   0.948
10701WAT     H143510   2.832   3.118   0.913
10701WAT     H243511   2.908   3.097   1.025
10701WAT    EPW43512   2.897   3.129   0.954
10702WAT      O43513   2.367   4.124   0.639
10702WAT     H143514   2.317   4.158   0.702
10702WAT     H243515   2.408   4.059   0.679
10702WAT    EPW43516   2.366   4.120   0.654
10703WAT      O43517   2.798   4.359   0.387
10703WAT     H143518   2.762   4.409   0.326
10703WAT     H243519   2.731   4.309   0.414
10703WAT    EPW43520   2.783   4.359   0.382
10704WAT      O43521   2.169   4.290   0.292
10704WAT     H143522   2.088   4.276   0.265
10704WAT     H243523   2.191   4.215   0.331
10704WAT    EPW43524   2.160   4.277   0.294
10705WAT      O43525   1.515   4.122   0.433
10705WAT     H143526   1.557   4.197   0.417
10705WAT     H243527   1.467   4.108   0.361
10705WAT    EPW43528   1.514   4.131   0.420
10706WAT      O43529   2.786   3.985   0.472
10706WAT     H143530   2.799   3.915   0.523
10706WAT     H243531   2.706   3.973   0.440
10706WAT    EPW43532   2.776   3.973   0.475
10707WAT      O43533   1.463   4.210   0.842
10707WAT     H143534   1.425   4.160   0.781
10707WAT     H243535   1.433   4.290   0.823
10707WAT    EPW43536   1.453   4.214   0.830
10708WAT      O43537   3.023   4.065   0.346
10708WAT     H143538   2.951   4.038   0.388
10708WAT     H243539   2.992   4.102   0.274
10708WAT    EPW43540   3.008   4.067   0.342
10709WAT      O43541   2.685   3.490   0.977
10709WAT     H143542   2.617   3.486   1.031
10709WAT     H243543   2.669   3.427   0.918
10709WAT    EPW43544   2.673   3.480   0.976
10710WAT      O43545   3.068   4.668   0.355
10710WAT     H143546   3.091   4.656   0.272
10710WAT     H243547   3.127   4.622   0.400
10710WAT    EPW43548   3.080   4.660   0.349
10711WAT      O43549   2.559   3.836   1.082
10711WAT     H143550   2.603   3.842   1.158
10711WAT     H243551   2.489   3.886   1.096
10711WAT    EPW43552   2.556   3.845   1.095
10712WAT      O43553   2.795   3.863   0.926
10712WAT     H143554   2.822   3.943   0.946
10712WAT     H243555   2.723   3.852   0.974
10712WAT    EPW43556   2.789   3.873   0.936
10713WAT      O43557   3.123   3.947   1.112
10713WAT     H143558   3.125   3.892   1.044
10713WAT     H243559   3.201   3.987   1.108
10713WAT    EPW43560   3.135   3.944   1.101
10714WAT      O43561   3.021   4.192   0.748
10714WAT     H143562   3.086   4.138   0.725
10714WAT     H243563   3.021   4.252   0.685
10714WAT    EPW43564   3.031   4.193   0.736
10715WAT      O43565   1.901   4.412   0.522
10715WAT     H143566   1.910   4.465   0.591
10715WAT     H243567   1.935   4.458   0.456
10715WAT    EPW43568   1.908   4.426   0.522
10716WAT      O43569   1.730   4.277   0.820
10716WAT     H143570   1.649   4.247   0.831
10716WAT     H243571   1.720   4.363   0.814
10716WAT    EPW43572   1.716   4.285   0.821
10717WAT      O43573   2.670   3.326   0.745
10717WAT     H143574   2.742   3.369   0.723
10717WAT     H243575   2.606   3.373   0.708
10717WAT    EPW43576   2.671   3.340   0.736
10718WAT      O43577   2.209   4.050   0.428
10718WAT     H143578   2.262   4.069   0.495
10718WAT     H243579   2.129   4.062   0.461
10718WAT    EPW43580   2.205   4.054   0.443
10719WAT      O43581   1.868   3.617   0.810
10719WAT     H143582   1.875   3.538   0.847
10719WAT     H243583   1.894   3.604   0.728
10719WAT    EPW43584   1.873   3.603   0.804
10720WAT      O43585   2.780   3.107   0.504
10720WAT     H143586   2.753   3.188   0.485
10720WAT     H243587   2.848   3.121   0.557
10720WAT    EPW43588   2.786   3.121   0.509
10721WAT      O43589   2.011   3.212   0.738
10721WAT     H143590   2.097   3.215   0.723
10721WAT     H243591   1.997   3.130   0.764
10721WAT    EPW43592   2.022   3.200   0.740
10722WAT      O43593   1.961   4.582   0.306
10722WAT     H143594   1.881   4.596   0.273
10722WAT     H243595   2.009   4.561   0.237
10722WAT    EPW43596   1.956   4.581   0.291
10723WAT      O43597   2.387   4.253   1.035
10723WAT     H143598   2.465   4.256   0.996
10723WAT     H243599   2.331   4.264   0.969
10723WAT    EPW43600   2.390   4.255   1.019
10724WAT      O43601   2.715   4.525   0.907
10724WAT     H143602   2.752   4.545   0.984
10724WAT     H243603   2.765   4.568   0.849
10724WAT    EPW43604   2.728   4.534   0.910
10725WAT      O43605   1.771   3.749   0.375
10725WAT     H143606   1.811   3.745   0.297
10725WAT     H243607   1.820   3.697   0.425
10725WAT    EPW43608   1.784   3.741   0.371
10726WAT      O43609   2.446   3.690   0.864
10726WAT     H143610   2.375   3.739   0.875
10726WAT     H243611   2.489   3.700   0.939
10726WAT    EPW43612   2.442   3.698   0.877
10727WAT      O43613   2.515   3.734   0.516
10727WAT     H143614   2.527   3.791   0.581
10727WAT     H243615   2.495   3.660   0.557
10727WAT    EPW43616   2.514   3.732   0.532
10728WAT      O43617   2.186   4.808   0.914
10728WAT     H143618   2.207   4.798   0.830
10728WAT     H243619   2.149   4.732   0.936
10728WAT    EPW43620   2.184   4.795   0.905
10729WAT      O43621   2.013   3.168   0.373
10729WAT     H143622   1.965   3.223   0.423
10729WAT     H243623   1.953   3.132   0.320
10729WAT    EPW43624   1.997   3.171   0.373
10730WAT      O43625   2.205   4.265   0.827
10730WAT     H143626   2.129   4.262   0.869
10730WAT     H243627   2.209   4.346   0.796
10730WAT    EPW43628   2.195   4.276   0.828
10731WAT      O43629   1.278   3.278   1.020
10731WAT     H143630   1.276   3.347   0.967
10731WAT     H243631   1.205   3.235   0.999
10731WAT    EPW43632   1.267   3.282   1.009
10732WAT      O43633   1.759   4.885   0.330
10732WAT     H143634   1.763   4.874   0.417
10732WAT     H243635   1.738   4.805   0.301
10732WAT    EPW43636   1.756   4.871   0.339
10733WAT      O43637   2.209   4.527   0.743
10733WAT     H143638   2.285   4.547   0.781
10733WAT     H243639   2.229   4.523   0.658
10733WAT    EPW43640   2.223   4.529   0.736
10734WAT      O43641   3.066   3.770   0.905
10734WAT     H143642   2.980   3.783   0.911
10734WAT     H243643   3.084   3.785   0.821
10734WAT    EPW43644   3.056   3.774   0.894
10735WAT      O43645   2.536   3.920   0.722
10735WAT     H143646   2.518   3.861   0.783
10735WAT     H243647   2.608   3.959   0.753
10735WAT    EPW43648   2.544   3.917   0.736
10736WAT      O43649   1.428   4.894   0.921
10736WAT     H143650   1.368   4.832   0.911
10736WAT     H243651   1.382   4.962   0.951
10736WAT    EPW43652   1.413   4.895   0.924
10737WAT      O43653   2.328   4.007   1.144
10737WAT     H143654   2.352   4.084   1.113
10737WAT     H243655   2.248   4.022   1.175
10737WAT    EPW43656   2.320   4.020   1.144
10738WAT      O43657   2.622   4.812   0.324
10738WAT     H143658   2.580   4.886   0.305
10738WAT     H243659   2.695   4.839   0.364
10738WAT    EPW43660   2.627   4.827   0.327
10739WAT      O43661   2.244   4.504   0.469
10739WAT     H143662   2.222   4.438   0.417
10739WAT     H243663   2.331   4.508   0.461
10739WAT    EPW43664   2.254   4.495   0.460
10740WAT      O43665   2.860   4.596   1.134
10740WAT     H143666   2.944   4.572   1.132
10740WAT     H243667   2.830   4.555   1.205
10740WAT    EPW43668   2.868   4.586   1.144
10741WAT      O43669   1.623   3.743   0.781
10741WAT     H143670   1.636   3.803   0.719
10741WAT     H243671   1.701   3.705   0.788
10741WAT    EPW43672   1.637   3.746   0.773
10742WAT      O43673   1.454   3.572   0.649
10742WAT     H143674   1.473   3.588   0.565
10742WAT     H243675   1.512   3.621   0.692
10742WAT    EPW43676   1.466   3.582   0.643
10743WAT      O43677   1.633   3.253   0.890
10743WAT     H143678   1.592   3.176   0.900
10743WAT     H243679   1.617   3.273   0.807
10743WAT    EPW43680   1.624   3.244   0.879
10744WAT      O43681   2.821   3.783   0.658
10744WAT     H143682   2.838   3.698   0.671
10744WAT     H243683   2.807   3.813   0.739
10744WAT    EPW43684   2.822   3.775   0.672
10745WAT      O43685   1.347   4.048   0.649
10745WAT     H143686   1.391   4.070   0.577
10745WAT     H243687   1.331   3.963   0.639
10745WAT    EPW43688   1.351   4.039   0.637
10746WAT      O43689   2.331   3.301   0.964
10746WAT     H143690   2.367   3.358   1.019
10746WAT     H243691   2.257   3.278   1.005
10746WAT    EPW43692   2.325   3.306   0.978
10747WAT      O43693   2.740   3.372   0.405
10747WAT     H143694   2.827   3.368   0.410
10747WAT     H243695   2.724   3.458   0.397
10747WAT    EPW43696   2.750   3.384   0.404
10748WAT      O43697   1.852   4.032   0.750
10748WAT     H143698   1.816   4.107   0.776
10748WAT     H243699   1.791   3.998   0.698
10748WAT    EPW43700   1.838   4.038   0.746
10749WAT      O43701   1.852   3.320   0.542
10749WAT     H143702   1.768   3.310   0.562
10749WAT     H243703   1.893   3.280   0.608
10749WAT    EPW43704   1.846   3.313   0.555
10750WAT      O43705   2.988   3.192   0.675
10750WAT     H143706   2.969   3.181   0.760
10750WAT     H243707   3.067   3.156   0.667
10750WAT    EPW43708   2.997   3.185   0.687
10751WAT      O43709   2.262   3.315   0.406
10751WAT     H143710   2.193   3.267   0.382
10751WAT     H243711   2.265   3.305   0.492
10751WAT    EPW43712   2.252   3.307   0.415
10752WAT      O43713   2.522   4.522   0.492
10752WAT     H143714   2.533   4.594   0.540
10752WAT     H243715   2.568   4.538   0.419
10752WAT    EPW43716   2.530   4.535   0.488
10753WAT      O43717   2.451   4.898   0.967
10753WAT     H143718   2.380   4.857   0.938
10753WAT     H243719   2.425   4.981   0.975
10753WAT    EPW43720   2.437   4.905   0.964
10754WAT      O43721   1.980   3.844   0.923
10754WAT     H143722   1.947   3.773   0.886
10754WAT     H243723   1.942   3.910   0.880
10754WAT    EPW43724   1.970   3.843   0.911
10755WAT      O43725   3.050   4.306   0.488
10755WAT     H143726   3.061   4.227   0.453
10755WAT     H243727   2.973   4.332   0.458
10755WAT    EPW43728   3.040   4.298   0.479
10756WAT      O43729   1.874   4.835   0.865
10756WAT     H143730   1.865   4.828   0.952
10756WAT     H243731   1.915   4.761   0.843
10756WAT    EPW43732   1.879   4.823   0.875
10757WAT      O43733   2.847   4.611   0.514
10757WAT     H143734   2.909   4.638   0.459
10757WAT     H243735   2.825   4.532   0.484
10757WAT    EPW43736   2.853   4.603   0.502
10758WAT      O43737   1.585   3.323   0.629
10758WAT     H143738   1.556   3.282   0.557
10758WAT     H243739   1.539   3.398   0.629
10758WAT    EPW43740   1.574   3.328   0.618
10759WAT      O43741   2.513   3.219   0.305
10759WAT     H143742   2.573   3.276   0.332
10759WAT     H243743   2.438   3.255   0.332
10759WAT    EPW43744   2.511   3.233   0.313
10760WAT      O43745   1.581   4.699   1.055
10760WAT     H143746   1.655   4.736   1.080
10760WAT     H243747   1.538   4.763   1.015
10760WAT    EPW43748   1.586   4.714   1.053
10761WAT      O43749   1.417   4.479   0.776
10761WAT     H143750   1.368   4.539   0.815
10761WAT     H243751   1.498   4.509   0.787
10761WAT    EPW43752   1.422   4.492   0.784
10762WAT      O43753   2.921   4.101   1.001
10762WAT     H143754   2.988   4.065   1.043
10762WAT     H243755   2.958   4.144   0.935
10762WAT    EPW43756   2.936   4.102   0.997
10763WAT      O43757   2.925   3.543   1.106
10763WAT     H143758   2.922   3.624   1.140
10763WAT     H243759   2.845   3.531   1.074
10763WAT    EPW43760   2.913   3.553   1.106
10764WAT      O43761   3.001   3.653   0.433
10764WAT     H143762   2.916   3.660   0.416
10764WAT     H243763   3.012   3.567   0.443
10764WAT    EPW43764   2.990   3.641   0.432
10765WAT      O43765   1.888   3.357   0.931
10765WAT     H143766   1.931   3.320   0.865
10765WAT     H243767   1.808   3.321   0.925
10765WAT    EPW43768   1.882   3.346   0.921
10766WAT      O43769   2.695   4.163   1.213
10766WAT     H143770   2.773   4.187   1.246
10766WAT     H243771   2.703   4.180   1.128
10766WAT    EPW43772   2.708   4.169   1.205
10767WAT      O43773   1.679   4.612   0.247
10767WAT     H143774   1.667   4.530   0.272
10767WAT     H243775   1.646   4.614   0.166
10767WAT    EPW43776   1.672   4.600   0.238
10768WAT      O43777   1.385   4.899   0.630
10768WAT     H143778   1.427   4.893   0.706
10768WAT     H243779   1.429   4.845   0.578
10768WAT    EPW43780   1.397   4.890   0.634
10769WAT      O43781   2.356   1.295   7.410
10769WAT     H143782   2.345   1.338   7.335
10769WAT     H243783   2.442   1.285   7.415
10769WAT    EPW43784   2.367   1.300   7.400
10770WAT      O43785   1.299   2.419   7.367
10770WAT     H143786   1.222   2.413   7.408
10770WAT     H243787   1.310   2.339   7.333
10770WAT    EPW43788   1.289   2.406   7.368
10771WAT      O43789   2.946   2.795   7.179
10771WAT     H143790   3.009   2.737   7.200
10771WAT     H243791   2.890   2.747   7.132
10771WAT    EPW43792   2.947   2.779   7.175
10772WAT      O43793   1.282   1.767   7.043
10772WAT     H143794   1.215   1.813   7.013
10772WAT     H243795   1.255   1.684   7.037
10772WAT    EPW43796   1.268   1.761   7.038
10773WAT      O43797   1.646   2.341   6.997
10773WAT     H143798   1.606   2.301   6.931
10773WAT     H243799   1.657   2.277   7.056
10773WAT    EPW43800   1.642   2.325   6.996
10774WAT      O43801   2.559   2.150   7.509
10774WAT     H143802   2.572   2.138   7.423
10774WAT     H243803   2.516   2.079   7.534
10774WAT    EPW43804   2.555   2.138   7.500
10775WAT      O43805   1.553   2.537   7.371
10775WAT     H143806   1.605   2.501   7.430
10775WAT     H243807   1.477   2.495   7.382
10775WAT    EPW43808   1.549   2.526   7.381
10776WAT      O43809   2.031   1.471   7.327
10776WAT     H143810   2.018   1.534   7.268
10776WAT     H243811   2.098   1.426   7.295
10776WAT    EPW43812   2.039   1.474   7.314
10777WAT      O43813   1.425   2.787   6.951
10777WAT     H143814   1.481   2.802   6.885
10777WAT     H243815   1.466   2.727   6.999
10777WAT    EPW43816   1.439   2.780   6.948
10778WAT      O43817   1.509   2.185   7.522
10778WAT     H143818   1.462   2.185   7.448
10778WAT     H243819   1.567   2.121   7.509
10778WAT    EPW43820   1.511   2.176   7.509
10779WAT      O43821   1.682   1.987   7.438
10779WAT     H143822   1.740   1.959   7.497
10779WAT     H243823   1.616   1.931   7.446
10779WAT    EPW43824   1.681   1.975   7.448
10780WAT      O43825   2.000   2.578   7.607
10780WAT     H143826   2.028   2.499   7.633
10780WAT     H243827   2.071   2.628   7.614
10780WAT    EPW43828   2.015   2.574   7.612
10781WAT      O43829   2.097   2.501   7.303
10781WAT     H143830   2.143   2.440   7.345
10781WAT     H243831   2.118   2.488   7.219
10781WAT    EPW43832   2.107   2.490   7.297
10782WAT      O43833   1.760   1.482   7.418
10782WAT     H143834   1.718   1.529   7.357
10782WAT     H243835   1.842   1.478   7.388
10782WAT    EPW43836   1.766   1.488   7.404
10783WAT      O43837   2.089   1.471   7.602
10783WAT     H143838   2.066   1.551   7.627
10783WAT     H243839   2.067   1.470   7.517
10783WAT    EPW43840   2.083   1.483   7.593
10784WAT      O43841   2.491   1.622   6.826
10784WAT     H143842   2.443   1.687   6.857
10784WAT     H243843   2.502   1.570   6.895
10784WAT    EPW43844   2.486   1.624   6.840
10785WAT      O43845   1.433   1.947   7.778
10785WAT     H143846   1.402   2.028   7.776
10785WAT     H243847   1.380   1.906   7.834
10785WAT    EPW43848   1.421   1.953   7.786
10786WAT      O43849   1.311   2.861   7.600
10786WAT     H143850   1.245   2.908   7.566
10786WAT     H243851   1.357   2.837   7.530
10786WAT    EPW43852   1.308   2.865   7.585
10787WAT      O43853   1.879   2.677   7.306
10787WAT     H143854   1.832   2.675   7.380
10787WAT     H243855   1.944   2.621   7.321
10787WAT    EPW43856   1.882   2.668   7.319
10788WAT      O43857   2.513   2.906   7.100
10788WAT     H143858   2.588   2.950   7.103
10788WAT     H243859   2.535   2.825   7.124
10788WAT    EPW43860   2.527   2.901   7.104
10789WAT      O43861   2.295   2.926   7.266
10789WAT     H143862   2.310   2.987   7.326
10789WAT     H243863   2.367   2.928   7.216
10789WAT    EPW43864   2.308   2.935   7.268
10790WAT      O43865   1.458   2.798   7.367
10790WAT     H143866   1.503   2.725   7.383
10790WAT     H243867   1.518   2.853   7.337
10790WAT    EPW43868   1.474   2.796   7.365
10791WAT      O43869   3.039   1.608   7.522
10791WAT     H143870   2.995   1.681   7.541
10791WAT     H243871   2.977   1.550   7.505
10791WAT    EPW43872   3.024   1.610   7.522
10792WAT      O43873   1.624   2.587   7.751
10792WAT     H143874   1.655   2.645   7.694
10792WAT     H243875   1.651   2.510   7.718
10792WAT    EPW43876   1.633   2.584   7.738
10793WAT      O43877   1.844   2.953   7.684
10793WAT     H143878   1.924   2.970   7.653
10793WAT     H243879   1.793   3.011   7.643
10793WAT    EPW43880   1.848   2.964   7.673
10794WAT      O43881   2.229   1.863   7.447
10794WAT     H143882   2.253   1.813   7.380
10794WAT     H243883   2.303   1.872   7.493
10794WAT    EPW43884   2.244   1.857   7.444
10795WAT      O43885   2.322   1.815   6.945
10795WAT     H143886   2.346   1.895   6.971
10795WAT     H243887   2.245   1.829   6.906
10795WAT    EPW43888   2.314   1.829   6.943
10796WAT      O43889   2.730   3.083   7.065
10796WAT     H143890   2.766   3.053   6.992
10796WAT     H243891   2.793   3.133   7.100
10796WAT    EPW43892   2.745   3.086   7.060
10797WAT      O43893   2.174   2.731   6.912
10797WAT     H143894   2.139   2.790   6.965
10797WAT     H243895   2.252   2.765   6.891
10797WAT    EPW43896   2.180   2.745   6.916
10798WAT      O43897   2.515   1.453   7.046
10798WAT     H143898   2.574   1.389   7.048
10798WAT     H243899   2.535   1.502   7.115
10798WAT    EPW43900   2.526   1.451   7.057
10799WAT      O43901   1.350   1.560   7.311
10799WAT     H143902   1.332   1.475   7.299
10799WAT     H243903   1.298   1.583   7.377
10799WAT    EPW43904   1.339   1.551   7.319
10800WAT      O43905   2.289   1.725   7.209
10800WAT     H143906   2.218   1.676   7.197
10800WAT     H243907   2.306   1.757   7.130
10800WAT    EPW43908   2.281   1.722   7.195
10801WAT      O43909   2.268   1.397   7.169
10801WAT     H143910   2.211   1.369   7.110
10801WAT     H243911   2.339   1.416   7.122
10801WAT    EPW43912   2.270   1.396   7.153
10802WAT      O43913   2.987   3.035   7.454
10802WAT     H143914   2.946   3.100   7.495
10802WAT     H243915   2.923   2.978   7.437
10802WAT    EPW43916   2.971   3.036   7.458
10803WAT      O43917   2.068   1.748   7.645
10803WAT     H143918   2.112   1.783   7.578
10803WAT     H243919   2.111   1.778   7.715
10803WAT    EPW43920   2.081   1.758   7.645
10804WAT      O43921   2.690   2.613   7.481
10804WAT     H143922   2.754   2.553   7.480
10804WAT     H243923   2.617   2.566   7.488
10804WAT    EPW43924   2.689   2.597   7.482
10805WAT      O43925   1.692   1.225   7.496
10805WAT     H143926   1.710   1.309   7.482
10805WAT     H243927   1.660   1.197   7.420
10805WAT    EPW43928   1.690   1.233   7.483
10806WAT      O43929   2.621   1.255   7.464
10806WAT     H143930   2.624   1.240   7.549
10806WAT     H243931   2.660   1.184   7.429
10806WAT    EPW43932   2.627   1.242   7.471
10807WAT      O43933   1.636   1.627   7.622
10807WAT     H143934   1.675   1.574   7.564
10807WAT     H243935   1.567   1.581   7.648
10807WAT    EPW43936   1.632   1.612   7.617
10808WAT      O43937   2.908   2.398   7.044
10808WAT     H143938   2.904   2.345   7.113
10808WAT     H243939   2.993   2.404   7.026
10808WAT    EPW43940   2.920   2.391   7.051
10809WAT      O43941   1.693   2.387   7.562
10809WAT     H143942   1.759   2.364   7.510
10809WAT     H243943   1.637   2.321   7.554
10809WAT    EPW43944   1.695   2.374   7.554
10810WAT      O43945   1.477   3.030   7.744
10810WAT     H143946   1.421   2.979   7.700
10810WAT     H243947   1.537   3.051   7.684
10810WAT    EPW43948   1.477   3.026   7.728
10811WAT      O43949   2.716   2.060   6.973
10811WAT     H143950   2.709   2.142   6.946
10811WAT     H243951   2.685   2.062   7.054
10811WAT    EPW43952   2.710   2.072   6.981
10812WAT      O43953   1.884   2.324   7.370
10812WAT     H143954   1.941   2.387   7.350
10812WAT     H243955   1.900   2.261   7.312
10812WAT    EPW43956   1.895   2.324   7.359
10813WAT      O43957   3.046   1.529   6.955
10813WAT     H143958   3.089   1.472   6.904
10813WAT     H243959   3.011   1.585   6.898
10813WAT    EPW43960   3.047   1.529   6.939
10814WAT      O43961   1.377   2.473   7.825
10814WAT     H143962   1.328   2.544   7.835
10814WAT     H243963   1.455   2.505   7.804
10814WAT    EPW43964   1.381   2.488   7.823
10815WAT      O43965   1.380   2.168   7.276
10815WAT     H143966   1.355   2.085   7.279
10815WAT     H243967   1.457   2.165   7.236
10815WAT    EPW43968   1.387   2.155   7.270
10816WAT      O43969   2.912   1.426   7.179
10816WAT     H143970   2.983   1.385   7.209
10816WAT     H243971   2.942   1.470   7.109
10816WAT    EPW43972   2.927   1.427   7.173
10817WAT      O43973   2.233   2.735   7.619
10817WAT     H143974   2.198   2.814   7.609
10817WAT     H243975   2.267   2.717   7.540
10817WAT    EPW43976   2.233   2.744   7.606
10818WAT      O43977   1.276   2.646   7.215
10818WAT     H143978   1.333   2.700   7.253
10818WAT     H243979   1.276   2.576   7.267
10818WAT    EPW43980   1.285   2.644   7.228
10819WAT      O43981   2.574   1.675   7.670
10819WAT     H143982   2.596   1.628   7.740
10819WAT     H243983   2.513   1.627   7.631
10819WAT    EPW43984   2.568   1.661   7.675
10820WAT      O43985   1.276   2.459   6.997
10820WAT     H143986   1.347   2.410   6.995
10820WAT     H243987   1.294   2.519   7.057
10820WAT    EPW43988   1.289   2.461   7.005
10821WAT      O43989   1.346   2.210   7.743
10821WAT     H143990   1.396   2.208   7.672
10821WAT     H243991   1.363   2.289   7.777
10821WAT    EPW43992   1.356   2.221   7.738
10822WAT      O43993   2.019   1.654   7.122
10822WAT     H143994   2.003   1.619   7.043
10822WAT     H243995   1.984   1.733   7.117
10822WAT    EPW43996   2.011   1.660   7.109
10823WAT      O43997   1.771   2.722   7.560
10823WAT     H143998   1.790   2.797   7.599
10823WAT     H243999   1.836   2.669   7.584
10823WAT    EPW44000   1.784   2.725   7.569
10824WAT      O44001   1.628   1.866   7.093
10824WAT     H144002   1.616   1.800   7.149
10824WAT     H244003   1.587   1.839   7.021
10824WAT    EPW44004   1.620   1.852   7.091
10825WAT      O44005   1.701   1.982   7.871
10825WAT     H144006   1.617   1.974   7.848
10825WAT     H244007   1.744   1.944   7.805
10825WAT    EPW44008   1.695   1.975   7.858
10826WAT      O44009   2.541   1.611   7.268
10826WAT     H144010   2.597   1.678   7.278
10826WAT     H244011   2.463   1.650   7.262
10826WAT    EPW44012   2.538   1.627   7.269
10827WAT      O44013   2.390   2.057   7.069
10827WAT     H144014   2.365   2.108   7.003
10827WAT     H244015   2.329   2.071   7.130
10827WAT    EPW44016   2.377   2.066   7.068
10828WAT      O44017   2.873   2.402   7.475
10828WAT     H144018   2.901   2.352   7.540
10828WAT     H244019   2.872   2.348   7.406
10828WAT    EPW44020   2.877   2.387   7.474
10829WAT      O44021   2.348   2.523   7.768
10829WAT     H144022   2.318   2.595   7.729
10829WAT     H244023   2.385   2.553   7.841
10829WAT    EPW44024   2.349   2.538   7.773
10830WAT      O44025   1.941   2.940   7.315
10830WAT     H144026   1.924   2.855   7.325
10830WAT     H244027   1.982   2.945   7.238
10830WAT    EPW44028   1.944   2.929   7.305
10831WAT      O44029   1.789   1.291   7.060
10831WAT     H144030   1.741   1.259   7.125
10831WAT     H244031   1.750   1.367   7.041
10831WAT    EPW44032   1.776   1.298   7.067
10832WAT      O44033   2.091   2.930   7.085
10832WAT     H144034   2.160   2.932   7.138
10832WAT     H244035   2.093   3.007   7.045
10832WAT    EPW44036   2.101   2.941   7.087
10833WAT      O44037   1.637   2.127   7.185
10833WAT     H144038   1.626   2.048   7.150
10833WAT     H244039   1.676   2.111   7.261
10833WAT    EPW44040   1.641   2.113   7.191
10834WAT      O44041   1.268   1.291   7.272
10834WAT     H144042   1.268   1.238   7.203
10834WAT     H244043   1.233   1.242   7.335
10834WAT    EPW44044   1.263   1.276   7.271
10835WAT      O44045   2.225   2.091   7.288
10835WAT     H144046   2.235   2.159   7.341
10835WAT     H244047   2.220   2.023   7.343
10835WAT    EPW44048   2.225   2.091   7.304
10836WAT      O44049   1.681   1.533   6.984
10836WAT     H144050   1.622   1.526   6.921
10836WAT     H244051   1.750   1.569   6.944
10836WAT    EPW44052   1.683   1.537   6.969
10837WAT      O44053   2.137   2.350   7.702
10837WAT     H144054   2.098   2.311   7.770
10837WAT     H244055   2.201   2.396   7.740
10837WAT    EPW44056   2.141   2.351   7.718
10838WAT      O44057   1.794   2.950   6.890
10838WAT     H144058   1.813   2.877   6.933
10838WAT     H244059   1.796   3.011   6.951
10838WAT    EPW44060   1.797   2.948   6.905
10839WAT      O44061   1.808   1.847   7.648
10839WAT     H144062   1.889   1.814   7.645
10839WAT     H244063   1.757   1.777   7.649
10839WAT    EPW44064   1.812   1.832   7.648
10840WAT      O44065   3.102   2.967   7.032
10840WAT     H144066   3.169   2.919   7.004
10840WAT     H244067   3.053   2.910   7.077
10840WAT    EPW44068   3.104   2.952   7.035
10841WAT      O44069   1.325   1.896   7.296
10841WAT     H144070   1.365   1.859   7.364
10841WAT     H244071   1.332   1.835   7.233
10841WAT    EPW44072   1.332   1.882   7.296
10842WAT      O44073   1.814   2.083   6.859
10842WAT     H144074   1.814   2.022   6.922
10842WAT     H244075   1.759   2.050   6.799
10842WAT    EPW44076   1.806   2.069   6.860
10843WAT      O44077   2.958   2.250   7.696
10843WAT     H144078   2.952   2.309   7.760
10843WAT     H244079   3.041   2.225   7.698
10843WAT    EPW44080   2.969   2.255   7.706
10844WAT      O44081   1.897   1.903   7.068
10844WAT     H144082   1.916   1.973   7.116
10844WAT     H244083   1.814   1.886   7.087
10844WAT    EPW44084   1.888   1.911   7.078
10845WAT      O44085   1.391   1.504   7.672
10845WAT     H144086   1.320   1.535   7.633
10845WAT     H244087   1.374   1.419   7.682
10845WAT    EPW44088   1.378   1.496   7.668
10846WAT      O44089   3.133   2.709   7.796
10846WAT     H144090   3.137   2.763   7.727
10846WAT     H244091   3.204   2.730   7.842
10846WAT    EPW44092   3.144   2.720   7.793
10847WAT      O44093   2.771   2.637   7.043
10847WAT     H144094   2.808   2.559   7.049
10847WAT     H244095   2.696   2.628   7.087
10847WAT    EPW44096   2.765   2.624   7.050
10848WAT      O44097   2.812   1.787   7.566
10848WAT     H144098   2.745   1.744   7.601
10848WAT     H244099   2.807   1.866   7.602
10848WAT    EPW44100   2.802   1.792   7.576
10849WAT      O44101   2.447   2.448   6.967
10849WAT     H144102   2.522   2.404   6.960
10849WAT     H244103   2.417   2.452   6.886
10849WAT    EPW44104   2.454   2.442   6.954
10850WAT      O44105   2.091   2.980   7.551
10850WAT     H144106   2.102   3.066   7.559
10850WAT     H244107   2.050   2.971   7.475
10850WAT    EPW44108   2.087   2.991   7.541
10851WAT      O44109   2.967   1.949   6.941
10851WAT     H144110   3.015   2.005   6.895
10851WAT     H244111   2.887   1.985   6.941
10851WAT    EPW44112   2.962   1.962   6.934
10852WAT      O44113   2.042   2.225   6.925
10852WAT     H144114   1.972   2.189   6.889
10852WAT     H244115   2.022   2.310   6.927
10852WAT    EPW44116   2.029   2.233   6.920
10853WAT      O44117   2.714   1.834   7.311
10853WAT     H144118   2.739   1.815   7.393
10853WAT     H244119   2.787   1.860   7.273
10853WAT    EPW44120   2.728   1.835   7.318
10854WAT      O44121   2.839   1.429   7.447
10854WAT     H144122   2.759   1.393   7.454
10854WAT     H244123   2.846   1.444   7.362
10854WAT    EPW44124   2.828   1.426   7.436
10855WAT      O44125   2.854   2.225   7.258
10855WAT     H144126   2.897   2.149   7.254
10855WAT     H244127   2.770   2.201   7.253
10855WAT    EPW44128   2.848   2.210   7.256
10856WAT      O44129   1.608   1.629   7.237
10856WAT     H144130   1.620   1.591   7.159
10856WAT     H244131   1.526   1.607   7.258
10856WAT    EPW44132   1.598   1.620   7.228
10857WAT      O44133   2.483   2.423   7.533
10857WAT     H144134   2.458   2.442   7.615
10857WAT     H244135   2.518   2.344   7.541
10857WAT    EPW44136   2.484   2.414   7.546
10858WAT      O44137   2.242   2.317   7.445
10858WAT     H144138   2.202   2.316   7.523
10858WAT     H244139   2.320   2.354   7.463
10858WAT    EPW44140   2.248   2.323   7.460
10859WAT      O44141   2.645   3.063   7.712
10859WAT     H144142   2.570   3.060   7.757
10859WAT     H244143   2.693   3.000   7.749
10859WAT    EPW44144   2.641   3.053   7.724
10860WAT      O44145   2.942   1.963   7.218
10860WAT     H144146   2.956   1.959   7.132
10860WAT     H244147   3.018   1.939   7.252
10860WAT    EPW44148   2.955   1.959   7.210
10861WAT      O44149   2.313   2.669   7.362
10861WAT     H144150   2.301   2.748   7.329
10861WAT     H244151   2.242   2.625   7.337
10861WAT    EPW44152   2.301   2.674   7.353
10862WAT      O44153   1.490   1.787   6.863
10862WAT     H144154   1.418   1.784   6.912
10862WAT     H244155   1.494   1.708   6.827
10862WAT    EPW44156   1.480   1.775   6.865
10863WAT      O44157   2.362   1.529   7.572
10863WAT     H144158   2.277   1.518   7.592
10863WAT     H244159   2.378   1.463   7.517
10863WAT    EPW44160   2.351   1.517   7.567
10864WAT      O44161   1.815   2.706   7.033
10864WAT     H144162   1.849   2.703   7.114
10864WAT     H244163   1.733   2.677   7.045
10864WAT    EPW44164   1.808   2.701   7.047
10865WAT      O44165   2.769   2.045   7.662
10865WAT     H144166   2.832   2.104   7.675
10865WAT     H244167   2.711   2.087   7.613
10865WAT    EPW44168   2.770   2.060   7.656
10866WAT      O44169   2.777   2.861   7.386
10866WAT     H144170   2.747   2.786   7.420
10866WAT     H244171   2.825   2.835   7.318
10866WAT    EPW44172   2.780   2.846   7.381
10867WAT      O44173   1.570   2.588   7.092
10867WAT     H144174   1.570   2.577   7.178
10867WAT     H244175   1.592   2.509   7.061
10867WAT    EPW44176   1.573   2.575   7.100
10868WAT      O44177   1.883   2.463   6.900
10868WAT     H144178   1.811   2.420   6.926
10868WAT     H244179   1.875   2.540   6.940
10868WAT    EPW44180   1.871   2.468   6.910
10869WAT      O44181   2.065   1.304   7.006
10869WAT     H144182   2.072   1.315   6.919
10869WAT     H244183   1.979   1.312   7.021
10869WAT    EPW44184   2.053   1.307   6.995
10870WAT      O44185   2.445   1.918   7.620
10870WAT     H144186   2.492   1.846   7.630
10870WAT     H244187   2.437   1.950   7.701
10870WAT    EPW44188   2.450   1.912   7.634
10871WAT      O44189   1.470   1.828   7.523
10871WAT     H144190   1.453   1.866   7.600
10871WAT     H244191   1.516   1.757   7.546
10871WAT    EPW44192   1.475   1.823   7.538
10872WAT      O44193   2.608   2.080   7.238
10872WAT     H144194   2.629   1.999   7.261
10872WAT     H244195   2.535   2.071   7.192
10872WAT    EPW44196   2.600   2.067   7.235
10873WAT      O44197   1.664   2.974   7.281
10873WAT     H144198   1.660   3.030   7.213
10873WAT     H244199   1.749   2.960   7.291
10873WAT    EPW44200   1.676   2.980   7.272
10874WAT      O44201   1.977   2.140   7.182
10874WAT     H144202   1.997   2.176   7.105
10874WAT     H244203   2.055   2.123   7.217
10874WAT    EPW44204   1.991   2.143   7.176
10875WAT      O44205   2.890   3.012   6.851
10875WAT     H144206   2.963   3.005   6.899
10875WAT     H244207   2.873   2.930   6.827
10875WAT    EPW44208   2.898   2.999   6.855
10876WAT      O44209   2.520   2.635   7.164
10876WAT     H144210   2.470   2.627   7.235
10876WAT     H244211   2.484   2.578   7.107
10876WAT    EPW44212   2.507   2.625   7.166
10877WAT      O44213   1.526   2.805   7.931
10877WAT     H144214   1.567   2.746   7.882
10877WAT     H244215   1.530   2.878   7.883
10877WAT    EPW44216   1.533   2.807   7.917
10878WAT      O44217   2.180   2.484   7.044
10878WAT     H144218   2.262   2.459   7.027
10878WAT     H244219   2.171   2.557   6.998
10878WAT    EPW44220   2.191   2.491   7.035
10879WAT      O44221   2.378   1.345   5.546
10879WAT     H144222   2.382   1.390   5.471
10879WAT     H244223   2.462   1.327   5.564
10879WAT    EPW44224   2.391   1.349   5.538
10880WAT      O44225   2.332   1.957   5.978
10880WAT     H144226   2.298   2.033   6.004
10880WAT     H244227   2.389   1.938   6.041
10880WAT    EPW44228   2.335   1.965   5.991
10881WAT      O44229   1.283   2.419   5.476
10881WAT     H144230   1.223   2.411   5.538
10881WAT     H244231   1.298   2.337   5.451
10881WAT    EPW44232   1.277   2.405   5.482
10882WAT      O44233   2.930   2.788   5.326
10882WAT     H144234   2.995   2.734   5.348
10882WAT     H244235   2.886   2.744   5.265
10882WAT    EPW44236   2.933   2.773   5.320
10883WAT      O44237   1.291   1.774   5.165
10883WAT     H144238   1.226   1.821   5.132
10883WAT     H244239   1.263   1.692   5.158
10883WAT    EPW44240   1.277   1.769   5.159
10884WAT      O44241   1.618   2.368   5.067
10884WAT     H144242   1.579   2.327   5.000
10884WAT     H244243   1.624   2.306   5.128
10884WAT    EPW44244   1.613   2.353   5.066
10885WAT      O44245   2.582   2.133   5.618
10885WAT     H144246   2.588   2.115   5.532
10885WAT     H244247   2.529   2.071   5.648
10885WAT    EPW44248   2.575   2.121   5.610
10886WAT      O44249   1.537   2.532   5.461
10886WAT     H144250   1.589   2.496   5.522
10886WAT     H244251   1.460   2.492   5.474
10886WAT    EPW44252   1.533   2.521   5.472
10887WAT      O44253   2.036   1.449   5.446
10887WAT     H144254   2.024   1.511   5.386
10887WAT     H244255   2.111   1.412   5.422
10887WAT    EPW44256   2.045   1.452   5.433
10888WAT      O44257   1.420   2.802   5.055
10888WAT     H144258   1.475   2.819   4.989
10888WAT     H244259   1.463   2.744   5.103
10888WAT    EPW44260   1.435   2.796   5.052
10889WAT      O44261   1.337   2.641   6.203
10889WAT     H144262   1.362   2.620   6.284
10889WAT     H244263   1.270   2.588   6.188
10889WAT    EPW44264   1.331   2.630   6.213
10890WAT      O44265   1.968   2.479   6.634
10890WAT     H144266   1.948   2.469   6.719
10890WAT     H244267   1.896   2.452   6.593
10890WAT    EPW44268   1.955   2.474   6.641
10891WAT      O44269   1.506   2.182   5.647
10891WAT     H144270   1.459   2.181   5.574
10891WAT     H244271   1.561   2.115   5.637
10891WAT    EPW44272   1.507   2.172   5.635
10892WAT      O44273   1.933   1.771   6.213
10892WAT     H144274   2.002   1.776   6.159
10892WAT     H244275   1.906   1.688   6.204
10892WAT    EPW44276   1.939   1.760   6.204
10893WAT      O44277   1.937   2.733   6.380
10893WAT     H144278   1.918   2.811   6.348
10893WAT     H244279   2.022   2.739   6.398
10893WAT    EPW44280   1.947   2.745   6.378
10894WAT      O44281   1.676   1.962   5.636
10894WAT     H144282   1.742   1.911   5.659
10894WAT     H244283   1.607   1.909   5.638
10894WAT    EPW44284   1.675   1.947   5.640
10895WAT      O44285   2.103   2.610   5.804
10895WAT     H144286   2.128   2.528   5.822
10895WAT     H244287   2.178   2.652   5.789
10895WAT    EPW44288   2.117   2.604   5.805
10896WAT      O44289   2.178   2.534   5.414
10896WAT     H144290   2.203   2.465   5.462
10896WAT     H244291   2.202   2.512   5.333
10896WAT    EPW44292   2.185   2.521   5.409
10897WAT      O44293   2.256   2.006   6.604
10897WAT     H144294   2.170   1.999   6.589
10897WAT     H244295   2.261   2.058   6.673
10897WAT    EPW44296   2.244   2.013   6.612
10898WAT      O44297   1.759   1.481   5.523
10898WAT     H144298   1.724   1.538   5.467
10898WAT     H244299   1.843   1.476   5.497
10898WAT    EPW44300   1.766   1.489   5.511
10899WAT      O44301   2.720   1.235   6.473
10899WAT     H144302   2.700   1.305   6.424
10899WAT     H244303   2.646   1.216   6.514
10899WAT    EPW44304   2.706   1.242   6.472
10900WAT      O44305   2.064   1.399   5.723
10900WAT     H144306   2.075   1.481   5.750
10900WAT     H244307   2.044   1.408   5.639
10900WAT    EPW44308   2.063   1.413   5.715
10901WAT      O44309   2.485   1.639   4.940
10901WAT     H144310   2.435   1.699   4.977
10901WAT     H244311   2.501   1.583   5.005
10901WAT    EPW44312   2.480   1.639   4.955
10902WAT      O44313   1.329   1.915   5.905
10902WAT     H144314   1.332   2.002   5.915
10902WAT     H244315   1.262   1.891   5.954
10902WAT    EPW44316   1.320   1.925   5.913
10903WAT      O44317   1.321   2.859   5.722
10903WAT     H144318   1.256   2.909   5.691
10903WAT     H244319   1.360   2.830   5.650
10903WAT    EPW44320   1.317   2.862   5.707
10904WAT      O44321   1.914   2.604   5.395
10904WAT     H144322   1.890   2.615   5.478
10904WAT     H244323   1.998   2.581   5.401
10904WAT    EPW44324   1.923   2.602   5.408
10905WAT      O44325   2.551   2.951   5.215
10905WAT     H144326   2.628   2.993   5.215
10905WAT     H244327   2.573   2.868   5.226
10905WAT    EPW44328   2.566   2.945   5.216
10906WAT      O44329   2.336   2.949   5.390
10906WAT     H144330   2.345   3.009   5.453
10906WAT     H244331   2.406   2.963   5.339
10906WAT    EPW44332   2.348   2.960   5.392
10907WAT      O44333   1.629   1.434   5.952
10907WAT     H144334   1.585   1.366   5.919
10907WAT     H244335   1.683   1.398   6.009
10907WAT    EPW44336   1.630   1.419   5.955
10908WAT      O44337   1.919   1.615   6.851
10908WAT     H144338   1.924   1.576   6.774
10908WAT     H244339   1.962   1.690   6.839
10908WAT    EPW44340   1.926   1.620   6.838
10909WAT      O44341   1.452   2.793   5.479
10909WAT     H144342   1.491   2.716   5.488
10909WAT     H244343   1.512   2.843   5.441
10909WAT    EPW44344   1.467   2.789   5.475
10910WAT      O44345   3.062   1.590   5.637
10910WAT     H144346   3.018   1.665   5.647
10910WAT     H244347   2.999   1.531   5.624
10910WAT    EPW44348   3.046   1.593   5.637
10911WAT      O44349   2.534   2.923   6.213
10911WAT     H144350   2.604   2.976   6.214
10911WAT     H244351   2.528   2.900   6.129
10911WAT    EPW44352   2.544   2.927   6.201
10912WAT      O44353   1.501   1.520   6.771
10912WAT     H144354   1.421   1.490   6.755
10912WAT     H244355   1.550   1.486   6.707
10912WAT    EPW44356   1.497   1.511   6.759
10913WAT      O44357   1.609   2.597   5.856
10913WAT     H144358   1.647   2.560   5.786
10913WAT     H244359   1.636   2.547   5.922
10913WAT    EPW44360   1.618   2.584   5.855
10914WAT      O44361   1.874   2.919   5.772
10914WAT     H144362   1.953   2.938   5.740
10914WAT     H244363   1.821   2.970   5.724
10914WAT    EPW44364   1.878   2.930   5.760
10915WAT      O44365   2.106   1.335   6.732
10915WAT     H144366   2.129   1.266   6.684
10915WAT     H244367   2.043   1.372   6.685
10915WAT    EPW44368   2.100   1.330   6.718
10916WAT      O44369   2.223   1.862   5.568
10916WAT     H144370   2.248   1.817   5.498
10916WAT     H244371   2.297   1.875   5.612
10916WAT    EPW44372   2.238   1.857   5.564
10917WAT      O44373   2.316   1.820   5.070
10917WAT     H144374   2.339   1.899   5.099
10917WAT     H244375   2.239   1.834   5.031
10917WAT    EPW44376   2.308   1.834   5.069
10918WAT      O44377   2.798   3.088   5.193
10918WAT     H144378   2.828   3.048   5.121
10918WAT     H244379   2.864   3.079   5.250
10918WAT    EPW44380   2.812   3.080   5.191
10919WAT      O44381   1.784   2.970   6.336
10919WAT     H144382   1.795   2.978   6.422
10919WAT     H244383   1.707   2.928   6.329
10919WAT    EPW44384   1.774   2.965   6.347
10920WAT      O44385   2.972   1.554   6.068
10920WAT     H144386   3.039   1.549   6.012
10920WAT     H244387   2.991   1.494   6.128
10920WAT    EPW44388   2.985   1.544   6.068
10921WAT      O44389   1.238   1.647   6.514
10921WAT     H144390   1.238   1.721   6.560
10921WAT     H244391   1.294   1.663   6.449
10921WAT    EPW44392   1.246   1.660   6.511
10922WAT      O44393   2.431   2.721   6.586
10922WAT     H144394   2.425   2.739   6.671
10922WAT     H244395   2.517   2.709   6.573
10922WAT    EPW44396   2.443   2.722   6.597
10923WAT      O44397   2.200   2.753   5.026
10923WAT     H144398   2.164   2.806   5.086
10923WAT     H244399   2.274   2.793   5.005
10923WAT    EPW44400   2.205   2.767   5.032
10924WAT      O44401   2.515   1.458   5.149
10924WAT     H144402   2.569   1.389   5.153
10924WAT     H244403   2.536   1.504   5.220
10924WAT    EPW44404   2.526   1.454   5.160
10925WAT      O44405   1.373   1.562   5.439
10925WAT     H144406   1.351   1.480   5.422
10925WAT     H244407   1.326   1.581   5.510
10925WAT    EPW44408   1.363   1.553   5.447
10926WAT      O44409   1.529   2.858   6.232
10926WAT     H144410   1.471   2.793   6.231
10926WAT     H244411   1.565   2.855   6.153
10926WAT    EPW44412   1.526   2.848   6.220
10927WAT      O44413   2.290   1.722   5.332
10927WAT     H144414   2.225   1.666   5.320
10927WAT     H244415   2.302   1.758   5.254
10927WAT    EPW44416   2.282   1.719   5.319
10928WAT      O44417   2.288   2.980   6.314
10928WAT     H144418   2.366   2.965   6.277
10928WAT     H244419   2.233   2.980   6.246
10928WAT    EPW44420   2.291   2.978   6.298
10929WAT      O44421   2.276   1.403   5.283
10929WAT     H144422   2.213   1.381   5.226
10929WAT     H244423   2.345   1.418   5.232
10929WAT    EPW44424   2.277   1.402   5.267
10930WAT      O44425   3.002   3.013   5.601
10930WAT     H144426   2.971   3.091   5.624
10930WAT     H244427   2.931   2.962   5.597
10930WAT    EPW44428   2.987   3.017   5.604
10931WAT      O44429   2.109   1.679   5.752
10931WAT     H144430   2.135   1.742   5.698
10931WAT     H244431   2.117   1.716   5.831
10931WAT    EPW44432   2.114   1.694   5.756
10932WAT      O44433   2.745   2.592   5.668
10932WAT     H144434   2.803   2.530   5.650
10932WAT     H244435   2.668   2.552   5.659
10932WAT    EPW44436   2.742   2.577   5.664
10933WAT      O44437   1.691   2.691   6.516
10933WAT     H144438   1.769   2.716   6.485
10933WAT     H244439   1.680   2.740   6.587
10933WAT    EPW44440   1.701   2.702   6.522
10934WAT      O44441   1.702   1.219   5.592
10934WAT     H144442   1.718   1.302   5.573
10934WAT     H244443   1.674   1.186   5.516
10934WAT    EPW44444   1.700   1.226   5.578
10935WAT      O44445   1.896   2.276   5.921
10935WAT     H144446   1.919   2.258   6.003
10935WAT     H244447   1.837   2.214   5.902
10935WAT    EPW44448   1.890   2.264   5.931
10936WAT      O44449   2.460   1.653   6.317
10936WAT     H144450   2.458   1.698   6.392
10936WAT     H244451   2.393   1.597   6.325
10936WAT    EPW44452   2.450   1.652   6.330
10937WAT      O44453   1.985   2.270   6.183
10937WAT     H144454   1.974   2.356   6.193
10937WAT     H244455   1.954   2.237   6.258
10937WAT    EPW44456   1.979   2.278   6.196
10938WAT      O44457   2.599   2.362   6.194
10938WAT     H144458   2.523   2.335   6.227
10938WAT     H244459   2.594   2.449   6.200
10938WAT    EPW44460   2.587   2.371   6.200
10939WAT      O44461   2.632   1.261   5.623
10939WAT     H144462   2.634   1.244   5.709
10939WAT     H244463   2.664   1.188   5.587
10939WAT    EPW44464   2.637   1.248   5.630
10940WAT      O44465   1.225   2.665   6.804
10940WAT     H144466   1.285   2.708   6.850
10940WAT     H244467   1.229   2.584   6.836
10940WAT    EPW44468   1.234   2.659   6.816
10941WAT      O44469   2.843   1.696   6.412
10941WAT     H144470   2.926   1.681   6.434
10941WAT     H244471   2.800   1.689   6.488
10941WAT    EPW44472   2.849   1.693   6.426
10942WAT      O44473   1.629   1.607   5.739
10942WAT     H144474   1.661   1.556   5.676
10942WAT     H244475   1.627   1.555   5.809
10942WAT    EPW44476   1.634   1.592   5.740
10943WAT      O44477   2.921   2.393   5.196
10943WAT     H144478   2.917   2.338   5.264
10943WAT     H244479   3.007   2.400   5.180
10943WAT    EPW44480   2.933   2.386   5.204
10944WAT      O44481   1.678   2.400   5.656
10944WAT     H144482   1.738   2.370   5.600
10944WAT     H244483   1.624   2.332   5.665
10944WAT    EPW44484   1.679   2.385   5.649
10945WAT      O44485   1.515   3.027   5.814
10945WAT     H144486   1.448   2.981   5.784
10945WAT     H244487   1.566   3.038   5.744
10945WAT    EPW44488   1.513   3.022   5.800
10946WAT      O44489   1.490   1.739   6.045
10946WAT     H144490   1.574   1.761   6.034
10946WAT     H244491   1.446   1.800   6.001
10946WAT    EPW44492   1.496   1.751   6.037
10947WAT      O44493   3.143   2.798   6.540
10947WAT     H144494   3.067   2.803   6.498
10947WAT     H244495   3.123   2.757   6.614
10947WAT    EPW44496   3.129   2.793   6.545
10948WAT      O44497   2.707   2.073   5.062
10948WAT     H144498   2.712   2.158   5.044
10948WAT     H244499   2.680   2.071   5.145
10948WAT    EPW44500   2.704   2.085   5.072
10949WAT      O44501   1.817   2.332   5.416
10949WAT     H144502   1.844   2.412   5.396
10949WAT     H244503   1.881   2.281   5.388
10949WAT    EPW44504   1.831   2.336   5.409
10950WAT      O44505   2.940   1.569   5.020
10950WAT     H144506   2.915   1.501   4.972
10950WAT     H244507   2.949   1.634   4.963
10950WAT    EPW44508   2.937   1.568   5.005
10951WAT      O44509   1.350   2.485   5.857
10951WAT     H144510   1.296   2.549   5.882
10951WAT     H244511   1.427   2.525   5.851
10951WAT    EPW44512   1.353   2.500   5.860
10952WAT      O44513   2.058   1.858   6.840
10952WAT     H144514   2.010   1.890   6.906
10952WAT     H244515   2.033   1.907   6.772
10952WAT    EPW44516   2.047   1.870   6.839
10953WAT      O44517   3.154   1.935   6.299
10953WAT     H144518   3.213   1.872   6.303
10953WAT     H244519   3.101   1.910   6.235
10953WAT    EPW44520   3.155   1.922   6.290
10954WAT      O44521   1.379   2.169   5.402
10954WAT     H144522   1.363   2.083   5.403
10954WAT     H244523   1.452   2.175   5.354
10954WAT    EPW44524   1.388   2.157   5.395
10955WAT      O44525   2.880   1.442   5.276
10955WAT     H144526   2.956   1.401   5.289
10955WAT     H244527   2.895   1.490   5.205
10955WAT    EPW44528   2.893   1.443   5.267
10956WAT      O44529   2.319   2.775   5.741
10956WAT     H144530   2.266   2.839   5.715
10956WAT     H244531   2.354   2.746   5.667
10956WAT    EPW44532   2.317   2.780   5.726
10957WAT      O44533   1.268   2.646   5.323
10957WAT     H144534   1.325   2.698   5.364
10957WAT     H244535   1.263   2.576   5.376
10957WAT    EPW44536   1.276   2.643   5.337
10958WAT      O44537   1.708   2.433   6.052
10958WAT     H144538   1.763   2.474   6.105
10958WAT     H244539   1.760   2.387   5.999
10958WAT    EPW44540   1.724   2.432   6.052
10959WAT      O44541   2.603   1.686   5.751
10959WAT     H144542   2.635   1.655   5.826
10959WAT     H244543   2.534   1.636   5.735
10959WAT    EPW44544   2.598   1.674   5.760
10960WAT      O44545   1.273   2.468   5.102
10960WAT     H144546   1.347   2.422   5.099
10960WAT     H244547   1.287   2.527   5.164
10960WAT    EPW44548   1.286   2.470   5.111
10961WAT      O44549   1.365   2.212   5.886
10961WAT     H144550   1.412   2.194   5.816
10961WAT     H244551   1.357   2.299   5.884
10961WAT    EPW44552   1.371   2.222   5.876
10962WAT      O44553   2.025   1.633   5.242
10962WAT     H144554   2.007   1.607   5.161
10962WAT     H244555   2.001   1.717   5.242
10962WAT    EPW44556   2.019   1.642   5.230
10963WAT      O44557   2.893   2.812   6.400
10963WAT     H144558   2.853   2.886   6.423
10963WAT     H244559   2.890   2.813   6.313
10963WAT    EPW44560   2.886   2.823   6.391
10964WAT      O44561   1.871   2.666   5.656
10964WAT     H144562   1.857   2.744   5.691
10964WAT     H244563   1.940   2.635   5.701
10964WAT    EPW44564   1.879   2.673   5.668
10965WAT      O44565   1.599   1.985   6.702
10965WAT     H144566   1.560   1.922   6.747
10965WAT     H244567   1.599   1.955   6.620
10965WAT    EPW44568   1.593   1.972   6.696
10966WAT      O44569   1.661   1.903   5.217
10966WAT     H144570   1.645   1.843   5.277
10966WAT     H244571   1.616   1.875   5.147
10966WAT    EPW44572   1.652   1.890   5.215
10967WAT      O44573   1.701   2.087   5.886
10967WAT     H144574   1.693   2.054   5.805
10967WAT     H244575   1.715   2.017   5.935
10967WAT    EPW44576   1.702   2.072   5.881
10968WAT      O44577   1.676   2.045   6.240
10968WAT     H144578   1.701   1.995   6.173
10968WAT     H244579   1.624   2.105   6.203
10968WAT    EPW44580   1.672   2.047   6.224
10969WAT      O44581   2.746   1.870   6.020
10969WAT     H144582   2.678   1.894   6.069
10969WAT     H244583   2.739   1.921   5.949
10969WAT    EPW44584   2.735   1.881   6.017
10970WAT      O44585   2.078   2.976   6.139
10970WAT     H144586   2.047   2.903   6.101
10970WAT     H244587   2.064   3.038   6.079
10970WAT    EPW44588   2.071   2.974   6.125
10971WAT      O44589   2.286   1.443   6.389
10971WAT     H144590   2.306   1.362   6.363
10971WAT     H244591   2.310   1.444   6.473
10971WAT    EPW44592   2.293   1.431   6.398
10972WAT      O44593   2.541   1.604   5.379
10972WAT     H144594   2.600   1.668   5.386
10972WAT     H244595   2.465   1.647   5.374
10972WAT    EPW44596   2.539   1.620   5.379
10973WAT      O44597   1.492   2.225   6.796
10973WAT     H144598   1.483   2.273   6.724
10973WAT     H244599   1.532   2.153   6.767
10973WAT    EPW44600   1.497   2.221   6.781
10974WAT      O44601   2.634   2.417   6.635
10974WAT     H144602   2.662   2.496   6.612
10974WAT     H244603   2.666   2.364   6.574
10974WAT    EPW44604   2.643   2.421   6.623
10975WAT      O44605   2.052   2.748   6.665
10975WAT     H144606   2.084   2.739   6.746
10975WAT     H244607   2.024   2.667   6.646
10975WAT    EPW44608   2.052   2.735   6.675
10976WAT      O44609   2.127   1.772   6.011
10976WAT     H144610   2.194   1.828   6.010
10976WAT     H244611   2.165   1.697   6.037
10976WAT    EPW44612   2.143   1.769   6.015
10977WAT      O44613   2.386   2.057   5.199
10977WAT     H144614   2.365   2.112   5.134
10977WAT     H244615   2.331   2.077   5.263
10977WAT    EPW44616   2.375   2.068   5.199
10978WAT      O44617   2.916   2.374   5.626
10978WAT     H144618   2.917   2.326   5.699
10978WAT     H244619   2.892   2.317   5.565
10978WAT    EPW44620   2.912   2.358   5.628
10979WAT      O44621   2.506   2.799   5.958
10979WAT     H144622   2.444   2.788   5.897
10979WAT     H244623   2.560   2.857   5.921
10979WAT    EPW44624   2.505   2.806   5.944
10980WAT      O44625   2.503   2.438   5.941
10980WAT     H144626   2.428   2.473   5.968
10980WAT     H244627   2.530   2.391   6.010
10980WAT    EPW44628   2.496   2.436   5.955
10981WAT      O44629   1.945   2.892   5.420
10981WAT     H144630   1.943   2.804   5.426
10981WAT     H244631   1.995   2.907   5.351
10981WAT    EPW44632   1.952   2.881   5.411
10982WAT      O44633   1.789   1.293   5.181
10982WAT     H144634   1.740   1.257   5.243
10982WAT     H244635   1.749   1.369   5.166
10982WAT    EPW44636   1.776   1.299   5.188
10983WAT      O44637   2.123   2.937   5.218
10983WAT     H144638   2.193   2.940   5.271
10983WAT     H244639   2.125   3.015   5.178
10983WAT    EPW44640   2.134   2.949   5.220
10984WAT      O44641   2.722   2.266   6.421
10984WAT     H144642   2.688   2.303   6.350
10984WAT     H244643   2.808   2.282   6.413
10984WAT    EPW44644   2.730   2.274   6.410
10985WAT      O44645   2.419   2.849   6.844
10985WAT     H144646   2.453   2.867   6.922
10985WAT     H244647   2.445   2.916   6.794
10985WAT    EPW44648   2.428   2.862   6.848
10986WAT      O44649   2.852   1.370   6.675
10986WAT     H144650   2.815   1.324   6.611
10986WAT     H244651   2.855   1.314   6.742
10986WAT    EPW44652   2.847   1.355   6.676
10987WAT      O44653   1.623   2.182   5.273
10987WAT     H144654   1.644   2.097   5.271
10987WAT     H244655   1.683   2.216   5.326
10987WAT    EPW44656   1.635   2.174   5.280
10988WAT      O44657   2.362   2.279   6.306
10988WAT     H144658   2.310   2.317   6.365
10988WAT     H244659   2.391   2.208   6.348
10988WAT    EPW44660   2.359   2.274   6.321
10989WAT      O44661   1.277   1.296   5.390
10989WAT     H144662   1.270   1.242   5.322
10989WAT     H244663   1.242   1.252   5.456
10989WAT    EPW44664   1.271   1.282   5.389
10990WAT      O44665   2.232   2.105   5.425
10990WAT     H144666   2.248   2.171   5.480
10990WAT     H244667   2.221   2.036   5.478
10990WAT    EPW44668   2.233   2.105   5.441
10991WAT      O44669   2.763   2.573   5.955
10991WAT     H144670   2.773   2.591   5.870
10991WAT     H244671   2.682   2.541   5.959
10991WAT    EPW44672   2.753   2.571   5.943
10992WAT      O44673   1.685   1.539   5.110
10992WAT     H144674   1.623   1.537   5.048
10992WAT     H244675   1.754   1.571   5.068
10992WAT    EPW44676   1.686   1.543   5.094
10993WAT      O44677   2.153   2.335   5.834
10993WAT     H144678   2.069   2.314   5.847
10993WAT     H244679   2.194   2.302   5.904
10993WAT    EPW44680   2.147   2.327   5.846
10994WAT      O44681   1.802   2.951   5.000
10994WAT     H144682   1.822   2.878   5.043
10994WAT     H244683   1.819   3.014   5.058
10994WAT    EPW44684   1.808   2.950   5.015
10995WAT      O44685   1.516   2.242   6.125
10995WAT     H144686   1.570   2.307   6.107
10995WAT     H244687   1.477   2.226   6.049
10995WAT    EPW44688   1.518   2.249   6.111
10996WAT      O44689   1.840   1.779   5.774
10996WAT     H144690   1.917   1.740   5.762
10996WAT     H244691   1.782   1.715   5.762
10996WAT    EPW44692   1.843   1.764   5.770
10997WAT      O44693   3.123   2.889   5.148
10997WAT     H144694   3.147   2.825   5.093
10997WAT     H244695   3.063   2.851   5.199
10997WAT    EPW44696   3.118   2.874   5.147
10998WAT      O44697   1.336   1.894   5.422
10998WAT     H144698   1.366   1.855   5.494
10998WAT     H244699   1.340   1.832   5.361
10998WAT    EPW44700   1.341   1.879   5.423
10999WAT      O44701   2.837   2.203   6.121
10999WAT     H144702   2.842   2.134   6.174
10999WAT     H244703   2.758   2.236   6.136
10999WAT    EPW44704   2.826   2.198   6.131
11000WAT      O44705   1.820   2.068   4.984
11000WAT     H144706   1.780   2.036   5.055
11000WAT     H244707   1.765   2.048   4.919
11000WAT    EPW44708   1.806   2.060   4.985
11001WAT      O44709   1.463   2.360   6.556
11001WAT     H144710   1.428   2.312   6.493
11001WAT     H244711   1.440   2.441   6.536
11001WAT    EPW44712   1.455   2.365   6.544
11002WAT      O44713   2.946   2.218   5.858
11002WAT     H144714   2.918   2.216   5.941
11002WAT     H244715   3.032   2.210   5.866
11002WAT    EPW44716   2.954   2.216   5.872
11003WAT      O44717   1.938   1.896   5.219
11003WAT     H144718   1.957   1.974   5.253
11003WAT     H244719   1.851   1.892   5.226
11003WAT    EPW44720   1.928   1.907   5.225
11004WAT      O44721   2.724   1.625   6.662
11004WAT     H144722   2.650   1.627   6.709
11004WAT     H244723   2.752   1.543   6.670
11004WAT    EPW44724   2.717   1.613   6.670
11005WAT      O44725   1.307   1.528   5.918
11005WAT     H144726   1.291   1.554   5.837
11005WAT     H244727   1.382   1.568   5.939
11005WAT    EPW44728   1.316   1.538   5.909
11006WAT      O44729   3.118   2.743   5.927
11006WAT     H144730   3.139   2.791   5.857
11006WAT     H244731   3.181   2.760   5.984
11006WAT    EPW44732   3.130   2.752   5.925
11007WAT      O44733   2.571   1.985   6.748
11007WAT     H144734   2.609   1.995   6.826
11007WAT     H244735   2.497   2.032   6.755
11007WAT    EPW44736   2.565   1.993   6.760
11008WAT      O44737   2.807   2.021   6.596
11008WAT     H144738   2.828   2.103   6.617
11008WAT     H244739   2.733   2.007   6.640
11008WAT    EPW44740   2.799   2.031   6.606
11009WAT      O44741   2.806   2.639   5.137
11009WAT     H144742   2.837   2.560   5.161
11009WAT     H244743   2.725   2.640   5.170
11009WAT    EPW44744   2.799   2.627   5.145
11010WAT      O44745   2.846   1.780   5.650
11010WAT     H144746   2.779   1.734   5.681
11010WAT     H244747   2.839   1.856   5.692
11010WAT    EPW44748   2.835   1.784   5.661
11011WAT      O44749   3.119   2.106   6.775
11011WAT     H144750   3.123   2.051   6.707
11011WAT     H244751   3.198   2.142   6.777
11011WAT    EPW44752   3.131   2.103   6.765
11012WAT      O44753   2.990   2.348   6.401
11012WAT     H144754   3.055   2.298   6.371
11012WAT     H244755   2.982   2.410   6.341
11012WAT    EPW44756   2.999   2.350   6.388
11013WAT      O44757   2.497   2.480   5.028
11013WAT     H144758   2.573   2.437   5.026
11013WAT     H244759   2.466   2.472   4.947
11013WAT    EPW44760   2.504   2.473   5.016
11014WAT      O44761   1.936   2.549   6.175
11014WAT     H144762   1.931   2.597   6.248
11014WAT     H244763   1.943   2.608   6.112
11014WAT    EPW44764   1.936   2.565   6.176
11015WAT      O44765   1.731   2.413   6.498
11015WAT     H144766   1.652   2.384   6.521
11015WAT     H244767   1.721   2.499   6.493
11015WAT    EPW44768   1.718   2.421   6.500
11016WAT      O44769   2.682   1.481   6.326
11016WAT     H144770   2.741   1.544   6.341
11016WAT     H244771   2.607   1.525   6.318
11016WAT    EPW44772   2.679   1.497   6.327
11017WAT      O44773   2.231   2.201   6.073
11017WAT     H144774   2.281   2.228   6.139
11017WAT     H244775   2.150   2.209   6.105
11017WAT    EPW44776   2.226   2.206   6.088
11018WAT      O44777   1.863   1.756   6.482
11018WAT     H144778   1.882   1.676   6.511
11018WAT     H244779   1.895   1.757   6.401
11018WAT    EPW44780   1.871   1.745   6.475
11019WAT      O44781   2.119   2.963   5.647
11019WAT     H144782   2.131   3.049   5.650
11019WAT     H244783   2.077   2.951   5.571
11019WAT    EPW44784   2.115   2.974   5.636
11020WAT      O44785   2.763   1.282   6.146
11020WAT     H144786   2.731   1.353   6.184
11020WAT     H244787   2.847   1.282   6.170
11020WAT    EPW44788   2.771   1.293   6.155
11021WAT      O44789   2.016   1.378   6.364
11021WAT     H144790   2.099   1.405   6.360
11021WAT     H244791   2.023   1.291   6.359
11021WAT    EPW44792   2.030   1.369   6.363
11022WAT      O44793   1.969   2.760   5.995
11022WAT     H144794   1.915   2.805   5.944
11022WAT     H244795   2.018   2.716   5.938
11022WAT    EPW44796   1.968   2.760   5.979
11023WAT      O44797   2.368   2.404   6.704
11023WAT     H144798   2.449   2.410   6.672
11023WAT     H244799   2.317   2.423   6.635
11023WAT    EPW44800   2.372   2.408   6.689
11024WAT      O44801   2.709   2.677   6.567
11024WAT     H144802   2.748   2.701   6.641
11024WAT     H244803   2.763   2.706   6.505
11024WAT    EPW44804   2.723   2.685   6.569
11025WAT      O44805   2.957   1.958   5.027
11025WAT     H144806   3.007   2.022   4.995
11025WAT     H244807   2.879   1.995   5.036
11025WAT    EPW44808   2.953   1.973   5.023
11026WAT      O44809   2.035   2.238   5.034
11026WAT     H144810   1.972   2.185   5.006
11026WAT     H244811   2.001   2.317   5.027
11026WAT    EPW44812   2.021   2.242   5.029
11027WAT      O44813   1.751   1.854   6.027
11027WAT     H144814   1.785   1.826   5.952
11027WAT     H244815   1.808   1.827   6.087
11027WAT    EPW44816   1.764   1.846   6.025
11028WAT      O44817   2.457   1.830   6.536
11028WAT     H144818   2.382   1.872   6.554
11028WAT     H244819   2.505   1.841   6.608
11028WAT    EPW44820   2.453   1.838   6.550
11029WAT      O44821   2.514   1.890   6.173
11029WAT     H144822   2.520   1.946   6.240
11029WAT     H244823   2.498   1.814   6.211
11029WAT    EPW44824   2.512   1.887   6.188
11030WAT      O44825   2.211   2.967   6.582
11030WAT     H144826   2.224   2.963   6.496
11030WAT     H244827   2.172   2.891   6.600
11030WAT    EPW44828   2.207   2.955   6.572
11031WAT      O44829   2.730   1.821   5.402
11031WAT     H144830   2.759   1.805   5.483
11031WAT     H244831   2.801   1.850   5.360
11031WAT    EPW44832   2.745   1.823   5.408
11032WAT      O44833   2.037   1.314   6.001
11032WAT     H144834   1.954   1.307   6.026
11032WAT     H244835   2.031   1.325   5.915
11032WAT    EPW44836   2.024   1.314   5.992
11033WAT      O44837   2.852   1.424   5.560
11033WAT     H144838   2.774   1.390   5.582
11033WAT     H244839   2.842   1.444   5.476
11033WAT    EPW44840   2.839   1.422   5.551
11034WAT      O44841   2.864   2.209   5.402
11034WAT     H144842   2.907   2.136   5.382
11034WAT     H244843   2.781   2.188   5.389
11034WAT    EPW44844   2.858   2.195   5.397
11035WAT      O44845   2.202   2.441   6.480
11035WAT     H144846   2.127   2.441   6.525
11035WAT     H244847   2.207   2.522   6.448
11035WAT    EPW44848   2.192   2.453   6.482
11036WAT      O44849   1.249   1.422   6.678
11036WAT     H144850   1.251   1.492   6.625
11036WAT     H244851   1.165   1.400   6.680
11036WAT    EPW44852   1.237   1.429   6.670
11037WAT      O44853   1.770   3.084   6.070
11037WAT     H144854   1.780   3.062   6.154
11037WAT     H244855   1.745   3.010   6.031
11037WAT    EPW44856   1.768   3.070   6.077
11038WAT      O44857   1.622   1.658   5.355
11038WAT     H144858   1.633   1.618   5.277
11038WAT     H244859   1.543   1.632   5.380
11038WAT    EPW44860   1.612   1.648   5.347
11039WAT      O44861   2.527   2.403   5.667
11039WAT     H144862   2.517   2.410   5.754
11039WAT     H244863   2.554   2.321   5.657
11039WAT    EPW44864   2.530   2.392   5.679
11040WAT      O44865   2.272   2.332   5.582
11040WAT     H144866   2.230   2.330   5.658
11040WAT     H244867   2.352   2.359   5.603
11040WAT    EPW44868   2.278   2.336   5.596
11041WAT      O44869   2.230   2.712   6.395
11041WAT     H144870   2.290   2.712   6.459
11041WAT     H244871   2.251   2.782   6.347
11041WAT    EPW44872   2.242   2.722   6.397
11042WAT      O44873   3.072   1.929   6.565
11042WAT     H144874   2.986   1.943   6.570
11042WAT     H244875   3.090   1.940   6.480
11042WAT    EPW44876   3.062   1.933   6.553
11043WAT      O44877   2.518   2.063   6.390
11043WAT     H144878   2.507   1.999   6.448
11043WAT     H244879   2.594   2.100   6.415
11043WAT    EPW44880   2.528   2.059   6.402
11044WAT      O44881   1.418   3.046   6.604
11044WAT     H144882   1.363   2.978   6.596
11044WAT     H244883   1.367   3.110   6.635
11044WAT    EPW44884   1.402   3.045   6.608
11045WAT      O44885   2.296   2.167   6.828
11045WAT     H144886   2.321   2.242   6.790
11045WAT     H244887   2.215   2.184   6.856
11045WAT    EPW44888   2.287   2.181   6.827
11046WAT      O44889   2.668   3.022   5.905
11046WAT     H144890   2.622   3.083   5.946
11046WAT     H244891   2.739   3.013   5.955
11046WAT    EPW44892   2.672   3.029   5.919
11047WAT      O44893   2.285   2.545   6.085
11047WAT     H144894   2.211   2.534   6.131
11047WAT     H244895   2.341   2.578   6.144
11047WAT    EPW44896   2.282   2.548   6.101
11048WAT      O44897   2.845   2.745   6.799
11048WAT     H144898   2.926   2.715   6.796
11048WAT     H244899   2.812   2.709   6.871
11048WAT    EPW44900   2.852   2.735   6.809
11049WAT      O44901   1.611   1.869   6.444
11049WAT     H144902   1.629   1.929   6.384
11049WAT     H244903   1.687   1.829   6.457
11049WAT    EPW44904   1.625   1.872   6.437
11050WAT      O44905   1.420   1.718   6.310
11050WAT     H144906   1.440   1.724   6.225
11050WAT     H244907   1.483   1.765   6.349
11050WAT    EPW44908   1.432   1.726   6.303
11051WAT      O44909   2.956   1.961   5.310
11051WAT     H144910   2.974   1.955   5.225
11051WAT     H244911   3.031   1.941   5.348
11051WAT    EPW44912   2.969   1.957   5.303
11052WAT      O44913   1.652   1.402   6.569
11052WAT     H144914   1.652   1.316   6.554
11052WAT     H244915   1.628   1.437   6.493
11052WAT    EPW44916   1.648   1.395   6.556
11053WAT      O44917   2.393   2.695   5.479
11053WAT     H144918   2.371   2.775   5.452
11053WAT     H244919   2.322   2.648   5.462
11053WAT    EPW44920   2.379   2.700   5.473
11054WAT      O44921   2.830   1.981   6.315
11054WAT     H144922   2.830   1.894   6.318
11054WAT     H244923   2.818   2.005   6.398
11054WAT    EPW44924   2.828   1.972   6.328
11055WAT      O44925   1.347   2.223   6.346
11055WAT     H144926   1.395   2.238   6.275
11055WAT     H244927   1.327   2.138   6.339
11055WAT    EPW44928   1.351   2.213   6.334
11056WAT      O44929   1.509   1.809   4.998
11056WAT     H144930   1.437   1.805   5.047
11056WAT     H244931   1.512   1.731   4.960
11056WAT    EPW44932   1.499   1.797   5.000
11057WAT      O44933   2.356   1.445   6.658
11057WAT     H144934   2.391   1.507   6.708
11057WAT     H244935   2.281   1.426   6.699
11057WAT    EPW44936   2.350   1.451   6.672
11058WAT      O44937   2.365   1.544   5.741
11058WAT     H144938   2.286   1.580   5.744
11058WAT     H244939   2.356   1.481   5.680
11058WAT    EPW44940   2.352   1.540   5.732
11059WAT      O44941   1.826   2.705   5.145
11059WAT     H144942   1.864   2.680   5.219
11059WAT     H244943   1.741   2.686   5.158
11059WAT    EPW44944   1.819   2.699   5.158
11060WAT      O44945   2.701   1.598   5.995
11060WAT     H144946   2.780   1.565   6.011
11060WAT     H244947   2.710   1.682   6.016
11060WAT    EPW44948   2.714   1.605   6.001
11061WAT      O44949   1.858   2.173   6.412
11061WAT     H144950   1.817   2.245   6.439
11061WAT     H244951   1.799   2.134   6.362
11061WAT    EPW44952   1.843   2.178   6.409
11062WAT      O44953   2.776   2.016   5.781
11062WAT     H144954   2.834   2.077   5.802
11062WAT     H244955   2.719   2.058   5.730
11062WAT    EPW44956   2.776   2.031   5.776
11063WAT      O44957   2.778   2.851   5.551
11063WAT     H144958   2.763   2.775   5.590
11063WAT     H244959   2.817   2.828   5.476
11063WAT    EPW44960   2.782   2.837   5.546
11064WAT      O44961   1.569   2.609   5.192
11064WAT     H144962   1.563   2.586   5.276
11064WAT     H244963   1.583   2.533   5.151
11064WAT    EPW44964   1.570   2.594   5.199
11065WAT      O44965   1.877   2.468   4.999
11065WAT     H144966   1.798   2.433   5.012
11065WAT     H244967   1.872   2.545   5.039
11065WAT    EPW44968   1.864   2.474   5.007
11066WAT      O44969   1.828   1.523   6.212
11066WAT     H144970   1.748   1.502   6.240
11066WAT     H244971   1.879   1.465   6.252
11066WAT    EPW44972   1.824   1.511   6.222
11067WAT      O44973   3.015   1.357   6.264
11067WAT     H144974   2.999   1.390   6.343
11067WAT     H244975   3.096   1.324   6.272
11067WAT    EPW44976   3.025   1.357   6.277
11068WAT      O44977   2.216   1.520   6.070
11068WAT     H144978   2.161   1.453   6.057
11068WAT     H244979   2.295   1.484   6.059
11068WAT    EPW44980   2.220   1.505   6.067
11069WAT      O44981   2.538   2.636   6.189
11069WAT     H144982   2.550   2.704   6.241
11069WAT     H244983   2.536   2.671   6.109
11069WAT    EPW44984   2.539   2.651   6.185
11070WAT      O44985   2.486   3.034   6.639
11070WAT     H144986   2.417   2.991   6.607
11070WAT     H244987   2.457   3.116   6.646
11070WAT    EPW44988   2.471   3.040   6.635
11071WAT      O44989   1.979   1.984   6.592
11071WAT     H144990   1.943   1.912   6.557
11071WAT     H244991   1.944   2.049   6.546
11071WAT    EPW44992   1.968   1.983   6.580
11072WAT      O44993   2.065   1.312   5.125
11072WAT     H144994   2.070   1.323   5.038
11072WAT     H244995   1.980   1.316   5.141
11072WAT    EPW44996   2.054   1.314   5.115
11073WAT      O44997   2.969   2.456   6.134
11073WAT     H144998   2.940   2.374   6.129
11073WAT     H244999   2.916   2.500   6.081
11073WAT    EPW45000   2.957   2.450   6.125
11074WAT      O45001   1.865   2.952   6.612
11074WAT     H145002   1.847   2.970   6.695
11074WAT     H245003   1.924   2.888   6.617
11074WAT    EPW45004   1.871   2.945   6.625
11075WAT      O45005   2.880   2.793   6.100
11075WAT     H145006   2.954   2.788   6.055
11075WAT     H245007   2.830   2.731   6.064
11075WAT    EPW45008   2.883   2.783   6.088
11076WAT      O45009   1.571   1.482   6.320
11076WAT     H145010   1.520   1.413   6.303
11076WAT     H245011   1.517   1.550   6.310
11076WAT    EPW45012   1.556   1.482   6.316
11077WAT      O45013   2.468   1.436   5.977
11077WAT     H145014   2.535   1.488   5.996
11077WAT     H245015   2.436   1.471   5.903
11077WAT    EPW45016   2.473   1.449   5.969
11078WAT      O45017   1.586   2.850   6.734
11078WAT     H145018   1.650   2.887   6.779
11078WAT     H245019   1.544   2.917   6.698
11078WAT    EPW45020   1.589   2.865   6.735
11079WAT      O45021   2.444   1.917   5.725
11079WAT     H145022   2.499   1.850   5.738
11079WAT     H245023   2.411   1.932   5.805
11079WAT    EPW45024   2.447   1.909   5.739
11080WAT      O45025   1.448   1.811   5.667
11080WAT     H145026   1.405   1.836   5.738
11080WAT     H245027   1.487   1.737   5.692
11080WAT    EPW45028   1.447   1.804   5.681
11081WAT      O45029   1.425   2.621   6.465
11081WAT     H145030   1.375   2.685   6.499
11081WAT     H245031   1.506   2.651   6.475
11081WAT    EPW45032   1.429   2.635   6.472
11082WAT      O45033   2.621   2.070   5.343
11082WAT     H145034   2.643   1.988   5.360
11082WAT     H245035   2.543   2.063   5.304
11082WAT    EPW45036   2.613   2.057   5.340
11083WAT      O45037   1.672   2.938   5.365
11083WAT     H145038   1.671   2.991   5.295
11083WAT     H245039   1.756   2.917   5.374
11083WAT    EPW45040   1.684   2.942   5.356
11084WAT      O45041   1.995   2.157   5.297
11084WAT     H145042   2.017   2.188   5.219
11084WAT     H245043   2.071   2.146   5.337
11084WAT    EPW45044   2.009   2.160   5.291
11085WAT      O45045   2.926   2.980   4.974
11085WAT     H145046   3.001   2.962   5.015
11085WAT     H245047   2.906   2.905   4.935
11085WAT    EPW45048   2.934   2.967   4.974
11086WAT      O45049   2.919   2.268   6.669
11086WAT     H145050   2.988   2.230   6.707
11086WAT     H245051   2.953   2.305   6.598
11086WAT    EPW45052   2.934   2.268   6.664
11087WAT      O45053   2.554   2.670   5.245
11087WAT     H145054   2.511   2.660   5.320
11087WAT     H245055   2.511   2.618   5.189
11087WAT    EPW45056   2.541   2.661   5.248
11088WAT      O45057   2.955   1.718   6.781
11088WAT     H145058   2.945   1.797   6.816
11088WAT     H245059   2.877   1.701   6.746
11088WAT    EPW45060   2.942   1.727   6.781
11089WAT      O45061   3.016   1.835   6.077
11089WAT     H145062   2.933   1.858   6.065
11089WAT     H245063   3.013   1.747   6.078
11089WAT    EPW45064   3.004   1.825   6.076
11090WAT      O45065   1.911   1.492   6.591
11090WAT     H145066   1.946   1.459   6.518
11090WAT     H245067   1.830   1.462   6.589
11090WAT    EPW45068   1.904   1.482   6.580
11091WAT      O45069   2.685   2.321   6.896
11091WAT     H145070   2.762   2.348   6.927
11091WAT     H245071   2.688   2.344   6.812
11091WAT    EPW45072   2.697   2.328   6.888
11092WAT      O45073   1.639   2.847   5.979
11092WAT     H145074   1.637   2.770   5.938
11092WAT     H245075   1.598   2.900   5.924
11092WAT    EPW45076   1.633   2.844   5.965
11093WAT      O45077   2.246   2.504   5.149
11093WAT     H145078   2.322   2.480   5.114
11093WAT     H245079   2.226   2.578   5.107
11093WAT    EPW45080   2.254   2.512   5.138
11094WAT      O45081   1.407   3.091   6.326
11094WAT     H145082   1.412   3.073   6.411
11094WAT     H245083   1.441   3.021   6.287
11094WAT    EPW45084   1.413   3.078   6.333
11095WAT      O45085   2.363   1.334   3.621
11095WAT     H145086   2.361   1.367   3.541
11095WAT     H245087   2.446   1.310   3.631
11095WAT    EPW45088   2.375   1.335   3.611
11096WAT      O45089   2.315   1.947   4.058
11096WAT     H145090   2.287   2.023   4.090
11096WAT     H245091   2.379   1.924   4.114
11096WAT    EPW45092   2.321   1.955   4.071
11097WAT      O45093   1.289   2.419   3.584
11097WAT     H145094   1.228   2.410   3.645
11097WAT     H245095   1.302   2.337   3.556
11097WAT    EPW45096   1.282   2.406   3.589
11098WAT      O45097   3.024   2.910   3.375
11098WAT     H145098   3.111   2.911   3.377
11098WAT     H245099   3.005   2.826   3.359
11098WAT    EPW45100   3.034   2.898   3.373
11099WAT      O45101   1.291   1.771   3.266
11099WAT     H145102   1.225   1.819   3.233
11099WAT     H245103   1.262   1.689   3.258
11099WAT    EPW45104   1.277   1.766   3.260
11100WAT      O45105   1.585   2.367   3.177
11100WAT     H145106   1.556   2.324   3.106
11100WAT     H245107   1.598   2.303   3.235
11100WAT    EPW45108   1.583   2.351   3.175
11101WAT      O45109   2.637   2.155   3.752
11101WAT     H145110   2.646   2.143   3.666
11101WAT     H245111   2.574   2.099   3.774
11101WAT    EPW45112   2.629   2.145   3.742
11102WAT      O45113   1.542   2.539   3.580
11102WAT     H145114   1.595   2.502   3.638
11102WAT     H245115   1.466   2.497   3.591
11102WAT    EPW45116   1.539   2.527   3.590
11103WAT      O45117   1.970   1.424   3.511
11103WAT     H145118   2.008   1.487   3.464
11103WAT     H245119   2.027   1.411   3.576
11103WAT    EPW45120   1.984   1.431   3.514
11104WAT      O45121   1.446   2.817   3.188
11104WAT     H145122   1.492   2.826   3.114
11104WAT     H245123   1.481   2.746   3.224
11104WAT    EPW45124   1.458   2.808   3.182
11105WAT      O45125   1.341   2.642   4.299
11105WAT     H145126   1.371   2.625   4.380
11105WAT     H245127   1.274   2.586   4.290
11105WAT    EPW45128   1.336   2.631   4.310
11106WAT      O45129   1.984   2.498   4.740
11106WAT     H145130   1.958   2.485   4.822
11106WAT     H245131   1.914   2.475   4.693
11106WAT    EPW45132   1.970   2.492   4.745
11107WAT      O45133   1.489   2.185   3.756
11107WAT     H145134   1.446   2.186   3.681
11107WAT     H245135   1.546   2.120   3.747
11107WAT    EPW45136   1.491   2.176   3.744
11108WAT      O45137   1.952   1.754   4.308
11108WAT     H145138   2.016   1.751   4.249
11108WAT     H245139   1.914   1.676   4.301
11108WAT    EPW45140   1.956   1.742   4.299
11109WAT      O45141   1.986   2.761   4.476
11109WAT     H145142   1.994   2.827   4.419
11109WAT     H245143   2.067   2.747   4.503
11109WAT    EPW45144   1.999   2.769   4.471
11110WAT      O45145   1.661   1.972   3.744
11110WAT     H145146   1.728   1.922   3.769
11110WAT     H245147   1.592   1.918   3.748
11110WAT    EPW45148   1.661   1.957   3.748
11111WAT      O45149   2.072   2.606   3.908
11111WAT     H145150   2.106   2.527   3.921
11111WAT     H245151   2.143   2.657   3.902
11111WAT    EPW45152   2.088   2.602   3.909
11112WAT      O45153   2.160   2.519   3.538
11112WAT     H145154   2.196   2.453   3.583
11112WAT     H245155   2.185   2.503   3.456
11112WAT    EPW45156   2.169   2.507   3.533
11113WAT      O45157   2.297   1.995   4.770
11113WAT     H145158   2.216   1.991   4.739
11113WAT     H245159   2.292   2.053   4.835
11113WAT    EPW45160   2.285   2.003   4.775
11114WAT      O45161   1.743   1.516   3.639
11114WAT     H145162   1.700   1.565   3.582
11114WAT     H245163   1.818   1.498   3.598
11114WAT    EPW45164   1.748   1.520   3.625
11115WAT      O45165   2.718   1.257   4.628
11115WAT     H145166   2.692   1.326   4.581
11115WAT     H245167   2.645   1.232   4.669
11115WAT    EPW45168   2.703   1.264   4.627
11116WAT      O45169   2.038   1.402   3.800
11116WAT     H145170   2.071   1.483   3.808
11116WAT     H245171   1.951   1.416   3.801
11116WAT    EPW45172   2.030   1.416   3.801
11117WAT      O45173   2.502   1.654   3.017
11117WAT     H145174   2.457   1.712   3.064
11117WAT     H245175   2.523   1.592   3.075
11117WAT    EPW45176   2.498   1.653   3.033
11118WAT      O45177   1.333   1.925   4.023
11118WAT     H145178   1.334   2.011   4.032
11118WAT     H245179   1.264   1.900   4.070
11118WAT    EPW45180   1.323   1.934   4.031
11119WAT      O45181   1.325   2.870   3.839
11119WAT     H145182   1.261   2.921   3.810
11119WAT     H245183   1.359   2.836   3.766
11119WAT    EPW45184   1.321   2.873   3.824
11120WAT      O45185   1.895   2.595   3.521
11120WAT     H145186   1.869   2.608   3.603
11120WAT     H245187   1.980   2.574   3.529
11120WAT    EPW45188   1.904   2.594   3.534
11121WAT      O45189   2.566   2.910   3.313
11121WAT     H145190   2.621   2.977   3.321
11121WAT     H245191   2.611   2.842   3.343
11121WAT    EPW45192   2.581   2.909   3.319
11122WAT      O45193   2.339   2.914   3.468
11122WAT     H145194   2.351   2.982   3.521
11122WAT     H245195   2.411   2.913   3.419
11122WAT    EPW45196   2.351   2.924   3.468
11123WAT      O45197   1.619   1.447   4.066
11123WAT     H145198   1.579   1.376   4.036
11123WAT     H245199   1.682   1.415   4.118
11123WAT    EPW45200   1.623   1.432   4.069
11124WAT      O45201   1.918   1.614   4.968
11124WAT     H145202   1.924   1.577   4.889
11124WAT     H245203   1.959   1.690   4.958
11124WAT    EPW45204   1.925   1.619   4.955
11125WAT      O45205   1.437   2.793   3.593
11125WAT     H145206   1.484   2.721   3.604
11125WAT     H245207   1.489   2.845   3.545
11125WAT    EPW45208   1.452   2.790   3.588
11126WAT      O45209   3.111   1.608   3.743
11126WAT     H145210   3.081   1.688   3.759
11126WAT     H245211   3.039   1.559   3.742
11126WAT    EPW45212   3.096   1.612   3.745
11127WAT      O45213   2.501   3.039   4.223
11127WAT     H145214   2.585   3.052   4.243
11127WAT     H245215   2.503   2.971   4.168
11127WAT    EPW45216   2.514   3.031   4.218
11128WAT      O45217   1.503   1.546   4.896
11128WAT     H145218   1.422   1.521   4.880
11128WAT     H245219   1.550   1.509   4.832
11128WAT    EPW45220   1.498   1.537   4.884
11129WAT      O45221   1.608   2.599   3.969
11129WAT     H145222   1.660   2.586   3.900
11129WAT     H245223   1.641   2.546   4.030
11129WAT    EPW45224   1.621   2.590   3.968
11130WAT      O45225   1.893   2.924   3.797
11130WAT     H145226   1.972   2.959   3.784
11130WAT     H245227   1.840   2.975   3.750
11130WAT    EPW45228   1.897   2.937   3.788
11131WAT      O45229   2.103   1.345   4.850
11131WAT     H145230   2.127   1.274   4.805
11131WAT     H245231   2.039   1.379   4.801
11131WAT    EPW45232   2.097   1.340   4.836
11132WAT      O45233   2.236   1.856   3.661
11132WAT     H145234   2.267   1.814   3.591
11132WAT     H245235   2.308   1.878   3.705
11132WAT    EPW45236   2.251   1.853   3.657
11133WAT      O45237   2.347   1.845   3.162
11133WAT     H145238   2.364   1.920   3.202
11133WAT     H245239   2.269   1.857   3.127
11133WAT    EPW45240   2.338   1.858   3.162
11134WAT      O45241   2.722   3.146   3.289
11134WAT     H145242   2.772   3.108   3.228
11134WAT     H245243   2.781   3.181   3.344
11134WAT    EPW45244   2.738   3.145   3.288
11135WAT      O45245   1.742   3.006   4.474
11135WAT     H145246   1.782   2.991   4.550
11135WAT     H245247   1.690   2.937   4.463
11135WAT    EPW45248   1.740   2.994   4.483
11136WAT      O45249   2.986   1.588   4.208
11136WAT     H145250   3.042   1.567   4.144
11136WAT     H245251   2.998   1.524   4.266
11136WAT    EPW45252   2.996   1.575   4.207
11137WAT      O45253   1.244   1.656   4.621
11137WAT     H145254   1.236   1.733   4.662
11137WAT     H245255   1.305   1.672   4.561
11137WAT    EPW45256   1.252   1.670   4.618
11138WAT      O45257   2.424   2.725   4.753
11138WAT     H145258   2.431   2.778   4.822
11138WAT     H245259   2.506   2.702   4.736
11138WAT    EPW45260   2.437   2.730   4.760
11139WAT      O45261   2.204   2.725   3.131
11139WAT     H145262   2.169   2.782   3.187
11139WAT     H245263   2.281   2.761   3.111
11139WAT    EPW45264   2.211   2.739   3.136
11140WAT      O45265   2.552   1.454   3.207
11140WAT     H145266   2.603   1.385   3.224
11140WAT     H245267   2.564   1.506   3.277
11140WAT    EPW45268   2.562   1.451   3.220
11141WAT      O45269   1.367   1.555   3.531
11141WAT     H145270   1.346   1.473   3.511
11141WAT     H245271   1.318   1.572   3.601
11141WAT    EPW45272   1.357   1.545   3.538
11142WAT      O45273   1.524   2.863   4.318
11142WAT     H145274   1.468   2.797   4.310
11142WAT     H245275   1.570   2.859   4.243
11142WAT    EPW45276   1.523   2.853   4.305
11143WAT      O45277   2.306   1.729   3.417
11143WAT     H145278   2.238   1.676   3.401
11143WAT     H245279   2.321   1.767   3.340
11143WAT    EPW45280   2.298   1.727   3.403
11144WAT      O45281   2.297   3.014   4.407
11144WAT     H145282   2.365   3.013   4.352
11144WAT     H245283   2.230   2.989   4.357
11144WAT    EPW45284   2.297   3.010   4.391
11145WAT      O45285   2.317   1.394   3.354
11145WAT     H145286   2.248   1.380   3.303
11145WAT     H245287   2.382   1.408   3.298
11145WAT    EPW45288   2.316   1.394   3.338
11146WAT      O45289   2.905   3.206   3.940
11146WAT     H145290   2.890   3.251   3.866
11146WAT     H245291   2.992   3.208   3.947
11146WAT    EPW45292   2.915   3.213   3.930
11147WAT      O45293   2.074   1.683   3.825
11147WAT     H145294   2.124   1.734   3.775
11147WAT     H245295   2.102   1.698   3.906
11147WAT    EPW45296   2.085   1.693   3.829
11148WAT      O45297   2.753   2.621   3.694
11148WAT     H145298   2.827   2.580   3.714
11148WAT     H245299   2.691   2.562   3.712
11148WAT    EPW45300   2.755   2.606   3.700
11149WAT      O45301   1.722   2.715   4.593
11149WAT     H145302   1.800   2.740   4.562
11149WAT     H245303   1.715   2.759   4.668
11149WAT    EPW45304   1.733   2.725   4.599
11150WAT      O45305   1.712   1.257   3.730
11150WAT     H145306   1.712   1.339   3.703
11150WAT     H245307   1.704   1.211   3.656
11150WAT    EPW45308   1.711   1.262   3.715
11151WAT      O45309   1.902   2.280   4.030
11151WAT     H145310   1.926   2.256   4.110
11151WAT     H245311   1.840   2.223   4.008
11151WAT    EPW45312   1.897   2.268   4.038
11152WAT      O45313   2.442   1.641   4.393
11152WAT     H145314   2.424   1.686   4.466
11152WAT     H245315   2.374   1.587   4.385
11152WAT    EPW45316   2.429   1.640   4.403
11153WAT      O45317   1.995   2.266   4.291
11153WAT     H145318   1.994   2.352   4.302
11153WAT     H245319   1.970   2.235   4.369
11153WAT    EPW45320   1.991   2.274   4.304
11154WAT      O45321   2.562   2.435   4.273
11154WAT     H145322   2.501   2.388   4.315
11154WAT     H245323   2.547   2.516   4.300
11154WAT    EPW45324   2.551   2.440   4.283
11155WAT      O45325   2.607   1.217   3.698
11155WAT     H145326   2.595   1.201   3.783
11155WAT     H245327   2.642   1.143   3.668
11155WAT    EPW45328   2.611   1.204   3.706
11156WAT      O45329   1.226   2.673   4.907
11156WAT     H145330   1.286   2.718   4.953
11156WAT     H245331   1.230   2.593   4.942
11156WAT    EPW45332   1.235   2.667   4.919
11157WAT      O45333   2.844   1.718   4.509
11157WAT     H145334   2.925   1.689   4.525
11157WAT     H245335   2.807   1.719   4.588
11157WAT    EPW45336   2.851   1.714   4.523
11158WAT      O45337   1.617   1.628   3.862
11158WAT     H145338   1.649   1.581   3.796
11158WAT     H245339   1.620   1.573   3.930
11158WAT    EPW45340   1.622   1.613   3.862
11159WAT      O45341   3.019   2.393   3.362
11159WAT     H145342   3.064   2.401   3.436
11159WAT     H245343   3.081   2.391   3.300
11159WAT    EPW45344   3.035   2.394   3.363
11160WAT      O45345   1.684   2.384   3.757
11160WAT     H145346   1.735   2.350   3.695
11160WAT     H245347   1.623   2.323   3.768
11160WAT    EPW45348   1.682   2.370   3.750
11161WAT      O45349   1.548   3.017   3.901
11161WAT     H145350   1.474   2.975   3.882
11161WAT     H245351   1.588   3.025   3.823
11161WAT    EPW45352   1.543   3.012   3.886
11162WAT      O45353   1.510   1.771   4.176
11162WAT     H145354   1.591   1.797   4.157
11162WAT     H245355   1.460   1.821   4.124
11162WAT    EPW45356   1.514   1.782   4.166
11163WAT      O45357   1.814   2.320   3.514
11163WAT     H145358   1.841   2.402   3.503
11163WAT     H245359   1.883   2.272   3.492
11163WAT    EPW45360   1.828   2.325   3.509
11164WAT      O45361   2.951   1.475   3.235
11164WAT     H145362   2.949   1.415   3.171
11164WAT     H245363   2.927   1.549   3.195
11164WAT    EPW45364   2.947   1.477   3.220
11165WAT      O45365   1.348   2.490   3.965
11165WAT     H145366   1.295   2.555   3.988
11165WAT     H245367   1.427   2.528   3.960
11165WAT    EPW45368   1.352   2.505   3.968
11166WAT      O45369   2.054   1.857   4.962
11166WAT     H145370   2.009   1.892   5.028
11166WAT     H245371   2.034   1.909   4.894
11166WAT    EPW45372   2.045   1.870   4.962
11167WAT      O45373   3.132   2.010   4.399
11167WAT     H145374   3.215   1.991   4.381
11167WAT     H245375   3.087   1.965   4.339
11167WAT    EPW45376   3.138   2.000   4.388
11168WAT      O45377   1.375   2.168   3.505
11168WAT     H145378   1.358   2.082   3.508
11168WAT     H245379   1.449   2.173   3.459
11168WAT    EPW45380   1.383   2.156   3.498
11169WAT      O45381   2.896   1.361   3.477
11169WAT     H145382   2.977   1.332   3.489
11169WAT     H245383   2.902   1.414   3.408
11169WAT    EPW45384   2.909   1.365   3.469
11170WAT      O45385   2.281   2.790   3.888
11170WAT     H145386   2.243   2.865   3.867
11170WAT     H245387   2.312   2.760   3.812
11170WAT    EPW45388   2.280   2.796   3.874
11171WAT      O45389   1.271   2.643   3.429
11171WAT     H145390   1.323   2.696   3.475
11171WAT     H245391   1.265   2.572   3.480
11171WAT    EPW45392   1.278   2.640   3.444
11172WAT      O45393   1.723   2.441   4.165
11172WAT     H145394   1.778   2.477   4.222
11172WAT     H245395   1.776   2.395   4.113
11172WAT    EPW45396   1.739   2.439   4.166
11173WAT      O45397   1.292   2.473   3.205
11173WAT     H145398   1.367   2.430   3.202
11173WAT     H245399   1.301   2.527   3.273
11173WAT    EPW45400   1.304   2.474   3.215
11174WAT      O45401   1.364   2.218   4.002
11174WAT     H145402   1.407   2.201   3.928
11174WAT     H245403   1.356   2.305   4.001
11174WAT    EPW45404   1.369   2.228   3.991
11175WAT      O45405   2.054   1.624   3.339
11175WAT     H145406   2.038   1.602   3.256
11175WAT     H245407   2.021   1.705   3.346
11175WAT    EPW45408   2.047   1.633   3.328
11176WAT      O45409   2.684   2.859   4.482
11176WAT     H145410   2.678   2.933   4.528
11176WAT     H245411   2.756   2.870   4.434
11176WAT    EPW45412   2.694   2.872   4.482
11177WAT      O45413   1.830   2.659   3.780
11177WAT     H145414   1.843   2.745   3.785
11177WAT     H245415   1.902   2.626   3.818
11177WAT    EPW45416   1.843   2.667   3.786
11178WAT      O45417   1.610   1.994   4.814
11178WAT     H145418   1.571   1.933   4.862
11178WAT     H245419   1.616   1.956   4.735
11178WAT    EPW45420   1.605   1.979   4.809
11179WAT      O45421   1.666   1.901   3.306
11179WAT     H145422   1.647   1.845   3.369
11179WAT     H245423   1.620   1.873   3.238
11179WAT    EPW45424   1.657   1.889   3.305
11180WAT      O45425   1.696   2.102   3.994
11180WAT     H145426   1.687   2.067   3.914
11180WAT     H245427   1.717   2.033   4.044
11180WAT    EPW45428   1.698   2.086   3.989
11181WAT      O45429   1.692   2.057   4.358
11181WAT     H145430   1.719   2.009   4.290
11181WAT     H245431   1.638   2.115   4.322
11181WAT    EPW45432   1.688   2.058   4.343
11182WAT      O45433   2.759   1.994   4.142
11182WAT     H145434   2.686   1.946   4.140
11182WAT     H245435   2.779   2.004   4.057
11182WAT    EPW45436   2.751   1.989   4.129
11183WAT      O45437   2.063   2.948   4.267
11183WAT     H145438   2.037   2.889   4.209
11183WAT     H245439   2.050   3.024   4.227
11183WAT    EPW45440   2.057   2.951   4.253
11184WAT      O45441   2.275   1.421   4.509
11184WAT     H145442   2.302   1.340   4.490
11184WAT     H245443   2.303   1.434   4.590
11184WAT    EPW45444   2.283   1.411   4.518
11185WAT      O45445   2.561   1.613   3.427
11185WAT     H145446   2.612   1.678   3.455
11185WAT     H245447   2.480   1.646   3.436
11185WAT    EPW45448   2.556   1.628   3.432
11186WAT      O45449   1.483   2.233   4.868
11186WAT     H145450   1.482   2.279   4.794
11186WAT     H245451   1.527   2.161   4.847
11186WAT    EPW45452   1.490   2.229   4.854
11187WAT      O45453   2.634   2.399   4.610
11187WAT     H145454   2.655   2.479   4.638
11187WAT     H245455   2.672   2.393   4.532
11187WAT    EPW45456   2.643   2.410   4.603
11188WAT      O45457   2.074   2.766   4.778
11188WAT     H145458   2.111   2.758   4.857
11188WAT     H245459   2.049   2.685   4.759
11188WAT    EPW45460   2.076   2.753   4.787
11189WAT      O45461   2.134   1.738   4.094
11189WAT     H145462   2.192   1.802   4.085
11189WAT     H245463   2.181   1.670   4.122
11189WAT    EPW45464   2.149   1.737   4.097
11190WAT      O45465   2.421   2.076   3.301
11190WAT     H145466   2.388   2.130   3.240
11190WAT     H245467   2.367   2.087   3.369
11190WAT    EPW45468   2.408   2.086   3.302
11191WAT      O45469   2.990   2.473   3.780
11191WAT     H145470   3.076   2.475   3.796
11191WAT     H245471   2.978   2.394   3.744
11191WAT    EPW45472   3.001   2.461   3.777
11192WAT      O45473   2.485   2.798   4.083
11192WAT     H145474   2.420   2.791   4.026
11192WAT     H245475   2.555   2.774   4.037
11192WAT    EPW45476   2.486   2.793   4.068
11193WAT      O45477   2.447   2.457   4.017
11193WAT     H145478   2.370   2.489   4.044
11193WAT     H245479   2.493   2.448   4.090
11193WAT    EPW45480   2.442   2.460   4.031
11194WAT      O45481   1.872   2.861   3.435
11194WAT     H145482   1.884   2.788   3.481
11194WAT     H245483   1.952   2.882   3.407
11194WAT    EPW45484   1.885   2.853   3.438
11195WAT      O45485   1.821   1.305   3.305
11195WAT     H145486   1.865   1.334   3.375
11195WAT     H245487   1.777   1.375   3.279
11195WAT    EPW45488   1.821   1.320   3.312
11196WAT      O45489   2.114   2.913   3.314
11196WAT     H145490   2.183   2.909   3.366
11196WAT     H245491   2.118   2.993   3.281
11196WAT    EPW45492   2.124   2.924   3.317
11197WAT      O45493   2.839   2.307   4.428
11197WAT     H145494   2.834   2.310   4.341
11197WAT     H245495   2.913   2.350   4.446
11197WAT    EPW45496   2.849   2.314   4.418
11198WAT      O45497   2.426   2.908   4.967
11198WAT     H145498   2.469   2.927   5.041
11198WAT     H245499   2.438   2.979   4.918
11198WAT    EPW45500   2.435   2.922   4.971
11199WAT      O45501   2.883   1.359   4.832
11199WAT     H145502   2.830   1.335   4.767
11199WAT     H245503   2.880   1.291   4.887
11199WAT    EPW45504   2.875   1.345   4.831
11200WAT      O45505   1.618   2.177   3.375
11200WAT     H145506   1.642   2.094   3.367
11200WAT     H245507   1.681   2.212   3.424
11200WAT    EPW45508   1.630   2.170   3.381
11201WAT      O45509   2.375   2.275   4.400
11201WAT     H145510   2.323   2.308   4.462
11201WAT     H245511   2.407   2.203   4.437
11201WAT    EPW45512   2.372   2.269   4.415
11202WAT      O45513   1.279   1.288   3.471
11202WAT     H145514   1.274   1.235   3.401
11202WAT     H245515   1.245   1.240   3.536
11202WAT    EPW45516   1.273   1.273   3.470
11203WAT      O45517   2.253   2.104   3.523
11203WAT     H145518   2.271   2.168   3.579
11203WAT     H245519   2.243   2.034   3.574
11203WAT    EPW45520   2.254   2.103   3.539
11204WAT      O45521   2.885   2.528   4.039
11204WAT     H145522   2.925   2.509   3.964
11204WAT     H245523   2.849   2.452   4.063
11204WAT    EPW45524   2.886   2.514   4.031
11205WAT      O45525   1.701   1.535   3.210
11205WAT     H145526   1.639   1.531   3.148
11205WAT     H245527   1.768   1.571   3.167
11205WAT    EPW45528   1.701   1.540   3.194
11206WAT      O45529   2.157   2.338   3.932
11206WAT     H145530   2.075   2.314   3.947
11206WAT     H245531   2.201   2.305   4.000
11206WAT    EPW45532   2.151   2.329   3.944
11207WAT      O45533   1.820   2.935   3.054
11207WAT     H145534   1.835   2.861   3.097
11207WAT     H245535   1.828   2.996   3.115
11207WAT    EPW45536   1.823   2.933   3.069
11208WAT      O45537   1.528   2.248   4.235
11208WAT     H145538   1.583   2.314   4.217
11208WAT     H245539   1.492   2.231   4.158
11208WAT    EPW45540   1.531   2.255   4.221
11209WAT      O45541   1.829   1.803   3.885
11209WAT     H145542   1.905   1.765   3.861
11209WAT     H245543   1.771   1.738   3.877
11209WAT    EPW45544   1.832   1.787   3.880
11210WAT      O45545   1.330   1.894   3.526
11210WAT     H145546   1.357   1.856   3.600
11210WAT     H245547   1.337   1.830   3.467
11210WAT    EPW45548   1.335   1.879   3.528
11211WAT      O45549   2.771   2.292   4.154
11211WAT     H145550   2.752   2.207   4.153
11211WAT     H245551   2.699   2.330   4.186
11211WAT    EPW45552   2.758   2.285   4.158
11212WAT      O45553   1.815   2.050   3.095
11212WAT     H145554   1.771   2.014   3.161
11212WAT     H245555   1.764   2.034   3.026
11212WAT    EPW45556   1.801   2.042   3.095
11213WAT      O45557   1.487   2.366   4.627
11213WAT     H145558   1.443   2.318   4.569
11213WAT     H245559   1.462   2.448   4.610
11213WAT    EPW45560   1.477   2.371   4.616
11214WAT      O45561   3.112   2.231   3.977
11214WAT     H145562   3.125   2.252   4.061
11214WAT     H245563   3.159   2.290   3.933
11214WAT    EPW45564   3.121   2.243   3.983
11215WAT      O45565   1.946   1.882   3.331
11215WAT     H145566   1.967   1.959   3.367
11215WAT     H245567   1.859   1.882   3.329
11215WAT    EPW45568   1.937   1.893   3.336
11216WAT      O45569   2.679   1.679   4.743
11216WAT     H145570   2.628   1.668   4.813
11216WAT     H245571   2.659   1.611   4.692
11216WAT    EPW45572   2.669   1.667   4.746
11217WAT      O45573   1.299   1.539   4.015
11217WAT     H145574   1.282   1.556   3.931
11217WAT     H245575   1.384   1.556   4.022
11217WAT    EPW45576   1.309   1.544   4.003
11218WAT      O45577   2.597   2.021   4.805
11218WAT     H145578   2.614   2.026   4.890
11218WAT     H245579   2.510   2.022   4.801
11218WAT    EPW45580   2.587   2.022   4.817
11219WAT      O45581   2.921   2.653   3.317
11219WAT     H145582   2.949   2.572   3.332
11219WAT     H245583   2.836   2.650   3.338
11219WAT    EPW45584   2.912   2.641   3.322
11220WAT      O45585   2.970   1.842   3.797
11220WAT     H145586   2.894   1.802   3.811
11220WAT     H245587   2.958   1.922   3.831
11220WAT    EPW45588   2.957   1.848   3.804
11221WAT      O45589   3.098   2.151   4.877
11221WAT     H145590   3.086   2.108   4.802
11221WAT     H245591   3.178   2.186   4.869
11221WAT    EPW45592   3.108   2.150   4.865
11222WAT      O45593   3.069   2.445   4.555
11222WAT     H145594   3.156   2.440   4.564
11222WAT     H245595   3.058   2.491   4.482
11222WAT    EPW45596   3.080   2.451   4.546
11223WAT      O45597   2.507   2.471   3.200
11223WAT     H145598   2.566   2.410   3.183
11223WAT     H245599   2.466   2.482   3.124
11223WAT    EPW45600   2.509   2.464   3.187
11224WAT      O45601   1.966   2.551   4.290
11224WAT     H145602   1.967   2.602   4.361
11224WAT     H245603   1.956   2.608   4.224
11224WAT    EPW45604   1.965   2.567   4.290
11225WAT      O45605   1.756   2.433   4.588
11225WAT     H145606   1.675   2.403   4.603
11225WAT     H245607   1.744   2.519   4.579
11225WAT    EPW45608   1.742   2.442   4.589
11226WAT      O45609   2.657   1.507   4.513
11226WAT     H145610   2.719   1.559   4.481
11226WAT     H245611   2.585   1.533   4.471
11226WAT    EPW45612   2.655   1.519   4.502
11227WAT      O45613   2.236   2.193   4.170
11227WAT     H145614   2.291   2.225   4.230
11227WAT     H245615   2.157   2.204   4.205
11227WAT    EPW45616   2.233   2.199   4.184
11228WAT      O45617   1.897   1.759   4.585
11228WAT     H145618   1.904   1.677   4.614
11228WAT     H245619   1.925   1.754   4.502
11228WAT    EPW45620   1.902   1.746   4.577
11229WAT      O45621   2.163   3.031   3.788
11229WAT     H145622   2.135   3.103   3.828
11229WAT     H245623   2.231   3.058   3.741
11229WAT    EPW45624   2.169   3.045   3.787
11230WAT      O45625   2.763   1.277   4.235
11230WAT     H145626   2.742   1.358   4.209
11230WAT     H245627   2.840   1.288   4.276
11230WAT    EPW45628   2.771   1.291   4.237
11231WAT      O45629   2.004   1.368   4.466
11231WAT     H145630   2.088   1.390   4.468
11231WAT     H245631   2.005   1.285   4.437
11231WAT    EPW45632   2.017   1.359   4.462
11232WAT      O45633   1.945   2.754   4.106
11232WAT     H145634   1.869   2.786   4.076
11232WAT     H245635   1.981   2.717   4.035
11232WAT    EPW45636   1.939   2.753   4.091
11233WAT      O45637   2.410   2.371   4.781
11233WAT     H145638   2.481   2.373   4.730
11233WAT     H245639   2.345   2.394   4.726
11233WAT    EPW45640   2.411   2.375   4.765
11234WAT      O45641   2.688   2.662   4.685
11234WAT     H145642   2.751   2.681   4.742
11234WAT     H245643   2.698   2.723   4.623
11234WAT    EPW45644   2.699   2.674   4.684
11235WAT      O45645   2.880   1.987   3.176
11235WAT     H145646   2.946   2.001   3.120
11235WAT     H245647   2.809   2.000   3.127
11235WAT    EPW45648   2.879   1.991   3.160
11236WAT      O45649   2.030   2.219   3.144
11236WAT     H145650   1.967   2.164   3.117
11236WAT     H245651   1.993   2.298   3.136
11236WAT    EPW45652   2.015   2.222   3.139
11237WAT      O45653   1.771   1.877   4.144
11237WAT     H145654   1.799   1.850   4.065
11237WAT     H245655   1.829   1.841   4.199
11237WAT    EPW45656   1.784   1.868   4.140
11238WAT      O45657   2.445   1.808   4.622
11238WAT     H145658   2.391   1.850   4.676
11238WAT     H245659   2.514   1.788   4.672
11238WAT    EPW45660   2.447   1.811   4.637
11239WAT      O45661   2.511   1.871   4.236
11239WAT     H145662   2.497   1.923   4.304
11239WAT     H245663   2.497   1.791   4.267
11239WAT    EPW45664   2.507   1.867   4.251
11240WAT      O45665   2.201   2.998   4.668
11240WAT     H145666   2.235   2.981   4.590
11240WAT     H245667   2.174   2.920   4.696
11240WAT    EPW45668   2.202   2.984   4.661
11241WAT      O45669   2.717   1.822   3.528
11241WAT     H145670   2.709   1.795   3.610
11241WAT     H245671   2.803   1.827   3.516
11241WAT    EPW45672   2.728   1.819   3.538
11242WAT      O45673   2.055   1.331   4.080
11242WAT     H145674   1.971   1.315   4.099
11242WAT     H245675   2.054   1.345   3.994
11242WAT    EPW45676   2.042   1.331   4.070
11243WAT      O45677   2.879   1.453   3.738
11243WAT     H145678   2.816   1.508   3.760
11243WAT     H245679   2.865   1.439   3.653
11243WAT    EPW45680   2.868   1.459   3.729
11244WAT      O45681   2.968   2.220   3.662
11244WAT     H145682   3.048   2.201   3.635
11244WAT     H245683   2.954   2.164   3.728
11244WAT    EPW45684   2.978   2.209   3.668
11245WAT      O45685   2.216   2.429   4.590
11245WAT     H145686   2.142   2.437   4.636
11245WAT     H245687   2.232   2.511   4.565
11245WAT    EPW45688   2.207   2.443   4.593
11246WAT      O45689   1.257   1.439   4.792
11246WAT     H145690   1.257   1.507   4.739
11246WAT     H245691   1.172   1.416   4.797
11246WAT    EPW45692   1.244   1.445   4.785
11247WAT      O45693   1.741   3.096   4.205
11247WAT     H145694   1.746   3.076   4.290
11247WAT     H245695   1.741   3.018   4.166
11247WAT    EPW45696   1.742   3.082   4.212
11248WAT      O45697   1.609   1.661   3.446
11248WAT     H145698   1.629   1.619   3.372
11248WAT     H245699   1.530   1.632   3.466
11248WAT    EPW45700   1.600   1.651   3.438
11249WAT      O45701   2.556   2.423   3.762
11249WAT     H145702   2.526   2.439   3.842
11249WAT     H245703   2.585   2.341   3.767
11249WAT    EPW45704   2.556   2.414   3.774
11250WAT      O45705   2.296   2.328   3.688
11250WAT     H145706   2.256   2.327   3.766
11250WAT     H245707   2.374   2.363   3.706
11250WAT    EPW45708   2.302   2.333   3.702
11251WAT      O45709   2.263   2.698   4.528
11251WAT     H145710   2.303   2.710   4.604
11251WAT     H245711   2.326   2.710   4.469
11251WAT    EPW45712   2.278   2.702   4.531
11252WAT      O45713   3.003   2.012   4.656
11252WAT     H145714   2.991   1.929   4.677
11252WAT     H245715   3.041   2.008   4.577
11252WAT    EPW45716   3.007   1.999   4.647
11253WAT      O45717   2.508   2.031   4.467
11253WAT     H145718   2.481   1.968   4.521
11253WAT     H245719   2.592   2.012   4.454
11253WAT    EPW45720   2.516   2.019   4.473
11254WAT      O45721   1.424   3.051   4.704
11254WAT     H145722   1.370   2.984   4.695
11254WAT     H245723   1.374   3.115   4.736
11254WAT    EPW45724   1.409   3.051   4.708
11255WAT      O45725   2.303   2.188   4.968
11255WAT     H145726   2.336   2.251   4.917
11255WAT     H245727   2.221   2.215   4.983
11255WAT    EPW45728   2.296   2.202   4.962
11256WAT      O45729   2.686   3.038   3.943
11256WAT     H145730   2.764   3.078   3.948
11256WAT     H245731   2.705   2.954   3.951
11256WAT    EPW45732   2.700   3.032   3.945
11257WAT      O45733   2.241   2.550   4.194
11257WAT     H145734   2.161   2.547   4.228
11257WAT     H245735   2.286   2.598   4.252
11257WAT    EPW45736   2.236   2.556   4.208
11258WAT      O45737   2.879   2.720   4.882
11258WAT     H145738   2.965   2.702   4.886
11258WAT     H245739   2.849   2.692   4.959
11258WAT    EPW45740   2.887   2.713   4.894
11259WAT      O45741   1.643   1.873   4.562
11259WAT     H145742   1.655   1.934   4.502
11259WAT     H245743   1.721   1.835   4.570
11259WAT    EPW45744   1.656   1.876   4.554
11260WAT      O45745   1.448   1.721   4.436
11260WAT     H145746   1.467   1.731   4.351
11260WAT     H245747   1.512   1.765   4.476
11260WAT    EPW45748   1.461   1.729   4.429
11261WAT      O45749   2.986   1.881   3.480
11261WAT     H145750   3.030   1.850   3.411
11261WAT     H245751   3.044   1.879   3.544
11261WAT    EPW45752   3.001   1.876   3.479
11262WAT      O45753   1.635   1.400   4.700
11262WAT     H145754   1.588   1.327   4.707
11262WAT     H245755   1.619   1.427   4.619
11262WAT    EPW45756   1.626   1.393   4.689
11263WAT      O45757   2.350   2.697   3.638
11263WAT     H145758   2.349   2.763   3.581
11263WAT     H245759   2.290   2.642   3.608
11263WAT    EPW45760   2.341   2.699   3.625
11264WAT      O45761   2.771   1.973   4.427
11264WAT     H145762   2.798   1.892   4.441
11264WAT     H245763   2.782   1.985   4.342
11264WAT    EPW45764   2.777   1.963   4.417
11265WAT      O45765   1.342   2.218   4.440
11265WAT     H145766   1.393   2.235   4.371
11265WAT     H245767   1.324   2.133   4.432
11265WAT    EPW45768   1.347   2.208   4.429
11266WAT      O45769   1.508   1.801   3.096
11266WAT     H145770   1.436   1.798   3.146
11266WAT     H245771   1.512   1.722   3.060
11266WAT    EPW45772   1.498   1.789   3.098
11267WAT      O45773   2.352   1.454   4.777
11267WAT     H145774   2.384   1.518   4.827
11267WAT     H245775   2.275   1.435   4.815
11267WAT    EPW45776   2.345   1.461   4.790
11268WAT      O45777   2.377   1.511   3.838
11268WAT     H145778   2.443   1.565   3.817
11268WAT     H245779   2.368   1.462   3.767
11268WAT    EPW45780   2.386   1.512   3.825
11269WAT      O45781   1.824   2.696   3.207
11269WAT     H145782   1.868   2.722   3.277
11269WAT     H245783   1.747   2.670   3.239
11269WAT    EPW45784   1.819   2.696   3.222
11270WAT      O45785   2.723   1.538   4.132
11270WAT     H145786   2.803   1.561   4.158
11270WAT     H245787   2.711   1.584   4.060
11270WAT    EPW45788   2.733   1.548   4.125
11271WAT      O45789   1.879   2.178   4.531
11271WAT     H145790   1.843   2.255   4.553
11271WAT     H245791   1.818   2.140   4.481
11271WAT    EPW45792   1.864   2.184   4.527
11272WAT      O45793   2.873   2.088   3.898
11272WAT     H145794   2.920   2.154   3.932
11272WAT     H245795   2.804   2.128   3.863
11272WAT    EPW45796   2.870   2.104   3.898
11273WAT      O45797   2.786   2.881   3.553
11273WAT     H145798   2.787   2.802   3.589
11273WAT     H245799   2.865   2.888   3.517
11273WAT    EPW45800   2.798   2.870   3.553
11274WAT      O45801   1.582   2.607   3.309
11274WAT     H145802   1.579   2.587   3.393
11274WAT     H245803   1.583   2.530   3.269
11274WAT    EPW45804   1.581   2.593   3.315
11275WAT      O45805   1.863   2.441   3.099
11275WAT     H145806   1.782   2.411   3.114
11275WAT     H245807   1.863   2.521   3.135
11275WAT    EPW45808   1.851   2.448   3.107
11276WAT      O45809   1.822   1.516   4.314
11276WAT     H145810   1.744   1.499   4.349
11276WAT     H245811   1.875   1.461   4.356
11276WAT    EPW45812   1.818   1.505   4.325
11277WAT      O45813   2.997   1.361   4.380
11277WAT     H145814   2.976   1.372   4.464
11277WAT     H245815   3.079   1.333   4.382
11277WAT    EPW45816   3.006   1.359   4.393
11278WAT      O45817   2.246   1.504   4.191
11278WAT     H145818   2.184   1.450   4.163
11278WAT     H245819   2.319   1.468   4.159
11278WAT    EPW45820   2.248   1.491   4.182
11279WAT      O45821   2.478   2.702   4.343
11279WAT     H145822   2.537   2.750   4.386
11279WAT     H245823   2.480   2.734   4.262
11279WAT    EPW45824   2.487   2.714   4.338
11280WAT      O45825   2.438   3.108   4.769
11280WAT     H145826   2.367   3.071   4.735
11280WAT     H245827   2.419   3.193   4.770
11280WAT    EPW45828   2.425   3.115   4.764
11281WAT      O45829   2.020   1.984   4.702
11281WAT     H145830   1.985   1.913   4.665
11281WAT     H245831   1.982   2.050   4.660
11281WAT    EPW45832   2.009   1.983   4.691
11282WAT      O45833   2.088   1.325   3.200
11282WAT     H145834   2.095   1.332   3.113
11282WAT     H245835   2.003   1.332   3.215
11282WAT    EPW45836   2.077   1.327   3.190
11283WAT      O45837   3.031   2.504   4.284
11283WAT     H145838   3.073   2.430   4.265
11283WAT     H245839   2.992   2.526   4.209
11283WAT    EPW45840   3.031   2.496   4.270
11284WAT      O45841   1.875   2.957   4.724
11284WAT     H145842   1.856   2.970   4.808
11284WAT     H245843   1.938   2.897   4.726
11284WAT    EPW45844   1.881   2.950   4.737
11285WAT      O45845   2.726   2.750   3.947
11285WAT     H145846   2.727   2.722   3.864
11285WAT     H245847   2.778   2.694   3.989
11285WAT    EPW45848   2.734   2.738   3.941
11286WAT      O45849   1.577   1.473   4.443
11286WAT     H145850   1.521   1.410   4.418
11286WAT     H245851   1.530   1.546   4.434
11286WAT    EPW45852   1.562   1.474   4.438
11287WAT      O45853   2.478   1.403   4.069
11287WAT     H145854   2.540   1.459   4.094
11287WAT     H245855   2.446   1.439   3.996
11287WAT    EPW45856   2.482   1.416   4.062
11288WAT      O45857   1.589   2.858   4.840
11288WAT     H145858   1.653   2.896   4.885
11288WAT     H245859   1.550   2.926   4.801
11288WAT    EPW45860   1.593   2.874   4.841
11289WAT      O45861   2.449   1.953   3.814
11289WAT     H145862   2.504   1.886   3.826
11289WAT     H245863   2.405   1.957   3.889
11289WAT    EPW45864   2.451   1.944   3.827
11290WAT      O45865   1.432   1.820   3.779
11290WAT     H145866   1.393   1.850   3.851
11290WAT     H245867   1.475   1.750   3.807
11290WAT    EPW45868   1.433   1.814   3.794
11291WAT      O45869   1.448   2.634   4.557
11291WAT     H145870   1.396   2.694   4.593
11291WAT     H245871   1.527   2.670   4.560
11291WAT    EPW45872   1.452   2.648   4.563
11292WAT      O45873   2.656   2.086   3.472
11292WAT     H145874   2.664   2.000   3.487
11292WAT     H245875   2.588   2.090   3.418
11292WAT    EPW45876   2.647   2.074   3.466
11293WAT      O45877   1.604   2.935   3.416
11293WAT     H145878   1.569   2.915   3.339
11293WAT     H245879   1.684   2.900   3.413
11293WAT    EPW45880   1.611   2.927   3.404
11294WAT      O45881   2.004   2.144   3.410
11294WAT     H145882   2.021   2.175   3.330
11294WAT     H245883   2.083   2.138   3.447
11294WAT    EPW45884   2.018   2.148   3.403
11295WAT      O45885   2.914   3.009   3.132
11295WAT     H145886   2.955   2.992   3.207
11295WAT     H245887   2.921   2.934   3.087
11295WAT    EPW45888   2.921   2.996   3.136
11296WAT      O45889   2.916   2.336   4.777
11296WAT     H145890   2.981   2.291   4.815
11296WAT     H245891   2.957   2.384   4.717
11296WAT    EPW45892   2.932   2.336   4.774
11297WAT      O45893   2.648   2.644   3.377
11297WAT     H145894   2.626   2.621   3.458
11297WAT     H245895   2.599   2.593   3.326
11297WAT    EPW45896   2.638   2.633   3.381
11298WAT      O45897   2.942   1.774   4.819
11298WAT     H145898   2.944   1.833   4.884
11298WAT     H245899   2.857   1.755   4.812
11298WAT    EPW45900   2.929   1.780   4.828
11299WAT      O45901   3.010   1.868   4.191
11299WAT     H145902   2.930   1.895   4.169
11299WAT     H245903   3.002   1.782   4.198
11299WAT    EPW45904   2.997   1.860   4.189
11300WAT      O45905   1.905   1.484   4.699
11300WAT     H145906   1.935   1.447   4.627
11300WAT     H245907   1.823   1.453   4.706
11300WAT    EPW45908   1.897   1.474   4.690
11301WAT      O45909   2.740   2.338   4.997
11301WAT     H145910   2.798   2.356   5.059
11301WAT     H245911   2.784   2.352   4.923
11301WAT    EPW45912   2.755   2.343   4.995
11302WAT      O45913   1.674   2.845   4.075
11302WAT     H145914   1.651   2.767   4.043
11302WAT     H245915   1.641   2.901   4.016
11302WAT    EPW45916   1.665   2.842   4.061
11303WAT      O45917   2.235   2.486   3.276
11303WAT     H145918   2.320   2.470   3.265
11303WAT     H245919   2.220   2.555   3.226
11303WAT    EPW45920   2.245   2.494   3.267
11304WAT      O45921   1.417   3.102   4.423
11304WAT     H145922   1.426   3.083   4.508
11304WAT     H245923   1.449   3.032   4.383
11304WAT    EPW45924   1.423   3.089   4.430
11305WAT      O45925   2.418   1.365   1.750
11305WAT     H145926   2.447   1.428   1.697
11305WAT     H245927   2.490   1.331   1.784
11305WAT    EPW45928   2.433   1.369   1.747
11306WAT      O45929   2.333   1.978   2.211
11306WAT     H145930   2.297   2.054   2.234
11306WAT     H245931   2.392   1.964   2.274
11306WAT    EPW45932   2.337   1.987   2.224
11307WAT      O45933   1.295   2.415   1.701
11307WAT     H145934   1.234   2.411   1.763
11307WAT     H245935   1.303   2.332   1.675
11307WAT    EPW45936   1.287   2.402   1.707
11308WAT      O45937   2.978   2.802   1.513
11308WAT     H145938   3.041   2.749   1.542
11308WAT     H245939   2.928   2.749   1.465
11308WAT    EPW45940   2.980   2.786   1.510
11309WAT      O45941   1.278   1.773   1.351
11309WAT     H145942   1.214   1.824   1.323
11309WAT     H245943   1.247   1.692   1.337
11309WAT    EPW45944   1.264   1.768   1.345
11310WAT      O45945   1.553   2.364   1.302
11310WAT     H145946   1.533   2.324   1.227
11310WAT     H245947   1.568   2.299   1.358
11310WAT    EPW45948   1.552   2.349   1.299
11311WAT      O45949   2.581   2.118   1.832
11311WAT     H145950   2.587   2.095   1.748
11311WAT     H245951   2.525   2.060   1.865
11311WAT    EPW45952   2.573   2.106   1.824
11312WAT      O45953   1.547   2.539   1.700
11312WAT     H145954   1.601   2.499   1.755
11312WAT     H245955   1.472   2.496   1.709
11312WAT    EPW45956   1.544   2.527   1.710
11313WAT      O45957   2.031   1.474   1.651
11313WAT     H145958   2.015   1.543   1.600
11313WAT     H245959   2.101   1.437   1.614
11313WAT    EPW45960   2.039   1.479   1.638
11314WAT      O45961   1.459   2.819   1.305
11314WAT     H145962   1.502   2.826   1.229
11314WAT     H245963   1.490   2.745   1.339
11314WAT    EPW45964   1.470   2.809   1.299
11315WAT      O45965   1.331   2.643   2.398
11315WAT     H145966   1.361   2.624   2.477
11315WAT     H245967   1.263   2.589   2.388
11315WAT    EPW45968   1.325   2.632   2.408
11316WAT      O45969   1.971   2.492   2.844
11316WAT     H145970   1.945   2.472   2.925
11316WAT     H245971   1.902   2.471   2.795
11316WAT    EPW45972   1.957   2.486   2.849
11317WAT      O45973   1.493   2.166   1.862
11317WAT     H145974   1.444   2.165   1.790
11317WAT     H245975   1.550   2.101   1.850
11317WAT    EPW45976   1.494   2.156   1.849
11318WAT      O45977   1.949   1.780   2.429
11318WAT     H145978   2.016   1.783   2.373
11318WAT     H245979   1.916   1.700   2.419
11318WAT    EPW45980   1.954   1.769   2.419
11319WAT      O45981   2.039   2.767   2.574
11319WAT     H145982   2.051   2.824   2.509
11319WAT     H245983   2.120   2.740   2.592
11319WAT    EPW45984   2.053   2.771   2.567
11320WAT      O45985   1.675   1.957   1.855
11320WAT     H145986   1.742   1.907   1.880
11320WAT     H245987   1.607   1.903   1.855
11320WAT    EPW45988   1.675   1.942   1.859
11321WAT      O45989   2.068   2.583   2.006
11321WAT     H145990   2.100   2.505   2.027
11321WAT     H245991   2.140   2.633   1.999
11321WAT    EPW45992   2.084   2.579   2.008
11322WAT      O45993   2.165   2.540   1.632
11322WAT     H145994   2.190   2.471   1.678
11322WAT     H245995   2.177   2.515   1.549
11322WAT    EPW45996   2.170   2.526   1.626
11323WAT      O45997   2.279   2.009   2.862
11323WAT     H145998   2.194   2.010   2.842
11323WAT     H245999   2.286   2.068   2.927
11323WAT    EPW46000   2.268   2.018   2.869
11324WAT      O46001   1.760   1.478   1.736
11324WAT     H146002   1.720   1.531   1.679
11324WAT     H246003   1.843   1.478   1.709
11324WAT    EPW46004   1.766   1.486   1.723
11325WAT      O46005   2.722   1.239   2.698
11325WAT     H146006   2.699   1.307   2.648
11325WAT     H246007   2.648   1.219   2.739
11325WAT    EPW46008   2.708   1.246   2.696
11326WAT      O46009   2.067   1.404   1.922
11326WAT     H146010   2.078   1.485   1.953
11326WAT     H246011   2.049   1.417   1.838
11326WAT    EPW46012   2.066   1.418   1.914
11327WAT      O46013   2.466   1.617   1.145
11327WAT     H146014   2.422   1.683   1.181
11327WAT     H246015   2.479   1.563   1.212
11327WAT    EPW46016   2.461   1.619   1.160
11328WAT      O46017   1.334   1.912   2.116
11328WAT     H146018   1.335   1.998   2.125
11328WAT     H246019   1.266   1.886   2.163
11328WAT    EPW46020   1.324   1.921   2.124
11329WAT      O46021   1.318   2.873   1.935
11329WAT     H146022   1.256   2.925   1.903
11329WAT     H246023   1.355   2.839   1.864
11329WAT    EPW46024   1.314   2.876   1.920
11330WAT      O46025   1.890   2.567   1.639
11330WAT     H146026   1.866   2.587   1.720
11330WAT     H246027   1.977   2.558   1.644
11330WAT    EPW46028   1.899   2.569   1.652
11331WAT      O46029   2.505   2.910   1.419
11331WAT     H146030   2.577   2.959   1.413
11331WAT     H246031   2.535   2.831   1.442
11331WAT    EPW46032   2.520   2.905   1.421
11332WAT      O46033   2.332   2.968   1.627
11332WAT     H146034   2.359   3.044   1.658
11332WAT     H246035   2.387   2.953   1.560
11332WAT    EPW46036   2.344   2.977   1.621
11333WAT      O46037   1.577   1.431   2.152
11333WAT     H146038   1.561   1.357   2.108
11333WAT     H246039   1.635   1.408   2.212
11333WAT    EPW46040   1.583   1.417   2.154
11334WAT      O46041   1.934   1.615   3.068
11334WAT     H146042   1.936   1.583   2.987
11334WAT     H246043   1.974   1.693   3.060
11334WAT    EPW46044   1.940   1.622   3.055
11335WAT      O46045   1.450   2.797   1.699
11335WAT     H146046   1.496   2.725   1.714
11335WAT     H246047   1.505   2.848   1.654
11335WAT    EPW46048   1.465   2.794   1.695
11336WAT      O46049   3.058   1.608   1.850
11336WAT     H146050   3.012   1.681   1.862
11336WAT     H246051   2.998   1.547   1.836
11336WAT    EPW46052   3.043   1.610   1.850
11337WAT      O46053   2.548   2.961   2.418
11337WAT     H146054   2.621   2.913   2.421
11337WAT     H246055   2.508   2.934   2.345
11337WAT    EPW46056   2.553   2.950   2.407
11338WAT      O46057   1.513   1.537   3.000
11338WAT     H146058   1.431   1.509   2.984
11338WAT     H246059   1.558   1.506   2.931
11338WAT    EPW46060   1.507   1.528   2.987
11339WAT      O46061   1.598   2.614   2.065
11339WAT     H146062   1.658   2.607   2.002
11339WAT     H246063   1.626   2.560   2.127
11339WAT    EPW46064   1.611   2.605   2.064
11340WAT      O46065   1.885   2.915   1.939
11340WAT     H146066   1.964   2.938   1.911
11340WAT     H246067   1.831   2.963   1.889
11340WAT    EPW46068   1.889   2.925   1.927
11341WAT      O46069   2.115   1.348   2.927
11341WAT     H146070   2.135   1.277   2.881
11341WAT     H246071   2.048   1.383   2.884
11341WAT    EPW46072   2.108   1.343   2.914
11342WAT      O46073   2.222   1.859   1.782
11342WAT     H146074   2.252   1.816   1.712
11342WAT     H246075   2.294   1.873   1.829
11342WAT    EPW46076   2.237   1.855   1.778
11343WAT      O46077   2.316   1.816   1.273
11343WAT     H146078   2.344   1.894   1.299
11343WAT     H246079   2.241   1.833   1.233
11343WAT    EPW46080   2.309   1.830   1.271
11344WAT      O46081   2.716   3.091   1.373
11344WAT     H146082   2.768   3.065   1.308
11344WAT     H246083   2.771   3.133   1.427
11344WAT    EPW46084   2.732   3.093   1.372
11345WAT      O46085   1.732   3.024   2.546
11345WAT     H146086   1.779   2.995   2.614
11345WAT     H246087   1.675   2.960   2.531
11345WAT    EPW46088   1.731   3.010   2.554
11346WAT      O46089   2.961   1.544   2.280
11346WAT     H146090   3.023   1.527   2.220
11346WAT     H246091   2.983   1.492   2.346
11346WAT    EPW46092   2.974   1.534   2.281
11347WAT      O46093   1.245   1.650   2.725
11347WAT     H146094   1.236   1.727   2.765
11347WAT     H246095   1.305   1.665   2.664
11347WAT    EPW46096   1.253   1.663   2.722
11348WAT      O46097   2.493   2.735   2.822
11348WAT     H146098   2.474   2.763   2.903
11348WAT     H246099   2.578   2.719   2.826
11348WAT    EPW46100   2.503   2.737   2.835
11349WAT      O46101   2.186   2.725   1.251
11349WAT     H146102   2.166   2.779   1.316
11349WAT     H246103   2.260   2.758   1.220
11349WAT    EPW46104   2.194   2.738   1.256
11350WAT      O46105   2.500   1.443   1.361
11350WAT     H146106   2.561   1.381   1.357
11350WAT     H246107   2.520   1.487   1.433
11350WAT    EPW46108   2.512   1.440   1.371
11351WAT      O46109   1.367   1.559   1.638
11351WAT     H146110   1.345   1.477   1.619
11351WAT     H246111   1.320   1.577   1.709
11351WAT    EPW46112   1.357   1.550   1.645
11352WAT      O46113   1.515   2.867   2.425
11352WAT     H146114   1.457   2.801   2.418
11352WAT     H246115   1.557   2.865   2.349
11352WAT    EPW46116   1.513   2.857   2.413
11353WAT      O46117   2.287   1.729   1.539
11353WAT     H146118   2.212   1.685   1.528
11353WAT     H246119   2.303   1.761   1.459
11353WAT    EPW46120   2.278   1.727   1.525
11354WAT      O46121   2.302   3.018   2.535
11354WAT     H146122   2.381   2.994   2.507
11354WAT     H246123   2.248   2.990   2.472
11354WAT    EPW46124   2.306   3.010   2.521
11355WAT      O46125   2.244   1.402   1.482
11355WAT     H146126   2.189   1.371   1.422
11355WAT     H246127   2.320   1.410   1.438
11355WAT    EPW46128   2.247   1.399   1.466
11356WAT      O46129   3.031   3.005   1.809
11356WAT     H146130   2.986   3.079   1.817
11356WAT     H246131   2.969   2.944   1.798
11356WAT    EPW46132   3.015   3.007   1.809
11357WAT      O46133   2.113   1.679   1.967
11357WAT     H146134   2.137   1.741   1.911
11357WAT     H246135   2.122   1.718   2.045
11357WAT    EPW46136   2.118   1.694   1.970
11358WAT      O46137   2.702   2.568   1.720
11358WAT     H146138   2.773   2.519   1.733
11358WAT     H246139   2.640   2.525   1.763
11358WAT    EPW46140   2.703   2.554   1.728
11359WAT      O46141   1.691   2.712   2.727
11359WAT     H146142   1.759   2.765   2.714
11359WAT     H246143   1.657   2.741   2.802
11359WAT    EPW46144   1.696   2.724   2.736
11360WAT      O46145   1.712   1.210   1.782
11360WAT     H146146   1.725   1.295   1.767
11360WAT     H246147   1.686   1.180   1.704
11360WAT    EPW46148   1.710   1.219   1.768
11361WAT      O46149   1.890   2.292   2.141
11361WAT     H146150   1.909   2.275   2.225
11361WAT     H246151   1.831   2.231   2.121
11361WAT    EPW46152   1.884   2.280   2.150
11362WAT      O46153   2.451   1.675   2.535
11362WAT     H146154   2.450   1.714   2.613
11362WAT     H246155   2.386   1.617   2.540
11362WAT    EPW46156   2.441   1.672   2.547
11363WAT      O46157   1.978   2.299   2.404
11363WAT     H146158   1.962   2.384   2.416
11363WAT     H246159   1.952   2.263   2.480
11363WAT    EPW46160   1.972   2.306   2.417
11364WAT      O46161   2.547   2.354   2.377
11364WAT     H146162   2.491   2.321   2.435
11364WAT     H246163   2.542   2.440   2.389
11364WAT    EPW46164   2.538   2.362   2.387
11365WAT      O46165   2.648   1.259   1.858
11365WAT     H146166   2.650   1.242   1.944
11365WAT     H246167   2.677   1.185   1.822
11365WAT    EPW46168   2.653   1.246   1.866
11366WAT      O46169   1.243   2.690   3.029
11366WAT     H146170   1.302   2.736   3.075
11366WAT     H246171   1.251   2.610   3.062
11366WAT    EPW46172   1.253   2.685   3.041
11367WAT      O46173   2.830   1.698   2.611
11367WAT     H146174   2.915   1.677   2.615
11367WAT     H246175   2.805   1.695   2.694
11367WAT    EPW46176   2.839   1.694   2.624
11368WAT      O46177   1.634   1.609   1.950
11368WAT     H146178   1.667   1.557   1.888
11368WAT     H246179   1.620   1.555   2.017
11368WAT    EPW46180   1.637   1.593   1.951
11369WAT      O46181   2.919   2.369   1.370
11369WAT     H146182   2.916   2.315   1.438
11369WAT     H246183   3.004   2.387   1.362
11369WAT    EPW46184   2.931   2.364   1.379
11370WAT      O46185   1.687   2.366   1.864
11370WAT     H146186   1.733   2.333   1.798
11370WAT     H246187   1.624   2.307   1.877
11370WAT    EPW46188   1.684   2.353   1.857
11371WAT      O46189   1.533   3.029   1.999
11371WAT     H146190   1.461   2.985   1.978
11371WAT     H246191   1.577   3.033   1.924
11371WAT    EPW46192   1.529   3.023   1.985
11372WAT      O46193   1.513   1.773   2.282
11372WAT     H146194   1.593   1.799   2.261
11372WAT     H246195   1.462   1.814   2.225
11372WAT    EPW46196   1.517   1.783   2.271
11373WAT      O46197   3.169   2.695   2.757
11373WAT     H146198   3.092   2.737   2.752
11373WAT     H246199   3.180   2.682   2.842
11373WAT    EPW46200   3.159   2.700   2.769
11374WAT      O46201   2.717   2.045   1.294
11374WAT     H146202   2.713   2.128   1.269
11374WAT     H246203   2.690   2.047   1.377
11374WAT    EPW46204   2.712   2.057   1.303
11375WAT      O46205   1.801   2.303   1.616
11375WAT     H146206   1.827   2.387   1.611
11375WAT     H246207   1.870   2.258   1.589
11375WAT    EPW46208   1.815   2.309   1.611
11376WAT      O46209   3.029   1.508   1.274
11376WAT     H146210   3.068   1.447   1.225
11376WAT     H246211   2.990   1.560   1.216
11376WAT    EPW46212   3.029   1.506   1.258
11377WAT      O46213   1.346   2.486   2.053
11377WAT     H146214   1.290   2.549   2.078
11377WAT     H246215   1.422   2.527   2.048
11377WAT    EPW46216   1.349   2.501   2.056
11378WAT      O46217   2.070   1.861   3.075
11378WAT     H146218   2.025   1.888   3.145
11378WAT     H246219   2.042   1.915   3.012
11378WAT    EPW46220   2.059   1.873   3.076
11379WAT      O46221   3.110   1.989   2.507
11379WAT     H146222   3.122   1.931   2.443
11379WAT     H246223   3.024   2.002   2.507
11379WAT    EPW46224   3.099   1.982   2.497
11380WAT      O46225   1.354   2.154   1.624
11380WAT     H146226   1.337   2.068   1.624
11380WAT     H246227   1.426   2.161   1.575
11380WAT    EPW46228   1.362   2.142   1.617
11381WAT      O46229   2.897   1.408   1.504
11381WAT     H146230   2.970   1.369   1.532
11381WAT     H246231   2.924   1.453   1.434
11381WAT    EPW46232   2.912   1.408   1.497
11382WAT      O46233   2.272   2.770   1.987
11382WAT     H146234   2.230   2.842   1.962
11382WAT     H246235   2.313   2.744   1.914
11382WAT    EPW46236   2.272   2.777   1.972
11383WAT      O46237   1.276   2.640   1.549
11383WAT     H146238   1.331   2.694   1.591
11383WAT     H246239   1.272   2.570   1.600
11383WAT    EPW46240   1.284   2.638   1.563
11384WAT      O46241   1.698   2.450   2.262
11384WAT     H146242   1.748   2.492   2.320
11384WAT     H246243   1.755   2.406   2.213
11384WAT    EPW46244   1.714   2.450   2.264
11385WAT      O46245   2.599   1.696   1.980
11385WAT     H146246   2.630   1.664   2.055
11385WAT     H246247   2.533   1.643   1.961
11385WAT    EPW46248   2.594   1.683   1.988
11386WAT      O46249   1.287   2.471   1.326
11386WAT     H146250   1.363   2.429   1.321
11386WAT     H246251   1.297   2.524   1.394
11386WAT    EPW46252   1.300   2.472   1.335
11387WAT      O46253   1.363   2.214   2.101
11387WAT     H146254   1.408   2.193   2.029
11387WAT     H246255   1.356   2.301   2.095
11387WAT    EPW46256   1.369   2.224   2.089
11388WAT      O46257   2.012   1.673   1.459
11388WAT     H146258   2.000   1.638   1.380
11388WAT     H246259   1.981   1.754   1.451
11388WAT    EPW46260   2.006   1.680   1.446
11389WAT      O46261   2.912   2.824   2.679
11389WAT     H146262   2.862   2.892   2.698
11389WAT     H246263   2.903   2.815   2.593
11389WAT    EPW46264   2.904   2.833   2.669
11390WAT      O46265   1.823   2.651   1.892
11390WAT     H146266   1.838   2.737   1.902
11390WAT     H246267   1.892   2.614   1.930
11390WAT    EPW46268   1.835   2.658   1.899
11391WAT      O46269   1.607   1.989   2.915
11391WAT     H146270   1.568   1.927   2.962
11391WAT     H246271   1.613   1.954   2.835
11391WAT    EPW46272   1.602   1.974   2.910
11392WAT      O46273   1.641   1.896   1.443
11392WAT     H146274   1.630   1.828   1.496
11392WAT     H246275   1.601   1.871   1.369
11392WAT    EPW46276   1.634   1.882   1.440
11393WAT      O46277   1.700   2.099   2.099
11393WAT     H146278   1.691   2.065   2.019
11393WAT     H246279   1.721   2.030   2.148
11393WAT    EPW46280   1.702   2.084   2.094
11394WAT      O46281   1.688   2.058   2.458
11394WAT     H146282   1.715   2.009   2.391
11394WAT     H246283   1.633   2.115   2.421
11394WAT    EPW46284   1.684   2.059   2.443
11395WAT      O46285   2.742   1.879   2.239
11395WAT     H146286   2.677   1.907   2.291
11395WAT     H246287   2.742   1.937   2.174
11395WAT    EPW46288   2.732   1.892   2.237
11396WAT      O46289   2.102   2.936   2.352
11396WAT     H146290   2.070   2.874   2.300
11396WAT     H246291   2.083   3.010   2.310
11396WAT    EPW46292   2.094   2.938   2.338
11397WAT      O46293   2.289   1.452   2.596
11397WAT     H146294   2.308   1.371   2.569
11397WAT     H246295   2.315   1.452   2.679
11397WAT    EPW46296   2.296   1.440   2.605
11398WAT      O46297   2.518   1.584   1.599
11398WAT     H146298   2.581   1.643   1.610
11398WAT     H246299   2.447   1.632   1.585
11398WAT    EPW46300   2.517   1.600   1.599
11399WAT      O46301   1.480   2.227   2.966
11399WAT     H146302   1.478   2.272   2.891
11399WAT     H246303   1.525   2.155   2.946
11399WAT    EPW46304   1.486   2.223   2.952
11400WAT      O46305   2.629   2.427   2.835
11400WAT     H146306   2.677   2.500   2.838
11400WAT     H246307   2.668   2.380   2.774
11400WAT    EPW46308   2.642   2.431   2.827
11401WAT      O46309   2.088   2.748   2.881
11401WAT     H146310   2.120   2.737   2.961
11401WAT     H246311   2.051   2.672   2.862
11401WAT    EPW46312   2.087   2.735   2.890
11402WAT      O46313   2.137   1.779   2.224
11402WAT     H146314   2.203   1.836   2.227
11402WAT     H246315   2.174   1.704   2.250
11402WAT    EPW46316   2.152   1.776   2.228
11403WAT      O46317   2.393   2.052   1.400
11403WAT     H146318   2.377   2.109   1.336
11403WAT     H246319   2.336   2.073   1.462
11403WAT    EPW46320   2.383   2.063   1.399
11404WAT      O46321   2.920   2.392   1.764
11404WAT     H146322   2.914   2.360   1.845
11404WAT     H246323   2.900   2.324   1.713
11404WAT    EPW46324   2.916   2.377   1.769
11405WAT      O46325   2.449   2.815   2.196
11405WAT     H146326   2.388   2.799   2.136
11405WAT     H246327   2.513   2.852   2.150
11405WAT    EPW46328   2.449   2.818   2.181
11406WAT      O46329   2.502   2.439   2.114
11406WAT     H146330   2.427   2.479   2.136
11406WAT     H246331   2.520   2.390   2.183
11406WAT    EPW46332   2.493   2.438   2.127
11407WAT      O46333   1.870   2.818   1.531
11407WAT     H146334   1.880   2.741   1.571
11407WAT     H246335   1.952   2.847   1.522
11407WAT    EPW46336   1.884   2.811   1.536
11408WAT      O46337   1.776   1.271   1.347
11408WAT     H146338   1.732   1.234   1.412
11408WAT     H246339   1.744   1.352   1.344
11408WAT    EPW46340   1.765   1.278   1.356
11409WAT      O46341   2.121   2.905   1.454
11409WAT     H146342   2.184   2.926   1.511
11409WAT     H246343   2.106   2.979   1.411
11409WAT    EPW46344   2.128   2.919   1.456
11410WAT      O46345   2.770   2.262   2.665
11410WAT     H146346   2.774   2.261   2.578
11410WAT     H246347   2.848   2.290   2.689
11410WAT    EPW46348   2.782   2.266   2.655
11411WAT      O46349   2.441   2.860   3.069
11411WAT     H146350   2.486   2.873   3.143
11411WAT     H246351   2.456   2.933   3.023
11411WAT    EPW46352   2.450   2.873   3.073
11412WAT      O46353   2.867   1.377   2.892
11412WAT     H146354   2.827   1.332   2.828
11412WAT     H246355   2.874   1.318   2.956
11412WAT    EPW46356   2.862   1.361   2.892
11413WAT      O46357   1.592   2.169   1.491
11413WAT     H146358   1.614   2.085   1.481
11413WAT     H246359   1.659   2.203   1.536
11413WAT    EPW46360   1.605   2.161   1.496
11414WAT      O46361   2.355   2.254   2.549
11414WAT     H146362   2.311   2.298   2.610
11414WAT     H246363   2.398   2.194   2.595
11414WAT    EPW46364   2.355   2.251   2.565
11415WAT      O46365   1.274   1.296   1.586
11415WAT     H146366   1.272   1.239   1.521
11415WAT     H246367   1.238   1.252   1.653
11415WAT    EPW46368   1.269   1.281   1.586
11416WAT      O46369   2.242   2.094   1.630
11416WAT     H146370   2.251   2.163   1.682
11416WAT     H246371   2.228   2.028   1.686
11416WAT    EPW46372   2.241   2.095   1.646
11417WAT      O46373   2.781   2.495   2.142
11417WAT     H146374   2.796   2.572   2.182
11417WAT     H246375   2.696   2.497   2.125
11417WAT    EPW46376   2.771   2.507   2.146
11418WAT      O46377   1.695   1.534   1.319
11418WAT     H146378   1.636   1.537   1.255
11418WAT     H246379   1.765   1.572   1.285
11418WAT    EPW46380   1.696   1.540   1.305
11419WAT      O46381   2.143   2.308   2.032
11419WAT     H146382   2.059   2.297   2.053
11419WAT     H246383   2.186   2.284   2.104
11419WAT    EPW46384   2.137   2.303   2.046
11420WAT      O46385   1.820   2.951   1.134
11420WAT     H146386   1.844   2.874   1.168
11420WAT     H246387   1.811   3.003   1.203
11420WAT    EPW46388   1.822   2.947   1.149
11421WAT      O46389   1.520   2.246   2.336
11421WAT     H146390   1.570   2.315   2.318
11421WAT     H246391   1.483   2.227   2.259
11421WAT    EPW46392   1.522   2.253   2.322
11422WAT      O46393   1.845   1.780   1.993
11422WAT     H146394   1.922   1.740   1.978
11422WAT     H246395   1.786   1.717   1.981
11422WAT    EPW46396   1.848   1.765   1.989
11423WAT      O46397   3.135   2.967   1.360
11423WAT     H146398   3.207   2.921   1.343
11423WAT     H246399   3.087   2.913   1.408
11423WAT    EPW46400   3.139   2.952   1.365
11424WAT      O46401   1.320   1.875   1.632
11424WAT     H146402   1.354   1.843   1.705
11424WAT     H246403   1.330   1.811   1.574
11424WAT    EPW46404   1.327   1.861   1.634
11425WAT      O46405   2.802   2.238   2.393
11425WAT     H146406   2.798   2.151   2.402
11425WAT     H246407   2.721   2.259   2.370
11425WAT    EPW46408   2.790   2.228   2.391
11426WAT      O46409   1.823   2.134   1.201
11426WAT     H146410   1.835   2.069   1.258
11426WAT     H246411   1.772   2.099   1.140
11426WAT    EPW46412   1.818   2.119   1.201
11427WAT      O46413   1.475   2.360   2.725
11427WAT     H146414   1.432   2.311   2.667
11427WAT     H246415   1.448   2.441   2.708
11427WAT    EPW46416   1.464   2.365   2.714
11428WAT      O46417   2.919   2.285   2.021
11428WAT     H146418   2.882   2.349   2.068
11428WAT     H246419   3.003   2.288   2.043
11428WAT    EPW46420   2.926   2.295   2.031
11429WAT      O46421   1.906   1.928   1.386
11429WAT     H146422   1.933   1.993   1.438
11429WAT     H246423   1.823   1.915   1.411
11429WAT    EPW46424   1.897   1.935   1.398
11430WAT      O46425   2.764   1.641   2.883
11430WAT     H146426   2.684   1.641   2.918
11430WAT     H246427   2.788   1.558   2.887
11430WAT    EPW46428   2.756   1.629   2.889
11431WAT      O46429   1.299   1.525   2.121
11431WAT     H146430   1.287   1.541   2.037
11431WAT     H246431   1.385   1.509   2.127
11431WAT    EPW46432   1.310   1.525   2.110
11432WAT      O46433   3.160   2.773   2.173
11432WAT     H146434   3.177   2.832   2.110
11432WAT     H246435   3.077   2.789   2.195
11432WAT    EPW46436   3.151   2.784   2.167
11433WAT      O46437   2.640   2.017   3.035
11433WAT     H146438   2.565   1.989   3.071
11433WAT     H246439   2.636   2.104   3.046
11433WAT    EPW46440   2.628   2.026   3.042
11434WAT      O46441   2.814   2.003   2.813
11434WAT     H146442   2.839   2.084   2.835
11434WAT     H246443   2.752   1.984   2.872
11434WAT    EPW46444   2.809   2.012   2.825
11435WAT      O46445   2.822   2.628   1.371
11435WAT     H146446   2.846   2.545   1.378
11435WAT     H246447   2.742   2.629   1.406
11435WAT    EPW46448   2.814   2.616   1.377
11436WAT      O46449   2.839   1.799   1.881
11436WAT     H146450   2.772   1.757   1.918
11436WAT     H246451   2.838   1.877   1.920
11436WAT    EPW46452   2.829   1.804   1.892
11437WAT      O46453   3.097   2.031   3.006
11437WAT     H146454   3.108   1.976   2.940
11437WAT     H246455   3.170   2.080   3.004
11437WAT    EPW46456   3.110   2.030   2.996
11438WAT      O46457   3.022   2.375   2.722
11438WAT     H146458   3.109   2.371   2.723
11438WAT     H246459   3.004   2.428   2.654
11438WAT    EPW46460   3.032   2.382   2.712
11439WAT      O46461   2.475   2.445   1.307
11439WAT     H146462   2.547   2.397   1.294
11439WAT     H246463   2.444   2.457   1.226
11439WAT    EPW46464   2.481   2.440   1.293
11440WAT      O46465   1.909   2.575   2.408
11440WAT     H146466   1.940   2.623   2.474
11440WAT     H246467   1.923   2.625   2.338
11440WAT    EPW46468   1.916   2.590   2.408
11441WAT      O46469   1.742   2.432   2.693
11441WAT     H146470   1.661   2.402   2.705
11441WAT     H246471   1.731   2.519   2.688
11441WAT    EPW46472   1.728   2.441   2.694
11442WAT      O46473   2.663   1.483   2.549
11442WAT     H146474   2.723   1.545   2.560
11442WAT     H246475   2.589   1.528   2.537
11442WAT    EPW46476   2.661   1.499   2.549
11443WAT      O46477   2.226   2.229   2.305
11443WAT     H146478   2.272   2.228   2.379
11443WAT     H246479   2.143   2.240   2.333
11443WAT    EPW46480   2.220   2.231   2.320
11444WAT      O46481   1.891   1.770   2.702
11444WAT     H146482   1.900   1.687   2.727
11444WAT     H246483   1.921   1.771   2.620
11444WAT    EPW46484   1.897   1.758   2.693
11445WAT      O46485   2.147   2.990   1.863
11445WAT     H146486   2.147   3.074   1.885
11445WAT     H246487   2.194   2.988   1.789
11445WAT    EPW46488   2.154   3.002   1.855
11446WAT      O46489   2.768   1.284   2.382
11446WAT     H146490   2.731   1.355   2.418
11446WAT     H246491   2.851   1.290   2.409
11446WAT    EPW46492   2.775   1.296   2.391
11447WAT      O46493   2.017   1.389   2.568
11447WAT     H146494   2.101   1.414   2.565
11447WAT     H246495   2.020   1.304   2.550
11447WAT    EPW46496   2.030   1.380   2.565
11448WAT      O46497   1.959   2.752   2.196
11448WAT     H146498   1.906   2.799   2.147
11448WAT     H246499   1.998   2.698   2.139
11448WAT    EPW46500   1.957   2.751   2.181
11449WAT      O46501   2.379   2.428   2.949
11449WAT     H146502   2.454   2.434   2.905
11449WAT     H246503   2.319   2.434   2.887
11449WAT    EPW46504   2.381   2.430   2.934
11450WAT      O46505   2.770   2.667   2.856
11450WAT     H146506   2.821   2.680   2.925
11450WAT     H246507   2.812   2.707   2.791
11450WAT    EPW46508   2.784   2.674   2.857
11451WAT      O46509   2.958   1.920   1.253
11451WAT     H146510   3.008   1.979   1.214
11451WAT     H246511   2.880   1.959   1.258
11451WAT    EPW46512   2.954   1.935   1.248
11452WAT      O46513   2.090   2.231   1.260
11452WAT     H146514   2.011   2.229   1.224
11452WAT     H246515   2.102   2.315   1.280
11452WAT    EPW46516   2.080   2.243   1.257
11453WAT      O46517   1.772   1.875   2.243
11453WAT     H146518   1.802   1.841   2.169
11453WAT     H246519   1.829   1.846   2.303
11453WAT    EPW46520   1.785   1.865   2.241
11454WAT      O46521   2.463   1.823   2.778
11454WAT     H146522   2.398   1.874   2.804
11454WAT     H246523   2.482   1.775   2.848
11454WAT    EPW46524   2.456   1.823   2.792
11455WAT      O46525   2.520   1.917   2.406
11455WAT     H146526   2.533   1.966   2.477
11455WAT     H246527   2.500   1.839   2.439
11455WAT    EPW46528   2.519   1.913   2.421
11456WAT      O46529   2.208   2.988   2.794
11456WAT     H146530   2.235   2.978   2.712
11456WAT     H246531   2.180   2.908   2.816
11456WAT    EPW46532   2.208   2.974   2.785
11457WAT      O46533   2.713   1.793   1.631
11457WAT     H146534   2.741   1.790   1.713
11457WAT     H246535   2.783   1.816   1.585
11457WAT    EPW46536   2.727   1.796   1.636
11458WAT      O46537   2.029   1.324   2.203
11458WAT     H146538   1.945   1.320   2.226
11458WAT     H246539   2.027   1.331   2.117
11458WAT    EPW46540   2.017   1.324   2.194
11459WAT      O46541   2.863   1.422   1.785
11459WAT     H146542   2.787   1.386   1.809
11459WAT     H246543   2.854   1.431   1.698
11459WAT    EPW46544   2.850   1.418   1.776
11460WAT      O46545   2.862   2.190   1.581
11460WAT     H146546   2.904   2.114   1.574
11460WAT     H246547   2.778   2.168   1.581
11460WAT    EPW46548   2.856   2.176   1.580
11461WAT      O46549   2.218   2.432   2.723
11461WAT     H146550   2.137   2.445   2.755
11461WAT     H246551   2.239   2.510   2.690
11461WAT    EPW46552   2.209   2.445   2.723
11462WAT      O46553   1.264   1.431   2.895
11462WAT     H146554   1.264   1.500   2.842
11462WAT     H246555   1.180   1.406   2.897
11462WAT    EPW46556   1.252   1.437   2.888
11463WAT      O46557   1.771   3.101   2.276
11463WAT     H146558   1.766   3.091   2.362
11463WAT     H246559   1.748   3.023   2.244
11463WAT    EPW46560   1.767   3.088   2.284
11464WAT      O46561   1.621   1.644   1.564
11464WAT     H146562   1.635   1.606   1.487
11464WAT     H246563   1.540   1.619   1.585
11464WAT    EPW46564   1.611   1.635   1.556
11465WAT      O46565   2.521   2.389   1.843
11465WAT     H146566   2.516   2.408   1.928
11465WAT     H246567   2.548   2.306   1.842
11465WAT    EPW46568   2.524   2.379   1.856
11466WAT      O46569   2.259   2.326   1.780
11466WAT     H146570   2.221   2.320   1.858
11466WAT     H246571   2.340   2.351   1.799
11466WAT    EPW46572   2.266   2.328   1.794
11467WAT      O46573   2.308   2.677   2.620
11467WAT     H146574   2.360   2.699   2.687
11467WAT     H246575   2.364   2.670   2.553
11467WAT    EPW46576   2.324   2.680   2.620
11468WAT      O46577   3.065   1.880   2.769
11468WAT     H146578   2.983   1.908   2.777
11468WAT     H246579   3.092   1.917   2.695
11468WAT    EPW46580   3.057   1.889   2.759
11469WAT      O46581   2.543   2.068   2.643
11469WAT     H146582   2.531   2.002   2.699
11469WAT     H246583   2.614   2.108   2.673
11469WAT    EPW46584   2.552   2.064   2.656
11470WAT      O46585   1.422   3.044   2.808
11470WAT     H146586   1.367   2.977   2.797
11470WAT     H246587   1.370   3.109   2.835
11470WAT    EPW46588   1.406   3.044   2.810
11471WAT      O46589   2.300   2.192   3.076
11471WAT     H146590   2.325   2.267   3.041
11471WAT     H246591   2.216   2.206   3.097
11471WAT    EPW46592   2.291   2.205   3.074
11472WAT      O46593   2.657   2.980   2.106
11472WAT     H146594   2.633   3.051   2.150
11472WAT     H246595   2.718   2.943   2.158
11472WAT    EPW46596   2.663   2.985   2.120
11473WAT      O46597   2.269   2.508   2.255
11473WAT     H146598   2.252   2.426   2.281
11473WAT     H246599   2.309   2.543   2.324
11473WAT    EPW46600   2.272   2.501   2.269
11474WAT      O46601   2.966   2.734   3.055
11474WAT     H146602   3.050   2.714   3.045
11474WAT     H246603   2.948   2.704   3.135
11474WAT    EPW46604   2.976   2.727   3.065
11475WAT      O46605   1.636   1.874   2.662
11475WAT     H146606   1.650   1.936   2.601
11475WAT     H246607   1.715   1.839   2.674
11475WAT    EPW46608   1.650   1.878   2.655
11476WAT      O46609   1.446   1.718   2.539
11476WAT     H146610   1.465   1.729   2.454
11476WAT     H246611   1.508   1.763   2.580
11476WAT    EPW46612   1.458   1.726   2.532
11477WAT      O46613   2.938   1.926   1.531
11477WAT     H146614   2.953   1.924   1.445
11477WAT     H246615   3.015   1.903   1.566
11477WAT    EPW46616   2.952   1.922   1.524
11478WAT      O46617   1.644   1.410   2.790
11478WAT     H146618   1.606   1.331   2.795
11478WAT     H246619   1.630   1.434   2.708
11478WAT    EPW46620   1.636   1.402   2.779
11479WAT      O46621   2.366   2.706   1.737
11479WAT     H146622   2.361   2.784   1.698
11479WAT     H246623   2.304   2.660   1.698
11479WAT    EPW46624   2.356   2.711   1.726
11480WAT      O46625   2.832   1.977   2.531
11480WAT     H146626   2.823   1.890   2.531
11480WAT     H246627   2.815   1.999   2.614
11480WAT    EPW46628   2.828   1.968   2.544
11481WAT      O46629   1.333   2.212   2.538
11481WAT     H146630   1.384   2.230   2.470
11481WAT     H246631   1.316   2.127   2.530
11481WAT    EPW46632   1.338   2.202   2.527
11482WAT      O46633   1.511   1.814   1.208
11482WAT     H146634   1.434   1.808   1.249
11482WAT     H246635   1.519   1.736   1.169
11482WAT    EPW46636   1.501   1.801   1.208
11483WAT      O46637   2.365   1.458   2.864
11483WAT     H146638   2.395   1.523   2.914
11483WAT     H246639   2.288   1.439   2.900
11483WAT    EPW46640   2.358   1.465   2.877
11484WAT      O46641   2.370   1.542   1.959
11484WAT     H146642   2.289   1.576   1.957
11484WAT     H246643   2.369   1.485   1.893
11484WAT    EPW46644   2.358   1.538   1.949
11485WAT      O46645   1.805   2.705   1.290
11485WAT     H146646   1.846   2.738   1.359
11485WAT     H246647   1.731   2.673   1.323
11485WAT    EPW46648   1.800   2.705   1.305
11486WAT      O46649   2.693   1.605   2.223
11486WAT     H146650   2.772   1.570   2.235
11486WAT     H246651   2.704   1.689   2.243
11486WAT    EPW46652   2.706   1.612   2.228
11487WAT      O46653   1.869   2.184   2.635
11487WAT     H146654   1.829   2.258   2.658
11487WAT     H246655   1.811   2.144   2.584
11487WAT    EPW46656   1.855   2.189   2.631
11488WAT      O46657   2.779   2.044   2.013
11488WAT     H146658   2.828   2.115   2.024
11488WAT     H246659   2.717   2.070   1.957
11488WAT    EPW46660   2.777   2.058   2.006
11489WAT      O46661   2.807   2.837   1.729
11489WAT     H146662   2.770   2.758   1.739
11489WAT     H246663   2.855   2.828   1.656
11489WAT    EPW46664   2.809   2.824   1.719
11490WAT      O46665   1.584   2.605   1.426
11490WAT     H146666   1.585   2.586   1.511
11490WAT     H246667   1.577   2.527   1.387
11490WAT    EPW46668   1.583   2.591   1.433
11491WAT      O46669   1.881   2.441   1.225
11491WAT     H146670   1.810   2.395   1.243
11491WAT     H246671   1.859   2.522   1.249
11491WAT    EPW46672   1.867   2.446   1.231
11492WAT      O46673   1.834   1.536   2.417
11492WAT     H146674   1.755   1.511   2.445
11492WAT     H246675   1.888   1.480   2.456
11492WAT    EPW46676   1.830   1.524   2.427
11493WAT      O46677   3.025   1.385   2.500
11493WAT     H146678   3.036   1.447   2.560
11493WAT     H246679   3.102   1.344   2.497
11493WAT    EPW46680   3.038   1.388   2.509
11494WAT      O46681   2.215   1.523   2.281
11494WAT     H146682   2.158   1.459   2.264
11494WAT     H246683   2.293   1.484   2.271
11494WAT    EPW46684   2.218   1.507   2.277
11495WAT      O46685   2.495   2.634   2.405
11495WAT     H146686   2.576   2.657   2.428
11495WAT     H246687   2.479   2.684   2.335
11495WAT    EPW46688   2.504   2.645   2.398
11496WAT      O46689   2.466   3.064   2.878
11496WAT     H146690   2.390   3.034   2.848
11496WAT     H246691   2.451   3.149   2.892
11496WAT    EPW46692   2.453   3.072   2.876
11497WAT      O46693   2.001   1.999   2.821
11497WAT     H146694   1.969   1.926   2.784
11497WAT     H246695   1.966   2.063   2.774
11497WAT    EPW46696   1.991   1.997   2.809
11498WAT      O46697   2.053   1.289   1.319
11498WAT     H146698   2.063   1.306   1.234
11498WAT     H246699   1.966   1.292   1.330
11498WAT    EPW46700   2.042   1.292   1.308
11499WAT      O46701   2.939   2.477   2.469
11499WAT     H146702   2.896   2.414   2.426
11499WAT     H246703   2.906   2.551   2.435
11499WAT    EPW46704   2.928   2.479   2.458
11500WAT      O46705   1.881   2.929   2.771
11500WAT     H146706   1.874   2.936   2.858
11500WAT     H246707   1.949   2.876   2.759
11500WAT    EPW46708   1.890   2.922   2.782
11501WAT      O46709   1.584   1.475   2.530
11501WAT     H146710   1.530   1.410   2.510
11501WAT     H246711   1.534   1.546   2.526
11501WAT    EPW46712   1.569   1.476   2.527
11502WAT      O46713   2.469   1.434   2.196
11502WAT     H146714   2.533   1.489   2.217
11502WAT     H246715   2.438   1.466   2.121
11502WAT    EPW46716   2.474   1.447   2.188
11503WAT      O46717   1.579   2.852   2.948
11503WAT     H146718   1.654   2.887   2.976
11503WAT     H246719   1.540   2.918   2.906
11503WAT    EPW46720   1.585   2.867   2.946
11504WAT      O46721   2.432   1.918   1.953
11504WAT     H146722   2.488   1.853   1.969
11504WAT     H246723   2.402   1.939   2.032
11504WAT    EPW46724   2.436   1.912   1.967
11505WAT      O46725   1.445   1.805   1.876
11505WAT     H146726   1.404   1.831   1.948
11505WAT     H246727   1.487   1.733   1.901
11505WAT    EPW46728   1.445   1.798   1.890
11506WAT      O46729   1.431   2.627   2.655
11506WAT     H146730   1.380   2.687   2.692
11506WAT     H246731   1.511   2.661   2.661
11506WAT    EPW46732   1.436   2.641   2.661
11507WAT      O46733   2.617   2.046   1.563
11507WAT     H146734   2.635   1.963   1.581
11507WAT     H246735   2.541   2.042   1.519
11507WAT    EPW46736   2.608   2.033   1.559
11508WAT      O46737   1.624   2.940   1.522
11508WAT     H146738   1.580   2.911   1.452
11508WAT     H246739   1.697   2.893   1.521
11508WAT    EPW46740   1.628   2.929   1.511
11509WAT      O46741   2.003   2.151   1.509
11509WAT     H146742   2.033   2.183   1.433
11509WAT     H246743   2.076   2.134   1.553
11509WAT    EPW46744   2.018   2.154   1.504
11510WAT      O46745   2.914   3.008   1.191
11510WAT     H146746   2.985   3.004   1.241
11510WAT     H246747   2.898   2.925   1.170
11510WAT    EPW46748   2.922   2.995   1.195
11511WAT      O46749   2.924   2.235   2.944
11511WAT     H146750   2.989   2.180   2.964
11511WAT     H246751   2.962   2.291   2.888
11511WAT    EPW46752   2.940   2.235   2.938
11512WAT      O46753   2.573   2.649   1.478
11512WAT     H146754   2.589   2.619   1.558
11512WAT     H246755   2.532   2.582   1.439
11512WAT    EPW46756   2.569   2.635   1.484
11513WAT      O46757   2.905   1.717   3.113
11513WAT     H146758   2.885   1.798   3.136
11513WAT     H246759   2.865   1.707   3.036
11513WAT    EPW46760   2.896   1.727   3.105
11514WAT      O46761   3.012   1.819   2.284
11514WAT     H146762   2.930   1.847   2.276
11514WAT     H246763   3.004   1.732   2.288
11514WAT    EPW46764   2.999   1.810   2.283
11515WAT      O46765   1.910   1.497   2.798
11515WAT     H146766   1.942   1.465   2.724
11515WAT     H246767   1.829   1.465   2.801
11515WAT    EPW46768   1.903   1.488   2.788
11516WAT      O46769   2.682   2.290   3.069
11516WAT     H146770   2.768   2.279   3.053
11516WAT     H246771   2.655   2.333   2.998
11516WAT    EPW46772   2.691   2.295   3.056
11517WAT      O46773   1.650   2.861   2.181
11517WAT     H146774   1.638   2.781   2.149
11517WAT     H246775   1.613   2.913   2.122
11517WAT    EPW46776   1.642   2.857   2.168
11518WAT      O46777   2.202   2.470   1.366
11518WAT     H146778   2.287   2.455   1.357
11518WAT     H246779   2.190   2.546   1.325
11518WAT    EPW46780   2.213   2.479   1.359
11519WAT      O46781   1.403   3.101   2.532
11519WAT     H146782   1.415   3.081   2.615
11519WAT     H246783   1.435   3.032   2.489
11519WAT    EPW46784   1.410   3.088   2.538
11520WAT      O46785   2.309   1.957   0.334
11520WAT     H146786   2.276   2.034   0.360
11520WAT     H246787   2.374   1.943   0.390
11520WAT    EPW46788   2.313   1.967   0.346
11521WAT      O46789   1.350   2.646   0.510
11521WAT     H146790   1.365   2.637   0.595
11521WAT     H246791   1.293   2.583   0.492
11521WAT    EPW46792   1.344   2.636   0.520
11522WAT      O46793   1.967   2.471   0.966
11522WAT     H146794   1.946   2.455   1.049
11522WAT     H246795   1.893   2.454   0.922
11522WAT    EPW46796   1.953   2.466   0.971
11523WAT      O46797   1.914   1.751   0.540
11523WAT     H146798   1.991   1.754   0.500
11523WAT     H246799   1.889   1.668   0.530
11523WAT    EPW46800   1.922   1.739   0.533
11524WAT      O46801   1.950   2.764   0.713
11524WAT     H146802   1.970   2.818   0.647
11524WAT     H246803   2.027   2.734   0.739
11524WAT    EPW46804   1.964   2.768   0.707
11525WAT      O46805   2.253   2.037   0.900
11525WAT     H146806   2.166   2.029   0.898
11525WAT     H246807   2.269   2.082   0.973
11525WAT    EPW46808   2.243   2.042   0.910
11526WAT      O46809   2.678   1.202   0.793
11526WAT     H146810   2.672   1.284   0.763
11526WAT     H246811   2.612   1.195   0.849
11526WAT    EPW46812   2.668   1.213   0.797
11527WAT      O46813   1.314   1.959   0.295
11527WAT     H146814   1.286   2.041   0.306
11527WAT     H246815   1.249   1.910   0.327
11527WAT    EPW46816   1.300   1.964   0.301
11528WAT      O46817   1.570   1.385   0.359
11528WAT     H146818   1.576   1.446   0.298
11528WAT     H246819   1.630   1.326   0.336
11528WAT    EPW46820   1.580   1.385   0.347
11529WAT      O46821   1.926   1.628   1.188
11529WAT     H146822   1.921   1.590   1.110
11529WAT     H246823   1.968   1.703   1.171
11529WAT    EPW46824   1.932   1.633   1.174
11530WAT      O46825   2.535   2.932   0.594
11530WAT     H146826   2.594   2.964   0.649
11530WAT     H246827   2.565   2.954   0.515
11530WAT    EPW46828   2.548   2.940   0.591
11531WAT      O46829   1.523   1.552   1.102
11531WAT     H146830   1.442   1.519   1.097
11531WAT     H246831   1.563   1.520   1.032
11531WAT    EPW46832   1.517   1.543   1.091
11532WAT      O46833   2.092   1.344   1.052
11532WAT     H146834   2.108   1.270   1.008
11532WAT     H246835   2.021   1.375   1.013
11532WAT    EPW46836   2.084   1.337   1.040
11533WAT      O46837   1.745   3.007   0.609
11533WAT     H146838   1.773   3.001   0.692
11533WAT     H246839   1.681   2.948   0.604
11533WAT    EPW46840   1.740   2.998   0.621
11534WAT      O46841   3.023   1.525   0.456
11534WAT     H146842   3.086   1.485   0.410
11534WAT     H246843   3.018   1.477   0.529
11534WAT    EPW46844   3.032   1.512   0.460
11535WAT      O46845   1.267   1.658   0.851
11535WAT     H146846   1.255   1.738   0.885
11535WAT     H246847   1.324   1.672   0.786
11535WAT    EPW46848   1.274   1.672   0.847
11536WAT      O46849   2.442   2.728   0.898
11536WAT     H146850   2.432   2.746   0.983
11536WAT     H246851   2.528   2.711   0.891
11536WAT    EPW46852   2.453   2.728   0.909
11537WAT      O46853   1.538   2.850   0.495
11537WAT     H146854   1.482   2.783   0.503
11537WAT     H246855   1.575   2.836   0.417
11537WAT    EPW46856   1.535   2.838   0.485
11538WAT      O46857   2.275   2.998   0.656
11538WAT     H146858   2.354   2.968   0.631
11538WAT     H246859   2.221   2.963   0.598
11538WAT    EPW46860   2.279   2.988   0.643
11539WAT      O46861   1.685   2.709   0.824
11539WAT     H146862   1.763   2.739   0.799
11539WAT     H246863   1.671   2.749   0.900
11539WAT    EPW46864   1.694   2.719   0.832
11540WAT      O46865   1.894   2.349   0.250
11540WAT     H146866   1.907   2.315   0.329
11540WAT     H246867   1.882   2.280   0.199
11540WAT    EPW46868   1.894   2.334   0.254
11541WAT      O46869   2.465   1.654   0.657
11541WAT     H146870   2.454   1.704   0.728
11541WAT     H246871   2.395   1.601   0.658
11541WAT    EPW46872   2.453   1.654   0.668
11542WAT      O46873   1.957   2.291   0.515
11542WAT     H146874   1.949   2.376   0.531
11542WAT     H246875   1.932   2.254   0.589
11542WAT    EPW46876   1.952   2.298   0.528
11543WAT      O46877   2.540   2.404   0.460
11543WAT     H146878   2.492   2.359   0.518
11543WAT     H246879   2.532   2.486   0.486
11543WAT    EPW46880   2.532   2.409   0.473
11544WAT      O46881   1.251   2.689   1.153
11544WAT     H146882   1.311   2.736   1.195
11544WAT     H246883   1.260   2.609   1.188
11544WAT    EPW46884   1.261   2.684   1.164
11545WAT      O46885   2.865   1.674   0.746
11545WAT     H146886   2.947   1.657   0.769
11545WAT     H246887   2.824   1.685   0.822
11545WAT    EPW46888   2.871   1.673   0.760
11546WAT      O46889   1.514   1.789   0.388
11546WAT     H146890   1.592   1.826   0.374
11546WAT     H246891   1.458   1.843   0.350
11546WAT    EPW46892   1.517   1.803   0.381
11547WAT      O46893   3.146   2.821   0.894
11547WAT     H146894   3.066   2.828   0.858
11547WAT     H246895   3.133   2.772   0.965
11547WAT    EPW46896   3.132   2.815   0.899
11548WAT      O46897   2.062   1.871   1.161
11548WAT     H146898   2.015   1.904   1.227
11548WAT     H246899   2.038   1.920   1.093
11548WAT    EPW46900   2.051   1.883   1.161
11549WAT      O46901   3.143   1.938   0.639
11549WAT     H146902   3.201   1.873   0.634
11549WAT     H246903   3.081   1.914   0.582
11549WAT    EPW46904   3.142   1.925   0.630
11550WAT      O46905   1.680   2.501   0.356
11550WAT     H146906   1.728   2.522   0.426
11550WAT     H246907   1.735   2.455   0.306
11550WAT    EPW46908   1.695   2.498   0.359
11551WAT      O46909   2.888   2.849   0.772
11551WAT     H146910   2.834   2.916   0.780
11551WAT     H246911   2.879   2.824   0.689
11551WAT    EPW46912   2.879   2.855   0.761
11552WAT      O46913   1.624   2.007   1.040
11552WAT     H146914   1.586   1.946   1.088
11552WAT     H246915   1.620   1.975   0.959
11552WAT    EPW46916   1.618   1.993   1.035
11553WAT      O46917   1.664   2.082   0.569
11553WAT     H146918   1.698   2.035   0.503
11553WAT     H246919   1.615   2.142   0.529
11553WAT    EPW46920   1.662   2.084   0.553
11554WAT      O46921   2.727   1.801   0.357
11554WAT     H146922   2.666   1.832   0.411
11554WAT     H246923   2.695   1.818   0.278
11554WAT    EPW46924   2.713   1.808   0.353
11555WAT      O46925   2.053   2.921   0.505
11555WAT     H146926   2.047   2.864   0.440
11555WAT     H246927   2.036   2.998   0.466
11555WAT    EPW46928   2.050   2.924   0.490
11556WAT      O46929   2.280   1.434   0.689
11556WAT     H146930   2.297   1.349   0.677
11556WAT     H246931   2.298   1.446   0.774
11556WAT    EPW46932   2.285   1.423   0.700
11557WAT      O46933   1.468   2.230   1.081
11557WAT     H146934   1.467   2.275   1.006
11557WAT     H246935   1.520   2.162   1.064
11557WAT    EPW46936   1.475   2.227   1.067
11558WAT      O46937   2.644   2.406   0.938
11558WAT     H146938   2.672   2.488   0.924
11558WAT     H246939   2.673   2.363   0.868
11558WAT    EPW46940   2.652   2.412   0.925
11559WAT      O46941   2.037   2.742   1.016
11559WAT     H146942   2.077   2.733   1.093
11559WAT     H246943   2.018   2.660   0.994
11559WAT    EPW46944   2.040   2.728   1.024
11560WAT      O46945   2.142   1.743   0.391
11560WAT     H146946   2.196   1.806   0.366
11560WAT     H246947   2.189   1.670   0.382
11560WAT    EPW46948   2.157   1.741   0.386
11561WAT      O46949   2.646   2.694   0.241
11561WAT     H146950   2.572   2.664   0.208
11561WAT     H246951   2.634   2.780   0.244
11561WAT    EPW46952   2.634   2.702   0.236
11562WAT      O46953   2.429   2.510   0.215
11562WAT     H146954   2.344   2.493   0.221
11562WAT     H246955   2.464   2.462   0.279
11562WAT    EPW46956   2.422   2.501   0.225
11563WAT      O46957   2.750   2.264   0.718
11563WAT     H146958   2.749   2.242   0.633
11563WAT     H246959   2.833   2.285   0.733
11563WAT    EPW46960   2.762   2.264   0.707
11564WAT      O46961   2.422   2.846   1.161
11564WAT     H146962   2.452   2.866   1.240
11564WAT     H246963   2.438   2.917   1.114
11564WAT    EPW46964   2.428   2.859   1.166
11565WAT      O46965   2.913   1.273   0.927
11565WAT     H146966   2.836   1.254   0.890
11565WAT     H246967   2.907   1.238   1.007
11565WAT    EPW46968   2.901   1.265   0.933
11566WAT      O46969   2.365   2.279   0.641
11566WAT     H146970   2.317   2.313   0.706
11566WAT     H246971   2.406   2.212   0.679
11566WAT    EPW46972   2.364   2.274   0.656
11567WAT      O46973   2.795   2.511   0.387
11567WAT     H146974   2.759   2.562   0.326
11567WAT     H246975   2.729   2.461   0.414
11567WAT    EPW46976   2.780   2.511   0.382
11568WAT      O46977   2.164   2.444   0.290
11568WAT     H146978   2.083   2.429   0.263
11568WAT     H246979   2.187   2.370   0.330
11568WAT    EPW46980   2.156   2.431   0.292
11569WAT      O46981   1.506   2.280   0.435
11569WAT     H146982   1.549   2.353   0.417
11569WAT     H246983   1.453   2.270   0.367
11569WAT    EPW46984   1.505   2.289   0.422
11570WAT      O46985   2.782   2.138   0.468
11570WAT     H146986   2.795   2.068   0.518
11570WAT     H246987   2.702   2.126   0.436
11570WAT    EPW46988   2.772   2.126   0.470
11571WAT      O46989   1.462   2.365   0.842
11571WAT     H146990   1.424   2.315   0.782
11571WAT     H246991   1.433   2.445   0.824
11571WAT    EPW46992   1.452   2.369   0.831
11572WAT      O46993   3.020   2.215   0.342
11572WAT     H146994   2.948   2.188   0.384
11572WAT     H246995   2.989   2.249   0.267
11572WAT    EPW46996   3.004   2.216   0.337
11573WAT      O46997   2.682   1.639   0.969
11573WAT     H146998   2.615   1.637   1.024
11573WAT     H246999   2.664   1.576   0.911
11573WAT    EPW47000   2.670   1.629   0.968
11574WAT      O47001   3.070   2.818   0.362
11574WAT     H147002   3.088   2.802   0.278
11574WAT     H247003   3.129   2.770   0.405
11574WAT    EPW47004   3.082   2.809   0.356
11575WAT      O47005   2.556   1.987   1.076
11575WAT     H147006   2.600   1.991   1.152
11575WAT     H247007   2.487   2.039   1.090
11575WAT    EPW47008   2.553   1.995   1.089
11576WAT      O47009   2.793   2.011   0.921
11576WAT     H147010   2.820   2.091   0.941
11576WAT     H247011   2.721   2.001   0.968
11576WAT    EPW47012   2.787   2.021   0.931
11577WAT      O47013   3.115   2.094   1.109
11577WAT     H147014   3.121   2.040   1.041
11577WAT     H247015   3.191   2.137   1.108
11577WAT    EPW47016   3.127   2.093   1.099
11578WAT      O47017   3.015   2.346   0.745
11578WAT     H147018   3.081   2.292   0.725
11578WAT     H247019   3.017   2.404   0.680
11578WAT    EPW47020   3.025   2.347   0.732
11579WAT      O47021   1.899   2.565   0.522
11579WAT     H147022   1.910   2.617   0.592
11579WAT     H247023   1.933   2.611   0.457
11579WAT    EPW47024   1.906   2.579   0.523
11580WAT      O47025   1.730   2.431   0.822
11580WAT     H147026   1.648   2.402   0.832
11580WAT     H247027   1.720   2.518   0.815
11580WAT    EPW47028   1.716   2.440   0.822
11581WAT      O47029   2.665   1.476   0.736
11581WAT     H147030   2.737   1.518   0.714
11581WAT     H247031   2.601   1.524   0.700
11581WAT    EPW47032   2.666   1.489   0.728
11582WAT      O47033   2.208   2.206   0.428
11582WAT     H147034   2.260   2.226   0.495
11582WAT     H247035   2.128   2.217   0.461
11582WAT    EPW47036   2.204   2.211   0.443
11583WAT      O47037   1.863   1.774   0.811
11583WAT     H147038   1.871   1.695   0.846
11583WAT     H247039   1.889   1.762   0.729
11583WAT    EPW47040   1.868   1.761   0.804
11584WAT      O47041   2.781   1.255   0.493
11584WAT     H147042   2.755   1.337   0.475
11584WAT     H247043   2.852   1.267   0.542
11584WAT    EPW47044   2.788   1.269   0.498
11585WAT      O47045   2.005   1.381   0.729
11585WAT     H147046   2.092   1.382   0.717
11585WAT     H247047   1.989   1.299   0.755
11585WAT    EPW47048   2.016   1.369   0.731
11586WAT      O47049   1.961   2.735   0.307
11586WAT     H147050   1.881   2.750   0.275
11586WAT     H247051   2.007   2.713   0.236
11586WAT    EPW47052   1.956   2.734   0.292
11587WAT      O47053   2.390   2.411   1.043
11587WAT     H147054   2.468   2.413   1.003
11587WAT     H247055   2.333   2.423   0.978
11587WAT    EPW47056   2.393   2.413   1.028
11588WAT      O47057   2.720   2.674   0.911
11588WAT     H147058   2.760   2.692   0.986
11588WAT     H247059   2.768   2.718   0.852
11588WAT    EPW47060   2.733   2.683   0.913
11589WAT      O47061   1.767   1.910   0.371
11589WAT     H147062   1.805   1.904   0.293
11589WAT     H247063   1.816   1.860   0.422
11589WAT    EPW47064   1.780   1.902   0.367
11590WAT      O47065   2.442   1.842   0.860
11590WAT     H147066   2.371   1.892   0.869
11590WAT     H247067   2.485   1.854   0.935
11590WAT    EPW47068   2.438   1.851   0.872
11591WAT      O47069   2.515   1.888   0.509
11591WAT     H147070   2.526   1.945   0.575
11591WAT     H247071   2.495   1.814   0.550
11591WAT    EPW47072   2.514   1.886   0.525
11592WAT      O47073   2.189   2.958   0.916
11592WAT     H147074   2.209   2.948   0.832
11592WAT     H247075   2.152   2.883   0.938
11592WAT    EPW47076   2.187   2.946   0.907
11593WAT      O47077   2.010   1.334   0.367
11593WAT     H147078   1.959   1.388   0.413
11593WAT     H247079   1.954   1.295   0.312
11593WAT    EPW47080   1.994   1.336   0.365
11594WAT      O47081   2.209   2.418   0.834
11594WAT     H147082   2.132   2.416   0.875
11594WAT     H247083   2.213   2.500   0.803
11594WAT    EPW47084   2.198   2.430   0.835
11595WAT      O47085   1.278   1.437   1.017
11595WAT     H147086   1.275   1.507   0.965
11595WAT     H247087   1.205   1.393   0.996
11595WAT    EPW47088   1.267   1.441   1.006
11596WAT      O47089   1.760   3.038   0.331
11596WAT     H147090   1.764   3.029   0.418
11596WAT     H247091   1.739   2.959   0.303
11596WAT    EPW47092   1.758   3.025   0.340
11597WAT      O47093   2.213   2.679   0.746
11597WAT     H147094   2.289   2.699   0.783
11597WAT     H247095   2.232   2.674   0.661
11597WAT    EPW47096   2.227   2.681   0.739
11598WAT      O47097   3.064   1.916   0.902
11598WAT     H147098   2.978   1.931   0.907
11598WAT     H247099   3.082   1.933   0.818
11598WAT    EPW47100   3.054   1.921   0.890
11599WAT      O47101   2.533   2.072   0.717
11599WAT     H147102   2.515   2.012   0.778
11599WAT     H247103   2.605   2.111   0.747
11599WAT    EPW47104   2.541   2.069   0.731
11600WAT      O47105   1.428   3.048   0.921
11600WAT     H147106   1.368   2.986   0.911
11600WAT     H247107   1.382   3.116   0.952
11600WAT    EPW47108   1.412   3.049   0.924
11601WAT      O47109   2.329   2.161   1.141
11601WAT     H147110   2.355   2.240   1.112
11601WAT     H247111   2.249   2.176   1.172
11601WAT    EPW47112   2.321   2.175   1.141
11602WAT      O47113   2.620   2.962   0.324
11602WAT     H147114   2.579   3.036   0.305
11602WAT     H247115   2.693   2.989   0.365
11602WAT    EPW47116   2.625   2.977   0.327
11603WAT      O47117   2.241   2.654   0.472
11603WAT     H147118   2.218   2.590   0.418
11603WAT     H247119   2.328   2.659   0.462
11603WAT    EPW47120   2.251   2.645   0.462
11604WAT      O47121   2.877   2.742   1.131
11604WAT     H147122   2.961   2.718   1.128
11604WAT     H247123   2.848   2.705   1.205
11604WAT    EPW47124   2.885   2.733   1.141
11605WAT      O47125   1.618   1.900   0.779
11605WAT     H147126   1.631   1.960   0.717
11605WAT     H247127   1.696   1.862   0.787
11605WAT    EPW47128   1.632   1.903   0.771
11606WAT      O47129   1.452   1.727   0.646
11606WAT     H147130   1.471   1.742   0.562
11606WAT     H247131   1.509   1.776   0.689
11606WAT    EPW47132   1.464   1.736   0.640
11607WAT      O47133   1.629   1.411   0.887
11607WAT     H147134   1.585   1.336   0.897
11607WAT     H247135   1.615   1.432   0.804
11607WAT    EPW47136   1.621   1.403   0.876
11608WAT      O47137   2.821   1.936   0.652
11608WAT     H147138   2.835   1.850   0.664
11608WAT     H247139   2.806   1.965   0.733
11608WAT    EPW47140   2.821   1.927   0.666
11609WAT      O47141   1.343   2.202   0.652
11609WAT     H147142   1.387   2.225   0.580
11609WAT     H247143   1.327   2.117   0.640
11609WAT    EPW47144   1.348   2.193   0.640
11610WAT      O47145   2.330   1.460   0.961
11610WAT     H147146   2.367   1.516   1.016
11610WAT     H247147   2.257   1.436   1.002
11610WAT    EPW47148   2.324   1.464   0.975
11611WAT      O47149   2.745   1.526   0.405
11611WAT     H147150   2.832   1.521   0.410
11611WAT     H247151   2.729   1.611   0.396
11611WAT    EPW47152   2.755   1.538   0.404
11612WAT      O47153   1.848   2.187   0.749
11612WAT     H147154   1.814   2.262   0.776
11612WAT     H247155   1.787   2.153   0.697
11612WAT    EPW47156   1.834   2.193   0.745
11613WAT      O47157   1.848   1.487   0.531
11613WAT     H147158   1.764   1.474   0.551
11613WAT     H247159   1.890   1.449   0.597
11613WAT    EPW47160   1.842   1.479   0.544
11614WAT      O47161   2.997   1.329   0.657
11614WAT     H147162   2.982   1.314   0.741
11614WAT     H247163   3.074   1.290   0.642
11614WAT    EPW47164   3.006   1.321   0.667
11615WAT      O47165   2.256   1.482   0.405
11615WAT     H147166   2.188   1.434   0.379
11615WAT     H247167   2.257   1.470   0.491
11615WAT    EPW47168   2.246   1.473   0.414
11616WAT      O47169   2.520   2.675   0.491
11616WAT     H147170   2.531   2.747   0.539
11616WAT     H247171   2.565   2.692   0.418
11616WAT    EPW47172   2.528   2.688   0.487
11617WAT      O47173   2.453   3.050   0.970
11617WAT     H147174   2.381   3.009   0.941
11617WAT     H247175   2.427   3.133   0.978
11617WAT    EPW47176   2.438   3.056   0.967
11618WAT      O47177   1.979   2.001   0.921
11618WAT     H147178   1.944   1.929   0.885
11618WAT     H247179   1.940   2.066   0.878
11618WAT    EPW47180   1.968   2.000   0.910
11619WAT      O47181   3.050   2.455   0.483
11619WAT     H147182   3.058   2.376   0.447
11619WAT     H247183   2.972   2.483   0.454
11619WAT    EPW47184   3.039   2.448   0.473
11620WAT      O47185   1.878   2.989   0.863
11620WAT     H147186   1.868   2.981   0.949
11620WAT     H247187   1.919   2.915   0.841
11620WAT    EPW47188   1.883   2.977   0.872
11621WAT      O47189   2.846   2.761   0.517
11621WAT     H147190   2.909   2.788   0.463
11621WAT     H247191   2.824   2.683   0.484
11621WAT    EPW47192   2.852   2.753   0.504
11622WAT      O47193   1.583   1.477   0.624
11622WAT     H147194   1.558   1.436   0.551
11622WAT     H247195   1.536   1.551   0.624
11622WAT    EPW47196   1.573   1.482   0.613
11623WAT      O47197   2.507   1.384   0.310
11623WAT     H147198   2.568   1.440   0.337
11623WAT     H247199   2.432   1.423   0.335
11623WAT    EPW47200   2.505   1.398   0.318
11624WAT      O47201   1.580   2.851   1.054
11624WAT     H147202   1.655   2.888   1.079
11624WAT     H247203   1.537   2.916   1.015
11624WAT    EPW47204   1.585   2.866   1.052
11625WAT      O47205   1.418   2.634   0.776
11625WAT     H147206   1.368   2.694   0.816
11625WAT     H247207   1.499   2.664   0.786
11625WAT    EPW47208   1.422   2.647   0.783
11626WAT      O47209   2.915   2.250   0.996
11626WAT     H147210   2.982   2.214   1.039
11626WAT     H247211   2.954   2.295   0.932
11626WAT    EPW47212   2.931   2.251   0.993
11627WAT      O47213   2.924   1.685   1.095
11627WAT     H147214   2.922   1.766   1.130
11627WAT     H247215   2.844   1.674   1.063
11627WAT    EPW47216   2.912   1.696   1.096
11628WAT      O47217   3.001   1.806   0.428
11628WAT     H147218   2.916   1.812   0.410
11628WAT     H247219   3.013   1.720   0.440
11628WAT    EPW47220   2.991   1.794   0.427
11629WAT      O47221   1.884   1.513   0.932
11629WAT     H147222   1.927   1.480   0.863
11629WAT     H247223   1.804   1.477   0.925
11629WAT    EPW47224   1.878   1.503   0.921
11630WAT      O47225   2.699   2.307   1.212
11630WAT     H147226   2.776   2.331   1.246
11630WAT     H247227   2.708   2.325   1.127
11630WAT    EPW47228   2.712   2.313   1.204
11631WAT      O47229   1.678   2.767   0.253
11631WAT     H147230   1.666   2.684   0.278
11631WAT     H247231   1.641   2.770   0.174
11631WAT    EPW47232   1.671   2.755   0.245
11632WAT      O47233   1.383   3.054   0.631
11632WAT     H147234   1.426   3.049   0.707
11632WAT     H247235   1.428   3.000   0.579
11632WAT    EPW47236   1.396   3.045   0.635
11633WAT      O47237   1.301   0.637   7.472
11633WAT     H147238   1.317   0.654   7.556
11633WAT     H247239   1.218   0.609   7.473
11633WAT    EPW47240   1.291   0.635   7.485
11634WAT      O47241   2.946   0.943   7.198
11634WAT     H147242   3.004   0.886   7.227
11634WAT     H247243   2.894   0.896   7.146
11634WAT    EPW47244   2.947   0.928   7.195
11635WAT      O47245   1.556   0.531   7.001
11635WAT     H147246   1.527   0.483   6.934
11635WAT     H247247   1.563   0.474   7.066
11635WAT    EPW47248   1.553   0.516   7.000
11636WAT      O47249   2.627   0.290   7.487
11636WAT     H147250   2.666   0.284   7.410
11636WAT     H247251   2.581   0.216   7.492
11636WAT    EPW47252   2.626   0.278   7.476
11637WAT      O47253   1.560   0.719   7.398
11637WAT     H147254   1.613   0.685   7.459
11637WAT     H247255   1.484   0.680   7.414
11637WAT    EPW47256   1.557   0.708   7.409
11638WAT      O47257   1.479   1.009   7.008
11638WAT     H147258   1.498   1.004   6.923
11638WAT     H247259   1.500   0.930   7.039
11638WAT    EPW47260   1.485   0.997   7.000
11639WAT      O47261   1.445   0.299   7.569
11639WAT     H147262   1.403   0.289   7.493
11639WAT     H247263   1.462   0.217   7.593
11639WAT    EPW47264   1.441   0.285   7.561
11640WAT      O47265   2.063   0.721   7.670
11640WAT     H147266   2.104   0.648   7.695
11640WAT     H247267   2.127   0.781   7.667
11640WAT    EPW47268   2.079   0.719   7.673
11641WAT      O47269   2.150   0.669   7.317
11641WAT     H147270   2.174   0.597   7.360
11641WAT     H247271   2.173   0.653   7.235
11641WAT    EPW47272   2.157   0.656   7.311
11642WAT      O47273   1.326   1.072   7.623
11642WAT     H147274   1.254   1.110   7.592
11642WAT     H247275   1.363   1.038   7.553
11642WAT    EPW47276   1.321   1.073   7.608
11643WAT      O47277   1.882   0.732   7.336
11643WAT     H147278   1.866   0.756   7.418
11643WAT     H247279   1.968   0.715   7.336
11643WAT    EPW47280   1.893   0.733   7.348
11644WAT      O47281   2.523   1.058   7.089
11644WAT     H147282   2.592   1.110   7.098
11644WAT     H247283   2.551   0.981   7.119
11644WAT    EPW47284   2.537   1.054   7.095
11645WAT      O47285   2.307   1.069   7.257
11645WAT     H147286   2.318   1.139   7.307
11645WAT     H247287   2.375   1.073   7.201
11645WAT    EPW47288   2.319   1.080   7.256
11646WAT      O47289   1.451   0.976   7.392
11646WAT     H147290   1.501   0.906   7.407
11646WAT     H247291   1.503   1.029   7.346
11646WAT    EPW47292   1.466   0.973   7.387
11647WAT      O47293   1.637   0.716   7.773
11647WAT     H147294   1.689   0.765   7.723
11647WAT     H247295   1.647   0.636   7.740
11647WAT    EPW47296   1.646   0.711   7.761
11648WAT      O47297   1.919   1.066   7.546
11648WAT     H147298   1.993   1.111   7.560
11648WAT     H247299   1.860   1.128   7.531
11648WAT    EPW47300   1.921   1.082   7.546
11649WAT      O47301   2.717   1.259   7.074
11649WAT     H147302   2.764   1.234   7.005
11649WAT     H247303   2.772   1.309   7.119
11649WAT    EPW47304   2.732   1.263   7.070
11650WAT      O47305   2.199   0.876   6.908
11650WAT     H147306   2.162   0.930   6.965
11650WAT     H247307   2.273   0.917   6.885
11650WAT    EPW47308   2.205   0.890   6.913
11651WAT      O47309   2.976   1.190   7.491
11651WAT     H147310   2.935   1.267   7.490
11651WAT     H247311   2.915   1.133   7.466
11651WAT    EPW47312   2.961   1.193   7.487
11652WAT      O47313   2.687   0.786   7.492
11652WAT     H147314   2.759   0.737   7.486
11652WAT     H247315   2.622   0.729   7.481
11652WAT    EPW47316   2.688   0.771   7.489
11653WAT      O47317   2.916   0.554   7.034
11653WAT     H147318   2.931   0.517   7.112
11653WAT     H247319   2.996   0.575   7.006
11653WAT    EPW47320   2.930   0.551   7.041
11654WAT      O47321   1.644   0.500   7.587
11654WAT     H147322   1.698   0.478   7.522
11654WAT     H247323   1.582   0.438   7.583
11654WAT    EPW47324   1.643   0.487   7.577
11655WAT      O47325   1.576   1.118   7.742
11655WAT     H147326   1.496   1.112   7.707
11655WAT     H247327   1.623   1.152   7.677
11655WAT    EPW47328   1.571   1.122   7.727
11656WAT      O47329   2.667   0.142   6.965
11656WAT     H147330   2.688   0.218   6.927
11656WAT     H247331   2.590   0.158   7.002
11656WAT    EPW47332   2.659   0.155   6.965
11657WAT      O47333   1.788   0.469   7.343
11657WAT     H147334   1.814   0.552   7.333
11657WAT     H247335   1.854   0.423   7.311
11657WAT    EPW47336   1.801   0.475   7.337
11658WAT      O47337   1.363   0.683   7.739
11658WAT     H147338   1.329   0.752   7.780
11658WAT     H247339   1.449   0.694   7.748
11658WAT    EPW47340   1.371   0.695   7.746
11659WAT      O47341   1.333   0.258   7.308
11659WAT     H147342   1.343   0.172   7.296
11659WAT     H247343   1.405   0.292   7.272
11659WAT    EPW47344   1.345   0.250   7.301
11660WAT      O47345   2.275   0.910   7.648
11660WAT     H147346   2.242   0.990   7.644
11660WAT     H247347   2.303   0.894   7.567
11660WAT    EPW47348   2.274   0.919   7.636
11661WAT      O47349   1.282   0.805   7.253
11661WAT     H147350   1.334   0.866   7.286
11661WAT     H247351   1.274   0.748   7.318
11661WAT    EPW47352   1.288   0.806   7.267
11662WAT      O47353   1.298   0.673   7.004
11662WAT     H147354   1.371   0.626   7.006
11662WAT     H247355   1.298   0.714   7.081
11662WAT    EPW47356   1.309   0.672   7.016
11663WAT      O47357   1.276   0.417   7.759
11663WAT     H147358   1.328   0.377   7.702
11663WAT     H247359   1.307   0.498   7.762
11663WAT    EPW47360   1.288   0.423   7.751
11664WAT      O47361   1.820   0.815   7.590
11664WAT     H147362   1.842   0.899   7.580
11664WAT     H247363   1.891   0.779   7.624
11664WAT    EPW47364   1.834   0.822   7.593
11665WAT      O47365   1.501   0.043   7.673
11665WAT     H147366   1.530   0.053   7.755
11665WAT     H247367   1.505  -0.044   7.661
11665WAT    EPW47368   1.506   0.031   7.683
11666WAT      O47369   2.446   0.258   7.107
11666WAT     H147370   2.402   0.282   7.036
11666WAT     H247371   2.383   0.246   7.166
11666WAT    EPW47372   2.430   0.259   7.105
11667WAT      O47373   2.908   0.622   7.474
11667WAT     H147374   2.917   0.580   7.550
11667WAT     H247375   2.924   0.560   7.415
11667WAT    EPW47376   2.912   0.607   7.476
11668WAT      O47377   2.422   0.682   7.740
11668WAT     H147378   2.390   0.761   7.723
11668WAT     H247379   2.494   0.698   7.787
11668WAT    EPW47380   2.428   0.696   7.745
11669WAT      O47381   1.854   0.985   7.228
11669WAT     H147382   1.866   0.909   7.269
11669WAT     H247383   1.934   1.011   7.209
11669WAT    EPW47384   1.867   0.978   7.231
11670WAT      O47385   2.089   1.045   7.096
11670WAT     H147386   2.156   1.052   7.151
11670WAT     H247387   2.082   1.125   7.062
11670WAT    EPW47388   2.098   1.058   7.099
11671WAT      O47389   1.583   0.344   7.203
11671WAT     H147390   1.630   0.277   7.171
11671WAT     H247391   1.639   0.385   7.255
11671WAT    EPW47392   1.598   0.340   7.206
11672WAT      O47393   2.238   0.236   7.301
11672WAT     H147394   2.247   0.305   7.354
11672WAT     H247395   2.222   0.170   7.357
11672WAT    EPW47396   2.237   0.236   7.317
11673WAT      O47397   2.216   0.497   7.741
11673WAT     H147398   2.205   0.460   7.819
11673WAT     H247399   2.287   0.547   7.751
11673WAT    EPW47400   2.225   0.499   7.754
11674WAT      O47401   1.793   1.110   6.851
11674WAT     H147402   1.809   1.034   6.890
11674WAT     H247403   1.792   1.167   6.917
11674WAT    EPW47404   1.795   1.107   6.866
11675WAT      O47405   3.093   1.128   7.058
11675WAT     H147406   3.170   1.090   7.043
11675WAT     H247407   3.048   1.066   7.101
11675WAT    EPW47408   3.098   1.113   7.062
11676WAT      O47409   1.624   0.141   6.801
11676WAT     H147410   1.609   0.058   6.825
11676WAT     H247411   1.706   0.138   6.770
11676WAT    EPW47412   1.634   0.128   6.800
11677WAT      O47413   2.926   0.512   7.732
11677WAT     H147414   2.940   0.580   7.784
11677WAT     H247415   2.998   0.464   7.741
11677WAT    EPW47416   2.939   0.515   7.741
11678WAT      O47417   3.173   0.895   7.837
11678WAT     H147418   3.175   0.954   7.772
11678WAT     H247419   3.245   0.912   7.883
11678WAT    EPW47420   3.184   0.906   7.834
11679WAT      O47421   2.781   0.793   7.042
11679WAT     H147422   2.816   0.714   7.040
11679WAT     H247423   2.708   0.782   7.087
11679WAT    EPW47424   2.776   0.780   7.048
11680WAT      O47425   2.493   0.584   6.981
11680WAT     H147426   2.559   0.526   6.979
11680WAT     H247427   2.465   0.585   6.898
11680WAT    EPW47428   2.499   0.576   6.968
11681WAT      O47429   2.170   1.191   7.598
11681WAT     H147430   2.140   1.266   7.630
11681WAT     H247431   2.230   1.217   7.539
11681WAT    EPW47432   2.175   1.206   7.594
11682WAT      O47433   2.053   0.444   6.968
11682WAT     H147434   1.981   0.486   6.942
11682WAT     H247435   2.105   0.509   6.995
11682WAT    EPW47436   2.050   0.460   6.968
11683WAT      O47437   2.956   0.424   7.279
11683WAT     H147438   3.025   0.372   7.290
11683WAT     H247439   2.890   0.368   7.267
11683WAT    EPW47440   2.956   0.408   7.279
11684WAT      O47441   2.508   0.563   7.499
11684WAT     H147442   2.492   0.592   7.579
11684WAT     H247443   2.559   0.493   7.512
11684WAT    EPW47444   2.513   0.557   7.513
11685WAT      O47445   2.257   0.457   7.464
11685WAT     H147446   2.231   0.460   7.547
11685WAT     H247447   2.338   0.490   7.467
11685WAT    EPW47448   2.265   0.462   7.476
11686WAT      O47449   2.651   1.197   7.733
11686WAT     H147450   2.590   1.168   7.789
11686WAT     H247451   2.722   1.151   7.754
11686WAT    EPW47452   2.652   1.186   7.744
11687WAT      O47453   2.354   0.837   7.392
11687WAT     H147454   2.338   0.911   7.348
11687WAT     H247455   2.288   0.785   7.371
11687WAT    EPW47456   2.342   0.840   7.383
11688WAT      O47457   1.814   0.863   6.980
11688WAT     H147458   1.863   0.894   7.045
11688WAT     H247459   1.739   0.842   7.018
11688WAT    EPW47460   1.810   0.864   6.995
11689WAT      O47461   2.659   0.425   7.733
11689WAT     H147462   2.743   0.448   7.739
11689WAT     H247463   2.658   0.369   7.665
11689WAT    EPW47464   2.671   0.420   7.724
11690WAT      O47465   2.768   1.030   7.390
11690WAT     H147466   2.737   0.957   7.425
11690WAT     H247467   2.819   1.003   7.325
11690WAT    EPW47468   2.771   1.015   7.386
11691WAT      O47469   1.589   0.779   7.120
11691WAT     H147470   1.593   0.762   7.206
11691WAT     H247471   1.578   0.700   7.085
11691WAT    EPW47472   1.588   0.765   7.128
11692WAT      O47473   1.830   0.597   6.897
11692WAT     H147474   1.751   0.571   6.921
11692WAT     H247475   1.833   0.681   6.922
11692WAT    EPW47476   1.819   0.606   6.904
11693WAT      O47477   2.718   0.273   7.219
11693WAT     H147478   2.737   0.214   7.158
11693WAT     H247479   2.640   0.304   7.195
11693WAT    EPW47480   2.709   0.269   7.207
11694WAT      O47481   1.622   1.127   7.228
11694WAT     H147482   1.579   1.103   7.156
11694WAT     H247483   1.693   1.077   7.228
11694WAT    EPW47484   1.626   1.116   7.217
11695WAT      O47485   1.986   0.326   7.210
11695WAT     H147486   2.004   0.359   7.131
11695WAT     H247487   2.062   0.293   7.236
11695WAT    EPW47488   2.000   0.326   7.202
11696WAT      O47489   2.890   1.181   6.873
11696WAT     H147490   2.959   1.168   6.924
11696WAT     H247491   2.869   1.100   6.846
11696WAT    EPW47492   2.897   1.167   6.877
11697WAT      O47493   2.540   0.790   7.175
11697WAT     H147494   2.497   0.783   7.250
11697WAT     H247495   2.509   0.724   7.127
11697WAT    EPW47496   2.529   0.779   7.179
11698WAT      O47497   1.573   0.937   7.962
11698WAT     H147498   1.598   0.865   7.920
11698WAT     H247499   1.588   1.000   7.903
11698WAT    EPW47500   1.579   0.936   7.947
11699WAT      O47501   2.229   0.639   7.053
11699WAT     H147502   2.309   0.611   7.035
11699WAT     H247503   2.221   0.711   7.005
11699WAT    EPW47504   2.239   0.645   7.043
11700WAT      O47505   1.336   0.554   5.524
11700WAT     H147506   1.330   0.583   5.606
11700WAT     H247507   1.354   0.469   5.534
11700WAT    EPW47508   1.338   0.545   5.538
11701WAT      O47509   2.928   0.937   5.315
11701WAT     H147510   2.992   0.886   5.346
11701WAT     H247511   2.884   0.884   5.261
11701WAT    EPW47512   2.931   0.921   5.312
11702WAT      O47513   1.556   0.523   5.097
11702WAT     H147514   1.524   0.474   5.032
11702WAT     H247515   1.572   0.465   5.160
11702WAT    EPW47516   1.554   0.507   5.097
11703WAT      O47517   2.618   0.289   5.627
11703WAT     H147518   2.643   0.274   5.545
11703WAT     H247519   2.568   0.220   5.646
11703WAT    EPW47520   2.615   0.276   5.618
11704WAT      O47521   1.565   0.704   5.487
11704WAT     H147522   1.614   0.667   5.549
11704WAT     H247523   1.492   0.657   5.488
11704WAT    EPW47524   1.562   0.691   5.497
11705WAT      O47525   1.466   1.007   5.130
11705WAT     H147526   1.483   1.007   5.044
11705WAT     H247527   1.484   0.925   5.154
11705WAT    EPW47528   1.471   0.995   5.121
11706WAT      O47529   1.363   0.779   6.187
11706WAT     H147530   1.384   0.765   6.270
11706WAT     H247531   1.295   0.725   6.174
11706WAT    EPW47532   1.356   0.769   6.197
11707WAT      O47533   1.964   0.638   6.649
11707WAT     H147534   1.931   0.620   6.728
11707WAT     H247535   1.896   0.626   6.595
11707WAT    EPW47536   1.949   0.634   6.653
11708WAT      O47537   1.484   0.334   5.732
11708WAT     H147538   1.470   0.291   5.657
11708WAT     H247539   1.538   0.282   5.776
11708WAT    EPW47540   1.490   0.320   5.727
11709WAT      O47541   1.967   0.917   6.361
11709WAT     H147542   1.986   0.979   6.302
11709WAT     H247543   2.046   0.889   6.387
11709WAT    EPW47544   1.982   0.922   6.356
11710WAT      O47545   2.082   0.740   5.781
11710WAT     H147546   2.103   0.660   5.807
11710WAT     H247547   2.157   0.784   5.782
11710WAT    EPW47548   2.096   0.735   5.785
11711WAT      O47549   2.172   0.688   5.437
11711WAT     H147550   2.194   0.616   5.481
11711WAT     H247551   2.191   0.667   5.354
11711WAT    EPW47552   2.178   0.674   5.431
11712WAT      O47553   1.321   1.053   5.737
11712WAT     H147554   1.255   1.098   5.702
11712WAT     H247555   1.359   1.015   5.668
11712WAT    EPW47556   1.317   1.054   5.722
11713WAT      O47557   1.900   0.722   5.427
11713WAT     H147558   1.875   0.748   5.506
11713WAT     H247559   1.987   0.712   5.435
11713WAT    EPW47560   1.909   0.725   5.440
11714WAT      O47561   2.502   1.050   5.225
11714WAT     H147562   2.571   1.104   5.228
11714WAT     H247563   2.536   0.972   5.246
11714WAT    EPW47564   2.517   1.046   5.228
11715WAT      O47565   2.320   1.106   5.422
11715WAT     H147566   2.341   1.183   5.457
11715WAT     H247567   2.378   1.095   5.358
11715WAT    EPW47568   2.332   1.115   5.418
11716WAT      O47569   1.448   0.954   5.506
11716WAT     H147570   1.498   0.883   5.516
11716WAT     H247571   1.499   1.008   5.460
11716WAT    EPW47572   1.463   0.952   5.500
11717WAT      O47573   2.551   1.108   6.217
11717WAT     H147574   2.621   1.159   6.207
11717WAT     H247575   2.533   1.082   6.135
11717WAT    EPW47576   2.559   1.112   6.203
11718WAT      O47577   1.607   0.794   5.840
11718WAT     H147578   1.671   0.789   5.781
11718WAT     H247579   1.625   0.728   5.895
11718WAT    EPW47580   1.619   0.783   5.839
11719WAT      O47581   1.890   1.072   5.747
11719WAT     H147582   1.969   1.094   5.718
11719WAT     H247583   1.836   1.126   5.704
11719WAT    EPW47584   1.894   1.083   5.737
11720WAT      O47585   2.696   1.249   5.194
11720WAT     H147586   2.746   1.215   5.131
11720WAT     H247587   2.750   1.305   5.234
11720WAT    EPW47588   2.711   1.252   5.191
11721WAT      O47589   1.721   1.177   6.367
11721WAT     H147590   1.774   1.148   6.430
11721WAT     H247591   1.667   1.110   6.353
11721WAT    EPW47592   1.721   1.163   6.374
11722WAT      O47593   2.439   0.862   6.594
11722WAT     H147594   2.436   0.899   6.674
11722WAT     H247595   2.523   0.843   6.584
11722WAT    EPW47596   2.451   0.865   6.605
11723WAT      O47597   2.192   0.888   5.039
11723WAT     H147598   2.166   0.943   5.101
11723WAT     H247599   2.268   0.922   5.011
11723WAT    EPW47600   2.200   0.901   5.044
11724WAT      O47601   1.512   1.021   6.227
11724WAT     H147602   1.463   0.949   6.220
11724WAT     H247603   1.555   1.023   6.151
11724WAT    EPW47604   1.511   1.010   6.215
11725WAT      O47605   2.300   1.172   6.316
11725WAT     H147606   2.379   1.153   6.285
11725WAT     H247607   2.246   1.138   6.256
11725WAT    EPW47608   2.303   1.164   6.302
11726WAT      O47609   2.989   1.183   5.572
11726WAT     H147610   2.950   1.260   5.584
11726WAT     H247611   2.922   1.128   5.559
11726WAT    EPW47612   2.973   1.186   5.572
11727WAT      O47613   2.692   0.788   5.629
11727WAT     H147614   2.759   0.745   5.594
11727WAT     H247615   2.625   0.732   5.622
11727WAT    EPW47616   2.692   0.774   5.623
11728WAT      O47617   1.685   0.887   6.509
11728WAT     H147618   1.763   0.924   6.494
11728WAT     H247619   1.658   0.924   6.583
11728WAT    EPW47620   1.693   0.898   6.518
11729WAT      O47621   1.875   0.411   5.921
11729WAT     H147622   1.895   0.412   6.006
11729WAT     H247623   1.816   0.348   5.913
11729WAT    EPW47624   1.869   0.402   5.932
11730WAT      O47625   1.940   0.459   6.185
11730WAT     H147626   1.923   0.545   6.189
11730WAT     H247627   1.880   0.424   6.238
11730WAT    EPW47628   1.929   0.467   6.193
11731WAT      O47629   2.536   0.571   6.191
11731WAT     H147630   2.485   0.526   6.246
11731WAT     H247631   2.518   0.655   6.210
11731WAT    EPW47632   2.526   0.577   6.202
11732WAT      O47633   1.219   0.801   6.765
11732WAT     H147634   1.254   0.776   6.841
11732WAT     H247635   1.192   0.727   6.729
11732WAT    EPW47636   1.220   0.786   6.771
11733WAT      O47637   2.921   0.511   5.121
11733WAT     H147638   2.919   0.481   5.203
11733WAT     H247639   2.999   0.550   5.116
11733WAT    EPW47640   2.933   0.512   5.132
11734WAT      O47641   1.674   0.533   5.680
11734WAT     H147642   1.726   0.494   5.622
11734WAT     H247643   1.614   0.472   5.698
11734WAT    EPW47644   1.673   0.519   5.674
11735WAT      O47645   1.534   1.211   5.814
11735WAT     H147646   1.459   1.173   5.790
11735WAT     H247647   1.580   1.214   5.740
11735WAT    EPW47648   1.530   1.206   5.799
11736WAT      O47649   3.102   0.973   6.541
11736WAT     H147650   3.025   0.972   6.500
11736WAT     H247651   3.087   0.928   6.614
11736WAT    EPW47652   3.088   0.966   6.546
11737WAT      O47653   2.638   0.126   5.069
11737WAT     H147654   2.665   0.200   5.031
11737WAT     H247655   2.563   0.148   5.106
11737WAT    EPW47656   2.631   0.140   5.069
11738WAT      O47657   1.812   0.459   5.447
11738WAT     H147658   1.838   0.541   5.431
11738WAT     H247659   1.875   0.411   5.411
11738WAT    EPW47660   1.825   0.464   5.439
11739WAT      O47661   1.355   0.700   5.769
11739WAT     H147662   1.305   0.758   5.811
11739WAT     H247663   1.436   0.730   5.782
11739WAT    EPW47664   1.359   0.713   5.777
11740WAT      O47665   1.410   0.269   5.470
11740WAT     H147666   1.386   0.189   5.447
11740WAT     H247667   1.472   0.290   5.412
11740WAT    EPW47668   1.416   0.261   5.458
11741WAT      O47669   2.304   0.912   5.767
11741WAT     H147670   2.258   0.982   5.745
11741WAT     H247671   2.342   0.887   5.693
11741WAT    EPW47672   2.303   0.918   5.753
11742WAT      O47673   1.268   0.787   5.366
11742WAT     H147674   1.321   0.841   5.410
11742WAT     H247675   1.253   0.722   5.423
11742WAT    EPW47676   1.274   0.786   5.381
11743WAT      O47677   1.682   0.595   6.015
11743WAT     H147678   1.731   0.639   6.072
11743WAT     H247679   1.740   0.551   5.967
11743WAT    EPW47680   1.697   0.595   6.016
11744WAT      O47681   1.290   0.672   5.109
11744WAT     H147682   1.361   0.621   5.111
11744WAT     H247683   1.288   0.708   5.189
11744WAT    EPW47684   1.301   0.670   5.121
11745WAT      O47685   1.303   0.464   5.898
11745WAT     H147686   1.346   0.412   5.843
11745WAT     H247687   1.323   0.545   5.871
11745WAT    EPW47688   1.312   0.469   5.886
11746WAT      O47689   2.854   0.982   6.397
11746WAT     H147690   2.813   1.059   6.406
11746WAT     H247691   2.855   0.969   6.311
11746WAT    EPW47692   2.848   0.991   6.385
11747WAT      O47693   1.834   0.814   5.675
11747WAT     H147694   1.846   0.899   5.690
11747WAT     H247695   1.905   0.777   5.712
11747WAT    EPW47696   1.846   0.821   5.683
11748WAT      O47697   1.656   0.232   5.931
11748WAT     H147698   1.607   0.276   5.988
11748WAT     H247699   1.671   0.156   5.971
11748WAT    EPW47700   1.651   0.228   5.946
11749WAT      O47701   2.086   1.085   6.156
11749WAT     H147702   2.063   1.022   6.100
11749WAT     H247703   2.073   1.158   6.110
11749WAT    EPW47704   2.081   1.086   6.141
11750WAT      O47705   1.462   0.368   6.803
11750WAT     H147706   1.474   0.410   6.728
11750WAT     H247707   1.512   0.297   6.795
11750WAT    EPW47708   1.471   0.364   6.791
11751WAT      O47709   2.663   0.529   6.626
11751WAT     H147710   2.691   0.610   6.612
11751WAT     H247711   2.702   0.483   6.563
11751WAT    EPW47712   2.673   0.534   6.615
11752WAT      O47713   2.063   0.902   6.667
11752WAT     H147714   2.102   0.894   6.745
11752WAT     H247715   2.029   0.822   6.654
11752WAT    EPW47716   2.064   0.889   6.677
11753WAT      O47717   2.428   0.258   5.216
11753WAT     H147718   2.386   0.285   5.144
11753WAT     H247719   2.365   0.250   5.275
11753WAT    EPW47720   2.413   0.260   5.214
11754WAT      O47721   2.910   0.648   5.541
11754WAT     H147722   2.929   0.614   5.619
11754WAT     H247723   2.906   0.578   5.489
11754WAT    EPW47724   2.912   0.632   5.545
11755WAT      O47725   2.482   0.983   5.971
11755WAT     H147726   2.425   0.958   5.910
11755WAT     H247727   2.529   1.045   5.931
11755WAT    EPW47728   2.480   0.989   5.956
11756WAT      O47729   2.489   0.624   5.920
11756WAT     H147730   2.412   0.664   5.934
11756WAT     H247731   2.505   0.582   5.995
11756WAT    EPW47732   2.480   0.623   5.933
11757WAT      O47733   1.870   0.974   5.323
11757WAT     H147734   1.883   0.896   5.359
11757WAT     H247735   1.950   1.005   5.309
11757WAT    EPW47736   1.884   0.967   5.326
11758WAT      O47737   2.116   1.065   5.238
11758WAT     H147738   2.178   1.081   5.297
11758WAT     H247739   2.103   1.143   5.200
11758WAT    EPW47740   2.123   1.079   5.241
11759WAT      O47741   2.796   0.396   6.415
11759WAT     H147742   2.783   0.401   6.329
11759WAT     H247743   2.880   0.418   6.425
11759WAT    EPW47744   2.806   0.400   6.404
11760WAT      O47745   2.431   1.013   6.832
11760WAT     H147746   2.467   1.029   6.910
11760WAT     H247747   2.455   1.081   6.783
11760WAT    EPW47748   2.440   1.025   6.836
11761WAT      O47749   1.618   0.337   5.295
11761WAT     H147750   1.664   0.273   5.259
11761WAT     H247751   1.675   0.379   5.345
11761WAT    EPW47752   1.633   0.334   5.297
11762WAT      O47753   2.357   0.428   6.352
11762WAT     H147754   2.308   0.474   6.407
11762WAT     H247755   2.395   0.368   6.403
11762WAT    EPW47756   2.355   0.426   6.367
11763WAT      O47757   2.234   0.248   5.422
11763WAT     H147758   2.245   0.318   5.473
11763WAT     H247759   2.222   0.183   5.480
11763WAT    EPW47760   2.234   0.249   5.438
11764WAT      O47761   2.742   0.751   5.903
11764WAT     H147762   2.735   0.780   5.821
11764WAT     H247763   2.664   0.715   5.919
11764WAT    EPW47764   2.730   0.750   5.893
11765WAT      O47765   2.135   0.468   5.834
11765WAT     H147766   2.052   0.444   5.847
11765WAT     H247767   2.173   0.452   5.911
11765WAT    EPW47768   2.128   0.462   5.848
11766WAT      O47769   1.780   1.126   4.961
11766WAT     H147770   1.798   1.048   4.996
11766WAT     H247771   1.784   1.180   5.029
11766WAT    EPW47772   1.783   1.122   4.976
11767WAT      O47773   1.495   0.403   6.087
11767WAT     H147774   1.551   0.469   6.075
11767WAT     H247775   1.427   0.424   6.037
11767WAT    EPW47776   1.493   0.416   6.078
11768WAT      O47777   3.092   1.097   5.161
11768WAT     H147778   3.156   1.048   5.128
11768WAT     H247779   3.047   1.040   5.210
11768WAT    EPW47780   3.095   1.081   5.163
11769WAT      O47781   2.782   0.458   6.137
11769WAT     H147782   2.770   0.415   6.062
11769WAT     H247783   2.705   0.496   6.151
11769WAT    EPW47784   2.769   0.457   6.128
11770WAT      O47785   1.618   0.136   4.901
11770WAT     H147786   1.604   0.054   4.928
11770WAT     H247787   1.696   0.131   4.861
11770WAT    EPW47788   1.628   0.123   4.899
11771WAT      O47789   1.484   0.522   6.572
11771WAT     H147790   1.466   0.471   6.503
11771WAT     H247791   1.448   0.599   6.551
11771WAT    EPW47792   1.476   0.526   6.559
11772WAT      O47793   2.931   0.554   5.805
11772WAT     H147794   2.894   0.617   5.853
11772WAT     H247795   3.003   0.534   5.849
11772WAT    EPW47796   2.936   0.561   5.819
11773WAT      O47797   3.111   0.900   5.936
11773WAT     H147798   3.137   0.960   5.878
11773WAT     H247799   3.175   0.899   5.995
11773WAT    EPW47800   3.124   0.908   5.936
11774WAT      O47801   2.795   0.763   5.150
11774WAT     H147802   2.826   0.681   5.144
11774WAT     H247803   2.721   0.754   5.195
11774WAT    EPW47804   2.789   0.749   5.156
11775WAT      O47805   3.055   0.356   6.805
11775WAT     H147806   3.035   0.271   6.805
11775WAT     H247807   3.143   0.355   6.810
11775WAT    EPW47808   3.065   0.343   6.806
11776WAT      O47809   3.059   0.500   6.400
11776WAT     H147810   3.134   0.462   6.376
11776WAT     H247811   3.041   0.553   6.333
11776WAT    EPW47812   3.067   0.502   6.387
11777WAT      O47813   2.486   0.588   5.086
11777WAT     H147814   2.545   0.523   5.083
11777WAT     H247815   2.459   0.594   5.003
11777WAT    EPW47816   2.491   0.579   5.073
11778WAT      O47817   1.873   0.731   6.170
11778WAT     H147818   1.888   0.779   6.241
11778WAT     H247819   1.901   0.783   6.105
11778WAT    EPW47820   1.880   0.746   6.171
11779WAT      O47821   1.734   0.614   6.499
11779WAT     H147822   1.660   0.586   6.536
11779WAT     H247823   1.722   0.700   6.491
11779WAT    EPW47824   1.721   0.622   6.503
11780WAT      O47825   2.207   0.449   6.112
11780WAT     H147826   2.256   0.427   6.181
11780WAT     H247827   2.125   0.442   6.143
11780WAT    EPW47828   2.202   0.445   6.127
11781WAT      O47829   2.154   1.130   5.669
11781WAT     H147830   2.154   1.214   5.692
11781WAT     H247831   2.190   1.131   5.589
11781WAT    EPW47832   2.159   1.142   5.660
11782WAT      O47833   1.969   0.907   5.975
11782WAT     H147834   1.929   0.961   5.920
11782WAT     H247835   2.015   0.854   5.923
11782WAT    EPW47836   1.970   0.907   5.960
11783WAT      O47837   2.401   0.530   6.723
11783WAT     H147838   2.478   0.530   6.683
11783WAT     H247839   2.347   0.562   6.663
11783WAT    EPW47840   2.404   0.535   6.708
11784WAT      O47841   2.712   0.810   6.575
11784WAT     H147842   2.744   0.844   6.649
11784WAT     H247843   2.754   0.853   6.512
11784WAT    EPW47844   2.723   0.821   6.577
11785WAT      O47845   2.051   0.453   5.080
11785WAT     H147846   1.980   0.495   5.052
11785WAT     H247847   2.103   0.516   5.110
11785WAT    EPW47848   2.048   0.468   5.080
11786WAT      O47849   2.214   1.125   6.576
11786WAT     H147850   2.231   1.124   6.490
11786WAT     H247851   2.179   1.046   6.590
11786WAT    EPW47852   2.211   1.113   6.565
11787WAT      O47853   2.900   0.415   5.381
11787WAT     H147854   2.961   0.360   5.411
11787WAT     H247855   2.828   0.365   5.375
11787WAT    EPW47856   2.898   0.399   5.384
11788WAT      O47857   2.211   0.591   6.523
11788WAT     H147858   2.134   0.593   6.564
11788WAT     H247859   2.217   0.670   6.487
11788WAT    EPW47860   2.201   0.603   6.524
11789WAT      O47861   1.787   1.237   6.099
11789WAT     H147862   1.768   1.227   6.184
11789WAT     H247863   1.754   1.166   6.062
11789WAT    EPW47864   1.779   1.225   6.106
11790WAT      O47865   2.517   0.554   5.653
11790WAT     H147866   2.512   0.569   5.738
11790WAT     H247867   2.559   0.477   5.648
11790WAT    EPW47868   2.523   0.545   5.665
11791WAT      O47869   2.262   0.471   5.585
11791WAT     H147870   2.221   0.468   5.662
11791WAT     H247871   2.342   0.499   5.605
11791WAT    EPW47872   2.268   0.475   5.599
11792WAT      O47873   2.240   0.842   6.407
11792WAT     H147874   2.296   0.856   6.472
11792WAT     H247875   2.290   0.846   6.336
11792WAT    EPW47876   2.256   0.845   6.406
11793WAT      O47877   1.402   1.195   6.594
11793WAT     H147878   1.345   1.130   6.580
11793WAT     H247879   1.352   1.260   6.625
11793WAT    EPW47880   1.386   1.195   6.596
11794WAT      O47881   2.295   0.322   6.882
11794WAT     H147882   2.328   0.382   6.827
11794WAT     H247883   2.214   0.350   6.897
11794WAT    EPW47884   2.288   0.335   6.876
11795WAT      O47885   2.622   1.218   5.903
11795WAT     H147886   2.565   1.281   5.925
11795WAT     H247887   2.687   1.228   5.960
11795WAT    EPW47888   2.623   1.229   5.914
11796WAT      O47889   2.250   0.712   6.038
11796WAT     H147890   2.232   0.632   6.067
11796WAT     H247891   2.288   0.750   6.107
11796WAT    EPW47892   2.253   0.706   6.053
11797WAT      O47893   2.829   0.921   6.802
11797WAT     H147894   2.908   0.887   6.793
11797WAT     H247895   2.799   0.882   6.875
11797WAT    EPW47896   2.836   0.910   6.812
11798WAT      O47897   2.385   0.846   5.508
11798WAT     H147898   2.365   0.927   5.482
11798WAT     H247899   2.313   0.800   5.488
11798WAT    EPW47900   2.371   0.851   5.501
11799WAT      O47901   1.438   0.355   6.349
11799WAT     H147902   1.450   0.373   6.265
11799WAT     H247903   1.418   0.270   6.349
11799WAT    EPW47904   1.437   0.345   6.337
11800WAT      O47905   1.799   0.872   5.078
11800WAT     H147906   1.843   0.899   5.149
11800WAT     H247907   1.723   0.846   5.110
11800WAT    EPW47908   1.794   0.872   5.093
11801WAT      O47909   1.731   0.380   6.349
11801WAT     H147910   1.738   0.453   6.396
11801WAT     H247911   1.645   0.364   6.350
11801WAT    EPW47912   1.720   0.388   6.356
11802WAT      O47913   2.747   0.361   5.874
11802WAT     H147914   2.807   0.418   5.845
11802WAT     H247915   2.710   0.330   5.801
11802WAT    EPW47916   2.750   0.365   5.859
11803WAT      O47917   2.757   1.033   5.513
11803WAT     H147918   2.729   0.961   5.553
11803WAT     H247919   2.801   1.004   5.444
11803WAT    EPW47920   2.759   1.018   5.509
11804WAT      O47921   1.582   0.770   5.216
11804WAT     H147922   1.588   0.752   5.301
11804WAT     H247923   1.571   0.692   5.178
11804WAT    EPW47924   1.582   0.756   5.223
11805WAT      O47925   1.831   0.604   5.001
11805WAT     H147926   1.750   0.576   5.020
11805WAT     H247927   1.828   0.688   5.024
11805WAT    EPW47928   1.818   0.612   5.007
11806WAT      O47929   2.446   0.839   6.209
11806WAT     H147930   2.492   0.893   6.260
11806WAT     H247931   2.458   0.872   6.129
11806WAT    EPW47932   2.455   0.852   6.205
11807WAT      O47933   2.484   1.201   6.628
11807WAT     H147934   2.412   1.161   6.599
11807WAT     H247935   2.457   1.282   6.645
11807WAT    EPW47936   2.469   1.207   6.626
11808WAT      O47937   2.988   0.646   6.173
11808WAT     H147938   2.928   0.586   6.153
11808WAT     H247939   2.947   0.721   6.160
11808WAT    EPW47940   2.973   0.648   6.168
11809WAT      O47941   1.878   1.107   6.587
11809WAT     H147942   1.857   1.119   6.671
11809WAT     H247943   1.941   1.047   6.591
11809WAT    EPW47944   1.884   1.100   6.600
11810WAT      O47945   2.879   0.893   6.106
11810WAT     H147946   2.949   0.912   6.057
11810WAT     H247947   2.822   0.861   6.049
11810WAT    EPW47948   2.881   0.891   6.090
11811WAT      O47949   1.564   1.014   6.736
11811WAT     H147950   1.634   1.056   6.767
11811WAT     H247951   1.518   1.077   6.696
11811WAT    EPW47952   1.568   1.030   6.734
11812WAT      O47953   1.430   0.777   6.456
11812WAT     H147954   1.373   0.836   6.484
11812WAT     H247955   1.507   0.817   6.462
11812WAT    EPW47956   1.433   0.791   6.461
11813WAT      O47957   2.677   0.246   5.350
11813WAT     H147958   2.705   0.181   5.300
11813WAT     H247959   2.602   0.270   5.313
11813WAT    EPW47960   2.670   0.240   5.337
11814WAT      O47961   1.628   1.108   5.340
11814WAT     H147962   1.581   1.086   5.270
11814WAT     H247963   1.700   1.058   5.333
11814WAT    EPW47964   1.632   1.097   5.329
11815WAT      O47965   1.986   0.303   5.303
11815WAT     H147966   2.006   0.344   5.229
11815WAT     H247967   2.064   0.281   5.336
11815WAT    EPW47968   2.001   0.306   5.297
11816WAT      O47969   2.870   1.150   5.006
11816WAT     H147970   2.944   1.133   5.049
11816WAT     H247971   2.847   1.072   4.973
11816WAT    EPW47972   2.878   1.136   5.007
11817WAT      O47973   2.990   0.581   6.657
11817WAT     H147974   3.003   0.508   6.704
11817WAT     H247975   3.014   0.558   6.577
11817WAT    EPW47976   2.995   0.567   6.652
11818WAT      O47977   2.556   0.782   5.287
11818WAT     H147978   2.511   0.781   5.363
11818WAT     H247979   2.515   0.722   5.239
11818WAT    EPW47980   2.543   0.773   5.291
11819WAT      O47981   2.713   0.416   6.889
11819WAT     H147982   2.785   0.453   6.922
11819WAT     H247983   2.709   0.448   6.808
11819WAT    EPW47984   2.723   0.426   6.882
11820WAT      O47985   1.642   1.027   5.984
11820WAT     H147986   1.637   0.951   5.941
11820WAT     H247987   1.606   1.084   5.929
11820WAT    EPW47988   1.636   1.024   5.970
11821WAT      O47989   2.227   0.644   5.170
11821WAT     H147990   2.307   0.617   5.146
11821WAT     H247991   2.217   0.718   5.125
11821WAT    EPW47992   2.238   0.651   5.160
11822WAT      O47993   1.400   1.258   6.322
11822WAT     H147994   1.408   1.240   6.407
11822WAT     H247995   1.432   1.187   6.283
11822WAT    EPW47996   1.406   1.245   6.328
11823WAT      O47997   1.279   0.668   3.654
11823WAT     H147998   1.293   0.689   3.738
11823WAT     H247999   1.198   0.637   3.654
11823WAT    EPW48000   1.269   0.667   3.667
11824WAT      O48001   2.954   0.966   3.431
11824WAT     H148002   3.017   0.907   3.447
11824WAT     H248003   2.902   0.926   3.375
11824WAT    EPW48004   2.956   0.952   3.425
11825WAT      O48005   1.557   0.540   3.206
11825WAT     H148006   1.524   0.492   3.141
11825WAT     H248007   1.563   0.483   3.272
11825WAT    EPW48008   1.553   0.524   3.206
11826WAT      O48009   2.621   0.266   3.735
11826WAT     H148010   2.643   0.255   3.651
11826WAT     H248011   2.567   0.200   3.751
11826WAT    EPW48012   2.617   0.255   3.725
11827WAT      O48013   1.545   0.715   3.587
11827WAT     H148014   1.592   0.670   3.645
11827WAT     H248015   1.464   0.687   3.600
11827WAT    EPW48016   1.540   0.704   3.597
11828WAT      O48017   1.410   0.950   3.153
11828WAT     H148018   1.466   0.967   3.088
11828WAT     H248019   1.457   0.904   3.209
11828WAT    EPW48020   1.425   0.946   3.151
11829WAT      O48021   1.369   0.798   4.307
11829WAT     H148022   1.382   0.779   4.391
11829WAT     H248023   1.306   0.743   4.283
11829WAT    EPW48024   1.361   0.787   4.316
11830WAT      O48025   1.970   0.646   4.756
11830WAT     H148026   1.936   0.625   4.834
11830WAT     H248027   1.903   0.633   4.701
11830WAT    EPW48028   1.955   0.641   4.759
11831WAT      O48029   1.458   0.353   3.786
11831WAT     H148030   1.423   0.315   3.716
11831WAT     H248031   1.508   0.290   3.821
11831WAT    EPW48032   1.460   0.338   3.781
11832WAT      O48033   1.936   0.877   4.492
11832WAT     H148034   1.917   0.955   4.458
11832WAT     H248035   2.023   0.880   4.502
11832WAT    EPW48036   1.946   0.889   4.488
11833WAT      O48037   2.087   0.765   3.900
11833WAT     H148038   2.110   0.683   3.919
11833WAT     H248039   2.163   0.808   3.896
11833WAT    EPW48040   2.101   0.759   3.902
11834WAT      O48041   2.170   0.683   3.537
11834WAT     H148042   2.199   0.614   3.583
11834WAT     H248043   2.192   0.664   3.455
11834WAT    EPW48044   2.177   0.670   3.532
11835WAT      O48045   1.324   1.063   3.831
11835WAT     H148046   1.256   1.100   3.790
11835WAT     H248047   1.372   1.031   3.765
11835WAT    EPW48048   1.321   1.064   3.815
11836WAT      O48049   1.907   0.758   3.514
11836WAT     H148050   1.878   0.772   3.595
11836WAT     H248051   1.989   0.731   3.526
11836WAT    EPW48052   1.915   0.756   3.528
11837WAT      O48053   2.508   1.061   3.299
11837WAT     H148054   2.579   1.111   3.303
11837WAT     H248055   2.536   0.983   3.325
11837WAT    EPW48056   2.523   1.057   3.303
11838WAT      O48057   2.317   1.090   3.493
11838WAT     H148058   2.324   1.164   3.539
11838WAT     H248059   2.380   1.096   3.434
11838WAT    EPW48060   2.327   1.102   3.491
11839WAT      O48061   1.480   0.985   3.607
11839WAT     H148062   1.514   0.905   3.615
11839WAT     H248063   1.542   1.030   3.566
11839WAT    EPW48064   1.494   0.979   3.602
11840WAT      O48065   2.545   1.113   4.315
11840WAT     H148066   2.609   1.170   4.300
11840WAT     H248067   2.525   1.084   4.235
11840WAT    EPW48068   2.552   1.117   4.301
11841WAT      O48069   1.614   0.805   3.935
11841WAT     H148070   1.675   0.798   3.873
11841WAT     H248071   1.630   0.737   3.987
11841WAT    EPW48072   1.625   0.794   3.933
11842WAT      O48073   1.876   1.082   3.881
11842WAT     H148074   1.956   1.100   3.850
11842WAT     H248075   1.825   1.141   3.842
11842WAT    EPW48076   1.880   1.093   3.870
11843WAT      O48077   2.718   1.239   3.294
11843WAT     H148078   2.781   1.225   3.235
11843WAT     H248079   2.762   1.269   3.364
11843WAT    EPW48080   2.734   1.241   3.296
11844WAT      O48081   1.800   1.122   4.429
11844WAT     H148082   1.809   1.133   4.515
11844WAT     H248083   1.720   1.088   4.421
11844WAT    EPW48084   1.789   1.119   4.440
11845WAT      O48085   2.432   0.871   4.707
11845WAT     H148086   2.433   0.899   4.789
11845WAT     H248087   2.516   0.850   4.692
11845WAT    EPW48088   2.445   0.872   4.717
11846WAT      O48089   2.194   0.886   3.124
11846WAT     H148090   2.162   0.943   3.181
11846WAT     H248091   2.268   0.922   3.097
11846WAT    EPW48092   2.200   0.900   3.129
11847WAT      O48093   1.539   1.028   4.343
11847WAT     H148094   1.491   0.955   4.344
11847WAT     H248095   1.570   1.032   4.262
11847WAT    EPW48096   1.537   1.018   4.331
11848WAT      O48097   2.302   1.145   4.441
11848WAT     H148098   2.381   1.139   4.403
11848WAT     H248099   2.246   1.143   4.374
11848WAT    EPW48100   2.306   1.144   4.425
11849WAT      O48101   2.750   0.738   3.725
11849WAT     H148102   2.814   0.691   3.689
11849WAT     H248103   2.681   0.685   3.722
11849WAT    EPW48104   2.749   0.723   3.719
11850WAT      O48105   1.667   0.881   4.650
11850WAT     H148106   1.744   0.922   4.636
11850WAT     H248107   1.636   0.920   4.722
11850WAT    EPW48108   1.674   0.893   4.659
11851WAT      O48109   1.873   0.419   3.998
11851WAT     H148110   1.888   0.412   4.083
11851WAT     H248111   1.811   0.360   3.983
11851WAT    EPW48112   1.866   0.409   4.008
11852WAT      O48113   1.933   0.456   4.266
11852WAT     H148114   1.917   0.541   4.272
11852WAT     H248115   1.877   0.421   4.323
11852WAT    EPW48116   1.922   0.463   4.276
11853WAT      O48117   2.552   0.543   4.296
11853WAT     H148118   2.492   0.507   4.348
11853WAT     H248119   2.544   0.628   4.313
11853WAT    EPW48120   2.542   0.550   4.306
11854WAT      O48121   1.218   0.815   4.876
11854WAT     H148122   1.250   0.785   4.952
11854WAT     H248123   1.196   0.743   4.833
11854WAT    EPW48124   1.219   0.800   4.881
11855WAT      O48125   2.907   0.570   3.236
11855WAT     H148126   2.913   0.517   3.305
11855WAT     H248127   2.987   0.568   3.202
11855WAT    EPW48128   2.920   0.562   3.241
11856WAT      O48129   1.662   0.544   3.767
11856WAT     H148130   1.715   0.510   3.707
11856WAT     H248131   1.599   0.485   3.774
11856WAT    EPW48132   1.661   0.530   3.759
11857WAT      O48133   1.520   1.229   3.927
11857WAT     H148134   1.449   1.190   3.895
11857WAT     H248135   1.572   1.237   3.857
11857WAT    EPW48136   1.517   1.224   3.912
11858WAT      O48137   3.118   0.998   4.639
11858WAT     H148138   3.039   1.003   4.602
11858WAT     H248139   3.103   0.958   4.715
11858WAT    EPW48140   3.104   0.993   4.645
11859WAT      O48141   2.646   0.145   3.165
11859WAT     H148142   2.673   0.222   3.135
11859WAT     H248143   2.567   0.163   3.198
11859WAT    EPW48144   2.638   0.159   3.166
11860WAT      O48145   1.795   0.494   3.523
11860WAT     H148146   1.825   0.574   3.509
11860WAT     H248147   1.859   0.442   3.496
11860WAT    EPW48148   1.809   0.498   3.517
11861WAT      O48149   1.346   0.731   3.914
11861WAT     H148150   1.306   0.791   3.961
11861WAT     H248151   1.430   0.756   3.916
11861WAT    EPW48152   1.353   0.743   3.921
11862WAT      O48153   1.344   0.262   3.540
11862WAT     H148154   1.346   0.177   3.518
11862WAT     H248155   1.409   0.296   3.494
11862WAT    EPW48156   1.354   0.254   3.530
11863WAT      O48157   2.309   0.936   3.860
11863WAT     H148158   2.257   1.001   3.833
11863WAT     H248159   2.342   0.905   3.785
11863WAT    EPW48160   2.306   0.941   3.845
11864WAT      O48161   1.284   0.852   3.453
11864WAT     H148162   1.342   0.908   3.486
11864WAT     H248163   1.274   0.793   3.516
11864WAT    EPW48164   1.291   0.851   3.467
11865WAT      O48165   1.678   0.597   4.102
11865WAT     H148166   1.728   0.638   4.162
11865WAT     H248167   1.737   0.556   4.052
11865WAT    EPW48168   1.694   0.597   4.104
11866WAT      O48169   1.287   0.657   3.240
11866WAT     H148170   1.367   0.625   3.231
11866WAT     H248171   1.296   0.722   3.297
11866WAT    EPW48172   1.300   0.662   3.247
11867WAT      O48173   1.298   0.469   3.982
11867WAT     H148174   1.339   0.430   3.915
11867WAT     H248175   1.315   0.554   3.969
11867WAT    EPW48176   1.307   0.476   3.970
11868WAT      O48177   2.850   1.022   4.535
11868WAT     H148178   2.809   1.092   4.566
11868WAT     H248179   2.838   1.027   4.449
11868WAT    EPW48180   2.842   1.033   4.527
11869WAT      O48181   1.846   0.829   3.772
11869WAT     H148182   1.848   0.913   3.798
11869WAT     H248183   1.915   0.794   3.812
11869WAT    EPW48184   1.856   0.836   3.782
11870WAT      O48185   1.644   0.246   3.984
11870WAT     H148186   1.596   0.286   4.044
11870WAT     H248187   1.657   0.166   4.017
11870WAT    EPW48188   1.639   0.240   3.998
11871WAT      O48189   2.103   1.120   4.257
11871WAT     H148190   2.066   1.052   4.217
11871WAT     H248191   2.097   1.184   4.198
11871WAT    EPW48192   2.096   1.119   4.242
11872WAT      O48193   1.453   0.361   4.902
11872WAT     H148194   1.466   0.401   4.826
11872WAT     H248195   1.502   0.289   4.896
11872WAT    EPW48196   1.462   0.356   4.890
11873WAT      O48197   2.660   0.532   4.734
11873WAT     H148198   2.681   0.614   4.714
11873WAT     H248199   2.699   0.484   4.673
11873WAT    EPW48200   2.669   0.537   4.722
11874WAT      O48201   2.055   0.913   4.796
11874WAT     H148202   2.090   0.903   4.875
11874WAT     H248203   2.028   0.833   4.775
11874WAT    EPW48204   2.056   0.900   4.805
11875WAT      O48205   2.422   0.261   3.316
11875WAT     H148206   2.380   0.288   3.244
11875WAT     H248207   2.359   0.257   3.376
11875WAT    EPW48208   2.406   0.264   3.314
11876WAT      O48209   2.959   0.569   3.649
11876WAT     H148210   2.952   0.534   3.729
11876WAT     H248211   2.932   0.506   3.596
11876WAT    EPW48212   2.954   0.555   3.653
11877WAT      O48213   2.498   0.977   4.069
11877WAT     H148214   2.433   0.959   4.014
11877WAT     H248215   2.546   1.036   4.025
11877WAT    EPW48216   2.495   0.983   4.054
11878WAT      O48217   2.536   0.626   4.029
11878WAT     H148218   2.461   0.669   4.040
11878WAT     H248219   2.543   0.578   4.101
11878WAT    EPW48220   2.526   0.625   4.041
11879WAT      O48221   1.964   1.036   3.537
11879WAT     H148222   1.955   0.949   3.538
11879WAT     H248223   2.006   1.051   3.462
11879WAT    EPW48224   1.969   1.025   3.526
11880WAT      O48225   2.114   1.074   3.310
11880WAT     H148226   2.182   1.082   3.364
11880WAT     H248227   2.109   1.152   3.272
11880WAT    EPW48228   2.124   1.086   3.313
11881WAT      O48229   2.802   0.403   4.531
11881WAT     H148230   2.792   0.386   4.446
11881WAT     H248231   2.879   0.445   4.535
11881WAT    EPW48232   2.812   0.407   4.519
11882WAT      O48233   2.433   1.003   4.959
11882WAT     H148234   2.461   1.020   5.040
11882WAT     H248235   2.456   1.075   4.915
11882WAT    EPW48236   2.440   1.016   4.965
11883WAT      O48237   1.582   0.353   3.410
11883WAT     H148238   1.627   0.287   3.375
11883WAT     H248239   1.642   0.397   3.455
11883WAT    EPW48240   1.597   0.350   3.412
11884WAT      O48241   2.346   0.432   4.451
11884WAT     H148242   2.302   0.485   4.503
11884WAT     H248243   2.367   0.365   4.503
11884WAT    EPW48244   2.342   0.430   4.466
11885WAT      O48245   2.233   0.262   3.528
11885WAT     H148246   2.250   0.330   3.579
11885WAT     H248247   2.216   0.198   3.584
11885WAT    EPW48248   2.233   0.263   3.543
11886WAT      O48249   2.796   0.741   3.999
11886WAT     H148250   2.789   0.750   3.913
11886WAT     H248251   2.716   0.717   4.024
11886WAT    EPW48252   2.783   0.739   3.990
11887WAT      O48253   2.138   0.489   3.933
11887WAT     H148254   2.055   0.463   3.940
11887WAT     H248255   2.171   0.474   4.012
11887WAT    EPW48256   2.130   0.483   3.946
11888WAT      O48257   1.798   1.103   3.104
11888WAT     H148258   1.822   1.030   3.145
11888WAT     H248259   1.804   1.165   3.166
11888WAT    EPW48260   1.802   1.102   3.119
11889WAT      O48261   1.494   0.400   4.164
11889WAT     H148262   1.548   0.468   4.153
11889WAT     H248263   1.425   0.421   4.115
11889WAT    EPW48264   1.492   0.413   4.155
11890WAT      O48265   3.120   1.132   3.282
11890WAT     H148266   3.188   1.084   3.256
11890WAT     H248267   3.072   1.076   3.328
11890WAT    EPW48268   3.123   1.117   3.285
11891WAT      O48269   2.791   0.419   4.245
11891WAT     H148270   2.777   0.371   4.174
11891WAT     H248271   2.714   0.456   4.261
11891WAT    EPW48272   2.778   0.418   4.237
11892WAT      O48273   1.610   0.142   3.010
11892WAT     H148274   1.596   0.059   3.033
11892WAT     H248275   1.685   0.138   2.965
11892WAT    EPW48276   1.619   0.129   3.006
11893WAT      O48277   1.483   0.512   4.669
11893WAT     H148278   1.467   0.466   4.597
11893WAT     H248279   1.443   0.588   4.655
11893WAT    EPW48280   1.475   0.517   4.656
11894WAT      O48281   2.939   0.503   3.916
11894WAT     H148282   2.906   0.574   3.954
11894WAT     H248283   3.022   0.503   3.941
11894WAT    EPW48284   2.946   0.513   3.925
11895WAT      O48285   3.177   0.963   4.063
11895WAT     H148286   3.250   1.011   4.063
11895WAT     H248287   3.184   0.915   4.136
11895WAT    EPW48288   3.188   0.963   4.074
11896WAT      O48289   2.798   0.823   3.259
11896WAT     H148290   2.832   0.743   3.251
11896WAT     H248291   2.722   0.810   3.299
11896WAT    EPW48292   2.792   0.809   3.263
11897WAT      O48293   3.064   0.368   4.879
11897WAT     H148294   3.033   0.378   4.960
11897WAT     H248295   3.150   0.359   4.892
11897WAT    EPW48296   3.072   0.368   4.893
11898WAT      O48297   3.032   0.559   4.489
11898WAT     H148298   3.101   0.511   4.463
11898WAT     H248299   3.004   0.596   4.415
11898WAT    EPW48300   3.038   0.557   4.474
11899WAT      O48301   2.493   0.596   3.191
11899WAT     H148302   2.556   0.536   3.188
11899WAT     H248303   2.464   0.598   3.109
11899WAT    EPW48304   2.498   0.587   3.178
11900WAT      O48305   1.866   0.726   4.268
11900WAT     H148306   1.878   0.761   4.347
11900WAT     H248307   1.896   0.787   4.213
11900WAT    EPW48308   1.872   0.740   4.271
11901WAT      O48309   1.735   0.612   4.610
11901WAT     H148310   1.661   0.580   4.644
11901WAT     H248311   1.722   0.698   4.609
11901WAT    EPW48312   1.722   0.620   4.615
11902WAT      O48313   2.204   0.467   4.209
11902WAT     H148314   2.250   0.443   4.279
11902WAT     H248315   2.121   0.457   4.235
11902WAT    EPW48316   2.198   0.462   4.223
11903WAT      O48317   2.121   1.123   3.759
11903WAT     H148318   2.126   1.210   3.758
11903WAT     H248319   2.085   1.103   3.682
11903WAT    EPW48320   2.116   1.133   3.748
11904WAT      O48321   1.971   0.923   4.102
11904WAT     H148322   1.927   0.975   4.047
11904WAT     H248323   2.018   0.873   4.048
11904WAT    EPW48324   1.971   0.923   4.086
11905WAT      O48325   2.395   0.542   4.824
11905WAT     H148326   2.473   0.537   4.786
11905WAT     H248327   2.344   0.576   4.763
11905WAT    EPW48328   2.399   0.546   4.810
11906WAT      O48329   2.705   0.811   4.676
11906WAT     H148330   2.735   0.836   4.754
11906WAT     H248331   2.749   0.861   4.620
11906WAT    EPW48332   2.716   0.822   4.680
11907WAT      O48333   2.053   0.460   3.177
11907WAT     H148334   1.981   0.503   3.153
11907WAT     H248335   2.106   0.523   3.206
11907WAT    EPW48336   2.050   0.476   3.178
11908WAT      O48337   2.213   1.131   4.708
11908WAT     H148338   2.228   1.126   4.622
11908WAT     H248339   2.174   1.055   4.726
11908WAT    EPW48340   2.209   1.119   4.698
11909WAT      O48341   2.902   0.384   3.449
11909WAT     H148342   2.958   0.320   3.428
11909WAT     H248343   2.824   0.344   3.449
11909WAT    EPW48344   2.899   0.368   3.446
11910WAT      O48345   2.212   0.610   4.618
11910WAT     H148346   2.136   0.610   4.661
11910WAT     H248347   2.215   0.689   4.581
11910WAT    EPW48348   2.202   0.622   4.619
11911WAT      O48349   1.806   1.237   4.167
11911WAT     H148350   1.812   1.212   4.251
11911WAT     H248351   1.764   1.170   4.129
11911WAT    EPW48352   1.801   1.223   4.174
11912WAT      O48353   2.546   0.539   3.764
11912WAT     H148354   2.543   0.558   3.849
11912WAT     H248355   2.575   0.456   3.762
11912WAT    EPW48356   2.550   0.529   3.776
11913WAT      O48357   2.280   0.481   3.692
11913WAT     H148358   2.239   0.481   3.769
11913WAT     H248359   2.362   0.504   3.713
11913WAT    EPW48360   2.286   0.484   3.707
11914WAT      O48361   2.227   0.878   4.521
11914WAT     H148362   2.288   0.877   4.584
11914WAT     H248363   2.251   0.944   4.470
11914WAT    EPW48364   2.240   0.887   4.523
11915WAT      O48365   1.404   1.213   4.707
11915WAT     H148366   1.348   1.147   4.694
11915WAT     H248367   1.353   1.277   4.737
11915WAT    EPW48368   1.388   1.213   4.710
11916WAT      O48369   2.290   0.333   4.987
11916WAT     H148370   2.323   0.392   4.931
11916WAT     H248371   2.209   0.362   5.001
11916WAT    EPW48372   2.283   0.346   4.981
11917WAT      O48373   2.645   1.199   3.985
11917WAT     H148374   2.588   1.262   4.006
11917WAT     H248375   2.699   1.197   4.053
11917WAT    EPW48376   2.645   1.208   3.998
11918WAT      O48377   2.294   0.721   4.137
11918WAT     H148378   2.261   0.646   4.165
11918WAT     H248379   2.333   0.755   4.208
11918WAT    EPW48380   2.295   0.715   4.151
11919WAT      O48381   2.814   0.898   4.912
11919WAT     H148382   2.899   0.883   4.898
11919WAT     H248383   2.797   0.853   4.985
11919WAT    EPW48384   2.824   0.889   4.921
11920WAT      O48385   2.382   0.847   3.604
11920WAT     H148386   2.360   0.925   3.571
11920WAT     H248387   2.311   0.798   3.587
11920WAT    EPW48388   2.368   0.851   3.597
11921WAT      O48389   1.446   0.358   4.432
11921WAT     H148390   1.455   0.375   4.347
11921WAT     H248391   1.432   0.272   4.434
11921WAT    EPW48392   1.445   0.348   4.419
11922WAT      O48393   1.829   0.861   3.255
11922WAT     H148394   1.871   0.837   3.327
11922WAT     H248395   1.745   0.852   3.275
11922WAT    EPW48396   1.823   0.856   3.268
11923WAT      O48397   1.734   0.387   4.445
11923WAT     H148398   1.742   0.458   4.495
11923WAT     H248399   1.647   0.375   4.440
11923WAT    EPW48400   1.722   0.395   4.452
11924WAT      O48401   2.755   0.311   3.987
11924WAT     H148402   2.818   0.364   3.961
11924WAT     H248403   2.716   0.287   3.912
11924WAT    EPW48404   2.758   0.315   3.972
11925WAT      O48405   2.780   1.004   3.646
11925WAT     H148406   2.763   0.922   3.669
11925WAT     H248407   2.834   0.996   3.578
11925WAT    EPW48408   2.785   0.991   3.639
11926WAT      O48409   1.572   0.791   3.318
11926WAT     H148410   1.565   0.773   3.403
11926WAT     H248411   1.570   0.713   3.280
11926WAT    EPW48412   1.571   0.777   3.325
11927WAT      O48413   1.831   0.618   3.115
11927WAT     H148414   1.750   0.589   3.132
11927WAT     H248415   1.833   0.696   3.154
11927WAT    EPW48416   1.819   0.625   3.123
11928WAT      O48417   2.509   0.820   4.302
11928WAT     H148418   2.524   0.884   4.359
11928WAT     H248419   2.517   0.858   4.224
11928WAT    EPW48420   2.512   0.835   4.299
11929WAT      O48421   2.479   1.207   4.769
11929WAT     H148422   2.408   1.166   4.738
11929WAT     H248423   2.451   1.289   4.783
11929WAT    EPW48424   2.464   1.213   4.767
11930WAT      O48425   2.956   0.645   4.229
11930WAT     H148426   2.913   0.569   4.230
11930WAT     H248427   2.911   0.693   4.172
11930WAT    EPW48428   2.943   0.641   4.221
11931WAT      O48429   1.868   1.101   4.699
11931WAT     H148430   1.841   1.127   4.778
11931WAT     H248431   1.931   1.044   4.717
11931WAT    EPW48432   1.873   1.096   4.714
11932WAT      O48433   2.903   1.010   4.014
11932WAT     H148434   2.987   0.996   4.032
11932WAT     H248435   2.868   0.930   4.016
11932WAT    EPW48436   2.910   0.996   4.017
11933WAT      O48437   1.547   1.025   4.862
11933WAT     H148438   1.618   1.066   4.890
11933WAT     H248439   1.504   1.087   4.818
11933WAT    EPW48440   1.551   1.040   4.859
11934WAT      O48441   1.419   0.776   4.578
11934WAT     H148442   1.364   0.837   4.605
11934WAT     H248443   1.498   0.811   4.592
11934WAT    EPW48444   1.423   0.790   4.584
11935WAT      O48445   2.666   0.236   3.453
11935WAT     H148446   2.690   0.171   3.400
11935WAT     H248447   2.591   0.265   3.419
11935WAT    EPW48448   2.658   0.231   3.440
11936WAT      O48449   1.703   1.117   3.492
11936WAT     H148450   1.713   1.173   3.425
11936WAT     H248451   1.783   1.085   3.504
11936WAT    EPW48452   1.716   1.121   3.484
11937WAT      O48453   1.986   0.331   3.413
11937WAT     H148454   2.007   0.363   3.334
11937WAT     H248455   2.063   0.306   3.446
11937WAT    EPW48456   2.000   0.332   3.406
11938WAT      O48457   2.919   1.202   3.104
11938WAT     H148458   2.989   1.184   3.152
11938WAT     H248459   2.895   1.125   3.071
11938WAT    EPW48460   2.926   1.188   3.106
11939WAT      O48461   3.079   0.616   4.757
11939WAT     H148462   3.068   0.537   4.793
11939WAT     H248463   3.056   0.603   4.673
11939WAT    EPW48464   3.074   0.602   4.750
11940WAT      O48465   2.554   0.799   3.382
11940WAT     H148466   2.508   0.795   3.456
11940WAT     H248467   2.522   0.734   3.334
11940WAT    EPW48468   2.542   0.789   3.386
11941WAT      O48469   2.691   0.406   4.994
11941WAT     H148470   2.767   0.436   5.025
11941WAT     H248471   2.688   0.437   4.912
11941WAT    EPW48472   2.702   0.415   4.987
11942WAT      O48473   1.628   1.035   4.085
11942WAT     H148474   1.629   0.962   4.038
11942WAT     H248475   1.589   1.093   4.033
11942WAT    EPW48476   1.622   1.033   4.070
11943WAT      O48477   2.231   0.650   3.270
11943WAT     H148478   2.311   0.623   3.249
11943WAT     H248479   2.220   0.723   3.222
11943WAT    EPW48480   2.241   0.657   3.260
11944WAT      O48481   1.402   1.255   4.429
11944WAT     H148482   1.405   1.240   4.515
11944WAT     H248483   1.441   1.184   4.395
11944WAT    EPW48484   1.408   1.242   4.437
11945WAT      O48485   1.344   0.574   1.733
11945WAT     H148486   1.334   0.606   1.814
11945WAT     H248487   1.341   0.487   1.745
11945WAT    EPW48488   1.342   0.565   1.747
11946WAT      O48489   2.936   0.961   1.532
11946WAT     H148490   2.998   0.905   1.558
11946WAT     H248491   2.887   0.913   1.478
11946WAT    EPW48492   2.938   0.945   1.528
11947WAT      O48493   1.548   0.521   1.300
11947WAT     H148494   1.516   0.475   1.234
11947WAT     H248495   1.556   0.462   1.364
11947WAT    EPW48496   1.545   0.506   1.300
11948WAT      O48497   2.623   0.289   1.835
11948WAT     H148498   2.650   0.275   1.753
11948WAT     H248499   2.575   0.218   1.853
11948WAT    EPW48500   2.619   0.277   1.826
11949WAT      O48501   1.578   0.711   1.689
11949WAT     H148502   1.629   0.674   1.749
11949WAT     H248503   1.504   0.664   1.693
11949WAT    EPW48504   1.575   0.698   1.698
11950WAT      O48505   1.478   1.001   1.316
11950WAT     H148506   1.498   1.000   1.231
11950WAT     H248507   1.496   0.919   1.341
11950WAT    EPW48508   1.483   0.988   1.307
11951WAT      O48509   1.371   0.789   2.399
11951WAT     H148510   1.390   0.774   2.482
11951WAT     H248511   1.304   0.735   2.383
11951WAT    EPW48512   1.364   0.779   2.409
11952WAT      O48513   1.963   0.649   2.865
11952WAT     H148514   1.930   0.636   2.945
11952WAT     H248515   1.895   0.632   2.812
11952WAT    EPW48516   1.948   0.645   2.869
11953WAT      O48517   1.475   0.342   1.919
11953WAT     H148518   1.452   0.294   1.850
11953WAT     H248519   1.527   0.289   1.964
11953WAT    EPW48520   1.480   0.327   1.915
11954WAT      O48521   1.957   0.916   2.572
11954WAT     H148522   1.967   0.986   2.521
11954WAT     H248523   2.039   0.895   2.594
11954WAT    EPW48524   1.971   0.923   2.568
11955WAT      O48525   2.087   0.746   1.987
11955WAT     H148526   2.109   0.666   2.015
11955WAT     H248527   2.162   0.790   1.988
11955WAT    EPW48528   2.101   0.741   1.991
11956WAT      O48529   2.175   0.697   1.640
11956WAT     H148530   2.198   0.628   1.688
11956WAT     H248531   2.195   0.674   1.559
11956WAT    EPW48532   2.182   0.684   1.635
11957WAT      O48533   1.323   1.054   1.934
11957WAT     H148534   1.257   1.099   1.899
11957WAT     H248535   1.360   1.015   1.865
11957WAT    EPW48536   1.319   1.055   1.919
11958WAT      O48537   1.902   0.712   1.629
11958WAT     H148538   1.877   0.740   1.707
11958WAT     H248539   1.988   0.705   1.636
11958WAT    EPW48540   1.911   0.715   1.641
11959WAT      O48541   2.501   1.065   1.413
11959WAT     H148542   2.574   1.114   1.410
11959WAT     H248543   2.531   0.987   1.437
11959WAT    EPW48544   2.516   1.061   1.416
11960WAT      O48545   2.334   1.129   1.624
11960WAT     H148546   2.354   1.209   1.651
11960WAT     H248547   2.388   1.116   1.557
11960WAT    EPW48548   2.345   1.139   1.618
11961WAT      O48549   1.456   0.958   1.704
11961WAT     H148550   1.507   0.888   1.715
11961WAT     H248551   1.505   1.012   1.656
11961WAT    EPW48552   1.471   0.956   1.699
11962WAT      O48553   2.551   1.107   2.435
11962WAT     H148554   2.622   1.157   2.431
11962WAT     H248555   2.537   1.084   2.352
11962WAT    EPW48556   2.559   1.111   2.422
11963WAT      O48557   1.615   0.795   2.040
11963WAT     H148558   1.679   0.792   1.981
11963WAT     H248559   1.632   0.729   2.094
11963WAT    EPW48560   1.627   0.785   2.039
11964WAT      O48561   1.901   1.074   1.943
11964WAT     H148562   1.980   1.096   1.914
11964WAT     H248563   1.847   1.124   1.896
11964WAT    EPW48564   1.904   1.085   1.932
11965WAT      O48565   2.708   1.251   1.372
11965WAT     H148566   2.757   1.227   1.305
11965WAT     H248567   2.763   1.295   1.424
11965WAT    EPW48568   2.723   1.254   1.370
11966WAT      O48569   1.761   1.166   2.563
11966WAT     H148570   1.790   1.154   2.645
11966WAT     H248571   1.697   1.107   2.555
11966WAT    EPW48572   1.756   1.155   2.574
11967WAT      O48573   2.443   0.867   2.799
11967WAT     H148574   2.435   0.901   2.878
11967WAT     H248575   2.529   0.851   2.791
11967WAT    EPW48576   2.455   0.870   2.809
11968WAT      O48577   2.197   0.882   1.246
11968WAT     H148578   2.176   0.937   1.310
11968WAT     H248579   2.270   0.917   1.212
11968WAT    EPW48580   2.205   0.896   1.250
11969WAT      O48581   1.526   1.028   2.432
11969WAT     H148582   1.478   0.956   2.428
11969WAT     H248583   1.566   1.030   2.355
11969WAT    EPW48584   1.525   1.018   2.420
11970WAT      O48585   2.297   1.181   2.521
11970WAT     H148586   2.376   1.158   2.493
11970WAT     H248587   2.243   1.148   2.461
11970WAT    EPW48588   2.301   1.173   2.508
11971WAT      O48589   3.000   1.178   1.805
11971WAT     H148590   2.964   1.257   1.816
11971WAT     H248591   2.931   1.127   1.791
11971WAT    EPW48592   2.984   1.182   1.805
11972WAT      O48593   2.699   0.782   1.833
11972WAT     H148594   2.768   0.741   1.798
11972WAT     H248595   2.635   0.724   1.828
11972WAT    EPW48596   2.700   0.767   1.827
11973WAT      O48597   1.699   0.887   2.702
11973WAT     H148598   1.777   0.911   2.672
11973WAT     H248599   1.692   0.931   2.777
11973WAT    EPW48600   1.710   0.897   2.709
11974WAT      O48601   1.874   0.409   2.121
11974WAT     H148602   1.891   0.408   2.207
11974WAT     H248603   1.812   0.349   2.111
11974WAT    EPW48604   1.867   0.400   2.132
11975WAT      O48605   1.935   0.460   2.386
11975WAT     H148606   1.921   0.546   2.389
11975WAT     H248607   1.873   0.428   2.439
11975WAT    EPW48608   1.924   0.468   2.395
11976WAT      O48609   2.535   0.572   2.400
11976WAT     H148610   2.483   0.527   2.454
11976WAT     H248611   2.516   0.655   2.417
11976WAT    EPW48612   2.525   0.577   2.410
11977WAT      O48613   1.217   0.853   2.968
11977WAT     H148614   1.273   0.857   3.035
11977WAT     H248615   1.214   0.768   2.949
11977WAT    EPW48616   1.225   0.841   2.975
11978WAT      O48617   2.898   0.554   1.342
11978WAT     H148618   2.906   0.513   1.418
11978WAT     H248619   2.981   0.565   1.316
11978WAT    EPW48620   2.912   0.550   1.349
11979WAT      O48621   1.682   0.529   1.874
11979WAT     H148622   1.728   0.489   1.812
11979WAT     H248623   1.615   0.475   1.889
11979WAT    EPW48624   1.679   0.515   1.867
11980WAT      O48625   1.541   1.206   2.000
11980WAT     H148626   1.467   1.166   1.977
11980WAT     H248627   1.588   1.205   1.927
11980WAT    EPW48628   1.537   1.200   1.986
11981WAT      O48629   3.126   0.984   2.750
11981WAT     H148630   3.049   0.987   2.708
11981WAT     H248631   3.108   0.937   2.821
11981WAT    EPW48632   3.112   0.978   2.754
11982WAT      O48633   2.640   0.129   1.276
11982WAT     H148634   2.668   0.204   1.242
11982WAT     H248635   2.566   0.151   1.316
11982WAT    EPW48636   2.633   0.143   1.277
11983WAT      O48637   1.798   0.451   1.629
11983WAT     H148638   1.828   0.533   1.619
11983WAT     H248639   1.863   0.401   1.600
11983WAT    EPW48640   1.812   0.456   1.624
11984WAT      O48641   1.357   0.712   1.979
11984WAT     H148642   1.309   0.770   2.023
11984WAT     H248643   1.439   0.740   1.991
11984WAT    EPW48644   1.362   0.725   1.987
11985WAT      O48645   1.359   0.277   1.662
11985WAT     H148646   1.346   0.192   1.647
11985WAT     H248647   1.424   0.298   1.608
11985WAT    EPW48648   1.366   0.268   1.652
11986WAT      O48649   2.307   0.922   1.975
11986WAT     H148650   2.262   0.993   1.953
11986WAT     H248651   2.345   0.898   1.900
11986WAT    EPW48652   2.306   0.929   1.961
11987WAT      O48653   1.281   0.789   1.564
11987WAT     H148654   1.334   0.844   1.606
11987WAT     H248655   1.274   0.721   1.620
11987WAT    EPW48656   1.288   0.787   1.579
11988WAT      O48657   1.684   0.596   2.215
11988WAT     H148658   1.733   0.640   2.271
11988WAT     H248659   1.741   0.551   2.167
11988WAT    EPW48660   1.699   0.596   2.216
11989WAT      O48661   1.291   0.665   1.312
11989WAT     H148662   1.363   0.616   1.313
11989WAT     H248663   1.291   0.704   1.390
11989WAT    EPW48664   1.302   0.664   1.323
11990WAT      O48665   1.305   0.471   2.097
11990WAT     H148666   1.347   0.421   2.039
11990WAT     H248667   1.324   0.552   2.072
11990WAT    EPW48668   1.314   0.476   2.085
11991WAT      O48669   2.869   0.994   2.615
11991WAT     H148670   2.826   1.069   2.626
11991WAT     H248671   2.865   0.980   2.529
11991WAT    EPW48672   2.862   1.003   2.604
11992WAT      O48673   1.841   0.814   1.876
11992WAT     H148674   1.854   0.900   1.888
11992WAT     H248675   1.911   0.778   1.913
11992WAT    EPW48676   1.853   0.822   1.883
11993WAT      O48677   1.643   0.240   2.124
11993WAT     H148678   1.597   0.285   2.183
11993WAT     H248679   1.656   0.162   2.163
11993WAT    EPW48680   1.638   0.235   2.139
11994WAT      O48681   2.079   1.099   2.364
11994WAT     H148682   2.057   1.033   2.310
11994WAT     H248683   2.066   1.170   2.315
11994WAT    EPW48684   2.074   1.100   2.349
11995WAT      O48685   1.450   0.373   3.019
11995WAT     H148686   1.460   0.413   2.942
11995WAT     H248687   1.495   0.299   3.010
11995WAT    EPW48688   1.458   0.368   3.006
11996WAT      O48689   2.662   0.544   2.838
11996WAT     H148690   2.695   0.624   2.828
11996WAT     H248691   2.699   0.498   2.774
11996WAT    EPW48692   2.672   0.549   2.827
11997WAT      O48693   2.060   0.912   2.882
11997WAT     H148694   2.098   0.905   2.960
11997WAT     H248695   2.028   0.832   2.867
11997WAT    EPW48696   2.061   0.899   2.891
11998WAT      O48697   2.433   0.256   1.429
11998WAT     H148698   2.390   0.282   1.357
11998WAT     H248699   2.371   0.251   1.489
11998WAT    EPW48700   2.418   0.259   1.427
11999WAT      O48701   2.924   0.652   1.744
11999WAT     H148702   2.939   0.619   1.824
11999WAT     H248703   2.917   0.581   1.694
11999WAT    EPW48704   2.925   0.637   1.748
12000WAT      O48705   2.482   0.984   2.185
12000WAT     H148706   2.426   0.962   2.121
12000WAT     H248707   2.533   1.044   2.148
12000WAT    EPW48708   2.481   0.989   2.170
12001WAT      O48709   2.491   0.624   2.127
12001WAT     H148710   2.415   0.663   2.142
12001WAT     H248711   2.507   0.582   2.202
12001WAT    EPW48712   2.482   0.624   2.140
12002WAT      O48713   1.876   0.963   1.520
12002WAT     H148714   1.887   0.885   1.556
12002WAT     H248715   1.958   0.993   1.512
12002WAT    EPW48716   1.890   0.956   1.524
12003WAT      O48717   2.126   1.059   1.450
12003WAT     H148718   2.188   1.085   1.506
12003WAT     H248719   2.106   1.132   1.406
12003WAT    EPW48720   2.133   1.074   1.452
12004WAT      O48721   2.792   0.406   2.628
12004WAT     H148722   2.780   0.409   2.542
12004WAT     H248723   2.877   0.425   2.638
12004WAT    EPW48724   2.803   0.410   2.617
12005WAT      O48725   2.427   1.012   3.040
12005WAT     H148726   2.458   1.031   3.119
12005WAT     H248727   2.450   1.081   2.991
12005WAT    EPW48728   2.435   1.025   3.044
12006WAT      O48729   1.584   0.332   1.501
12006WAT     H148730   1.623   0.266   1.459
12006WAT     H248731   1.649   0.370   1.545
12006WAT    EPW48732   1.599   0.328   1.501
12007WAT      O48733   2.351   0.434   2.560
12007WAT     H148734   2.302   0.481   2.615
12007WAT     H248735   2.385   0.372   2.611
12007WAT    EPW48736   2.348   0.432   2.576
12008WAT      O48737   2.240   0.253   1.636
12008WAT     H148738   2.249   0.326   1.683
12008WAT     H248739   2.226   0.191   1.695
12008WAT    EPW48740   2.239   0.255   1.651
12009WAT      O48741   2.743   0.754   2.110
12009WAT     H148742   2.737   0.780   2.027
12009WAT     H248743   2.666   0.718   2.126
12009WAT    EPW48744   2.731   0.753   2.100
12010WAT      O48745   2.135   0.472   2.040
12010WAT     H148746   2.052   0.447   2.050
12010WAT     H248747   2.171   0.454   2.117
12010WAT    EPW48748   2.128   0.466   2.053
12011WAT      O48749   1.813   1.115   1.118
12011WAT     H148750   1.839   1.038   1.149
12011WAT     H248751   1.803   1.164   1.189
12011WAT    EPW48752   1.816   1.111   1.133
12012WAT      O48753   1.492   0.409   2.289
12012WAT     H148754   1.549   0.474   2.277
12012WAT     H248755   1.425   0.430   2.238
12012WAT    EPW48756   1.491   0.421   2.280
12013WAT      O48757   3.090   1.122   1.371
12013WAT     H148758   3.165   1.080   1.358
12013WAT     H248759   3.044   1.066   1.420
12013WAT    EPW48760   3.094   1.107   1.376
12014WAT      O48761   2.783   0.462   2.347
12014WAT     H148762   2.773   0.419   2.272
12014WAT     H248763   2.706   0.500   2.361
12014WAT    EPW48764   2.770   0.461   2.338
12015WAT      O48765   1.619   0.150   1.144
12015WAT     H148766   1.603   0.066   1.165
12015WAT     H248767   1.698   0.148   1.107
12015WAT    EPW48768   1.628   0.137   1.142
12016WAT      O48769   1.485   0.521   2.784
12016WAT     H148770   1.465   0.474   2.714
12016WAT     H248771   1.443   0.597   2.771
12016WAT    EPW48772   1.476   0.525   2.772
12017WAT      O48773   2.932   0.560   2.008
12017WAT     H148774   2.896   0.622   2.058
12017WAT     H248775   3.004   0.537   2.052
12017WAT    EPW48776   2.937   0.565   2.022
12018WAT      O48777   3.115   0.887   2.148
12018WAT     H148778   3.144   0.950   2.095
12018WAT     H248779   3.177   0.882   2.209
12018WAT    EPW48780   3.128   0.896   2.149
12019WAT      O48781   2.788   0.804   1.367
12019WAT     H148782   2.819   0.723   1.361
12019WAT     H248783   2.712   0.794   1.408
12019WAT    EPW48784   2.781   0.791   1.372
12020WAT      O48785   3.064   0.376   3.046
12020WAT     H148786   3.043   0.294   3.027
12020WAT     H248787   3.151   0.377   3.042
12020WAT    EPW48788   3.074   0.364   3.043
12021WAT      O48789   3.060   0.498   2.619
12021WAT     H148790   3.133   0.457   2.593
12021WAT     H248791   3.042   0.552   2.553
12021WAT    EPW48792   3.068   0.500   2.605
12022WAT      O48793   2.497   0.584   1.308
12022WAT     H148794   2.557   0.521   1.309
12022WAT     H248795   2.471   0.588   1.225
12022WAT    EPW48796   2.502   0.575   1.296
12023WAT      O48797   1.875   0.734   2.369
12023WAT     H148798   1.889   0.780   2.442
12023WAT     H248799   1.904   0.787   2.306
12023WAT    EPW48800   1.882   0.749   2.371
12024WAT      O48801   1.735   0.613   2.714
12024WAT     H148802   1.660   0.586   2.750
12024WAT     H248803   1.723   0.698   2.702
12024WAT    EPW48804   1.722   0.621   2.718
12025WAT      O48805   2.203   0.450   2.319
12025WAT     H148806   2.251   0.430   2.389
12025WAT     H248807   2.121   0.443   2.348
12025WAT    EPW48808   2.198   0.446   2.333
12026WAT      O48809   2.164   1.141   1.867
12026WAT     H148810   2.156   1.225   1.890
12026WAT     H248811   2.206   1.146   1.790
12026WAT    EPW48812   2.169   1.154   1.859
12027WAT      O48813   1.973   0.915   2.180
12027WAT     H148814   1.934   0.967   2.122
12027WAT     H248815   2.020   0.861   2.130
12027WAT    EPW48816   1.974   0.915   2.164
12028WAT      O48817   2.399   0.547   2.933
12028WAT     H148818   2.476   0.547   2.893
12028WAT     H248819   2.344   0.576   2.872
12028WAT    EPW48820   2.402   0.551   2.918
12029WAT      O48821   2.721   0.828   2.796
12029WAT     H148822   2.752   0.866   2.869
12029WAT     H248823   2.766   0.868   2.733
12029WAT    EPW48824   2.732   0.840   2.798
12030WAT      O48825   2.056   0.448   1.287
12030WAT     H148826   1.983   0.489   1.263
12030WAT     H248827   2.107   0.512   1.317
12030WAT    EPW48828   2.053   0.463   1.288
12031WAT      O48829   2.215   1.130   2.782
12031WAT     H148830   2.230   1.129   2.696
12031WAT     H248831   2.176   1.053   2.796
12031WAT    EPW48832   2.212   1.119   2.771
12032WAT      O48833   2.904   0.421   1.585
12032WAT     H148834   2.970   0.365   1.602
12032WAT     H248835   2.835   0.369   1.579
12032WAT    EPW48836   2.904   0.405   1.587
12033WAT      O48837   2.208   0.600   2.733
12033WAT     H148838   2.131   0.602   2.775
12033WAT     H248839   2.213   0.679   2.696
12033WAT    EPW48840   2.197   0.612   2.734
12034WAT      O48841   1.773   1.255   2.294
12034WAT     H148842   1.771   1.238   2.380
12034WAT     H248843   1.747   1.180   2.258
12034WAT    EPW48844   1.769   1.241   2.302
12035WAT      O48845   2.522   0.555   1.860
12035WAT     H148846   2.516   0.570   1.945
12035WAT     H248847   2.562   0.477   1.855
12035WAT    EPW48848   2.527   0.545   1.872
12036WAT      O48849   2.264   0.482   1.791
12036WAT     H148850   2.223   0.477   1.869
12036WAT     H248851   2.345   0.507   1.812
12036WAT    EPW48852   2.270   0.485   1.806
12037WAT      O48853   2.236   0.852   2.617
12037WAT     H148854   2.294   0.865   2.680
12037WAT     H248855   2.284   0.852   2.544
12037WAT    EPW48856   2.251   0.854   2.615
12038WAT      O48857   1.424   1.210   2.806
12038WAT     H148858   1.369   1.145   2.789
12038WAT     H248859   1.372   1.273   2.837
12038WAT    EPW48860   1.408   1.210   2.808
12039WAT      O48861   2.289   0.336   3.085
12039WAT     H148862   2.324   0.395   3.032
12039WAT     H248863   2.208   0.366   3.099
12039WAT    EPW48864   2.282   0.349   3.079
12040WAT      O48865   2.632   1.218   2.136
12040WAT     H148866   2.574   1.280   2.155
12040WAT     H248867   2.695   1.230   2.195
12040WAT    EPW48868   2.633   1.229   2.148
12041WAT      O48869   2.253   0.712   2.244
12041WAT     H148870   2.232   0.632   2.273
12041WAT     H248871   2.291   0.749   2.313
12041WAT    EPW48872   2.255   0.705   2.259
12042WAT      O48873   2.846   0.949   3.019
12042WAT     H148874   2.922   0.910   3.003
12042WAT     H248875   2.818   0.911   3.092
12042WAT    EPW48876   2.853   0.938   3.027
12043WAT      O48877   2.383   0.864   1.714
12043WAT     H148878   2.366   0.945   1.687
12043WAT     H248879   2.311   0.819   1.692
12043WAT    EPW48880   2.370   0.869   1.707
12044WAT      O48881   1.432   0.366   2.553
12044WAT     H148882   1.443   0.382   2.468
12044WAT     H248883   1.411   0.281   2.555
12044WAT    EPW48884   1.431   0.356   2.541
12045WAT      O48885   1.808   0.868   1.270
12045WAT     H148886   1.851   0.897   1.341
12045WAT     H248887   1.730   0.846   1.301
12045WAT    EPW48888   1.803   0.869   1.285
12046WAT      O48889   1.724   0.389   2.550
12046WAT     H148890   1.733   0.459   2.602
12046WAT     H248891   1.637   0.375   2.550
12046WAT    EPW48892   1.712   0.398   2.558
12047WAT      O48893   2.748   0.368   2.082
12047WAT     H148894   2.807   0.424   2.052
12047WAT     H248895   2.712   0.335   2.010
12047WAT    EPW48896   2.751   0.371   2.067
12048WAT      O48897   2.766   1.035   1.739
12048WAT     H148898   2.737   0.959   1.771
12048WAT     H248899   2.811   1.012   1.667
12048WAT    EPW48900   2.769   1.021   1.733
12049WAT      O48901   1.591   0.769   1.414
12049WAT     H148902   1.599   0.753   1.499
12049WAT     H248903   1.575   0.690   1.379
12049WAT    EPW48904   1.590   0.755   1.421
12050WAT      O48905   1.829   0.594   1.217
12050WAT     H148906   1.747   0.568   1.236
12050WAT     H248907   1.828   0.679   1.236
12050WAT    EPW48908   1.817   0.602   1.223
12051WAT      O48909   2.443   0.839   2.420
12051WAT     H148910   2.488   0.891   2.473
12051WAT     H248911   2.455   0.874   2.341
12051WAT    EPW48912   2.451   0.851   2.416
12052WAT      O48913   2.481   1.206   2.844
12052WAT     H148914   2.408   1.170   2.812
12052WAT     H248915   2.458   1.289   2.859
12052WAT    EPW48916   2.467   1.213   2.841
12053WAT      O48917   2.992   0.647   2.393
12053WAT     H148918   2.933   0.587   2.370
12053WAT     H248919   2.951   0.723   2.378
12053WAT    EPW48920   2.977   0.649   2.387
12054WAT      O48921   1.869   1.114   2.827
12054WAT     H148922   1.851   1.127   2.911
12054WAT     H248923   1.931   1.053   2.828
12054WAT    EPW48924   1.876   1.107   2.839
12055WAT      O48925   2.883   0.892   2.316
12055WAT     H148926   2.953   0.908   2.267
12055WAT     H248927   2.825   0.860   2.259
12055WAT    EPW48928   2.885   0.890   2.300
12056WAT      O48929   1.584   1.015   2.944
12056WAT     H148930   1.647   1.052   2.992
12056WAT     H248931   1.543   1.084   2.908
12056WAT    EPW48932   1.587   1.031   2.946
12057WAT      O48933   1.436   0.786   2.668
12057WAT     H148934   1.381   0.850   2.692
12057WAT     H248935   1.515   0.824   2.674
12057WAT    EPW48936   1.440   0.801   2.673
12058WAT      O48937   2.684   0.248   1.559
12058WAT     H148938   2.712   0.182   1.509
12058WAT     H248939   2.608   0.270   1.523
12058WAT    EPW48940   2.677   0.241   1.546
12059WAT      O48941   1.636   1.101   1.529
12059WAT     H148942   1.588   1.076   1.460
12059WAT     H248943   1.707   1.050   1.524
12059WAT    EPW48944   1.639   1.089   1.518
12060WAT      O48945   1.993   0.298   1.511
12060WAT     H148946   2.013   0.338   1.436
12060WAT     H248947   2.070   0.280   1.547
12060WAT    EPW48948   2.007   0.301   1.505
12061WAT      O48949   2.892   1.166   1.180
12061WAT     H148950   2.959   1.156   1.235
12061WAT     H248951   2.869   1.084   1.160
12061WAT    EPW48952   2.898   1.153   1.185
12062WAT      O48953   2.987   0.583   2.874
12062WAT     H148954   3.006   0.516   2.927
12062WAT     H248955   3.014   0.556   2.796
12062WAT    EPW48956   2.994   0.569   2.870
12063WAT      O48957   2.545   0.801   1.491
12063WAT     H148958   2.503   0.799   1.567
12063WAT     H248959   2.513   0.730   1.449
12063WAT    EPW48960   2.534   0.790   1.496
12064WAT      O48961   2.707   0.424   3.098
12064WAT     H148962   2.777   0.466   3.130
12064WAT     H248963   2.700   0.455   3.016
12064WAT    EPW48964   2.717   0.435   3.090
12065WAT      O48965   1.646   1.031   2.183
12065WAT     H148966   1.643   0.953   2.143
12065WAT     H248967   1.612   1.085   2.124
12065WAT    EPW48968   1.641   1.027   2.168
12066WAT      O48969   2.232   0.640   1.377
12066WAT     H148970   2.313   0.613   1.358
12066WAT     H248971   2.223   0.714   1.332
12066WAT    EPW48972   2.243   0.647   1.368
12067WAT      O48973   1.405   1.260   2.528
12067WAT     H148974   1.414   1.244   2.614
12067WAT     H248975   1.439   1.189   2.490
12067WAT    EPW48976   1.412   1.247   2.535
12068WAT      O48977   1.348   0.803   0.498
12068WAT     H148978   1.361   0.794   0.584
12068WAT     H248979   1.276   0.757   0.483
12068WAT    EPW48980   1.339   0.795   0.508
12069WAT      O48981   1.957   0.633   0.970
12069WAT     H148982   1.924   0.613   1.048
12069WAT     H248983   1.890   0.621   0.915
12069WAT    EPW48984   1.943   0.628   0.973
12070WAT      O48985   1.945   0.932   0.700
12070WAT     H148986   1.967   0.989   0.637
12070WAT     H248987   2.022   0.902   0.728
12070WAT    EPW48988   1.960   0.936   0.695
12071WAT      O48989   2.531   1.081   0.585
12071WAT     H148990   2.587   1.119   0.640
12071WAT     H248991   2.557   1.108   0.507
12071WAT    EPW48992   2.543   1.091   0.582
12072WAT      O48993   1.754   1.155   0.580
12072WAT     H148994   1.767   1.160   0.666
12072WAT     H248995   1.682   1.106   0.573
12072WAT    EPW48996   1.745   1.148   0.592
12073WAT      O48997   2.439   0.868   0.899
12073WAT     H148998   2.436   0.898   0.980
12073WAT     H248999   2.522   0.842   0.889
12073WAT    EPW49000   2.451   0.869   0.909
12074WAT      O49001   1.531   1.017   0.473
12074WAT     H149002   1.482   0.947   0.486
12074WAT     H249003   1.551   1.012   0.388
12074WAT    EPW49004   1.527   1.006   0.462
12075WAT      O49005   2.278   1.161   0.654
12075WAT     H149006   2.355   1.129   0.629
12075WAT     H249007   2.222   1.129   0.595
12075WAT    EPW49008   2.281   1.151   0.642
12076WAT      O49009   1.671   0.880   0.811
12076WAT     H149010   1.749   0.913   0.787
12076WAT     H249011   1.655   0.921   0.886
12076WAT    EPW49012   1.680   0.891   0.818
12077WAT      O49013   1.895   0.501   0.215
12077WAT     H149014   1.908   0.483   0.300
12077WAT     H249015   1.868   0.425   0.182
12077WAT    EPW49016   1.893   0.487   0.223
12078WAT      O49017   1.947   0.480   0.486
12078WAT     H149018   1.933   0.566   0.498
12078WAT     H249019   1.883   0.443   0.532
12078WAT    EPW49020   1.936   0.487   0.494
12079WAT      O49021   2.582   0.545   0.524
12079WAT     H149022   2.521   0.510   0.575
12079WAT     H249023   2.577   0.630   0.540
12079WAT    EPW49024   2.573   0.552   0.534
12080WAT      O49025   1.222   0.809   1.081
12080WAT     H149026   1.252   0.774   1.155
12080WAT     H249027   1.199   0.740   1.033
12080WAT    EPW49028   1.223   0.794   1.085
12081WAT      O49029   3.124   0.981   0.880
12081WAT     H149030   3.048   0.982   0.838
12081WAT     H249031   3.107   0.935   0.952
12081WAT    EPW49032   3.110   0.974   0.884
12082WAT      O49033   1.712   0.707   0.288
12082WAT     H149034   1.761   0.726   0.359
12082WAT     H249035   1.761   0.649   0.245
12082WAT    EPW49036   1.727   0.701   0.292
12083WAT      O49037   2.867   0.974   0.747
12083WAT     H149038   2.815   1.044   0.750
12083WAT     H249039   2.864   0.949   0.664
12083WAT    EPW49040   2.859   0.980   0.735
12084WAT      O49041   2.062   1.090   0.496
12084WAT     H149042   2.054   1.037   0.427
12084WAT     H249043   2.041   1.168   0.464
12084WAT    EPW49044   2.058   1.094   0.481
12085WAT      O49045   1.443   0.365   1.102
12085WAT     H149046   1.457   0.401   1.023
12085WAT     H249047   1.494   0.295   1.102
12085WAT    EPW49048   1.453   0.360   1.090
12086WAT      O49049   2.662   0.511   0.939
12086WAT     H149050   2.689   0.593   0.924
12086WAT     H249051   2.710   0.464   0.883
12086WAT    EPW49052   2.673   0.516   0.928
12087WAT      O49053   2.037   0.903   1.017
12087WAT     H149054   2.080   0.893   1.092
12087WAT     H249055   2.012   0.822   0.996
12087WAT    EPW49056   2.039   0.890   1.025
12088WAT      O49057   2.545   0.865   0.238
12088WAT     H149058   2.461   0.861   0.214
12088WAT     H249059   2.560   0.950   0.245
12088WAT    EPW49060   2.535   0.877   0.236
12089WAT      O49061   2.265   0.818   0.224
12089WAT     H149062   2.267   0.805   0.310
12089WAT     H249063   2.243   0.739   0.192
12089WAT    EPW49064   2.262   0.804   0.232
12090WAT      O49065   2.816   0.362   0.756
12090WAT     H149066   2.802   0.349   0.671
12090WAT     H249067   2.899   0.387   0.760
12090WAT    EPW49068   2.826   0.364   0.744
12091WAT      O49069   2.430   1.003   1.152
12091WAT     H149070   2.458   1.025   1.231
12091WAT     H249071   2.444   1.075   1.105
12091WAT    EPW49072   2.436   1.017   1.156
12092WAT      O49073   2.380   0.439   0.692
12092WAT     H149074   2.326   0.486   0.742
12092WAT     H249075   2.421   0.387   0.749
12092WAT    EPW49076   2.378   0.438   0.708
12093WAT      O49077   2.741   0.677   0.312
12093WAT     H149078   2.688   0.728   0.265
12093WAT     H249079   2.686   0.629   0.360
12093WAT    EPW49080   2.725   0.677   0.312
12094WAT      O49081   2.173   0.559   0.185
12094WAT     H149082   2.087   0.544   0.182
12094WAT     H249083   2.197   0.523   0.260
12094WAT    EPW49084   2.164   0.551   0.196
12095WAT      O49085   1.498   0.583   0.419
12095WAT     H149086   1.565   0.612   0.372
12095WAT     H249087   1.451   0.655   0.436
12095WAT    EPW49088   1.501   0.598   0.415
12096WAT      O49089   2.773   0.352   0.476
12096WAT     H149090   2.729   0.289   0.434
12096WAT     H249091   2.714   0.414   0.489
12096WAT    EPW49092   2.758   0.352   0.472
12097WAT      O49093   1.470   0.511   0.862
12097WAT     H149094   1.457   0.468   0.787
12097WAT     H249095   1.429   0.587   0.849
12097WAT    EPW49096   1.462   0.516   0.849
12098WAT      O49097   2.963   0.498   0.323
12098WAT     H149098   2.915   0.440   0.367
12098WAT     H249099   2.904   0.554   0.292
12098WAT    EPW49100   2.947   0.498   0.325
12099WAT      O49101   3.093   0.958   0.362
12099WAT     H149102   3.136   0.995   0.296
12099WAT     H249103   3.156   0.928   0.415
12099WAT    EPW49104   3.108   0.959   0.360
12100WAT      O49105   3.061   0.356   1.149
12100WAT     H149106   3.034   0.274   1.135
12100WAT     H249107   3.148   0.351   1.140
12100WAT    EPW49108   3.070   0.343   1.145
12101WAT      O49109   3.077   0.466   0.733
12101WAT     H149110   3.153   0.433   0.705
12101WAT     H249111   3.060   0.529   0.675
12101WAT    EPW49112   3.086   0.471   0.720
12102WAT      O49113   1.902   0.754   0.487
12102WAT     H149114   1.906   0.803   0.560
12102WAT     H249115   1.946   0.801   0.428
12102WAT    EPW49116   1.909   0.768   0.489
12103WAT      O49117   1.725   0.608   0.819
12103WAT     H149118   1.649   0.577   0.848
12103WAT     H249119   1.710   0.693   0.810
12103WAT    EPW49120   1.712   0.616   0.822
12104WAT      O49121   2.224   0.489   0.458
12104WAT     H149122   2.269   0.453   0.524
12104WAT     H249123   2.141   0.473   0.479
12104WAT    EPW49124   2.218   0.482   0.471
12105WAT      O49125   2.014   0.914   0.286
12105WAT     H149126   1.968   0.939   0.216
12105WAT     H249127   2.090   0.889   0.252
12105WAT    EPW49128   2.018   0.914   0.271
12106WAT      O49129   2.407   0.539   1.049
12106WAT     H149130   2.482   0.532   1.005
12106WAT     H249131   2.351   0.570   0.989
12106WAT    EPW49132   2.410   0.542   1.034
12107WAT      O49133   2.709   0.791   0.896
12107WAT     H149134   2.738   0.823   0.972
12107WAT     H249135   2.756   0.833   0.837
12107WAT    EPW49136   2.720   0.802   0.899
12108WAT      O49137   2.185   1.119   0.913
12108WAT     H149138   2.204   1.109   0.829
12108WAT     H249139   2.147   1.044   0.935
12108WAT    EPW49140   2.182   1.107   0.904
12109WAT      O49141   2.212   0.595   0.855
12109WAT     H149142   2.134   0.587   0.893
12109WAT     H249143   2.213   0.676   0.824
12109WAT    EPW49144   2.201   0.606   0.856
12110WAT      O49145   1.770   1.191   0.302
12110WAT     H149146   1.772   1.173   0.387
12110WAT     H249147   1.731   1.122   0.266
12110WAT    EPW49148   1.765   1.178   0.309
12111WAT      O49149   2.208   0.849   0.747
12111WAT     H149150   2.284   0.865   0.787
12111WAT     H249151   2.231   0.829   0.666
12111WAT    EPW49152   2.222   0.848   0.741
12112WAT      O49153   1.423   1.210   0.908
12112WAT     H149154   1.364   1.147   0.894
12112WAT     H249155   1.376   1.275   0.940
12112WAT    EPW49156   1.408   1.210   0.910
12113WAT      O49157   2.295   0.327   1.199
12113WAT     H149158   2.331   0.387   1.147
12113WAT     H249159   2.214   0.356   1.213
12113WAT    EPW49160   2.289   0.340   1.193
12114WAT      O49161   2.606   1.126   0.318
12114WAT     H149162   2.566   1.201   0.302
12114WAT     H249163   2.682   1.150   0.353
12114WAT    EPW49164   2.611   1.141   0.321
12115WAT      O49165   2.269   0.762   0.494
12115WAT     H149166   2.258   0.676   0.486
12115WAT     H249167   2.355   0.771   0.502
12115WAT    EPW49168   2.280   0.750   0.494
12116WAT      O49169   2.829   0.906   1.118
12116WAT     H149170   2.909   0.873   1.108
12116WAT     H249171   2.803   0.874   1.195
12116WAT    EPW49172   2.837   0.897   1.128
12117WAT      O49173   1.436   0.393   0.605
12117WAT     H149174   1.452   0.452   0.542
12117WAT     H249175   1.415   0.321   0.560
12117WAT    EPW49176   1.435   0.391   0.589
12118WAT      O49177   1.728   0.399   0.635
12118WAT     H149178   1.733   0.465   0.692
12118WAT     H249179   1.643   0.389   0.621
12118WAT    EPW49180   1.716   0.407   0.641
12119WAT      O49181   2.535   0.816   0.511
12119WAT     H149182   2.542   0.893   0.550
12119WAT     H249183   2.546   0.834   0.427
12119WAT    EPW49184   2.538   0.830   0.505
12120WAT      O49185   2.451   1.207   0.960
12120WAT     H149186   2.376   1.169   0.936
12120WAT     H249187   2.429   1.291   0.970
12120WAT    EPW49188   2.436   1.214   0.958
12121WAT      O49189   3.039   0.652   0.535
12121WAT     H149190   3.019   0.603   0.465
12121WAT     H249191   2.981   0.717   0.532
12121WAT    EPW49192   3.027   0.654   0.524
12122WAT      O49193   1.873   1.157   0.847
12122WAT     H149194   1.860   1.148   0.933
12122WAT     H249195   1.912   1.082   0.825
12122WAT    EPW49196   1.877   1.145   0.857
12123WAT      O49197   2.865   0.864   0.489
12123WAT     H149198   2.926   0.903   0.440
12123WAT     H249199   2.820   0.817   0.431
12123WAT    EPW49200   2.867   0.863   0.473
12124WAT      O49201   1.571   1.013   1.046
12124WAT     H149202   1.645   1.052   1.070
12124WAT     H249203   1.526   1.077   1.007
12124WAT    EPW49204   1.575   1.029   1.044
12125WAT      O49205   1.412   0.781   0.765
12125WAT     H149206   1.361   0.842   0.800
12125WAT     H249207   1.493   0.814   0.773
12125WAT    EPW49208   1.417   0.795   0.771
12126WAT      O49209   3.003   0.569   0.981
12126WAT     H149210   3.013   0.501   1.035
12126WAT     H249211   3.030   0.538   0.904
12126WAT    EPW49212   3.009   0.554   0.977
12127WAT      O49213   2.704   0.402   1.204
12127WAT     H149214   2.774   0.444   1.236
12127WAT     H249215   2.699   0.432   1.122
12127WAT    EPW49216   2.714   0.413   1.197
12128WAT      O49217   1.629   0.963   0.201
12128WAT     H149218   1.653   0.881   0.218
12128WAT     H249219   1.609   0.962   0.116
12128WAT    EPW49220   1.630   0.951   0.191
12129WAT      O49221   1.376   1.218   0.614
12129WAT     H149222   1.420   1.211   0.688
12129WAT     H249223   1.419   1.165   0.559
12129WAT    EPW49224   1.389   1.209   0.617
12130WAT      O49225   0.496   6.855   7.413
12130WAT     H149226   0.483   6.894   7.336
12130WAT     H249227   0.582   6.843   7.416
12130WAT    EPW49228   0.507   6.859   7.402
12131WAT      O49229   0.691   7.638   7.537
12131WAT     H149230   0.708   7.647   7.452
12131WAT     H249231   0.654   7.559   7.543
12131WAT    EPW49232   0.688   7.628   7.525
12132WAT      O49233   0.619   7.173   6.823
12132WAT     H149234   0.592   7.240   6.872
12132WAT     H249235   0.639   7.111   6.881
12132WAT    EPW49236   0.618   7.173   6.839
12133WAT      O49237   1.140   7.175   7.508
12133WAT     H149238   1.074   7.231   7.521
12133WAT     H249239   1.099   7.098   7.500
12133WAT    EPW49240   1.124   7.172   7.509
12134WAT      O49241   0.326   7.345   7.426
12134WAT     H149242   0.355   7.301   7.356
12134WAT     H249243   0.399   7.359   7.472
12134WAT    EPW49244   0.341   7.341   7.422
12135WAT      O49245   0.477   7.369   6.982
12135WAT     H149246   0.496   7.440   7.028
12135WAT     H249247   0.432   7.400   6.914
12135WAT    EPW49248   0.473   7.384   6.979
12136WAT      O49249   0.681   6.987   7.020
12136WAT     H149250   0.738   6.921   7.028
12136WAT     H249251   0.701   7.040   7.086
12136WAT    EPW49252   0.692   6.985   7.031
12137WAT      O49253   0.432   7.210   7.208
12137WAT     H149254   0.417   7.127   7.185
12137WAT     H249255   0.435   7.252   7.132
12137WAT    EPW49256   0.430   7.204   7.193
12138WAT      O49257   0.439   6.935   7.147
12138WAT     H149258   0.392   6.875   7.106
12138WAT     H249259   0.512   6.939   7.100
12138WAT    EPW49260   0.443   6.927   7.134
12139WAT      O49261   0.225   7.152   7.597
12139WAT     H149262   0.244   7.216   7.541
12139WAT     H249263   0.138   7.150   7.596
12139WAT    EPW49264   0.215   7.161   7.588
12140WAT      O49265   0.760   6.787   7.462
12140WAT     H149266   0.750   6.772   7.548
12140WAT     H249267   0.798   6.714   7.433
12140WAT    EPW49268   0.764   6.774   7.470
12141WAT      O49269   0.850   7.666   6.999
12141WAT     H149270   0.824   7.741   6.963
12141WAT     H249271   0.822   7.672   7.081
12141WAT    EPW49272   0.842   7.678   7.006
12142WAT      O49273   1.180   7.068   6.951
12142WAT     H149274   1.208   7.018   6.885
12142WAT     H249275   1.138   7.133   6.912
12142WAT    EPW49276   1.178   7.070   6.936
12143WAT      O49277   1.057   6.956   7.178
12143WAT     H149278   1.128   6.915   7.207
12143WAT     H249279   1.086   7.001   7.109
12143WAT    EPW49280   1.072   6.957   7.172
12144WAT      O49281   0.674   7.193   7.700
12144WAT     H149282   0.699   7.168   7.780
12144WAT     H249283   0.615   7.133   7.677
12144WAT    EPW49284   0.669   7.180   7.708
12145WAT      O49285   0.706   7.155   7.234
12145WAT     H149286   0.755   7.224   7.252
12145WAT     H249287   0.625   7.185   7.241
12145WAT    EPW49288   0.701   7.169   7.238
12146WAT      O49289   0.504   7.609   7.133
12146WAT     H149290   0.479   7.679   7.088
12146WAT     H249291   0.450   7.609   7.202
12146WAT    EPW49292   0.492   7.619   7.137
12147WAT      O49293   0.345   7.615   7.357
12147WAT     H149294   0.361   7.651   7.435
12147WAT     H249295   0.322   7.533   7.377
12147WAT    EPW49296   0.344   7.608   7.371
12148WAT      O49297   0.432   7.710   7.609
12148WAT     H149298   0.427   7.773   7.670
12148WAT     H249299   0.518   7.705   7.592
12148WAT    EPW49300   0.444   7.718   7.616
12149WAT      O49301   1.137   7.691   7.621
12149WAT     H149302   1.161   7.772   7.642
12149WAT     H249303   1.102   7.699   7.542
12149WAT    EPW49304   1.135   7.704   7.613
12150WAT      O49305   0.900   7.315   7.567
12150WAT     H149306   0.836   7.268   7.604
12150WAT     H249307   0.904   7.387   7.617
12150WAT    EPW49308   0.891   7.319   7.580
12151WAT      O49309   1.087   7.539   6.940
12151WAT     H149310   1.135   7.588   6.886
12151WAT     H249311   1.016   7.587   6.953
12151WAT    EPW49312   1.084   7.553   6.934
12152WAT      O49313   0.853   7.384   7.304
12152WAT     H149314   0.866   7.362   7.387
12152WAT     H249315   0.933   7.403   7.275
12152WAT    EPW49316   0.867   7.383   7.312
12153WAT      O49317   0.987   6.949   7.448
12153WAT     H149318   0.907   6.914   7.457
12153WAT     H249319   0.992   6.965   7.363
12153WAT    EPW49320   0.976   6.946   7.437
12154WAT      O49321   1.009   7.711   7.377
12154WAT     H149322   1.043   7.650   7.324
12154WAT     H249323   0.926   7.718   7.350
12154WAT    EPW49324   1.002   7.703   7.365
12155WAT      O49325   1.092   7.500   7.217
12155WAT     H149326   1.096   7.515   7.131
12155WAT     H249327   1.175   7.490   7.240
12155WAT    EPW49328   1.105   7.500   7.208
12156WAT      O49329   0.465   7.020   7.639
12156WAT     H149330   0.387   7.060   7.632
12156WAT     H249331   0.473   6.979   7.562
12156WAT    EPW49332   0.455   7.020   7.626
12157WAT      O49333   0.903   7.554   7.703
12157WAT     H149334   0.977   7.599   7.688
12157WAT     H249335   0.843   7.598   7.658
12157WAT    EPW49336   0.905   7.567   7.694
12158WAT      O49337   0.540   7.411   7.590
12158WAT     H149338   0.582   7.345   7.628
12158WAT     H249339   0.496   7.448   7.655
12158WAT    EPW49340   0.540   7.407   7.605
12159WAT      O49341   0.749   7.635   7.262
12159WAT     H149342   0.777   7.553   7.271
12159WAT     H249343   0.670   7.626   7.226
12159WAT    EPW49344   0.741   7.622   7.258
12160WAT      O49345   0.512   6.833   5.560
12160WAT     H149346   0.518   6.887   5.492
12160WAT     H249347   0.594   6.809   5.575
12160WAT    EPW49348   0.525   6.838   5.552
12161WAT      O49349   0.476   7.442   6.007
12161WAT     H149350   0.441   7.522   6.015
12161WAT     H249351   0.531   7.437   6.075
12161WAT    EPW49352   0.479   7.453   6.019
12162WAT      O49353   0.738   7.640   5.715
12162WAT     H149354   0.738   7.650   5.628
12162WAT     H249355   0.681   7.576   5.728
12162WAT    EPW49356   0.730   7.632   5.704
12163WAT      O49357   0.374   7.493   6.751
12163WAT     H149358   0.293   7.521   6.732
12163WAT     H249359   0.422   7.566   6.746
12163WAT    EPW49360   0.369   7.508   6.747
12164WAT      O49361   0.845   6.758   6.491
12164WAT     H149362   0.828   6.828   6.441
12164WAT     H249363   0.769   6.741   6.529
12164WAT    EPW49364   0.831   6.766   6.489
12165WAT      O49365   0.619   7.173   4.927
12165WAT     H149366   0.598   7.242   4.976
12165WAT     H249367   0.642   7.113   4.986
12165WAT    EPW49368   0.620   7.174   4.943
12166WAT      O49369   1.194   7.125   5.676
12166WAT     H149370   1.150   7.201   5.682
12166WAT     H249371   1.131   7.066   5.663
12166WAT    EPW49372   1.178   7.128   5.675
12167WAT      O49373   0.244   6.869   6.649
12167WAT     H149374   0.264   6.784   6.655
12167WAT     H249375   0.243   6.883   6.563
12167WAT    EPW49376   0.247   6.858   6.637
12168WAT      O49377   0.374   7.349   5.591
12168WAT     H149378   0.408   7.315   5.518
12168WAT     H249379   0.444   7.367   5.640
12168WAT    EPW49380   0.389   7.346   5.588
12169WAT      O49381   0.488   7.372   5.106
12169WAT     H149382   0.506   7.443   5.154
12169WAT     H249383   0.440   7.403   5.040
12169WAT    EPW49384   0.484   7.387   5.104
12170WAT      O49385   1.102   7.028   6.123
12170WAT     H149386   1.163   7.025   6.061
12170WAT     H249387   1.119   6.958   6.172
12170WAT    EPW49388   1.114   7.017   6.121
12171WAT      O49389   0.693   7.004   5.136
12171WAT     H149390   0.745   6.936   5.149
12171WAT     H249391   0.725   7.065   5.189
12171WAT    EPW49392   0.706   7.003   5.146
12172WAT      O49393   0.482   7.242   5.358
12172WAT     H149394   0.468   7.156   5.346
12172WAT     H249395   0.472   7.276   5.278
12172WAT    EPW49396   0.478   7.234   5.344
12173WAT      O49397   0.485   6.965   5.314
12173WAT     H149398   0.432   6.903   5.282
12173WAT     H249399   0.549   6.970   5.255
12173WAT    EPW49400   0.486   6.957   5.301
12174WAT      O49401   0.276   7.137   5.746
12174WAT     H149402   0.289   7.207   5.695
12174WAT     H249403   0.263   7.171   5.825
12174WAT    EPW49404   0.276   7.152   5.750
12175WAT      O49405   0.603   7.185   6.347
12175WAT     H149406   0.568   7.213   6.422
12175WAT     H249407   0.535   7.156   6.302
12175WAT    EPW49408   0.588   7.185   6.352
12176WAT      O49409   0.768   6.770   5.643
12176WAT     H149410   0.765   6.760   5.730
12176WAT     H249411   0.806   6.696   5.616
12176WAT    EPW49412   0.773   6.757   5.652
12177WAT      O49413   0.987   7.198   6.433
12177WAT     H149414   1.070   7.183   6.453
12177WAT     H249415   0.945   7.192   6.509
12177WAT    EPW49416   0.993   7.195   6.447
12178WAT      O49417   0.875   7.683   5.085
12178WAT     H149418   0.842   7.749   5.038
12178WAT     H249419   0.891   7.718   5.163
12178WAT    EPW49420   0.872   7.698   5.089
12179WAT      O49421   1.162   7.094   5.128
12179WAT     H149422   1.204   7.033   5.083
12179WAT     H249423   1.127   7.145   5.065
12179WAT    EPW49424   1.163   7.093   5.112
12180WAT      O49425   1.279   7.465   6.313
12180WAT     H149426   1.342   7.405   6.318
12180WAT     H249427   1.225   7.433   6.253
12180WAT    EPW49428   1.281   7.452   6.305
12181WAT      O49429   1.037   6.951   5.336
12181WAT     H149430   1.112   6.913   5.357
12181WAT     H249431   1.060   7.013   5.279
12181WAT    EPW49432   1.051   6.955   5.331
12182WAT      O49433   0.760   7.188   5.771
12182WAT     H149434   0.793   7.150   5.842
12182WAT     H249435   0.692   7.137   5.750
12182WAT    EPW49436   0.755   7.175   5.778
12183WAT      O49437   0.872   7.352   6.058
12183WAT     H149438   0.810   7.385   6.109
12183WAT     H249439   0.880   7.411   5.994
12183WAT    EPW49440   0.864   7.366   6.056
12184WAT      O49441   0.363   6.903   6.392
12184WAT     H149442   0.382   6.822   6.368
12184WAT     H249443   0.426   6.922   6.450
12184WAT    EPW49444   0.375   6.894   6.397
12185WAT      O49445   0.757   7.195   5.321
12185WAT     H149446   0.812   7.256   5.351
12185WAT     H249447   0.679   7.224   5.347
12185WAT    EPW49448   0.754   7.209   5.329
12186WAT      O49449   0.277   7.245   6.001
12186WAT     H149450   0.336   7.310   6.003
12186WAT     H249451   0.306   7.191   6.063
12186WAT    EPW49452   0.290   7.247   6.011
12187WAT      O49453   0.514   7.599   5.278
12187WAT     H149454   0.510   7.680   5.246
12187WAT     H249455   0.462   7.601   5.348
12187WAT    EPW49456   0.506   7.611   5.283
12188WAT      O49457   0.967   7.840   6.376
12188WAT     H149458   0.983   7.787   6.308
12188WAT     H249459   0.977   7.920   6.343
12188WAT    EPW49460   0.971   7.844   6.361
12189WAT      O49461   0.982   6.902   6.686
12189WAT     H149462   0.943   6.857   6.622
12189WAT     H249463   0.989   6.843   6.751
12189WAT    EPW49464   0.977   6.886   6.686
12190WAT      O49465   0.530   7.747   6.271
12190WAT     H149466   0.578   7.818   6.279
12190WAT     H249467   0.562   7.693   6.332
12190WAT    EPW49468   0.542   7.749   6.282
12191WAT      O49469   0.364   7.615   5.510
12191WAT     H149470   0.362   7.661   5.584
12191WAT     H249471   0.354   7.532   5.537
12191WAT    EPW49472   0.362   7.609   5.525
12192WAT      O49473   0.332   7.744   5.763
12192WAT     H149474   0.260   7.791   5.773
12192WAT     H249475   0.359   7.729   5.845
12192WAT    EPW49476   0.325   7.749   5.777
12193WAT      O49477   1.006   7.663   6.155
12193WAT     H149478   0.998   7.594   6.207
12193WAT     H249479   0.946   7.649   6.092
12193WAT    EPW49480   0.996   7.651   6.153
12194WAT      O49481   1.194   7.648   5.942
12194WAT     H149482   1.156   7.658   6.020
12194WAT     H249483   1.245   7.719   5.934
12194WAT    EPW49484   1.196   7.660   5.952
12195WAT      O49485   0.864   7.159   6.682
12195WAT     H149486   0.789   7.162   6.727
12195WAT     H249487   0.891   7.077   6.691
12195WAT    EPW49488   0.857   7.147   6.690
12196WAT      O49489   0.744   7.484   6.814
12196WAT     H149490   0.778   7.523   6.884
12196WAT     H249491   0.679   7.537   6.790
12196WAT    EPW49492   0.739   7.498   6.821
12197WAT      O49493   0.901   7.537   6.596
12197WAT     H149494   0.923   7.619   6.618
12197WAT     H249495   0.859   7.508   6.667
12197WAT    EPW49496   0.898   7.545   6.610
12198WAT      O49497   0.989   7.325   5.686
12198WAT     H149498   0.920   7.274   5.705
12198WAT     H249499   0.981   7.392   5.742
12198WAT    EPW49500   0.978   7.327   5.697
12199WAT      O49501   1.214   7.675   6.732
12199WAT     H149502   1.214   7.605   6.680
12199WAT     H249503   1.295   7.707   6.724
12199WAT    EPW49504   1.226   7.670   6.723
12200WAT      O49505   0.814   6.997   6.345
12200WAT     H149506   0.878   7.053   6.359
12200WAT     H249507   0.742   7.047   6.343
12200WAT    EPW49508   0.813   7.012   6.347
12201WAT      O49509   0.366   7.694   6.049
12201WAT     H149510   0.419   7.718   6.114
12201WAT     H249511   0.288   7.685   6.088
12201WAT    EPW49512   0.362   7.696   6.064
12202WAT      O49513   0.879   6.795   6.162
12202WAT     H149514   0.858   6.867   6.206
12202WAT     H249515   0.964   6.784   6.180
12202WAT    EPW49516   0.889   6.804   6.171
12203WAT      O49517   1.109   7.534   5.053
12203WAT     H149518   1.154   7.581   4.994
12203WAT     H249519   1.034   7.578   5.061
12203WAT    EPW49520   1.105   7.548   5.045
12204WAT      O49521   0.546   7.341   6.585
12204WAT     H149522   0.478   7.374   6.629
12204WAT     H249523   0.591   7.298   6.647
12204WAT    EPW49524   0.543   7.339   6.601
12205WAT      O49525   0.656   7.422   6.218
12205WAT     H149526   0.670   7.477   6.285
12205WAT     H249527   0.643   7.345   6.257
12205WAT    EPW49528   0.656   7.419   6.234
12206WAT      O49529   0.915   7.401   5.429
12206WAT     H149530   0.941   7.376   5.508
12206WAT     H249531   0.984   7.446   5.398
12206WAT    EPW49532   0.929   7.404   5.436
12207WAT      O49533   0.985   6.949   5.611
12207WAT     H149534   0.908   6.910   5.625
12207WAT     H249535   0.984   6.964   5.525
12207WAT    EPW49536   0.973   6.946   5.600
12208WAT      O49537   0.941   7.786   5.331
12208WAT     H149538   1.009   7.734   5.347
12208WAT     H249539   0.875   7.747   5.374
12208WAT    EPW49540   0.941   7.772   5.340
12209WAT      O49541   1.181   7.452   6.573
12209WAT     H149542   1.093   7.456   6.575
12209WAT     H249543   1.199   7.465   6.488
12209WAT    EPW49544   1.170   7.455   6.561
12210WAT      O49545   0.651   7.573   6.468
12210WAT     H149546   0.615   7.500   6.499
12210WAT     H249547   0.733   7.568   6.496
12210WAT    EPW49548   0.658   7.561   6.477
12211WAT      O49549   0.575   7.690   6.724
12211WAT     H149550   0.595   7.686   6.640
12211WAT     H249551   0.621   7.757   6.754
12211WAT    EPW49552   0.584   7.699   6.716
12212WAT      O49553   1.120   7.567   5.336
12212WAT     H149554   1.132   7.561   5.250
12212WAT     H249555   1.198   7.547   5.369
12212WAT    EPW49556   1.133   7.563   5.328
12213WAT      O49557   0.957   7.461   6.337
12213WAT     H149558   0.966   7.375   6.345
12213WAT     H249559   0.937   7.488   6.418
12213WAT    EPW49560   0.955   7.453   6.351
12214WAT      O49561   0.495   6.988   6.641
12214WAT     H149562   0.519   7.049   6.698
12214WAT     H249563   0.414   6.968   6.665
12214WAT    EPW49564   0.486   6.994   6.653
12215WAT      O49565   0.529   7.036   5.750
12215WAT     H149566   0.449   7.071   5.750
12215WAT     H249567   0.524   6.974   5.689
12215WAT    EPW49568   0.516   7.032   5.741
12216WAT      O49569   0.841   7.083   6.016
12216WAT     H149570   0.917   7.048   6.042
12216WAT     H249571   0.848   7.167   6.040
12216WAT    EPW49572   0.854   7.090   6.024
12217WAT      O49573   0.941   7.539   5.867
12217WAT     H149574   1.015   7.586   5.862
12217WAT     H249575   0.885   7.584   5.817
12217WAT    EPW49576   0.944   7.553   5.859
12218WAT      O49577   1.142   6.783   6.270
12218WAT     H149578   1.117   6.714   6.317
12218WAT     H249579   1.229   6.780   6.275
12218WAT    EPW49580   1.151   6.772   6.278
12219WAT      O49581   0.409   7.078   6.183
12219WAT     H149582   0.380   7.019   6.241
12219WAT     H249583   0.461   7.031   6.131
12219WAT    EPW49584   0.413   7.062   6.184
12220WAT      O49585   0.591   6.957   6.009
12220WAT     H149586   0.667   6.997   6.020
12220WAT     H249587   0.565   6.984   5.930
12220WAT    EPW49588   0.598   6.967   5.999
12221WAT      O49589   0.588   7.409   5.758
12221WAT     H149590   0.646   7.343   5.766
12221WAT     H249591   0.553   7.416   5.837
12221WAT    EPW49592   0.592   7.400   5.771
12222WAT      O49593   0.745   7.621   5.437
12222WAT     H149594   0.789   7.545   5.433
12222WAT     H249595   0.674   7.606   5.388
12222WAT    EPW49596   0.741   7.607   5.429
12223WAT      O49597   0.971   7.796   6.653
12223WAT     H149598   1.054   7.779   6.676
12223WAT     H249599   0.978   7.819   6.569
12223WAT    EPW49600   0.984   7.797   6.644
12224WAT      O49601   1.063   7.282   6.830
12224WAT     H149602   1.047   7.365   6.851
12224WAT     H249603   0.992   7.258   6.785
12224WAT    EPW49604   1.050   7.290   6.827
12225WAT      O49605   1.139   7.309   6.121
12225WAT     H149606   1.056   7.329   6.105
12225WAT     H249607   1.138   7.223   6.132
12225WAT    EPW49608   1.127   7.300   6.120
12226WAT      O49609   0.767   7.879   6.831
12226WAT     H149610   0.834   7.869   6.776
12226WAT     H249611   0.770   7.963   6.853
12226WAT    EPW49612   0.777   7.890   6.826
12227WAT      O49613   0.511   6.833   3.661
12227WAT     H149614   0.518   6.887   3.593
12227WAT     H249615   0.593   6.808   3.676
12227WAT    EPW49616   0.524   6.837   3.653
12228WAT      O49617   0.490   7.445   4.094
12228WAT     H149618   0.450   7.522   4.106
12228WAT     H249619   0.541   7.438   4.165
12228WAT    EPW49620   0.492   7.456   4.106
12229WAT      O49621   0.756   7.642   3.770
12229WAT     H149622   0.751   7.655   3.684
12229WAT     H249623   0.696   7.580   3.785
12229WAT    EPW49624   0.746   7.635   3.760
12230WAT      O49625   0.377   7.487   4.872
12230WAT     H149626   0.296   7.518   4.864
12230WAT     H249627   0.427   7.558   4.866
12230WAT    EPW49628   0.372   7.502   4.870
12231WAT      O49629   0.905   6.782   4.590
12231WAT     H149630   0.874   6.846   4.540
12231WAT     H249631   0.835   6.756   4.636
12231WAT    EPW49632   0.890   6.788   4.589
12232WAT      O49633   0.621   7.174   3.023
12232WAT     H149634   0.605   7.246   3.070
12232WAT     H249635   0.642   7.115   3.084
12232WAT    EPW49636   0.622   7.176   3.039
12233WAT      O49637   1.193   7.126   3.775
12233WAT     H149638   1.149   7.201   3.778
12233WAT     H249639   1.130   7.066   3.765
12233WAT    EPW49640   1.177   7.128   3.774
12234WAT      O49641   0.274   6.803   4.898
12234WAT     H149642   0.275   6.730   4.851
12234WAT     H249643   0.200   6.842   4.874
12234WAT    EPW49644   0.263   6.798   4.888
12235WAT      O49645   0.379   7.350   3.689
12235WAT     H149646   0.411   7.316   3.616
12235WAT     H249647   0.449   7.369   3.736
12235WAT    EPW49648   0.394   7.347   3.685
12236WAT      O49649   0.484   7.376   3.208
12236WAT     H149650   0.498   7.449   3.254
12236WAT     H249651   0.438   7.405   3.140
12236WAT    EPW49652   0.479   7.391   3.205
12237WAT      O49653   1.095   7.046   4.215
12237WAT     H149654   1.159   7.040   4.157
12237WAT     H249655   1.112   6.981   4.271
12237WAT    EPW49656   1.107   7.036   4.215
12238WAT      O49657   0.693   7.008   3.235
12238WAT     H149658   0.745   6.939   3.248
12238WAT     H249659   0.727   7.070   3.286
12238WAT    EPW49660   0.706   7.007   3.244
12239WAT      O49661   0.489   7.244   3.457
12239WAT     H149662   0.474   7.159   3.446
12239WAT     H249663   0.476   7.277   3.377
12239WAT    EPW49664   0.485   7.236   3.443
12240WAT      O49665   0.488   6.967   3.416
12240WAT     H149666   0.434   6.907   3.384
12240WAT     H249667   0.551   6.973   3.356
12240WAT    EPW49668   0.489   6.959   3.402
12241WAT      O49669   0.275   7.140   3.844
12241WAT     H149670   0.290   7.210   3.794
12241WAT     H249671   0.266   7.174   3.924
12241WAT    EPW49672   0.276   7.155   3.849
12242WAT      O49673   0.604   7.188   4.453
12242WAT     H149674   0.567   7.218   4.526
12242WAT     H249675   0.537   7.156   4.408
12242WAT    EPW49676   0.589   7.188   4.457
12243WAT      O49677   0.767   6.770   3.743
12243WAT     H149678   0.764   6.760   3.830
12243WAT     H249679   0.803   6.696   3.715
12243WAT    EPW49680   0.772   6.758   3.752
12244WAT      O49681   0.982   7.209   4.534
12244WAT     H149682   1.066   7.194   4.552
12244WAT     H249683   0.943   7.204   4.611
12244WAT    EPW49684   0.989   7.206   4.548
12245WAT      O49685   0.856   7.644   3.210
12245WAT     H149686   0.834   7.721   3.174
12245WAT     H249687   0.835   7.654   3.294
12245WAT    EPW49688   0.850   7.657   3.217
12246WAT      O49689   1.163   7.093   3.231
12246WAT     H149690   1.207   7.031   3.188
12246WAT     H249691   1.130   7.142   3.167
12246WAT    EPW49692   1.165   7.091   3.215
12247WAT      O49693   1.278   7.468   4.416
12247WAT     H149694   1.341   7.408   4.419
12247WAT     H249695   1.224   7.438   4.354
12247WAT    EPW49696   1.279   7.455   4.407
12248WAT      O49697   1.035   6.948   3.436
12248WAT     H149698   1.111   6.908   3.455
12248WAT     H249699   1.059   7.011   3.380
12248WAT    EPW49700   1.050   6.951   3.431
12249WAT      O49701   0.760   7.189   3.862
12249WAT     H149702   0.791   7.155   3.936
12249WAT     H249703   0.690   7.139   3.844
12249WAT    EPW49704   0.754   7.177   3.870
12250WAT      O49705   0.869   7.365   4.152
12250WAT     H149706   0.807   7.396   4.204
12250WAT     H249707   0.874   7.424   4.087
12250WAT    EPW49708   0.861   7.379   4.150
12251WAT      O49709   0.379   6.911   4.505
12251WAT     H149710   0.384   6.826   4.483
12251WAT     H249711   0.415   6.913   4.584
12251WAT    EPW49712   0.385   6.898   4.514
12252WAT      O49713   0.764   7.207   3.410
12252WAT     H149714   0.818   7.267   3.442
12252WAT     H249715   0.686   7.231   3.440
12252WAT    EPW49716   0.761   7.219   3.420
12253WAT      O49717   0.290   7.249   4.099
12253WAT     H149718   0.352   7.311   4.098
12253WAT     H249719   0.316   7.195   4.163
12253WAT    EPW49720   0.303   7.250   4.109
12254WAT      O49721   0.508   7.606   3.374
12254WAT     H149722   0.492   7.685   3.339
12254WAT     H249723   0.462   7.606   3.448
12254WAT    EPW49724   0.499   7.618   3.379
12255WAT      O49725   0.982   7.846   4.477
12255WAT     H149726   0.994   7.794   4.408
12255WAT     H249727   0.990   7.926   4.444
12255WAT    EPW49728   0.985   7.850   4.462
12256WAT      O49729   0.990   6.922   4.814
12256WAT     H149730   0.963   6.878   4.743
12256WAT     H249731   0.991   6.861   4.877
12256WAT    EPW49732   0.986   6.906   4.813
12257WAT      O49733   0.522   7.738   4.377
12257WAT     H149734   0.561   7.815   4.395
12257WAT     H249735   0.553   7.685   4.439
12257WAT    EPW49736   0.532   7.742   4.389
12258WAT      O49737   0.373   7.617   3.615
12258WAT     H149738   0.368   7.662   3.689
12258WAT     H249739   0.361   7.534   3.640
12258WAT    EPW49740   0.371   7.611   3.629
12259WAT      O49741   0.333   7.744   3.867
12259WAT     H149742   0.258   7.788   3.875
12259WAT     H249743   0.356   7.729   3.949
12259WAT    EPW49744   0.325   7.748   3.880
12260WAT      O49745   1.005   7.672   4.253
12260WAT     H149746   0.996   7.603   4.306
12260WAT     H249747   0.938   7.664   4.197
12260WAT    EPW49748   0.994   7.661   4.253
12261WAT      O49749   1.185   7.655   4.037
12261WAT     H149750   1.147   7.664   4.115
12261WAT     H249751   1.231   7.729   4.028
12261WAT    EPW49752   1.186   7.667   4.047
12262WAT      O49753   0.869   7.174   4.789
12262WAT     H149754   0.794   7.179   4.834
12262WAT     H249755   0.896   7.092   4.804
12262WAT    EPW49756   0.862   7.162   4.798
12263WAT      O49757   0.752   7.484   4.925
12263WAT     H149758   0.788   7.526   4.993
12263WAT     H249759   0.684   7.535   4.904
12263WAT    EPW49760   0.747   7.498   4.932
12264WAT      O49761   0.897   7.541   4.699
12264WAT     H149762   0.920   7.623   4.721
12264WAT     H249763   0.859   7.511   4.772
12264WAT    EPW49764   0.895   7.549   4.713
12265WAT      O49765   0.988   7.327   3.778
12265WAT     H149766   0.920   7.275   3.797
12265WAT     H249767   0.980   7.394   3.833
12265WAT    EPW49768   0.977   7.329   3.789
12266WAT      O49769   1.218   7.672   4.836
12266WAT     H149770   1.215   7.603   4.782
12266WAT     H249771   1.299   7.702   4.826
12266WAT    EPW49772   1.229   7.666   4.826
12267WAT      O49773   0.820   7.004   4.442
12267WAT     H149774   0.880   7.066   4.455
12267WAT     H249775   0.744   7.048   4.444
12267WAT    EPW49776   0.817   7.019   4.444
12268WAT      O49777   0.364   7.687   4.150
12268WAT     H149778   0.416   7.710   4.216
12268WAT     H249779   0.288   7.669   4.188
12268WAT    EPW49780   0.360   7.687   4.165
12269WAT      O49781   0.877   6.795   4.263
12269WAT     H149782   0.855   6.869   4.303
12269WAT     H249783   0.961   6.784   4.283
12269WAT    EPW49784   0.886   6.804   4.272
12270WAT      O49785   1.105   7.527   3.165
12270WAT     H149786   1.144   7.577   3.105
12270WAT     H249787   1.027   7.565   3.175
12270WAT    EPW49788   1.099   7.540   3.158
12271WAT      O49789   0.537   7.332   4.695
12271WAT     H149790   0.471   7.368   4.740
12271WAT     H249791   0.578   7.284   4.755
12271WAT    EPW49792   0.533   7.330   4.710
12272WAT      O49793   0.654   7.423   4.318
12272WAT     H149794   0.667   7.478   4.385
12272WAT     H249795   0.642   7.346   4.356
12272WAT    EPW49796   0.654   7.420   4.333
12273WAT      O49797   0.920   7.414   3.522
12273WAT     H149798   0.941   7.386   3.602
12273WAT     H249799   0.988   7.462   3.498
12273WAT    EPW49800   0.933   7.417   3.531
12274WAT      O49801   0.986   6.947   3.711
12274WAT     H149802   0.908   6.910   3.726
12274WAT     H249803   0.985   6.962   3.625
12274WAT    EPW49804   0.974   6.944   3.700
12275WAT      O49805   0.968   7.839   3.478
12275WAT     H149806   1.031   7.779   3.473
12275WAT     H249807   0.896   7.791   3.492
12275WAT    EPW49808   0.967   7.823   3.480
12276WAT      O49809   1.174   7.453   4.673
12276WAT     H149810   1.087   7.459   4.675
12276WAT     H249811   1.194   7.466   4.590
12276WAT    EPW49812   1.164   7.456   4.661
12277WAT      O49813   0.644   7.564   4.575
12277WAT     H149814   0.608   7.491   4.606
12277WAT     H249815   0.726   7.561   4.604
12277WAT    EPW49816   0.650   7.553   4.584
12278WAT      O49817   0.574   7.683   4.832
12278WAT     H149818   0.593   7.677   4.747
12278WAT     H249819   0.619   7.753   4.859
12278WAT    EPW49820   0.584   7.692   4.824
12279WAT      O49821   1.119   7.592   3.444
12279WAT     H149822   1.130   7.583   3.357
12279WAT     H249823   1.197   7.568   3.476
12279WAT    EPW49824   1.132   7.587   3.436
12280WAT      O49825   0.951   7.472   4.437
12280WAT     H149826   0.960   7.386   4.445
12280WAT     H249827   0.932   7.498   4.518
12280WAT    EPW49828   0.950   7.463   4.450
12281WAT      O49829   0.491   6.926   4.770
12281WAT     H149830   0.514   7.000   4.810
12281WAT     H249831   0.425   6.895   4.818
12281WAT    EPW49832   0.485   6.932   4.783
12282WAT      O49833   0.527   7.038   3.848
12282WAT     H149834   0.447   7.073   3.848
12282WAT     H249835   0.522   6.974   3.788
12282WAT    EPW49836   0.515   7.033   3.839
12283WAT      O49837   0.836   7.096   4.113
12283WAT     H149838   0.913   7.063   4.138
12283WAT     H249839   0.841   7.180   4.134
12283WAT    EPW49840   0.848   7.103   4.120
12284WAT      O49841   0.938   7.545   3.952
12284WAT     H149842   1.012   7.590   3.953
12284WAT     H249843   0.888   7.589   3.895
12284WAT    EPW49844   0.941   7.558   3.944
12285WAT      O49845   1.131   6.829   4.389
12285WAT     H149846   1.099   6.811   4.468
12285WAT     H249847   1.215   6.805   4.395
12285WAT    EPW49848   1.139   6.823   4.401
12286WAT      O49849   0.412   7.079   4.288
12286WAT     H149850   0.388   7.022   4.350
12286WAT     H249851   0.463   7.032   4.235
12286WAT    EPW49852   0.416   7.064   4.289
12287WAT      O49853   0.590   6.961   4.108
12287WAT     H149854   0.666   7.003   4.118
12287WAT     H249855   0.563   6.987   4.029
12287WAT    EPW49856   0.597   6.971   4.098
12288WAT      O49857   0.600   7.418   3.841
12288WAT     H149858   0.655   7.350   3.850
12288WAT     H249859   0.567   7.428   3.921
12288WAT    EPW49860   0.603   7.410   3.854
12289WAT      O49861   0.763   7.639   3.482
12289WAT     H149862   0.800   7.561   3.496
12289WAT     H249863   0.683   7.619   3.455
12289WAT    EPW49864   0.757   7.625   3.480
12290WAT      O49865   0.977   7.799   4.753
12290WAT     H149866   1.058   7.779   4.779
12290WAT     H249867   0.987   7.821   4.669
12290WAT    EPW49868   0.990   7.799   4.745
12291WAT      O49869   1.079   7.273   4.938
12291WAT     H149870   1.070   7.357   4.960
12291WAT     H249871   1.007   7.256   4.892
12291WAT    EPW49872   1.067   7.283   4.935
12292WAT      O49873   1.136   7.324   4.218
12292WAT     H149874   1.053   7.345   4.201
12292WAT     H249875   1.133   7.237   4.227
12292WAT    EPW49876   1.123   7.314   4.217
12293WAT      O49877   0.762   7.884   4.920
12293WAT     H149878   0.831   7.881   4.866
12293WAT     H249879   0.761   7.966   4.948
12293WAT    EPW49880   0.772   7.896   4.917
12294WAT      O49881   0.509   6.825   1.766
12294WAT     H149882   0.510   6.882   1.700
12294WAT     H249883   0.594   6.806   1.778
12294WAT    EPW49884   0.522   6.831   1.758
12295WAT      O49885   0.468   7.440   2.214
12295WAT     H149886   0.434   7.520   2.221
12295WAT     H249887   0.524   7.435   2.281
12295WAT    EPW49888   0.471   7.452   2.225
12296WAT      O49889   0.731   7.646   1.922
12296WAT     H149890   0.732   7.654   1.836
12296WAT     H249891   0.675   7.580   1.936
12296WAT    EPW49892   0.723   7.637   1.912
12297WAT      O49893   0.376   7.489   2.971
12297WAT     H149894   0.295   7.521   2.962
12297WAT     H249895   0.426   7.560   2.966
12297WAT    EPW49896   0.371   7.504   2.969
12298WAT      O49897   0.890   6.774   2.687
12298WAT     H149898   0.862   6.840   2.637
12298WAT     H249899   0.819   6.750   2.731
12298WAT    EPW49900   0.875   6.780   2.686
12299WAT      O49901   0.538   7.132   1.182
12299WAT     H149902   0.519   7.205   1.227
12299WAT     H249903   0.584   7.085   1.239
12299WAT    EPW49904   0.542   7.136   1.197
12300WAT      O49905   1.190   7.124   1.869
12300WAT     H149906   1.145   7.198   1.880
12300WAT     H249907   1.129   7.066   1.846
12300WAT    EPW49908   1.174   7.127   1.867
12301WAT      O49909   0.276   6.812   2.996
12301WAT     H149910   0.284   6.740   2.948
12301WAT     H249911   0.201   6.847   2.969
12301WAT    EPW49912   0.266   6.806   2.985
12302WAT      O49913   0.368   7.351   1.802
12302WAT     H149914   0.402   7.316   1.730
12302WAT     H249915   0.438   7.370   1.850
12302WAT    EPW49916   0.383   7.349   1.798
12303WAT      O49917   0.470   7.374   1.323
12303WAT     H149918   0.492   7.442   1.373
12303WAT     H249919   0.441   7.412   1.250
12303WAT    EPW49920   0.469   7.390   1.319
12304WAT      O49921   1.094   7.045   2.315
12304WAT     H149922   1.157   7.039   2.256
12304WAT     H249923   1.111   6.980   2.371
12304WAT    EPW49924   1.106   7.034   2.315
12305WAT      O49925   0.687   6.991   1.365
12305WAT     H149926   0.744   6.925   1.362
12305WAT     H249927   0.724   7.047   1.420
12305WAT    EPW49928   0.701   6.989   1.373
12306WAT      O49929   0.475   7.238   1.572
12306WAT     H149930   0.456   7.153   1.560
12306WAT     H249931   0.461   7.274   1.494
12306WAT    EPW49932   0.470   7.231   1.559
12307WAT      O49933   0.467   6.962   1.528
12307WAT     H149934   0.419   6.896   1.497
12307WAT     H249935   0.536   6.963   1.474
12307WAT    EPW49936   0.470   6.952   1.515
12308WAT      O49937   0.272   7.134   1.949
12308WAT     H149938   0.285   7.205   1.901
12308WAT     H249939   0.260   7.165   2.030
12308WAT    EPW49940   0.272   7.149   1.954
12309WAT      O49941   0.600   7.186   2.554
12309WAT     H149942   0.563   7.217   2.627
12309WAT     H249943   0.532   7.154   2.509
12309WAT    EPW49944   0.584   7.186   2.558
12310WAT      O49945   0.772   6.776   1.837
12310WAT     H149946   0.770   6.769   1.924
12310WAT     H249947   0.809   6.701   1.811
12310WAT    EPW49948   0.777   6.764   1.846
12311WAT      O49949   0.981   7.206   2.631
12311WAT     H149950   1.065   7.190   2.648
12311WAT     H249951   0.943   7.202   2.709
12311WAT    EPW49952   0.988   7.203   2.645
12312WAT      O49953   0.865   7.697   1.295
12312WAT     H149954   0.838   7.768   1.250
12312WAT     H249955   0.885   7.729   1.374
12312WAT    EPW49956   0.864   7.712   1.300
12313WAT      O49957   1.130   7.099   1.246
12313WAT     H149958   1.173   7.051   1.187
12313WAT     H249959   1.079   7.150   1.198
12313WAT    EPW49960   1.129   7.099   1.231
12314WAT      O49961   1.279   7.471   2.515
12314WAT     H149962   1.341   7.411   2.519
12314WAT     H249963   1.224   7.441   2.455
12314WAT    EPW49964   1.280   7.458   2.507
12315WAT      O49965   1.038   6.966   1.488
12315WAT     H149966   1.114   6.934   1.517
12315WAT     H249967   1.061   7.016   1.420
12315WAT    EPW49968   1.053   6.969   1.482
12316WAT      O49969   0.754   7.189   1.971
12316WAT     H149970   0.784   7.154   2.045
12316WAT     H249971   0.687   7.137   1.950
12316WAT    EPW49972   0.749   7.176   1.979
12317WAT      O49973   0.866   7.360   2.260
12317WAT     H149974   0.804   7.394   2.311
12317WAT     H249975   0.874   7.420   2.196
12317WAT    EPW49976   0.858   7.374   2.258
12318WAT      O49977   0.367   6.908   2.610
12318WAT     H149978   0.379   6.825   2.589
12318WAT     H249979   0.408   6.916   2.687
12318WAT    EPW49980   0.375   6.897   2.618
12319WAT      O49981   0.750   7.178   1.556
12319WAT     H149982   0.804   7.243   1.577
12319WAT     H249983   0.671   7.210   1.574
12319WAT    EPW49984   0.746   7.192   1.562
12320WAT      O49985   0.276   7.237   2.207
12320WAT     H149986   0.332   7.304   2.209
12320WAT     H249987   0.305   7.184   2.270
12320WAT    EPW49988   0.288   7.239   2.217
12321WAT      O49989   0.511   7.599   1.491
12321WAT     H149990   0.505   7.678   1.456
12321WAT     H249991   0.458   7.603   1.561
12321WAT    EPW49992   0.502   7.611   1.496
12322WAT      O49993   0.976   7.842   2.591
12322WAT     H149994   0.992   7.793   2.521
12322WAT     H249995   0.990   7.923   2.563
12322WAT    EPW49996   0.980   7.847   2.577
12323WAT      O49997   0.984   6.917   2.905
12323WAT     H149998   0.955   6.872   2.836
12323WAT     H249999   0.985   6.857   2.969
12323WAT    EPW50000   0.980   6.901   2.904
12324WAT      O50001   0.529   7.746   2.478
12324WAT     H150002   0.573   7.820   2.492
12324WAT     H250003   0.559   7.692   2.540
12324WAT    EPW50004   0.540   7.749   2.489
12325WAT      O50005   0.356   7.617   1.719
12325WAT     H150006   0.354   7.663   1.793
12325WAT     H250007   0.346   7.534   1.747
12325WAT    EPW50008   0.354   7.611   1.734
12326WAT      O50009   0.326   7.748   1.970
12326WAT     H150010   0.252   7.791   1.983
12326WAT     H250011   0.355   7.733   2.051
12326WAT    EPW50012   0.320   7.752   1.984
12327WAT      O50013   1.010   7.675   2.362
12327WAT     H150014   1.000   7.605   2.413
12327WAT     H250015   0.943   7.671   2.307
12327WAT    EPW50016   0.998   7.664   2.361
12328WAT      O50017   1.191   7.652   2.142
12328WAT     H150018   1.154   7.663   2.221
12328WAT     H250019   1.252   7.714   2.139
12328WAT    EPW50020   1.194   7.663   2.154
12329WAT      O50021   0.871   7.173   2.888
12329WAT     H150022   0.796   7.178   2.932
12329WAT     H250023   0.897   7.091   2.900
12329WAT    EPW50024   0.864   7.162   2.896
12330WAT      O50025   0.741   7.471   3.020
12330WAT     H150026   0.777   7.505   3.092
12330WAT     H250027   0.679   7.528   2.999
12330WAT    EPW50028   0.737   7.485   3.028
12331WAT      O50029   0.895   7.533   2.801
12331WAT     H150030   0.917   7.613   2.826
12331WAT     H250031   0.855   7.500   2.871
12331WAT    EPW50032   0.893   7.540   2.815
12332WAT      O50033   0.986   7.322   1.890
12332WAT     H150034   0.917   7.273   1.910
12332WAT     H250035   0.979   7.390   1.945
12332WAT    EPW50036   0.975   7.325   1.901
12333WAT      O50037   1.212   7.663   2.946
12333WAT     H150038   1.211   7.596   2.891
12333WAT     H250039   1.292   7.697   2.935
12333WAT    EPW50040   1.224   7.658   2.936
12334WAT      O50041   0.815   7.001   2.542
12334WAT     H150042   0.876   7.062   2.555
12334WAT     H250043   0.740   7.046   2.544
12334WAT    EPW50044   0.813   7.017   2.544
12335WAT      O50045   0.364   7.695   2.255
12335WAT     H150046   0.419   7.718   2.319
12335WAT     H250047   0.287   7.690   2.295
12335WAT    EPW50048   0.361   7.698   2.270
12336WAT      O50049   0.877   6.797   2.359
12336WAT     H150050   0.854   6.871   2.400
12336WAT     H250051   0.961   6.787   2.380
12336WAT    EPW50052   0.886   6.806   2.368
12337WAT      O50053   1.075   7.518   1.252
12337WAT     H150054   1.126   7.569   1.202
12337WAT     H250055   1.005   7.568   1.267
12337WAT    EPW50056   1.072   7.533   1.247
12338WAT      O50057   0.535   7.335   2.792
12338WAT     H150058   0.469   7.370   2.838
12338WAT     H250059   0.579   7.289   2.852
12338WAT    EPW50060   0.531   7.334   2.808
12339WAT      O50061   0.650   7.423   2.423
12339WAT     H150062   0.662   7.478   2.491
12339WAT     H250063   0.639   7.346   2.461
12339WAT    EPW50064   0.650   7.420   2.439
12340WAT      O50065   0.906   7.396   1.636
12340WAT     H150066   0.934   7.373   1.715
12340WAT     H250067   0.974   7.439   1.602
12340WAT    EPW50068   0.920   7.399   1.643
12341WAT      O50069   0.984   6.957   1.773
12341WAT     H150070   0.907   6.922   1.792
12341WAT     H250071   0.976   6.979   1.689
12341WAT    EPW50072   0.971   6.955   1.763
12342WAT      O50073   0.943   7.785   1.543
12342WAT     H150074   1.010   7.730   1.554
12342WAT     H250075   0.877   7.747   1.586
12342WAT    EPW50076   0.943   7.771   1.551
12343WAT      O50077   1.175   7.450   2.773
12343WAT     H150078   1.088   7.455   2.775
12343WAT     H250079   1.195   7.467   2.690
12343WAT    EPW50080   1.165   7.454   2.761
12344WAT      O50081   0.644   7.568   2.676
12344WAT     H150082   0.606   7.496   2.707
12344WAT     H250083   0.726   7.562   2.704
12344WAT    EPW50084   0.650   7.556   2.685
12345WAT      O50085   0.576   7.683   2.939
12345WAT     H150086   0.595   7.685   2.854
12345WAT     H250087   0.623   7.748   2.972
12345WAT    EPW50088   0.586   7.693   2.931
12346WAT      O50089   1.110   7.556   1.534
12346WAT     H150090   1.115   7.545   1.448
12346WAT     H250091   1.189   7.531   1.563
12346WAT    EPW50092   1.122   7.550   1.526
12347WAT      O50093   0.953   7.471   2.539
12347WAT     H150094   0.961   7.384   2.544
12347WAT     H250095   0.932   7.494   2.620
12347WAT    EPW50096   0.951   7.461   2.551
12348WAT      O50097   0.490   6.940   2.868
12348WAT     H150098   0.517   7.012   2.910
12348WAT     H250099   0.425   6.911   2.919
12348WAT    EPW50100   0.484   6.946   2.882
12349WAT      O50101   0.525   7.032   1.953
12349WAT     H150102   0.445   7.067   1.952
12349WAT     H250103   0.520   6.968   1.894
12349WAT    EPW50104   0.512   7.028   1.944
12350WAT      O50105   0.831   7.091   2.220
12350WAT     H150106   0.909   7.059   2.242
12350WAT     H250107   0.837   7.175   2.242
12350WAT    EPW50108   0.844   7.099   2.226
12351WAT      O50109   0.940   7.539   2.063
12351WAT     H150110   1.012   7.589   2.063
12351WAT     H250111   0.883   7.586   2.016
12351WAT    EPW50112   0.943   7.554   2.056
12352WAT      O50113   1.129   6.826   2.489
12352WAT     H150114   1.097   6.803   2.566
12352WAT     H250115   1.213   6.805   2.494
12352WAT    EPW50116   1.136   6.820   2.501
12353WAT      O50117   0.407   7.073   2.392
12353WAT     H150118   0.383   7.016   2.454
12353WAT     H250119   0.459   7.025   2.340
12353WAT    EPW50120   0.411   7.057   2.394
12354WAT      O50121   0.587   6.955   2.212
12354WAT     H150122   0.662   6.998   2.224
12354WAT     H250123   0.559   6.982   2.134
12354WAT    EPW50124   0.594   6.965   2.202
12355WAT      O50125   0.584   7.412   1.965
12355WAT     H150126   0.641   7.346   1.972
12355WAT     H250127   0.549   7.417   2.044
12355WAT    EPW50128   0.587   7.403   1.978
12356WAT      O50129   0.744   7.621   1.645
12356WAT     H150130   0.786   7.545   1.642
12356WAT     H250131   0.672   7.607   1.598
12356WAT    EPW50132   0.739   7.608   1.638
12357WAT      O50133   0.970   7.788   2.866
12357WAT     H150134   1.052   7.770   2.891
12357WAT     H250135   0.979   7.814   2.784
12357WAT    EPW50136   0.984   7.789   2.858
12358WAT      O50137   1.082   7.269   3.039
12358WAT     H150138   1.072   7.352   3.064
12358WAT     H250139   1.011   7.253   2.992
12358WAT    EPW50140   1.070   7.279   3.036
12359WAT      O50141   1.135   7.322   2.321
12359WAT     H150142   1.052   7.344   2.304
12359WAT     H250143   1.133   7.235   2.329
12359WAT    EPW50144   1.123   7.313   2.319
12360WAT      O50145   0.767   7.865   3.050
12360WAT     H150146   0.834   7.861   2.994
12360WAT     H250147   0.765   7.949   3.075
12360WAT    EPW50148   0.777   7.877   3.046
12361WAT      O50149   0.402   7.470   0.417
12361WAT     H150150   0.375   7.528   0.477
12361WAT     H250151   0.483   7.451   0.443
12361WAT    EPW50152   0.410   7.476   0.430
12362WAT      O50153   0.392   7.504   1.086
12362WAT     H150154   0.308   7.526   1.076
12362WAT     H250155   0.433   7.581   1.083
12362WAT    EPW50156   0.385   7.519   1.084
12363WAT      O50157   0.813   6.767   0.829
12363WAT     H150158   0.805   6.849   0.799
12363WAT     H250159   0.741   6.754   0.876
12363WAT    EPW50160   0.801   6.777   0.832
12364WAT      O50161   0.224   6.790   1.111
12364WAT     H150162   0.235   6.718   1.062
12364WAT     H250163   0.140   6.811   1.098
12364WAT    EPW50164   0.213   6.782   1.102
12365WAT      O50165   1.174   7.040   0.453
12365WAT     H150166   1.242   7.005   0.411
12365WAT     H250167   1.168   6.993   0.526
12365WAT    EPW50168   1.183   7.028   0.458
12366WAT      O50169   0.580   7.188   0.679
12366WAT     H150170   0.554   7.238   0.745
12366WAT     H250171   0.522   7.123   0.678
12366WAT    EPW50172   0.568   7.186   0.689
12367WAT      O50173   1.004   7.221   0.801
12367WAT     H150174   1.088   7.197   0.796
12367WAT     H250175   0.994   7.242   0.885
12367WAT    EPW50176   1.015   7.221   0.813
12368WAT      O50177   1.286   7.467   0.642
12368WAT     H150178   1.348   7.406   0.638
12368WAT     H250179   1.225   7.439   0.586
12368WAT    EPW50180   1.286   7.454   0.634
12369WAT      O50181   0.871   7.330   0.360
12369WAT     H150182   0.808   7.358   0.413
12369WAT     H250183   0.842   7.349   0.281
12369WAT    EPW50184   0.857   7.337   0.356
12370WAT      O50185   0.410   6.965   0.709
12370WAT     H150186   0.415   6.878   0.700
12370WAT     H250187   0.396   6.976   0.794
12370WAT    EPW50188   0.409   6.954   0.720
12371WAT      O50189   0.234   7.241   0.404
12371WAT     H150190   0.284   7.313   0.402
12371WAT     H250191   0.293   7.176   0.405
12371WAT    EPW50192   0.250   7.242   0.404
12372WAT      O50193   1.106   7.808   0.719
12372WAT     H150194   1.086   7.776   0.640
12372WAT     H250195   1.191   7.792   0.726
12372WAT    EPW50196   1.115   7.801   0.708
12373WAT      O50197   1.059   6.818   0.942
12373WAT     H150198   0.978   6.811   0.911
12373WAT     H250199   1.056   6.774   1.017
12373WAT    EPW50200   1.047   6.811   0.948
12374WAT      O50201   0.512   7.784   0.775
12374WAT     H150202   0.555   7.854   0.744
12374WAT     H250203   0.567   7.718   0.759
12374WAT    EPW50204   0.527   7.785   0.768
12375WAT      O50205   0.419   7.746   0.321
12375WAT     H150206   0.419   7.660   0.305
12375WAT     H250207   0.384   7.751   0.401
12375WAT    EPW50208   0.414   7.734   0.330
12376WAT      O50209   1.044   7.670   0.478
12376WAT     H150210   1.025   7.599   0.524
12376WAT     H250211   0.969   7.689   0.438
12376WAT    EPW50212   1.030   7.662   0.479
12377WAT      O50213   1.290   7.691   0.337
12377WAT     H150214   1.216   7.684   0.383
12377WAT     H250215   1.265   7.730   0.263
12377WAT    EPW50216   1.275   7.696   0.333
12378WAT      O50217   0.739   7.205   1.008
12378WAT     H150218   0.681   7.173   1.064
12378WAT     H250219   0.748   7.140   0.949
12378WAT    EPW50220   0.732   7.191   1.007
12379WAT      O50221   0.738   7.528   1.111
12379WAT     H150222   0.771   7.565   1.184
12379WAT     H250223   0.674   7.582   1.088
12379WAT    EPW50224   0.734   7.541   1.119
12380WAT      O50225   0.913   7.564   0.904
12380WAT     H150226   0.938   7.646   0.923
12380WAT     H250227   0.864   7.542   0.972
12380WAT    EPW50228   0.909   7.573   0.917
12381WAT      O50229   1.216   7.674   1.072
12381WAT     H150230   1.218   7.609   1.014
12381WAT     H250231   1.296   7.709   1.067
12381WAT    EPW50232   1.228   7.669   1.063
12382WAT      O50233   0.792   7.041   0.785
12382WAT     H150234   0.863   7.090   0.774
12382WAT     H250235   0.731   7.082   0.738
12382WAT    EPW50236   0.793   7.054   0.776
12383WAT      O50237   0.326   7.690   0.586
12383WAT     H150238   0.377   7.722   0.650
12383WAT     H250239   0.245   7.703   0.617
12383WAT    EPW50240   0.322   7.697   0.600
12384WAT      O50241   0.912   6.800   0.532
12384WAT     H150242   0.893   6.879   0.502
12384WAT     H250243   0.989   6.811   0.571
12384WAT    EPW50244   0.921   6.813   0.533
12385WAT      O50245   0.547   7.368   0.892
12385WAT     H150246   0.493   7.400   0.952
12385WAT     H250247   0.610   7.330   0.939
12385WAT    EPW50248   0.548   7.367   0.908
12386WAT      O50249   0.656   7.403   0.518
12386WAT     H150250   0.674   7.459   0.583
12386WAT     H250251   0.632   7.330   0.559
12386WAT    EPW50252   0.655   7.400   0.533
12387WAT      O50253   1.192   7.459   0.902
12387WAT     H150254   1.105   7.461   0.905
12387WAT     H250255   1.210   7.470   0.817
12387WAT    EPW50256   1.182   7.461   0.890
12388WAT      O50257   0.675   7.565   0.749
12388WAT     H150258   0.631   7.504   0.794
12388WAT     H250259   0.751   7.570   0.791
12388WAT    EPW50260   0.679   7.557   0.762
12389WAT      O50261   0.554   7.732   1.049
12389WAT     H150262   0.536   7.759   0.968
12389WAT     H250263   0.608   7.794   1.079
12389WAT    EPW50264   0.560   7.745   1.041
12390WAT      O50265   0.971   7.466   0.652
12390WAT     H150266   0.979   7.381   0.672
12390WAT     H250267   0.952   7.503   0.729
12390WAT    EPW50268   0.969   7.459   0.667
12391WAT      O50269   0.407   6.968   0.993
12391WAT     H150270   0.439   7.024   1.052
12391WAT     H250271   0.346   6.924   1.037
12391WAT    EPW50272   0.403   6.970   1.008
12392WAT      O50273   0.889   7.054   0.406
12392WAT     H150274   0.976   7.045   0.402
12392WAT     H250275   0.877   7.140   0.394
12392WAT    EPW50276   0.900   7.066   0.404
12393WAT      O50277   1.147   6.865   0.671
12393WAT     H150278   1.128   6.847   0.754
12393WAT     H250279   1.217   6.815   0.655
12393WAT    EPW50280   1.155   6.855   0.681
12394WAT      O50281   0.397   7.006   0.429
12394WAT     H150282   0.342   6.946   0.399
12394WAT     H250283   0.392   6.998   0.516
12394WAT    EPW50284   0.388   6.996   0.437
12395WAT      O50285   0.650   6.907   0.338
12395WAT     H150286   0.714   6.963   0.354
12395WAT     H250287   0.578   6.950   0.364
12395WAT    EPW50288   0.649   6.921   0.345
12396WAT      O50289   0.994   7.820   0.973
12396WAT     H150290   1.064   7.791   1.017
12396WAT     H250291   1.024   7.836   0.893
12396WAT    EPW50292   1.009   7.818   0.968
12397WAT      O50293   0.993   7.286   1.086
12397WAT     H150294   1.000   7.359   1.133
12397WAT     H250295   0.906   7.274   1.081
12397WAT    EPW50296   0.981   7.295   1.092
12398WAT      O50297   1.141   7.318   0.445
12398WAT     H150298   1.058   7.328   0.421
12398WAT     H250299   1.151   7.231   0.450
12398WAT    EPW50300   1.130   7.307   0.443
12399WAT      O50301   0.768   7.904   1.129
12399WAT     H150302   0.838   7.900   1.077
12399WAT     H250303   0.769   7.986   1.158
12399WAT    EPW50304   0.778   7.915   1.126
12400WAT      O50305   0.485   5.004   7.421
12400WAT     H150306   0.478   5.055   7.351
12400WAT     H250307   0.570   4.985   7.425
12400WAT    EPW50308   0.497   5.009   7.411
12401WAT      O50309   1.058   6.489   7.177
12401WAT     H150310   1.121   6.432   7.199
12401WAT     H250311   1.002   6.440   7.131
12401WAT    EPW50312   1.059   6.473   7.173
12402WAT      O50313   0.707   5.831   7.542
12402WAT     H150314   0.718   5.818   7.457
12402WAT     H250315   0.655   5.765   7.566
12402WAT    EPW50316   0.701   5.819   7.533
12403WAT      O50317   0.175   6.300   7.729
12403WAT     H150318   0.200   6.226   7.689
12403WAT     H250319   0.242   6.354   7.717
12403WAT    EPW50320   0.188   6.297   7.721
12404WAT      O50321   0.276   6.222   7.304
12404WAT     H150322   0.309   6.147   7.333
12404WAT     H250323   0.311   6.230   7.224
12404WAT    EPW50324   0.286   6.212   7.296
12405WAT      O50325   0.612   5.288   6.815
12405WAT     H150326   0.580   5.359   6.854
12405WAT     H250327   0.638   5.238   6.882
12405WAT    EPW50328   0.611   5.291   6.831
12406WAT      O50329   0.653   6.611   7.111
12406WAT     H150330   0.725   6.659   7.118
12406WAT     H250331   0.676   6.533   7.142
12406WAT    EPW50332   0.667   6.606   7.117
12407WAT      O50333   0.433   6.623   7.276
12407WAT     H150334   0.447   6.693   7.325
12407WAT     H250335   0.504   6.619   7.225
12407WAT    EPW50336   0.446   6.633   7.276
12408WAT      O50337   1.167   5.285   7.545
12408WAT     H150338   1.120   5.355   7.567
12408WAT     H250339   1.106   5.226   7.524
12408WAT    EPW50340   1.151   5.286   7.545
12409WAT      O50341   0.366   5.554   7.424
12409WAT     H150342   0.398   5.503   7.361
12409WAT     H250343   0.433   5.562   7.480
12409WAT    EPW50344   0.381   5.548   7.423
12410WAT      O50345   0.477   5.507   6.949
12410WAT     H150346   0.491   5.592   6.965
12410WAT     H250347   0.424   5.508   6.880
12410WAT    EPW50348   0.471   5.520   6.941
12411WAT      O50349   0.865   6.786   7.076
12411WAT     H150350   0.913   6.757   7.009
12411WAT     H250351   0.920   6.838   7.120
12411WAT    EPW50352   0.880   6.790   7.073
12412WAT      O50353   0.368   6.489   6.896
12412WAT     H150354   0.343   6.558   6.943
12412WAT     H250355   0.453   6.503   6.882
12412WAT    EPW50356   0.377   6.501   6.901
12413WAT      O50357   0.683   5.140   7.038
12413WAT     H150358   0.737   5.072   7.047
12413WAT     H250359   0.714   5.198   7.096
12413WAT    EPW50360   0.696   5.139   7.048
12414WAT      O50361   0.462   5.405   7.211
12414WAT     H150362   0.440   5.321   7.203
12414WAT     H250363   0.460   5.435   7.130
12414WAT    EPW50364   0.459   5.397   7.198
12415WAT      O50365   0.444   5.128   7.175
12415WAT     H150366   0.390   5.074   7.133
12415WAT     H250367   0.518   5.123   7.129
12415WAT    EPW50368   0.447   5.119   7.162
12416WAT      O50369   1.126   6.709   7.484
12416WAT     H150370   1.085   6.786   7.489
12416WAT     H250371   1.062   6.653   7.465
12416WAT    EPW50372   1.110   6.712   7.482
12417WAT      O50373   0.250   5.345   7.566
12417WAT     H150374   0.271   5.416   7.520
12417WAT     H250375   0.162   5.344   7.563
12417WAT    EPW50376   0.240   5.356   7.559
12418WAT      O50377   0.833   6.294   7.468
12418WAT     H150378   0.903   6.241   7.468
12418WAT     H250379   0.768   6.242   7.491
12418WAT    EPW50380   0.834   6.279   7.471
12419WAT      O50381   0.749   4.939   7.468
12419WAT     H150382   0.739   4.926   7.553
12419WAT     H250383   0.787   4.865   7.441
12419WAT    EPW50384   0.753   4.926   7.476
12420WAT      O50385   1.014   6.087   7.052
12420WAT     H150386   1.010   6.037   7.123
12420WAT     H250387   1.099   6.094   7.036
12420WAT    EPW50388   1.026   6.081   7.061
12421WAT      O50389   0.820   5.751   6.989
12421WAT     H150390   0.812   5.832   6.958
12421WAT     H250391   0.782   5.754   7.067
12421WAT    EPW50392   0.813   5.763   6.996
12422WAT      O50393   1.169   5.214   6.957
12422WAT     H150394   1.209   5.160   6.901
12422WAT     H250395   1.129   5.271   6.905
12422WAT    EPW50396   1.169   5.214   6.941
12423WAT      O50397   1.047   5.108   7.186
12423WAT     H150398   1.120   5.070   7.216
12423WAT     H250399   1.074   5.151   7.115
12423WAT    EPW50400   1.062   5.109   7.180
12424WAT      O50401   0.420   6.438   7.688
12424WAT     H150402   0.415   6.525   7.694
12424WAT     H250403   0.435   6.425   7.603
12424WAT    EPW50404   0.422   6.449   7.676
12425WAT      O50405   0.709   5.379   7.696
12425WAT     H150406   0.720   5.343   7.774
12425WAT     H250407   0.652   5.326   7.657
12425WAT    EPW50408   0.702   5.366   7.702
12426WAT      O50409   0.729   5.327   7.233
12426WAT     H150410   0.779   5.387   7.271
12426WAT     H250411   0.649   5.360   7.238
12426WAT    EPW50412   0.725   5.341   7.239
12427WAT      O50413   0.478   5.795   7.005
12427WAT     H150414   0.492   5.880   6.994
12427WAT     H250415   0.455   5.788   7.089
12427WAT    EPW50416   0.477   5.806   7.016
12428WAT      O50417   1.038   6.100   7.470
12428WAT     H150418   1.044   6.056   7.545
12428WAT     H250419   1.009   6.040   7.414
12428WAT    EPW50420   1.035   6.085   7.473
12429WAT      O50421   0.513   6.192   7.783
12429WAT     H150422   0.488   6.273   7.760
12429WAT     H250423   0.534   6.200   7.867
12429WAT    EPW50424   0.512   6.205   7.792
12430WAT      O50425   0.293   6.707   7.057
12430WAT     H150426   0.323   6.673   7.131
12430WAT     H250427   0.206   6.710   7.070
12430WAT    EPW50428   0.284   6.702   7.070
12431WAT      O50429   0.449   5.777   7.282
12431WAT     H150430   0.428   5.849   7.327
12431WAT     H250431   0.409   5.713   7.325
12431WAT    EPW50432   0.440   5.778   7.295
12432WAT      O50433   0.297   6.042   7.687
12432WAT     H150434   0.246   6.017   7.753
12432WAT     H250435   0.363   6.084   7.726
12432WAT    EPW50436   0.299   6.045   7.703
12433WAT      O50437   1.238   6.659   7.059
12433WAT     H150438   1.303   6.607   7.033
12433WAT     H250439   1.182   6.605   7.098
12433WAT    EPW50440   1.240   6.644   7.061
12434WAT      O50441   1.079   5.973   7.714
12434WAT     H150442   1.075   6.037   7.773
12434WAT     H250443   1.162   5.947   7.718
12434WAT    EPW50444   1.091   5.979   7.723
12435WAT      O50445   1.306   6.427   7.880
12435WAT     H150446   1.305   6.470   7.804
12435WAT     H250447   1.381   6.450   7.917
12435WAT    EPW50448   1.317   6.437   7.874
12436WAT      O50449   0.882   6.329   7.039
12436WAT     H150450   0.918   6.250   7.047
12436WAT     H250451   0.810   6.324   7.088
12436WAT    EPW50452   0.877   6.317   7.048
12437WAT      O50453   0.958   5.475   7.602
12437WAT     H150454   0.886   5.438   7.635
12437WAT     H250455   0.957   5.555   7.636
12437WAT    EPW50456   0.948   5.481   7.612
12438WAT      O50457   0.528   6.058   6.929
12438WAT     H150458   0.615   6.054   6.927
12438WAT     H250459   0.506   6.064   6.844
12438WAT    EPW50460   0.538   6.058   6.916
12439WAT      O50461   0.433   6.725   7.669
12439WAT     H150462   0.437   6.746   7.585
12439WAT     H250463   0.412   6.800   7.708
12439WAT    EPW50464   0.430   6.739   7.663
12440WAT      O50465   1.075   5.645   6.962
12440WAT     H150466   1.125   5.702   6.918
12440WAT     H250467   0.996   5.683   6.962
12440WAT    EPW50468   1.071   5.659   6.955
12441WAT      O50469   0.858   5.542   7.353
12441WAT     H150470   0.886   5.517   7.432
12441WAT     H250471   0.930   5.573   7.314
12441WAT    EPW50472   0.873   5.543   7.359
12442WAT      O50473   0.973   5.105   7.456
12442WAT     H150474   0.894   5.069   7.463
12442WAT     H250475   0.979   5.123   7.370
12442WAT    EPW50476   0.962   5.102   7.444
12443WAT      O50477   0.966   5.921   7.272
12443WAT     H150478   1.013   5.847   7.267
12443WAT     H250479   0.884   5.894   7.268
12443WAT    EPW50480   0.961   5.906   7.271
12444WAT      O50481   0.640   6.103   7.545
12444WAT     H150482   0.609   6.127   7.623
12444WAT     H250483   0.667   6.022   7.558
12444WAT    EPW50484   0.639   6.095   7.559
12445WAT      O50485   0.404   6.008   7.430
12445WAT     H150486   0.358   6.008   7.504
12445WAT     H250487   0.479   6.044   7.453
12445WAT    EPW50488   0.408   6.013   7.444
12446WAT      O50489   0.706   6.728   7.725
12446WAT     H150490   0.619   6.722   7.720
12446WAT     H250491   0.728   6.658   7.772
12446WAT    EPW50492   0.696   6.717   7.731
12447WAT      O50493   1.073   5.669   7.238
12447WAT     H150494   1.079   5.660   7.151
12447WAT     H250495   1.151   5.641   7.266
12447WAT    EPW50496   1.085   5.663   7.229
12448WAT      O50497   0.460   6.389   7.421
12448WAT     H150498   0.449   6.463   7.376
12448WAT     H250499   0.397   6.337   7.391
12448WAT    EPW50500   0.449   6.392   7.410
12449WAT      O50501   0.501   5.229   7.593
12449WAT     H150502   0.420   5.260   7.590
12449WAT     H250503   0.498   5.159   7.541
12449WAT    EPW50504   0.489   5.223   7.585
12450WAT      O50505   0.927   5.738   7.686
12450WAT     H150506   0.977   5.807   7.702
12450WAT     H250507   0.859   5.771   7.643
12450WAT    EPW50508   0.924   5.753   7.682
12451WAT      O50509   0.903   6.556   7.395
12451WAT     H150510   0.877   6.478   7.425
12451WAT     H250511   0.948   6.537   7.323
12451WAT    EPW50512   0.906   6.542   7.389
12452WAT      O50513   0.559   5.605   7.622
12452WAT     H150514   0.612   5.538   7.642
12452WAT     H250515   0.512   5.617   7.694
12452WAT    EPW50516   0.560   5.597   7.635
12453WAT      O50517   0.726   5.770   7.264
12453WAT     H150518   0.752   5.691   7.290
12453WAT     H250519   0.639   5.765   7.264
12453WAT    EPW50520   0.717   5.758   7.268
12454WAT      O50521   1.035   6.708   6.874
12454WAT     H150522   1.105   6.698   6.925
12454WAT     H250523   1.015   6.627   6.850
12454WAT    EPW50524   1.042   6.694   6.878
12455WAT      O50525   0.656   6.347   7.198
12455WAT     H150526   0.641   6.340   7.283
12455WAT     H250527   0.580   6.322   7.162
12455WAT    EPW50528   0.642   6.342   7.205
12456WAT      O50529   0.420   6.272   7.069
12456WAT     H150530   0.448   6.206   7.020
12456WAT     H250531   0.394   6.331   7.011
12456WAT    EPW50532   0.421   6.271   7.054
12457WAT      O50533   0.508   4.997   5.558
12457WAT     H150534   0.511   5.050   5.488
12457WAT     H250535   0.591   4.975   5.571
12457WAT    EPW50536   0.521   5.002   5.550
12458WAT      O50537   0.446   5.641   5.972
12458WAT     H150538   0.415   5.721   5.990
12458WAT     H250539   0.498   5.624   6.040
12458WAT    EPW50540   0.449   5.651   5.985
12459WAT      O50541   1.044   6.494   5.322
12459WAT     H150542   1.108   6.436   5.334
12459WAT     H250543   0.988   6.452   5.270
12459WAT    EPW50544   1.045   6.479   5.316
12460WAT      O50545   0.724   5.832   5.649
12460WAT     H150546   0.731   5.819   5.563
12460WAT     H250547   0.667   5.770   5.674
12460WAT    EPW50548   0.717   5.821   5.640
12461WAT      O50549   0.287   6.342   5.919
12461WAT     H150550   0.270   6.264   5.885
12461WAT     H250551   0.343   6.378   5.862
12461WAT    EPW50552   0.293   6.336   5.905
12462WAT      O50553   0.299   6.228   5.434
12462WAT     H150554   0.332   6.159   5.476
12462WAT     H250555   0.329   6.218   5.352
12462WAT    EPW50556   0.309   6.216   5.428
12463WAT      O50557   0.354   5.535   6.697
12463WAT     H150558   0.272   5.538   6.668
12463WAT     H250559   0.380   5.618   6.695
12463WAT    EPW50560   0.346   5.548   6.692
12464WAT      O50561   0.893   4.938   6.468
12464WAT     H150562   0.869   5.007   6.419
12464WAT     H250563   0.819   4.918   6.511
12464WAT    EPW50564   0.878   4.945   6.467
12465WAT      O50565   0.614   5.289   4.924
12465WAT     H150566   0.581   5.360   4.964
12465WAT     H250567   0.640   5.239   4.991
12465WAT    EPW50568   0.613   5.292   4.940
12466WAT      O50569   0.631   6.625   5.224
12466WAT     H150570   0.706   6.669   5.231
12466WAT     H250571   0.652   6.546   5.254
12466WAT    EPW50572   0.645   6.620   5.229
12467WAT      O50573   0.395   6.684   5.349
12467WAT     H150574   0.419   6.724   5.423
12467WAT     H250575   0.471   6.667   5.309
12467WAT    EPW50576   0.410   6.688   5.354
12468WAT      O50577   1.194   5.276   5.661
12468WAT     H150578   1.149   5.350   5.671
12468WAT     H250579   1.132   5.216   5.648
12468WAT    EPW50580   1.178   5.278   5.660
12469WAT      O50581   0.684   6.604   6.229
12469WAT     H150582   0.749   6.662   6.218
12469WAT     H250583   0.670   6.574   6.148
12469WAT    EPW50584   0.691   6.608   6.215
12470WAT      O50585   0.273   4.966   6.793
12470WAT     H150586   0.278   4.895   6.741
12470WAT     H250587   0.196   5.001   6.772
12470WAT    EPW50588   0.263   4.960   6.782
12471WAT      O50589   0.375   5.566   5.548
12471WAT     H150590   0.404   5.513   5.485
12471WAT     H250591   0.443   5.572   5.603
12471WAT    EPW50592   0.389   5.559   5.547
12472WAT      O50593   0.473   5.499   5.070
12472WAT     H150594   0.484   5.584   5.088
12472WAT     H250595   0.421   5.500   5.000
12472WAT    EPW50596   0.467   5.512   5.062
12473WAT      O50597   0.854   6.790   5.206
12473WAT     H150598   0.904   6.766   5.138
12473WAT     H250599   0.908   6.835   5.257
12473WAT    EPW50600   0.869   6.793   5.203
12474WAT      O50601   1.091   5.230   6.102
12474WAT     H150602   1.152   5.215   6.041
12474WAT     H250603   1.107   5.169   6.162
12474WAT    EPW50604   1.103   5.219   6.102
12475WAT      O50605   0.620   6.406   6.595
12475WAT     H150606   0.623   6.437   6.676
12475WAT     H250607   0.703   6.391   6.575
12475WAT    EPW50608   0.633   6.408   6.604
12476WAT      O50609   0.349   6.429   4.998
12476WAT     H150610   0.301   6.486   5.044
12476WAT     H250611   0.425   6.471   4.987
12476WAT    EPW50612   0.354   6.443   5.003
12477WAT      O50613   0.688   5.146   5.149
12477WAT     H150614   0.743   5.079   5.160
12477WAT     H250615   0.718   5.207   5.203
12477WAT    EPW50616   0.700   5.145   5.158
12478WAT      O50617   0.466   5.408   5.337
12478WAT     H150618   0.448   5.323   5.335
12478WAT     H250619   0.460   5.433   5.254
12478WAT    EPW50620   0.463   5.399   5.324
12479WAT      O50621   0.423   6.648   6.300
12479WAT     H150622   0.508   6.643   6.281
12479WAT     H250623   0.384   6.638   6.222
12479WAT    EPW50624   0.429   6.646   6.285
12480WAT      O50625   0.467   5.127   5.314
12480WAT     H150626   0.414   5.065   5.284
12480WAT     H250627   0.534   5.126   5.259
12480WAT    EPW50628   0.469   5.118   5.302
12481WAT      O50629   1.130   6.713   5.618
12481WAT     H150630   1.088   6.788   5.630
12481WAT     H250631   1.065   6.655   5.606
12481WAT    EPW50632   1.114   6.715   5.618
12482WAT      O50633   0.280   5.349   5.705
12482WAT     H150634   0.290   5.422   5.658
12482WAT     H250635   0.259   5.379   5.785
12482WAT    EPW50636   0.278   5.364   5.710
12483WAT      O50637   0.890   6.288   5.685
12483WAT     H150638   0.951   6.228   5.668
12483WAT     H250639   0.815   6.245   5.675
12483WAT    EPW50640   0.888   6.273   5.681
12484WAT      O50641   0.608   5.333   6.320
12484WAT     H150642   0.605   5.374   6.397
12484WAT     H250643   0.545   5.272   6.327
12484WAT    EPW50644   0.598   5.330   6.333
12485WAT      O50645   0.738   6.039   6.204
12485WAT     H150646   0.657   6.010   6.220
12485WAT     H250647   0.732   6.125   6.212
12485WAT    EPW50648   0.725   6.047   6.208
12486WAT      O50649   0.766   4.930   5.634
12486WAT     H150650   0.764   4.925   5.721
12486WAT     H250651   0.804   4.855   5.610
12486WAT    EPW50652   0.771   4.918   5.643
12487WAT      O50653   0.979   5.392   6.420
12487WAT     H150654   1.060   5.371   6.446
12487WAT     H250655   0.931   5.381   6.492
12487WAT    EPW50656   0.984   5.388   6.435
12488WAT      O50657   1.018   6.102   5.180
12488WAT     H150658   1.016   6.054   5.252
12488WAT     H250659   1.102   6.105   5.159
12488WAT    EPW50660   1.030   6.096   5.187
12489WAT      O50661   1.257   6.509   6.570
12489WAT     H150662   1.183   6.515   6.525
12489WAT     H250663   1.236   6.460   6.639
12489WAT    EPW50664   1.243   6.503   6.573
12490WAT      O50665   0.828   5.755   5.100
12490WAT     H150666   0.824   5.836   5.070
12490WAT     H250667   0.790   5.760   5.178
12490WAT    EPW50668   0.822   5.768   5.107
12491WAT      O50669   1.167   5.223   5.088
12491WAT     H150670   1.211   5.172   5.032
12491WAT     H250671   1.125   5.279   5.036
12491WAT    EPW50672   1.168   5.223   5.072
12492WAT      O50673   1.272   5.649   6.334
12492WAT     H150674   1.308   5.576   6.305
12492WAT     H250675   1.190   5.645   6.304
12492WAT    EPW50676   1.265   5.638   6.326
12493WAT      O50677   1.048   5.107   5.317
12493WAT     H150678   1.122   5.070   5.343
12493WAT     H250679   1.072   5.156   5.248
12493WAT    EPW50680   1.062   5.109   5.310
12494WAT      O50681   0.470   6.484   5.770
12494WAT     H150682   0.434   6.563   5.773
12494WAT     H250683   0.472   6.466   5.685
12494WAT    EPW50684   0.465   6.493   5.758
12495WAT      O50685   0.738   5.376   5.764
12495WAT     H150686   0.768   5.344   5.839
12495WAT     H250687   0.674   5.322   5.742
12495WAT    EPW50688   0.733   5.364   5.772
12496WAT      O50689   1.022   6.555   6.404
12496WAT     H150690   0.958   6.612   6.422
12496WAT     H250691   1.006   6.530   6.322
12496WAT    EPW50692   1.010   6.560   6.395
12497WAT      O50693   0.862   5.557   6.045
12497WAT     H150694   0.789   5.580   6.087
12497WAT     H250695   0.862   5.608   5.974
12497WAT    EPW50696   0.851   5.568   6.041
12498WAT      O50697   0.321   6.603   6.044
12498WAT     H150698   0.290   6.527   6.014
12498WAT     H250699   0.334   6.650   5.972
12498WAT    EPW50700   0.318   6.598   6.029
12499WAT      O50701   0.427   5.117   6.370
12499WAT     H150702   0.426   5.033   6.347
12499WAT     H250703   0.435   5.113   6.457
12499WAT    EPW50704   0.428   5.104   6.380
12500WAT      O50705   0.736   5.338   5.337
12500WAT     H150706   0.787   5.401   5.369
12500WAT     H250707   0.655   5.369   5.347
12500WAT    EPW50708   0.732   5.352   5.343
12501WAT      O50709   0.767   6.107   6.631
12501WAT     H150710   0.808   6.181   6.608
12501WAT     H250711   0.799   6.048   6.575
12501WAT    EPW50712   0.778   6.109   6.619
12502WAT      O50713   0.247   5.441   5.966
12502WAT     H150714   0.308   5.503   5.973
12502WAT     H250715   0.276   5.378   6.018
12502WAT    EPW50716   0.260   5.441   5.974
12503WAT      O50717   0.475   5.781   5.136
12503WAT     H150718   0.499   5.864   5.119
12503WAT     H250719   0.452   5.784   5.220
12503WAT    EPW50720   0.475   5.794   5.146
12504WAT      O50721   1.057   6.071   5.638
12504WAT     H150722   1.059   6.021   5.709
12504WAT     H250723   1.021   6.020   5.578
12504WAT    EPW50724   1.052   6.056   5.640
12505WAT      O50725   0.664   6.485   5.974
12505WAT     H150726   0.603   6.472   5.913
12505WAT     H250727   0.704   6.558   5.946
12505WAT    EPW50728   0.661   6.494   5.961
12506WAT      O50729   0.656   6.121   5.950
12506WAT     H150730   0.581   6.150   5.985
12506WAT     H250731   0.688   6.068   6.012
12506WAT    EPW50732   0.650   6.118   5.964
12507WAT      O50733   0.222   6.637   5.127
12507WAT     H150734   0.266   6.660   5.199
12507WAT     H250735   0.241   6.702   5.071
12507WAT    EPW50736   0.231   6.650   5.129
12508WAT      O50737   0.847   5.933   6.433
12508WAT     H150738   0.814   5.971   6.362
12508WAT     H250739   0.932   5.954   6.430
12508WAT    EPW50740   0.855   5.942   6.422
12509WAT      O50741   0.632   6.545   6.842
12509WAT     H150742   0.648   6.573   6.923
12509WAT     H250743   0.637   6.618   6.794
12509WAT    EPW50744   0.635   6.560   6.847
12510WAT      O50745   0.982   5.070   6.692
12510WAT     H150746   0.955   5.026   6.621
12510WAT     H250747   0.982   5.010   6.755
12510WAT    EPW50748   0.978   5.055   6.691
12511WAT      O50749   0.488   5.944   6.271
12511WAT     H150750   0.449   6.003   6.321
12511WAT     H250751   0.513   5.883   6.328
12511WAT    EPW50752   0.486   5.944   6.287
12512WAT      O50753   0.456   5.799   5.418
12512WAT     H150754   0.437   5.867   5.469
12512WAT     H250755   0.418   5.732   5.460
12512WAT    EPW50756   0.447   5.799   5.432
12513WAT      O50757   0.904   6.259   5.975
12513WAT     H150758   0.923   6.284   5.894
12513WAT     H250759   0.825   6.224   5.968
12513WAT    EPW50760   0.895   6.257   5.962
12514WAT      O50761   0.269   6.071   5.827
12514WAT     H150762   0.185   6.049   5.820
12514WAT     H250763   0.297   6.021   5.893
12514WAT    EPW50764   0.260   6.060   5.836
12515WAT      O50765   1.220   6.660   5.186
12515WAT     H150766   1.286   6.609   5.162
12515WAT     H250767   1.166   6.606   5.229
12515WAT    EPW50768   1.221   6.645   5.189
12516WAT      O50769   0.984   5.900   6.136
12516WAT     H150770   0.987   5.828   6.186
12516WAT     H250771   0.905   5.933   6.151
12516WAT    EPW50772   0.973   5.894   6.146
12517WAT      O50773   1.080   5.910   5.871
12517WAT     H150774   1.052   5.914   5.953
12517WAT     H250775   1.167   5.907   5.879
12517WAT    EPW50776   1.089   5.910   5.884
12518WAT      O50777   0.846   5.315   6.661
12518WAT     H150778   0.771   5.309   6.704
12518WAT     H250779   0.882   5.236   6.672
12518WAT    EPW50780   0.840   5.302   6.669
12519WAT      O50781   1.217   6.425   5.966
12519WAT     H150782   1.255   6.474   5.905
12519WAT     H250783   1.277   6.419   6.028
12519WAT    EPW50784   1.231   6.431   5.966
12520WAT      O50785   0.726   5.645   6.747
12520WAT     H150786   0.751   5.664   6.829
12520WAT     H250787   0.654   5.693   6.736
12520WAT    EPW50788   0.719   5.655   6.758
12521WAT      O50789   0.962   5.700   6.609
12521WAT     H150790   0.975   5.783   6.632
12521WAT     H250791   0.888   5.678   6.649
12521WAT    EPW50792   0.953   5.709   6.618
12522WAT      O50793   0.879   6.343   5.164
12522WAT     H150794   0.916   6.264   5.173
12522WAT     H250795   0.805   6.337   5.209
12522WAT    EPW50796   0.874   6.330   5.172
12523WAT      O50797   0.986   5.471   5.680
12523WAT     H150798   0.917   5.425   5.704
12523WAT     H250799   0.978   5.545   5.725
12523WAT    EPW50800   0.975   5.475   5.690
12524WAT      O50801   1.245   5.799   6.804
12524WAT     H150802   1.256   5.739   6.742
12524WAT     H250803   1.323   5.837   6.811
12524WAT    EPW50804   1.258   5.796   6.796
12525WAT      O50805   1.109   6.040   6.427
12525WAT     H150806   1.181   5.998   6.403
12525WAT     H250807   1.100   6.102   6.366
12525WAT    EPW50808   1.118   6.043   6.414
12526WAT      O50809   0.541   6.033   5.040
12526WAT     H150810   0.628   6.035   5.035
12526WAT     H250811   0.516   6.044   4.957
12526WAT    EPW50812   0.551   6.035   5.027
12527WAT      O50813   0.836   5.172   6.323
12527WAT     H150814   0.893   5.236   6.338
12527WAT     H250815   0.760   5.214   6.316
12527WAT    EPW50816   0.833   5.188   6.324
12528WAT      O50817   0.333   5.892   6.039
12528WAT     H150818   0.385   5.925   6.101
12528WAT     H250819   0.261   5.871   6.082
12528WAT    EPW50820   0.330   5.894   6.055
12529WAT      O50821   0.354   6.740   5.783
12529WAT     H150822   0.400   6.773   5.717
12529WAT     H250823   0.285   6.794   5.790
12529WAT    EPW50824   0.350   6.753   5.775
12530WAT      O50825   0.889   4.963   6.146
12530WAT     H150826   0.868   5.038   6.186
12530WAT     H250827   0.974   4.953   6.163
12530WAT    EPW50828   0.898   4.973   6.154
12531WAT      O50829   0.497   6.046   6.653
12531WAT     H150830   0.578   6.075   6.637
12531WAT     H250831   0.450   6.081   6.588
12531WAT    EPW50832   0.502   6.055   6.641
12532WAT      O50833   0.890   6.355   6.561
12532WAT     H150834   0.917   6.385   6.638
12532WAT     H250835   0.932   6.406   6.503
12532WAT    EPW50836   0.900   6.367   6.564
12533WAT      O50837   1.085   5.652   5.071
12533WAT     H150838   1.131   5.706   5.019
12533WAT     H250839   1.005   5.687   5.072
12533WAT    EPW50840   1.080   5.665   5.063
12534WAT      O50841   0.591   5.496   6.546
12534WAT     H150842   0.514   5.492   6.588
12534WAT     H250843   0.649   5.507   6.611
12534WAT    EPW50844   0.588   5.497   6.562
12535WAT      O50845   0.619   5.580   6.180
12535WAT     H150846   0.623   5.632   6.250
12535WAT     H250847   0.611   5.500   6.215
12535WAT    EPW50848   0.619   5.576   6.196
12536WAT      O50849   0.348   6.607   6.644
12536WAT     H150850   0.343   6.545   6.582
12536WAT     H250851   0.341   6.562   6.718
12536WAT    EPW50852   0.346   6.591   6.645
12537WAT      O50853   0.870   5.555   5.445
12537WAT     H150854   0.900   5.526   5.521
12537WAT     H250855   0.940   5.591   5.407
12537WAT    EPW50856   0.884   5.556   5.451
12538WAT      O50857   0.987   5.100   5.592
12538WAT     H150858   0.910   5.062   5.607
12538WAT     H250859   0.985   5.117   5.507
12538WAT    EPW50860   0.975   5.097   5.582
12539WAT      O50861   0.973   5.936   5.404
12539WAT     H150862   1.020   5.863   5.391
12539WAT     H250863   0.891   5.909   5.392
12539WAT    EPW50864   0.968   5.921   5.400
12540WAT      O50865   0.351   6.135   6.432
12540WAT     H150866   0.264   6.128   6.426
12540WAT     H250867   0.365   6.221   6.427
12540WAT    EPW50868   0.340   6.147   6.430
12541WAT      O50869   0.670   6.104   5.676
12541WAT     H150870   0.660   6.113   5.763
12541WAT     H250871   0.697   6.021   5.667
12541WAT    EPW50872   0.673   6.093   5.688
12542WAT      O50873   0.417   6.026   5.588
12542WAT     H150874   0.369   6.034   5.661
12542WAT     H250875   0.495   6.056   5.611
12542WAT    EPW50876   0.421   6.031   5.602
12543WAT      O50877   0.392   6.412   6.443
12543WAT     H150878   0.469   6.410   6.485
12543WAT     H250879   0.400   6.481   6.390
12543WAT    EPW50880   0.405   6.422   6.441
12544WAT      O50881   1.226   5.608   6.604
12544WAT     H150882   1.140   5.621   6.606
12544WAT     H250883   1.248   5.627   6.521
12544WAT    EPW50884   1.217   5.613   6.592
12545WAT      O50885   0.628   5.742   6.409
12545WAT     H150886   0.619   5.673   6.462
12545WAT     H250887   0.704   5.776   6.432
12545WAT    EPW50888   0.638   5.737   6.421
12546WAT      O50889   0.481   5.778   6.726
12546WAT     H150890   0.484   5.859   6.693
12546WAT     H250891   0.471   5.791   6.812
12546WAT    EPW50892   0.480   5.792   6.734
12547WAT      O50893   0.749   6.745   5.920
12547WAT     H150894   0.685   6.799   5.944
12547WAT     H250895   0.810   6.757   5.981
12547WAT    EPW50896   0.749   6.755   5.932
12548WAT      O50897   0.442   6.205   6.102
12548WAT     H150898   0.389   6.260   6.059
12548WAT     H250899   0.489   6.258   6.153
12548WAT    EPW50900   0.441   6.221   6.103
12549WAT      O50901   0.977   6.447   6.806
12549WAT     H150902   1.056   6.412   6.813
12549WAT     H250903   0.932   6.411   6.872
12549WAT    EPW50904   0.982   6.437   6.817
12550WAT      O50905   1.086   5.690   5.345
12550WAT     H150906   1.095   5.680   5.259
12550WAT     H250907   1.158   5.654   5.378
12550WAT    EPW50908   1.098   5.683   5.337
12551WAT      O50909   0.450   6.447   5.497
12551WAT     H150910   0.415   6.512   5.451
12551WAT     H250911   0.396   6.380   5.483
12551WAT    EPW50912   0.437   6.446   5.488
12552WAT      O50913   0.987   5.670   6.326
12552WAT     H150914   0.974   5.584   6.326
12552WAT     H250915   0.972   5.693   6.409
12552WAT    EPW50916   0.983   5.661   6.338
12553WAT      O50917   0.477   5.098   6.649
12553WAT     H150918   0.514   5.161   6.697
12553WAT     H250919   0.415   5.065   6.701
12553WAT    EPW50920   0.474   5.102   6.663
12554WAT      O50921   0.516   5.213   5.734
12554WAT     H150922   0.440   5.255   5.726
12554WAT     H250923   0.510   5.148   5.677
12554WAT    EPW50924   0.504   5.210   5.725
12555WAT      O50925   0.827   5.285   6.010
12555WAT     H150926   0.904   5.251   6.032
12555WAT     H250927   0.834   5.369   6.033
12555WAT    EPW50928   0.840   5.292   6.017
12556WAT      O50929   0.910   5.704   5.811
12556WAT     H150930   0.970   5.765   5.829
12556WAT     H250931   0.852   5.746   5.760
12556WAT    EPW50932   0.910   5.719   5.806
12557WAT      O50933   0.914   6.543   5.565
12557WAT     H150934   0.906   6.466   5.604
12557WAT     H250935   0.946   6.523   5.486
12557WAT    EPW50936   0.918   6.529   5.559
12558WAT      O50937   1.139   5.011   6.277
12558WAT     H150938   1.108   4.988   6.355
12558WAT     H250939   1.222   4.987   6.280
12558WAT    EPW50940   1.146   5.004   6.289
12559WAT      O50941   0.359   5.233   6.118
12559WAT     H150942   0.359   5.200   6.199
12559WAT     H250943   0.430   5.199   6.081
12559WAT    EPW50944   0.369   5.223   6.125
12560WAT      O50945   0.686   6.317   6.205
12560WAT     H150946   0.694   6.386   6.257
12560WAT     H250947   0.693   6.351   6.125
12560WAT    EPW50948   0.688   6.332   6.201
12561WAT      O50949   0.604   6.735   6.638
12561WAT     H150950   0.531   6.691   6.623
12561WAT     H250951   0.577   6.818   6.645
12561WAT    EPW50952   0.590   6.741   6.637
12562WAT      O50953   1.105   6.161   6.166
12562WAT     H150954   1.087   6.076   6.151
12562WAT     H250955   1.053   6.203   6.110
12562WAT    EPW50956   1.095   6.154   6.155
12563WAT      O50957   0.994   6.479   6.136
12563WAT     H150958   1.066   6.478   6.085
12563WAT     H250959   0.942   6.420   6.098
12563WAT    EPW50960   0.997   6.470   6.123
12564WAT      O50961   0.588   5.134   5.990
12564WAT     H150962   0.658   5.183   6.008
12564WAT     H250963   0.563   5.161   5.911
12564WAT    EPW50964   0.594   5.145   5.981
12565WAT      O50965   0.581   5.607   5.731
12565WAT     H150966   0.634   5.539   5.745
12565WAT     H250967   0.539   5.617   5.807
12565WAT    EPW50968   0.582   5.599   5.744
12566WAT      O50969   0.732   5.784   5.371
12566WAT     H150970   0.757   5.703   5.394
12566WAT     H250971   0.645   5.781   5.377
12566WAT    EPW50972   0.723   5.772   5.375
12567WAT      O50973   1.022   6.719   4.999
12567WAT     H150974   1.091   6.705   5.051
12567WAT     H250975   1.001   6.639   4.971
12567WAT    EPW50976   1.029   6.705   5.003
12568WAT      O50977   1.043   5.954   6.690
12568WAT     H150978   1.113   5.921   6.729
12568WAT     H250979   1.075   5.995   6.620
12568WAT    EPW50980   1.058   5.955   6.686
12569WAT      O50981   0.642   6.361   5.309
12569WAT     H150982   0.606   6.378   5.386
12569WAT     H250983   0.579   6.319   5.265
12569WAT    EPW50984   0.628   6.357   5.314
12570WAT      O50985   1.062   5.412   6.804
12570WAT     H150986   1.050   5.491   6.839
12570WAT     H250987   0.987   5.397   6.761
12570WAT    EPW50988   1.049   5.421   6.803
12571WAT      O50989   1.134   5.510   6.095
12571WAT     H150990   1.051   5.534   6.085
12571WAT     H250991   1.131   5.424   6.103
12571WAT    EPW50992   1.121   5.501   6.095
12572WAT      O50993   0.799   6.009   6.895
12572WAT     H150994   0.872   6.037   6.933
12572WAT     H250995   0.809   6.032   6.811
12572WAT    EPW50996   0.812   6.017   6.888
12573WAT      O50997   0.428   6.238   5.184
12573WAT     H150998   0.459   6.171   5.139
12573WAT     H250999   0.395   6.291   5.123
12573WAT    EPW51000   0.428   6.236   5.168
12574WAT      O51001   0.515   4.994   3.663
12574WAT     H151002   0.519   5.047   3.594
12574WAT     H251003   0.598   4.970   3.676
12574WAT    EPW51004   0.528   4.998   3.655
12575WAT      O51005   0.461   5.640   4.076
12575WAT     H151006   0.428   5.719   4.092
12575WAT     H251007   0.511   5.624   4.145
12575WAT    EPW51008   0.463   5.649   4.088
12576WAT      O51009   1.036   6.497   3.415
12576WAT     H151010   1.101   6.441   3.426
12576WAT     H251011   0.980   6.455   3.363
12576WAT    EPW51012   1.037   6.483   3.409
12577WAT      O51013   0.725   5.830   3.751
12577WAT     H151014   0.732   5.818   3.665
12577WAT     H251015   0.670   5.767   3.776
12577WAT    EPW51016   0.718   5.819   3.742
12578WAT      O51017   0.290   6.341   4.022
12578WAT     H151018   0.274   6.262   3.988
12578WAT     H251019   0.345   6.377   3.965
12578WAT    EPW51020   0.296   6.335   4.008
12579WAT      O51021   0.300   6.230   3.534
12579WAT     H151022   0.332   6.160   3.575
12579WAT     H251023   0.328   6.220   3.452
12579WAT    EPW51024   0.309   6.218   3.528
12580WAT      O51025   0.355   5.522   4.813
12580WAT     H151026   0.272   5.522   4.786
12580WAT     H251027   0.376   5.607   4.814
12580WAT    EPW51028   0.345   5.535   4.810
12581WAT      O51029   0.885   4.939   4.586
12581WAT     H151030   0.865   5.007   4.535
12581WAT     H251031   0.810   4.921   4.626
12581WAT    EPW51032   0.871   4.946   4.584
12582WAT      O51033   0.618   5.286   3.022
12582WAT     H151034   0.584   5.356   3.060
12582WAT     H251035   0.644   5.236   3.088
12582WAT    EPW51036   0.617   5.289   3.037
12583WAT      O51037   0.628   6.627   3.318
12583WAT     H151038   0.703   6.671   3.326
12583WAT     H251039   0.647   6.548   3.349
12583WAT    EPW51040   0.642   6.622   3.323
12584WAT      O51041   0.394   6.687   3.447
12584WAT     H151042   0.419   6.726   3.521
12584WAT     H251043   0.469   6.670   3.406
12584WAT    EPW51044   0.409   6.690   3.452
12585WAT      O51045   1.203   5.272   3.756
12585WAT     H151046   1.158   5.346   3.764
12585WAT     H251047   1.141   5.211   3.747
12585WAT    EPW51048   1.187   5.274   3.756
12586WAT      O51049   0.678   6.609   4.337
12586WAT     H151050   0.744   6.665   4.324
12586WAT     H251051   0.661   6.579   4.257
12586WAT    EPW51052   0.685   6.613   4.323
12587WAT      O51053   0.270   4.966   4.900
12587WAT     H151054   0.277   4.894   4.851
12587WAT     H251055   0.192   4.997   4.879
12587WAT    EPW51056   0.260   4.960   4.890
12588WAT      O51057   0.381   5.562   3.649
12588WAT     H151058   0.409   5.510   3.585
12588WAT     H251059   0.448   5.567   3.703
12588WAT    EPW51060   0.395   5.555   3.647
12589WAT      O51061   0.474   5.496   3.168
12589WAT     H151062   0.485   5.580   3.187
12589WAT     H251063   0.421   5.497   3.098
12589WAT    EPW51064   0.468   5.508   3.160
12590WAT      O51065   0.850   6.791   3.303
12590WAT     H151066   0.900   6.767   3.235
12590WAT     H251067   0.906   6.835   3.354
12590WAT    EPW51068   0.866   6.794   3.300
12591WAT      O51069   1.108   5.239   4.194
12591WAT     H151070   1.173   5.236   4.136
12591WAT     H251071   1.128   5.176   4.250
12591WAT    EPW51072   1.121   5.229   4.193
12592WAT      O51073   0.607   6.453   4.696
12592WAT     H151074   0.596   6.458   4.783
12592WAT     H251075   0.687   6.421   4.687
12592WAT    EPW51076   0.617   6.449   4.707
12593WAT      O51077   0.353   6.429   3.092
12593WAT     H151078   0.306   6.488   3.137
12593WAT     H251079   0.431   6.467   3.083
12593WAT    EPW51080   0.357   6.443   3.097
12594WAT      O51081   0.690   5.143   3.247
12594WAT     H151082   0.746   5.077   3.259
12594WAT     H251083   0.721   5.205   3.300
12594WAT    EPW51084   0.703   5.142   3.256
12595WAT      O51085   0.469   5.405   3.436
12595WAT     H151086   0.451   5.320   3.435
12595WAT     H251087   0.461   5.429   3.352
12595WAT    EPW51088   0.465   5.396   3.423
12596WAT      O51089   0.413   6.650   4.406
12596WAT     H151090   0.498   6.645   4.388
12596WAT     H251091   0.376   6.642   4.327
12596WAT    EPW51092   0.420   6.648   4.392
12597WAT      O51093   0.474   5.124   3.418
12597WAT     H151094   0.421   5.060   3.391
12597WAT     H251095   0.539   5.123   3.361
12597WAT    EPW51096   0.476   5.114   3.406
12598WAT      O51097   1.126   6.709   3.708
12598WAT     H151098   1.086   6.785   3.723
12598WAT     H251099   1.060   6.653   3.696
12598WAT    EPW51100   1.110   6.712   3.709
12599WAT      O51101   0.290   5.343   3.805
12599WAT     H151102   0.298   5.416   3.757
12599WAT     H251103   0.270   5.373   3.885
12599WAT    EPW51104   0.288   5.358   3.810
12600WAT      O51105   0.886   6.289   3.785
12600WAT     H151106   0.947   6.229   3.771
12600WAT     H251107   0.811   6.246   3.776
12600WAT    EPW51108   0.884   6.274   3.781
12601WAT      O51109   0.615   5.334   4.431
12601WAT     H151110   0.610   5.375   4.508
12601WAT     H251111   0.553   5.274   4.436
12601WAT    EPW51112   0.605   5.331   4.443
12602WAT      O51113   0.735   6.041   4.305
12602WAT     H151114   0.654   6.013   4.321
12602WAT     H251115   0.728   6.127   4.313
12602WAT    EPW51116   0.722   6.049   4.309
12603WAT      O51117   0.772   4.926   3.743
12603WAT     H151118   0.773   4.922   3.830
12603WAT     H251119   0.810   4.852   3.718
12603WAT    EPW51120   0.778   4.915   3.752
12604WAT      O51121   0.989   5.394   4.534
12604WAT     H151122   1.069   5.373   4.560
12604WAT     H251123   0.941   5.382   4.606
12604WAT    EPW51124   0.993   5.389   4.548
12605WAT      O51125   1.010   6.102   3.284
12605WAT     H151126   1.008   6.055   3.357
12605WAT     H251127   1.094   6.104   3.263
12605WAT    EPW51128   1.022   6.095   3.291
12606WAT      O51129   1.261   6.501   4.676
12606WAT     H151130   1.186   6.503   4.631
12606WAT     H251131   1.239   6.459   4.749
12606WAT    EPW51132   1.247   6.495   4.680
12607WAT      O51133   0.827   5.750   3.202
12607WAT     H151134   0.823   5.832   3.171
12607WAT     H251135   0.790   5.756   3.281
12607WAT    EPW51136   0.821   5.763   3.209
12608WAT      O51137   1.173   5.224   3.195
12608WAT     H151138   1.215   5.167   3.144
12608WAT     H251139   1.134   5.277   3.137
12608WAT    EPW51140   1.173   5.224   3.179
12609WAT      O51141   1.283   5.621   4.425
12609WAT     H151142   1.341   5.557   4.426
12609WAT     H251143   1.228   5.597   4.361
12609WAT    EPW51144   1.283   5.608   4.416
12610WAT      O51145   1.049   5.105   3.421
12610WAT     H151146   1.124   5.067   3.446
12610WAT     H251147   1.074   5.157   3.355
12610WAT    EPW51148   1.064   5.107   3.415
12611WAT      O51149   0.470   6.485   3.871
12611WAT     H151150   0.433   6.564   3.875
12611WAT     H251151   0.472   6.467   3.786
12611WAT    EPW51152   0.465   6.494   3.859
12612WAT      O51153   0.748   5.372   3.864
12612WAT     H151154   0.778   5.341   3.941
12612WAT     H251155   0.683   5.317   3.845
12612WAT    EPW51156   0.742   5.359   3.873
12613WAT      O51157   1.022   6.526   4.522
12613WAT     H151158   0.979   6.602   4.530
12613WAT     H251159   1.019   6.510   4.436
12613WAT    EPW51160   1.015   6.535   4.510
12614WAT      O51161   0.869   5.556   4.144
12614WAT     H151162   0.798   5.581   4.189
12614WAT     H251163   0.867   5.607   4.073
12614WAT    EPW51164   0.858   5.567   4.141
12615WAT      O51165   0.320   6.602   4.147
12615WAT     H151166   0.290   6.526   4.116
12615WAT     H251167   0.333   6.650   4.075
12615WAT    EPW51168   0.317   6.598   4.132
12616WAT      O51169   0.436   5.115   4.476
12616WAT     H151170   0.435   5.030   4.455
12616WAT     H251171   0.438   5.115   4.564
12616WAT    EPW51172   0.436   5.102   4.486
12617WAT      O51173   0.740   5.340   3.430
12617WAT     H151174   0.789   5.401   3.466
12617WAT     H251175   0.658   5.369   3.441
12617WAT    EPW51176   0.735   5.353   3.437
12618WAT      O51177   0.756   6.110   4.743
12618WAT     H151178   0.793   6.186   4.724
12618WAT     H251179   0.788   6.055   4.684
12618WAT    EPW51180   0.766   6.113   4.731
12619WAT      O51181   0.267   5.435   4.065
12619WAT     H151182   0.326   5.498   4.074
12619WAT     H251183   0.294   5.373   4.119
12619WAT    EPW51184   0.280   5.435   4.074
12620WAT      O51185   0.475   5.779   3.237
12620WAT     H151186   0.498   5.861   3.221
12620WAT     H251187   0.451   5.780   3.321
12620WAT    EPW51188   0.475   5.791   3.247
12621WAT      O51189   1.055   6.073   3.745
12621WAT     H151190   1.058   6.022   3.816
12621WAT     H251191   1.019   6.021   3.684
12621WAT    EPW51192   1.050   6.058   3.746
12622WAT      O51193   0.660   6.490   4.080
12622WAT     H151194   0.600   6.475   4.019
12622WAT     H251195   0.700   6.563   4.053
12622WAT    EPW51196   0.657   6.498   4.067
12623WAT      O51197   0.654   6.126   4.052
12623WAT     H151198   0.580   6.154   4.087
12623WAT     H251199   0.686   6.072   4.112
12623WAT    EPW51200   0.648   6.122   4.066
12624WAT      O51201   0.228   6.639   3.220
12624WAT     H151202   0.268   6.662   3.294
12624WAT     H251203   0.245   6.706   3.166
12624WAT    EPW51204   0.236   6.652   3.223
12625WAT      O51205   0.839   5.945   4.540
12625WAT     H151206   0.806   5.978   4.467
12625WAT     H251207   0.924   5.961   4.534
12625WAT    EPW51208   0.847   5.952   4.528
12626WAT      O51209   0.592   6.562   4.958
12626WAT     H151210   0.610   6.585   5.040
12626WAT     H251211   0.627   6.626   4.910
12626WAT    EPW51212   0.600   6.575   4.963
12627WAT      O51213   0.988   5.069   4.805
12627WAT     H151214   0.959   5.025   4.736
12627WAT     H251215   0.988   5.010   4.869
12627WAT    EPW51216   0.984   5.054   4.804
12628WAT      O51217   0.487   5.942   4.375
12628WAT     H151218   0.449   6.002   4.426
12628WAT     H251219   0.513   5.881   4.431
12628WAT    EPW51220   0.485   5.942   4.391
12629WAT      O51221   0.455   5.797   3.519
12629WAT     H151222   0.435   5.866   3.569
12629WAT     H251223   0.419   5.730   3.562
12629WAT    EPW51224   0.447   5.797   3.533
12630WAT      O51225   0.903   6.262   4.077
12630WAT     H151226   0.921   6.288   3.996
12630WAT     H251227   0.823   6.228   4.071
12630WAT    EPW51228   0.894   6.261   4.064
12631WAT      O51229   0.271   6.069   3.931
12631WAT     H151230   0.186   6.048   3.925
12631WAT     H251231   0.300   6.019   3.995
12631WAT    EPW51232   0.262   6.059   3.939
12632WAT      O51233   1.215   6.662   3.277
12632WAT     H151234   1.276   6.609   3.245
12632WAT     H251235   1.161   6.607   3.319
12632WAT    EPW51236   1.216   6.646   3.279
12633WAT      O51237   0.979   5.898   4.241
12633WAT     H151238   0.981   5.828   4.292
12633WAT     H251239   0.900   5.932   4.255
12633WAT    EPW51240   0.968   5.893   4.250
12634WAT      O51241   1.079   5.908   3.976
12634WAT     H151242   1.049   5.911   4.059
12634WAT     H251243   1.165   5.902   3.986
12634WAT    EPW51244   1.087   5.908   3.990
12635WAT      O51245   0.852   5.316   4.773
12635WAT     H151246   0.776   5.310   4.815
12635WAT     H251247   0.888   5.237   4.785
12635WAT    EPW51248   0.846   5.303   4.781
12636WAT      O51249   1.219   6.425   4.064
12636WAT     H151250   1.256   6.470   3.998
12636WAT     H251251   1.282   6.422   4.124
12636WAT    EPW51252   1.234   6.432   4.063
12637WAT      O51253   0.717   5.646   4.867
12637WAT     H151254   0.745   5.666   4.947
12637WAT     H251255   0.642   5.690   4.860
12637WAT    EPW51256   0.710   5.655   4.878
12638WAT      O51257   0.941   5.707   4.714
12638WAT     H151258   0.956   5.790   4.737
12638WAT     H251259   0.871   5.685   4.761
12638WAT    EPW51260   0.933   5.716   4.725
12639WAT      O51261   0.873   6.342   3.259
12639WAT     H151262   0.909   6.264   3.271
12639WAT     H251263   0.798   6.337   3.305
12639WAT    EPW51264   0.867   6.330   3.268
12640WAT      O51265   0.995   5.467   3.778
12640WAT     H151266   0.926   5.420   3.803
12640WAT     H251267   0.986   5.541   3.822
12640WAT    EPW51268   0.983   5.471   3.788
12641WAT      O51269   1.238   5.797   4.891
12641WAT     H151270   1.240   5.737   4.827
12641WAT     H251271   1.319   5.829   4.890
12641WAT    EPW51272   1.250   5.793   4.881
12642WAT      O51273   1.105   6.037   4.528
12642WAT     H151274   1.172   5.987   4.501
12642WAT     H251275   1.099   6.098   4.466
12642WAT    EPW51276   1.114   6.039   4.515
12643WAT      O51277   0.538   6.031   3.142
12643WAT     H151278   0.625   6.033   3.137
12643WAT     H251279   0.514   6.043   3.059
12643WAT    EPW51280   0.547   6.033   3.129
12644WAT      O51281   0.845   5.175   4.435
12644WAT     H151282   0.901   5.239   4.452
12644WAT     H251283   0.768   5.216   4.427
12644WAT    EPW51284   0.842   5.190   4.436
12645WAT      O51285   0.339   5.888   4.140
12645WAT     H151286   0.388   5.920   4.205
12645WAT     H251287   0.267   5.860   4.180
12645WAT    EPW51288   0.335   5.888   4.155
12646WAT      O51289   0.353   6.741   3.886
12646WAT     H151290   0.398   6.773   3.818
12646WAT     H251291   0.285   6.795   3.893
12646WAT    EPW51292   0.350   6.754   3.877
12647WAT      O51293   0.904   4.965   4.260
12647WAT     H151294   0.882   5.039   4.299
12647WAT     H251295   0.989   4.957   4.278
12647WAT    EPW51296   0.914   4.975   4.268
12648WAT      O51297   0.491   6.036   4.766
12648WAT     H151298   0.572   6.064   4.750
12648WAT     H251299   0.444   6.070   4.701
12648WAT    EPW51300   0.496   6.045   4.754
12649WAT      O51301   0.867   6.362   4.688
12649WAT     H151302   0.899   6.392   4.764
12649WAT     H251303   0.916   6.402   4.628
12649WAT    EPW51304   0.879   6.372   4.691
12650WAT      O51305   1.085   5.648   3.170
12650WAT     H151306   1.130   5.704   3.121
12650WAT     H251307   1.004   5.682   3.171
12650WAT    EPW51308   1.079   5.661   3.163
12651WAT      O51309   0.591   5.498   4.658
12651WAT     H151310   0.514   5.490   4.699
12651WAT     H251311   0.648   5.510   4.723
12651WAT    EPW51312   0.588   5.499   4.674
12652WAT      O51313   0.630   5.581   4.288
12652WAT     H151314   0.632   5.634   4.358
12652WAT     H251315   0.622   5.501   4.323
12652WAT    EPW51316   0.629   5.577   4.304
12653WAT      O51317   0.274   6.561   4.763
12653WAT     H151318   0.295   6.517   4.691
12653WAT     H251319   0.287   6.504   4.828
12653WAT    EPW51320   0.279   6.546   4.762
12654WAT      O51321   0.868   5.554   3.548
12654WAT     H151322   0.901   5.523   3.623
12654WAT     H251323   0.937   5.591   3.510
12654WAT    EPW51324   0.883   5.555   3.554
12655WAT      O51325   0.994   5.095   3.697
12655WAT     H151326   0.917   5.057   3.713
12655WAT     H251327   0.990   5.113   3.612
12655WAT    EPW51328   0.982   5.092   3.687
12656WAT      O51329   0.970   5.938   3.510
12656WAT     H151330   1.017   5.866   3.495
12656WAT     H251331   0.887   5.911   3.498
12656WAT    EPW51332   0.964   5.923   3.506
12657WAT      O51333   0.353   6.132   4.541
12657WAT     H151334   0.267   6.122   4.530
12657WAT     H251335   0.365   6.218   4.534
12657WAT    EPW51336   0.342   6.143   4.538
12658WAT      O51337   0.668   6.102   3.778
12658WAT     H151338   0.658   6.112   3.864
12658WAT     H251339   0.695   6.019   3.770
12658WAT    EPW51340   0.671   6.091   3.790
12659WAT      O51341   0.415   6.025   3.688
12659WAT     H151342   0.368   6.033   3.761
12659WAT     H251343   0.494   6.055   3.711
12659WAT    EPW51344   0.420   6.031   3.702
12660WAT      O51345   0.381   6.412   4.546
12660WAT     H151346   0.456   6.420   4.591
12660WAT     H251347   0.381   6.481   4.493
12660WAT    EPW51348   0.392   6.423   4.545
12661WAT      O51349   1.202   5.610   4.690
12661WAT     H151350   1.116   5.624   4.693
12661WAT     H251351   1.222   5.622   4.606
12661WAT    EPW51352   1.192   5.614   4.678
12662WAT      O51353   0.624   5.743   4.518
12662WAT     H151354   0.617   5.674   4.570
12662WAT     H251355   0.701   5.778   4.540
12662WAT    EPW51356   0.635   5.738   4.529
12663WAT      O51357   0.466   5.771   4.852
12663WAT     H151358   0.470   5.850   4.816
12663WAT     H251359   0.455   5.787   4.937
12663WAT    EPW51360   0.465   5.785   4.859
12664WAT      O51361   0.748   6.747   4.020
12664WAT     H151362   0.684   6.802   4.044
12664WAT     H251363   0.808   6.758   4.082
12664WAT    EPW51364   0.747   6.757   4.033
12665WAT      O51365   0.443   6.208   4.210
12665WAT     H151366   0.390   6.261   4.165
12665WAT     H251367   0.491   6.262   4.258
12665WAT    EPW51368   0.442   6.224   4.210
12666WAT      O51369   0.970   6.457   4.928
12666WAT     H151370   1.051   6.426   4.932
12666WAT     H251371   0.930   6.421   4.996
12666WAT    EPW51372   0.976   6.447   4.938
12667WAT      O51373   1.079   5.693   3.444
12667WAT     H151374   1.089   5.681   3.359
12667WAT     H251375   1.151   5.656   3.479
12667WAT    EPW51376   1.091   5.686   3.437
12668WAT      O51377   0.449   6.450   3.597
12668WAT     H151378   0.413   6.514   3.551
12668WAT     H251379   0.395   6.382   3.584
12668WAT    EPW51380   0.436   6.449   3.588
12669WAT      O51381   0.960   5.674   4.433
12669WAT     H151382   0.967   5.587   4.436
12669WAT     H251383   0.948   5.697   4.516
12669WAT    EPW51384   0.959   5.665   4.445
12670WAT      O51385   0.471   5.106   4.758
12670WAT     H151386   0.508   5.167   4.807
12670WAT     H251387   0.409   5.073   4.810
12670WAT    EPW51388   0.467   5.110   4.773
12671WAT      O51389   0.526   5.208   3.840
12671WAT     H151390   0.450   5.251   3.830
12671WAT     H251391   0.520   5.143   3.782
12671WAT    EPW51392   0.514   5.205   3.830
12672WAT      O51393   0.839   5.283   4.111
12672WAT     H151394   0.918   5.252   4.131
12672WAT     H251395   0.844   5.367   4.134
12672WAT    EPW51396   0.851   5.291   4.118
12673WAT      O51397   0.915   5.700   3.907
12673WAT     H151398   0.973   5.762   3.928
12673WAT     H251399   0.857   5.742   3.858
12673WAT    EPW51400   0.915   5.715   3.903
12674WAT      O51401   0.908   6.542   3.660
12674WAT     H151402   0.900   6.465   3.699
12674WAT     H251403   0.938   6.522   3.580
12674WAT    EPW51404   0.911   6.528   3.654
12675WAT      O51405   1.161   5.027   4.375
12675WAT     H151406   1.137   5.037   4.458
12675WAT     H251407   1.242   4.994   4.380
12675WAT    EPW51408   1.170   5.023   4.388
12676WAT      O51409   0.373   5.228   4.222
12676WAT     H151410   0.372   5.195   4.303
12676WAT     H251411   0.445   5.193   4.186
12676WAT    EPW51412   0.384   5.218   4.229
12677WAT      O51413   0.688   6.321   4.309
12677WAT     H151414   0.696   6.390   4.362
12677WAT     H251415   0.694   6.356   4.229
12677WAT    EPW51416   0.690   6.337   4.305
12678WAT      O51417   0.682   6.723   4.742
12678WAT     H151418   0.642   6.656   4.702
12678WAT     H251419   0.621   6.785   4.742
12678WAT    EPW51420   0.667   6.722   4.736
12679WAT      O51421   1.103   6.158   4.268
12679WAT     H151422   1.083   6.075   4.254
12679WAT     H251423   1.050   6.201   4.213
12679WAT    EPW51424   1.092   6.152   4.258
12680WAT      O51425   1.003   6.476   4.243
12680WAT     H151426   1.073   6.475   4.190
12680WAT     H251427   0.948   6.420   4.205
12680WAT    EPW51428   1.005   6.468   4.230
12681WAT      O51429   0.602   5.129   4.095
12681WAT     H151430   0.672   5.179   4.111
12681WAT     H251431   0.576   5.156   4.016
12681WAT    EPW51432   0.609   5.141   4.085
12682WAT      O51433   0.587   5.601   3.831
12682WAT     H151434   0.641   5.534   3.845
12682WAT     H251435   0.547   5.611   3.908
12682WAT    EPW51436   0.589   5.593   3.844
12683WAT      O51437   0.731   5.782   3.474
12683WAT     H151438   0.755   5.702   3.497
12683WAT     H251439   0.644   5.780   3.479
12683WAT    EPW51440   0.722   5.770   3.478
12684WAT      O51441   1.014   6.718   3.094
12684WAT     H151442   1.085   6.705   3.144
12684WAT     H251443   0.994   6.638   3.066
12684WAT    EPW51444   1.022   6.704   3.097
12685WAT      O51445   1.035   5.960   4.793
12685WAT     H151446   1.106   5.922   4.828
12685WAT     H251447   1.066   5.998   4.721
12685WAT    EPW51448   1.050   5.960   4.788
12686WAT      O51449   0.638   6.364   3.406
12686WAT     H151450   0.601   6.382   3.484
12686WAT     H251451   0.574   6.322   3.364
12686WAT    EPW51452   0.623   6.360   3.412
12687WAT      O51453   1.064   5.413   4.923
12687WAT     H151454   1.053   5.494   4.955
12687WAT     H251455   0.991   5.399   4.878
12687WAT    EPW51456   1.051   5.423   4.921
12688WAT      O51457   1.139   5.519   4.206
12688WAT     H151458   1.055   5.542   4.193
12688WAT     H251459   1.136   5.432   4.208
12688WAT    EPW51460   1.126   5.510   4.204
12689WAT      O51461   0.816   6.014   5.010
12689WAT     H151462   0.885   6.046   5.051
12689WAT     H251463   0.830   6.034   4.926
12689WAT    EPW51464   0.828   6.021   5.004
12690WAT      O51465   0.424   6.239   3.282
12690WAT     H151466   0.455   6.171   3.238
12690WAT     H251467   0.392   6.291   3.220
12690WAT    EPW51468   0.424   6.237   3.266
12691WAT      O51469   0.505   4.992   1.758
12691WAT     H151470   0.507   5.045   1.690
12691WAT     H251471   0.589   4.971   1.770
12691WAT    EPW51472   0.518   4.997   1.750
12692WAT      O51473   0.451   5.639   2.180
12692WAT     H151474   0.419   5.718   2.197
12692WAT     H251475   0.503   5.623   2.248
12692WAT    EPW51476   0.454   5.648   2.193
12693WAT      O51477   1.054   6.491   1.530
12693WAT     H151478   1.118   6.434   1.545
12693WAT     H251479   0.997   6.446   1.482
12693WAT    EPW51480   1.055   6.476   1.525
12694WAT      O51481   0.723   5.834   1.858
12694WAT     H151482   0.731   5.821   1.772
12694WAT     H251483   0.667   5.772   1.884
12694WAT    EPW51484   0.716   5.823   1.849
12695WAT      O51485   0.287   6.342   2.127
12695WAT     H151486   0.271   6.262   2.094
12695WAT     H251487   0.344   6.376   2.070
12695WAT    EPW51488   0.293   6.335   2.113
12696WAT      O51489   0.300   6.224   1.635
12696WAT     H151490   0.332   6.156   1.680
12696WAT     H251491   0.330   6.212   1.554
12696WAT    EPW51492   0.309   6.212   1.630
12697WAT      O51493   0.353   5.523   2.913
12697WAT     H151494   0.269   5.524   2.889
12697WAT     H251495   0.374   5.607   2.915
12697WAT    EPW51496   0.344   5.535   2.910
12698WAT      O51497   0.908   4.952   2.677
12698WAT     H151498   0.881   5.019   2.629
12698WAT     H251499   0.837   4.928   2.722
12698WAT    EPW51500   0.894   4.958   2.677
12699WAT      O51501   0.575   5.284   1.145
12699WAT     H151502   0.547   5.355   1.188
12699WAT     H251503   0.611   5.235   1.208
12699WAT    EPW51504   0.576   5.287   1.161
12700WAT      O51505   0.633   6.623   1.408
12700WAT     H151506   0.711   6.664   1.410
12700WAT     H251507   0.652   6.544   1.438
12700WAT    EPW51508   0.648   6.618   1.413
12701WAT      O51509   0.402   6.678   1.547
12701WAT     H151510   0.428   6.714   1.622
12701WAT     H251511   0.476   6.663   1.504
12701WAT    EPW51512   0.416   6.681   1.552
12702WAT      O51513   1.190   5.271   1.859
12702WAT     H151514   1.146   5.346   1.869
12702WAT     H251515   1.127   5.213   1.840
12702WAT    EPW51516   1.174   5.273   1.858
12703WAT      O51517   0.682   6.610   2.435
12703WAT     H151518   0.747   6.667   2.422
12703WAT     H251519   0.665   6.579   2.356
12703WAT    EPW51520   0.689   6.614   2.422
12704WAT      O51521   0.281   4.960   2.998
12704WAT     H151522   0.281   4.887   2.950
12704WAT     H251523   0.204   4.997   2.979
12704WAT    EPW51524   0.269   4.955   2.988
12705WAT      O51525   0.378   5.568   1.754
12705WAT     H151526   0.407   5.513   1.693
12705WAT     H251527   0.445   5.574   1.810
12705WAT    EPW51528   0.392   5.561   1.753
12706WAT      O51529   0.459   5.504   1.286
12706WAT     H151530   0.477   5.588   1.301
12706WAT     H251531   0.407   5.507   1.216
12706WAT    EPW51532   0.454   5.517   1.278
12707WAT      O51533   0.865   6.778   1.381
12707WAT     H151534   0.912   6.753   1.312
12707WAT     H251535   0.920   6.829   1.426
12707WAT    EPW51536   0.880   6.782   1.377
12708WAT      O51537   1.094   5.239   2.305
12708WAT     H151538   1.158   5.231   2.246
12708WAT     H251539   1.111   5.175   2.362
12708WAT    EPW51540   1.106   5.228   2.305
12709WAT      O51541   0.607   6.438   2.792
12709WAT     H151542   0.600   6.448   2.879
12709WAT     H251543   0.689   6.411   2.781
12709WAT    EPW51544   0.618   6.436   2.803
12710WAT      O51545   0.319   6.415   1.206
12710WAT     H151546   0.275   6.471   1.256
12710WAT     H251547   0.395   6.455   1.191
12710WAT    EPW51548   0.324   6.429   1.211
12711WAT      O51549   0.684   5.140   1.353
12711WAT     H151550   0.741   5.074   1.354
12711WAT     H251551   0.718   5.197   1.410
12711WAT    EPW51552   0.697   5.139   1.362
12712WAT      O51553   0.466   5.403   1.548
12712WAT     H151554   0.444   5.319   1.543
12712WAT     H251555   0.456   5.432   1.467
12712WAT    EPW51556   0.461   5.395   1.536
12713WAT      O51557   0.418   6.651   2.508
12713WAT     H151558   0.503   6.647   2.489
12713WAT     H251559   0.379   6.643   2.430
12713WAT    EPW51560   0.425   6.649   2.494
12714WAT      O51561   0.462   5.123   1.516
12714WAT     H151562   0.410   5.060   1.485
12714WAT     H251563   0.530   5.122   1.462
12714WAT    EPW51564   0.464   5.113   1.504
12715WAT      O51565   1.129   6.722   1.801
12715WAT     H151566   1.085   6.798   1.806
12715WAT     H251567   1.065   6.663   1.794
12715WAT    EPW51568   1.113   6.725   1.801
12716WAT      O51569   0.285   5.348   1.908
12716WAT     H151570   0.294   5.422   1.862
12716WAT     H251571   0.265   5.376   1.988
12716WAT    EPW51572   0.283   5.363   1.913
12717WAT      O51573   0.892   6.289   1.888
12717WAT     H151574   0.952   6.228   1.873
12717WAT     H251575   0.816   6.246   1.878
12717WAT    EPW51576   0.889   6.274   1.884
12718WAT      O51577   0.610   5.335   2.531
12718WAT     H151578   0.606   5.376   2.608
12718WAT     H251579   0.548   5.274   2.538
12718WAT    EPW51580   0.600   5.332   2.544
12719WAT      O51581   0.735   6.042   2.407
12719WAT     H151582   0.654   6.014   2.424
12719WAT     H251583   0.729   6.128   2.416
12719WAT    EPW51584   0.722   6.050   2.411
12720WAT      O51585   0.765   4.929   1.831
12720WAT     H151586   0.766   4.925   1.918
12720WAT     H251587   0.802   4.853   1.807
12720WAT    EPW51588   0.771   4.917   1.840
12721WAT      O51589   0.987   5.396   2.631
12721WAT     H151590   1.068   5.374   2.654
12721WAT     H251591   0.941   5.383   2.704
12721WAT    EPW51592   0.992   5.391   2.645
12722WAT      O51593   1.026   6.091   1.395
12722WAT     H151594   1.025   6.041   1.467
12722WAT     H251595   1.111   6.098   1.376
12722WAT    EPW51596   1.039   6.084   1.403
12723WAT      O51597   1.258   6.498   2.768
12723WAT     H151598   1.186   6.502   2.720
12723WAT     H251599   1.234   6.451   2.837
12723WAT    EPW51600   1.244   6.492   2.771
12724WAT      O51601   0.822   5.757   1.312
12724WAT     H151602   0.825   5.839   1.282
12724WAT     H251603   0.787   5.766   1.392
12724WAT    EPW51604   0.818   5.770   1.320
12725WAT      O51605   1.147   5.227   1.257
12725WAT     H151606   1.192   5.181   1.198
12725WAT     H251607   1.098   5.280   1.208
12725WAT    EPW51608   1.146   5.228   1.241
12726WAT      O51609   1.277   5.631   2.523
12726WAT     H151610   1.337   5.567   2.525
12726WAT     H251611   1.222   5.606   2.461
12726WAT    EPW51612   1.278   5.618   2.514
12727WAT      O51613   1.041   5.108   1.494
12727WAT     H151614   1.116   5.075   1.524
12727WAT     H251615   1.066   5.154   1.423
12727WAT    EPW51616   1.056   5.110   1.488
12728WAT      O51617   0.470   6.479   1.975
12728WAT     H151618   0.433   6.558   1.978
12728WAT     H251619   0.473   6.461   1.889
12728WAT    EPW51620   0.465   6.488   1.963
12729WAT      O51621   0.740   5.375   1.964
12729WAT     H151622   0.769   5.343   2.041
12729WAT     H251623   0.677   5.319   1.942
12729WAT    EPW51624   0.735   5.362   1.972
12730WAT      O51625   1.020   6.527   2.615
12730WAT     H151626   0.972   6.600   2.625
12730WAT     H251627   1.017   6.512   2.529
12730WAT    EPW51628   1.012   6.536   2.604
12731WAT      O51629   0.864   5.557   2.245
12731WAT     H151630   0.794   5.583   2.291
12731WAT     H251631   0.864   5.609   2.175
12731WAT    EPW51632   0.854   5.569   2.242
12732WAT      O51633   0.319   6.602   2.252
12732WAT     H151634   0.290   6.526   2.221
12732WAT     H251635   0.334   6.649   2.179
12732WAT    EPW51636   0.317   6.598   2.237
12733WAT      O51637   0.434   5.113   2.578
12733WAT     H151638   0.430   5.029   2.554
12733WAT     H251639   0.443   5.109   2.664
12733WAT    EPW51640   0.435   5.100   2.587
12734WAT      O51641   0.734   5.326   1.548
12734WAT     H151642   0.785   5.391   1.577
12734WAT     H251643   0.654   5.358   1.558
12734WAT    EPW51644   0.730   5.340   1.553
12735WAT      O51645   0.757   6.108   2.845
12735WAT     H151646   0.794   6.184   2.824
12735WAT     H251647   0.789   6.052   2.786
12735WAT    EPW51648   0.767   6.111   2.833
12736WAT      O51649   0.256   5.435   2.169
12736WAT     H151650   0.315   5.498   2.179
12736WAT     H251651   0.284   5.372   2.223
12736WAT    EPW51652   0.269   5.435   2.179
12737WAT      O51653   0.481   5.788   1.344
12737WAT     H151654   0.512   5.868   1.325
12737WAT     H251655   0.457   5.794   1.427
12737WAT    EPW51656   0.482   5.801   1.353
12738WAT      O51657   1.059   6.071   1.848
12738WAT     H151658   1.062   6.022   1.920
12738WAT     H251659   1.028   6.017   1.787
12738WAT    EPW51660   1.055   6.056   1.850
12739WAT      O51661   0.664   6.491   2.179
12739WAT     H151662   0.603   6.475   2.118
12739WAT     H251663   0.703   6.564   2.150
12739WAT    EPW51664   0.661   6.500   2.166
12740WAT      O51665   0.652   6.127   2.155
12740WAT     H151666   0.578   6.156   2.191
12740WAT     H251667   0.685   6.073   2.215
12740WAT    EPW51668   0.646   6.123   2.169
12741WAT      O51669   0.205   6.626   1.345
12741WAT     H151670   0.258   6.648   1.411
12741WAT     H251671   0.219   6.689   1.286
12741WAT    EPW51672   0.215   6.639   1.346
12742WAT      O51673   0.840   5.944   2.642
12742WAT     H151674   0.807   5.978   2.569
12742WAT     H251675   0.925   5.961   2.636
12742WAT    EPW51676   0.847   5.951   2.630
12743WAT      O51677   0.599   6.552   3.053
12743WAT     H151678   0.615   6.581   3.134
12743WAT     H251679   0.627   6.618   3.002
12743WAT    EPW51680   0.605   6.566   3.057
12744WAT      O51681   1.000   5.073   2.909
12744WAT     H151682   0.974   5.032   2.836
12744WAT     H251683   0.996   5.011   2.970
12744WAT    EPW51684   0.995   5.058   2.907
12745WAT      O51685   0.487   5.943   2.478
12745WAT     H151686   0.447   6.001   2.529
12745WAT     H251687   0.513   5.881   2.534
12745WAT    EPW51688   0.485   5.942   2.494
12746WAT      O51689   0.458   5.802   1.625
12746WAT     H151690   0.439   5.870   1.676
12746WAT     H251691   0.420   5.734   1.666
12746WAT    EPW51692   0.449   5.802   1.639
12747WAT      O51693   0.903   6.260   2.179
12747WAT     H151694   0.922   6.285   2.097
12747WAT     H251695   0.823   6.227   2.172
12747WAT    EPW51696   0.894   6.259   2.166
12748WAT      O51697   0.269   6.070   2.036
12748WAT     H151698   0.185   6.047   2.029
12748WAT     H251699   0.299   6.020   2.102
12748WAT    EPW51700   0.261   6.059   2.045
12749WAT      O51701   1.225   6.655   1.386
12749WAT     H151702   1.295   6.606   1.369
12749WAT     H251703   1.173   6.603   1.432
12749WAT    EPW51704   1.227   6.640   1.390
12750WAT      O51705   0.979   5.898   2.345
12750WAT     H151706   0.979   5.827   2.396
12750WAT     H251707   0.900   5.933   2.358
12750WAT    EPW51708   0.967   5.893   2.354
12751WAT      O51709   1.080   5.909   2.081
12751WAT     H151710   1.051   5.911   2.163
12751WAT     H251711   1.166   5.905   2.090
12751WAT    EPW51712   1.088   5.909   2.094
12752WAT      O51713   0.859   5.316   2.875
12752WAT     H151714   0.782   5.310   2.916
12752WAT     H251715   0.895   5.237   2.887
12752WAT    EPW51716   0.853   5.303   2.883
12753WAT      O51717   1.219   6.417   2.160
12753WAT     H151718   1.254   6.469   2.099
12753WAT     H251719   1.281   6.412   2.220
12753WAT    EPW51720   1.233   6.424   2.160
12754WAT      O51721   0.716   5.644   2.968
12754WAT     H151722   0.744   5.663   3.048
12754WAT     H251723   0.641   5.689   2.961
12754WAT    EPW51724   0.709   5.653   2.979
12755WAT      O51725   0.939   5.707   2.816
12755WAT     H151726   0.954   5.790   2.840
12755WAT     H251727   0.869   5.685   2.863
12755WAT    EPW51728   0.931   5.716   2.827
12756WAT      O51729   0.886   6.331   1.387
12756WAT     H151730   0.919   6.251   1.398
12756WAT     H251731   0.809   6.326   1.427
12756WAT    EPW51732   0.880   6.318   1.394
12757WAT      O51733   0.988   5.470   1.881
12757WAT     H151734   0.918   5.424   1.905
12757WAT     H251735   0.981   5.544   1.925
12757WAT    EPW51736   0.977   5.474   1.891
12758WAT      O51737   1.239   5.796   2.994
12758WAT     H151738   1.241   5.738   2.929
12758WAT     H251739   1.320   5.829   2.995
12758WAT    EPW51740   1.252   5.793   2.985
12759WAT      O51741   1.105   6.039   2.633
12759WAT     H151742   1.173   5.991   2.606
12759WAT     H251743   1.097   6.100   2.571
12759WAT    EPW51744   1.114   6.041   2.620
12760WAT      O51745   0.561   6.035   1.239
12760WAT     H151746   0.647   6.038   1.228
12760WAT     H251747   0.530   6.044   1.158
12760WAT    EPW51748   0.569   6.037   1.225
12761WAT      O51749   0.841   5.179   2.529
12761WAT     H151750   0.898   5.243   2.544
12761WAT     H251751   0.765   5.221   2.524
12761WAT    EPW51752   0.838   5.195   2.530
12762WAT      O51753   0.335   5.889   2.246
12762WAT     H151754   0.386   5.921   2.309
12762WAT     H251755   0.262   5.865   2.288
12762WAT    EPW51756   0.332   5.890   2.261
12763WAT      O51757   0.353   6.735   1.989
12763WAT     H151758   0.399   6.766   1.922
12763WAT     H251759   0.286   6.790   1.996
12763WAT    EPW51760   0.350   6.747   1.980
12764WAT      O51761   0.887   4.968   2.349
12764WAT     H151762   0.867   5.043   2.389
12764WAT     H251763   0.972   4.958   2.367
12764WAT    EPW51764   0.897   4.978   2.358
12765WAT      O51765   0.491   6.035   2.867
12765WAT     H151766   0.572   6.064   2.852
12765WAT     H251767   0.444   6.070   2.803
12765WAT    EPW51768   0.496   6.045   2.855
12766WAT      O51769   0.870   6.357   2.781
12766WAT     H151770   0.898   6.390   2.856
12766WAT     H251771   0.918   6.399   2.721
12766WAT    EPW51772   0.881   6.368   2.783
12767WAT      O51773   1.068   5.639   1.262
12767WAT     H151774   1.112   5.698   1.216
12767WAT     H251775   0.990   5.675   1.273
12767WAT    EPW51776   1.063   5.653   1.257
12768WAT      O51777   0.589   5.497   2.759
12768WAT     H151778   0.512   5.490   2.799
12768WAT     H251779   0.646   5.510   2.824
12768WAT    EPW51780   0.586   5.498   2.775
12769WAT      O51781   0.625   5.582   2.389
12769WAT     H151782   0.629   5.634   2.459
12769WAT     H251783   0.617   5.502   2.424
12769WAT    EPW51784   0.624   5.578   2.405
12770WAT      O51785   0.302   6.574   2.858
12770WAT     H151786   0.312   6.527   2.785
12770WAT     H251787   0.308   6.514   2.921
12770WAT    EPW51788   0.304   6.558   2.856
12771WAT      O51789   0.866   5.550   1.646
12771WAT     H151790   0.898   5.522   1.723
12771WAT     H251791   0.936   5.583   1.606
12771WAT    EPW51792   0.881   5.550   1.652
12772WAT      O51793   0.979   5.105   1.773
12772WAT     H151794   0.903   5.067   1.790
12772WAT     H251795   0.975   5.123   1.688
12772WAT    EPW51796   0.968   5.102   1.763
12773WAT      O51797   0.983   5.924   1.618
12773WAT     H151798   1.029   5.852   1.600
12773WAT     H251799   0.900   5.899   1.607
12773WAT    EPW51800   0.978   5.910   1.614
12774WAT      O51801   0.349   6.129   2.644
12774WAT     H151802   0.262   6.120   2.640
12774WAT     H251803   0.361   6.215   2.633
12774WAT    EPW51804   0.338   6.140   2.642
12775WAT      O51805   0.670   6.107   1.881
12775WAT     H151806   0.658   6.117   1.967
12775WAT     H251807   0.697   6.024   1.874
12775WAT    EPW51808   0.672   6.096   1.893
12776WAT      O51809   0.416   6.027   1.796
12776WAT     H151810   0.370   6.035   1.869
12776WAT     H251811   0.495   6.058   1.818
12776WAT    EPW51812   0.421   6.032   1.810
12777WAT      O51813   0.383   6.408   2.639
12777WAT     H151814   0.458   6.412   2.684
12777WAT     H251815   0.386   6.479   2.587
12777WAT    EPW51816   0.395   6.419   2.638
12778WAT      O51817   1.201   5.616   2.789
12778WAT     H151818   1.115   5.628   2.794
12778WAT     H251819   1.219   5.628   2.705
12778WAT    EPW51820   1.191   5.619   2.777
12779WAT      O51821   0.624   5.743   2.620
12779WAT     H151822   0.616   5.673   2.672
12779WAT     H251823   0.701   5.777   2.642
12779WAT    EPW51824   0.634   5.738   2.631
12780WAT      O51825   0.466   5.770   2.952
12780WAT     H151826   0.470   5.850   2.917
12780WAT     H251827   0.454   5.786   3.037
12780WAT    EPW51828   0.465   5.784   2.960
12781WAT      O51829   0.749   6.750   2.114
12781WAT     H151830   0.685   6.802   2.141
12781WAT     H251831   0.810   6.760   2.176
12781WAT    EPW51832   0.749   6.759   2.127
12782WAT      O51833   0.442   6.209   2.313
12782WAT     H151834   0.389   6.262   2.269
12782WAT     H251835   0.490   6.263   2.362
12782WAT    EPW51836   0.441   6.225   2.314
12783WAT      O51837   0.962   6.456   3.022
12783WAT     H151838   1.041   6.420   3.023
12783WAT     H251839   0.922   6.420   3.090
12783WAT    EPW51840   0.968   6.445   3.032
12784WAT      O51841   1.083   5.677   1.539
12784WAT     H151842   1.090   5.666   1.453
12784WAT     H251843   1.154   5.637   1.570
12784WAT    EPW51844   1.094   5.670   1.531
12785WAT      O51845   0.451   6.442   1.700
12785WAT     H151846   0.417   6.506   1.652
12785WAT     H251847   0.397   6.375   1.686
12785WAT    EPW51848   0.438   6.442   1.691
12786WAT      O51849   0.957   5.674   2.534
12786WAT     H151850   0.964   5.587   2.539
12786WAT     H251851   0.945   5.698   2.617
12786WAT    EPW51852   0.956   5.665   2.547
12787WAT      O51853   0.487   5.092   2.856
12787WAT     H151854   0.521   5.156   2.904
12787WAT     H251855   0.425   5.058   2.907
12787WAT    EPW51856   0.483   5.096   2.871
12788WAT      O51857   0.520   5.210   1.933
12788WAT     H151858   0.444   5.253   1.926
12788WAT     H251859   0.512   5.144   1.877
12788WAT    EPW51860   0.507   5.206   1.924
12789WAT      O51861   0.828   5.286   2.212
12789WAT     H151862   0.906   5.253   2.235
12789WAT     H251863   0.834   5.370   2.234
12789WAT    EPW51864   0.841   5.293   2.219
12790WAT      O51865   0.914   5.704   2.012
12790WAT     H151866   0.972   5.765   2.032
12790WAT     H251867   0.855   5.746   1.963
12790WAT    EPW51868   0.914   5.719   2.007
12791WAT      O51869   0.916   6.544   1.766
12791WAT     H151870   0.907   6.468   1.807
12791WAT     H251871   0.950   6.522   1.689
12791WAT    EPW51872   0.919   6.530   1.761
12792WAT      O51873   1.136   5.020   2.480
12792WAT     H151874   1.099   5.001   2.557
12792WAT     H251875   1.220   4.998   2.493
12792WAT    EPW51876   1.143   5.014   2.494
12793WAT      O51877   0.364   5.228   2.324
12793WAT     H151878   0.367   5.195   2.405
12793WAT     H251879   0.435   5.194   2.286
12793WAT    EPW51880   0.375   5.218   2.331
12794WAT      O51881   0.688   6.322   2.410
12794WAT     H151882   0.698   6.391   2.463
12794WAT     H251883   0.695   6.356   2.330
12794WAT    EPW51884   0.691   6.337   2.406
12795WAT      O51885   0.662   6.722   2.836
12795WAT     H151886   0.617   6.660   2.794
12795WAT     H251887   0.607   6.789   2.840
12795WAT    EPW51888   0.647   6.722   2.830
12796WAT      O51889   1.099   6.159   2.372
12796WAT     H151890   1.080   6.075   2.358
12796WAT     H251891   1.048   6.201   2.316
12796WAT    EPW51892   1.089   6.153   2.362
12797WAT      O51893   1.004   6.477   2.337
12797WAT     H151894   1.074   6.474   2.286
12797WAT     H251895   0.949   6.421   2.300
12797WAT    EPW51896   1.006   6.468   2.324
12798WAT      O51897   0.591   5.132   2.190
12798WAT     H151898   0.661   5.181   2.208
12798WAT     H251899   0.566   5.160   2.111
12798WAT    EPW51900   0.597   5.143   2.181
12799WAT      O51901   0.583   5.606   1.937
12799WAT     H151902   0.636   5.538   1.950
12799WAT     H251903   0.542   5.615   2.014
12799WAT    EPW51904   0.585   5.598   1.951
12800WAT      O51905   0.734   5.785   1.583
12800WAT     H151906   0.758   5.703   1.603
12800WAT     H251907   0.647   5.783   1.588
12800WAT    EPW51908   0.725   5.772   1.587
12801WAT      O51909   1.039   6.691   1.183
12801WAT     H151910   1.103   6.683   1.241
12801WAT     H251911   1.014   6.608   1.169
12801WAT    EPW51912   1.045   6.677   1.190
12802WAT      O51913   1.035   5.959   2.897
12802WAT     H151914   1.106   5.921   2.932
12802WAT     H251915   1.066   5.997   2.825
12802WAT    EPW51916   1.050   5.959   2.891
12803WAT      O51917   0.637   6.362   1.505
12803WAT     H151918   0.601   6.379   1.582
12803WAT     H251919   0.575   6.318   1.463
12803WAT    EPW51920   0.622   6.358   1.510
12804WAT      O51921   1.076   5.410   3.020
12804WAT     H151922   1.064   5.490   3.053
12804WAT     H251923   1.002   5.395   2.976
12804WAT    EPW51924   1.063   5.420   3.018
12805WAT      O51925   1.134   5.520   2.307
12805WAT     H151926   1.051   5.543   2.294
12805WAT     H251927   1.131   5.433   2.313
12805WAT    EPW51928   1.121   5.510   2.306
12806WAT      O51929   0.812   6.009   3.111
12806WAT     H151930   0.880   6.042   3.154
12806WAT     H251931   0.827   6.031   3.028
12806WAT    EPW51932   0.824   6.017   3.105
12807WAT      O51933   0.426   6.229   1.384
12807WAT     H151934   0.464   6.166   1.337
12807WAT     H251935   0.385   6.277   1.324
12807WAT    EPW51936   0.426   6.226   1.368
12808WAT      O51937   0.454   5.626   0.291
12808WAT     H151938   0.424   5.707   0.304
12808WAT     H251939   0.508   5.613   0.358
12808WAT    EPW51940   0.458   5.636   0.303
12809WAT      O51941   0.342   5.525   1.029
12809WAT     H151942   0.259   5.524   1.001
12809WAT     H251943   0.362   5.609   1.030
12809WAT    EPW51944   0.333   5.537   1.025
12810WAT      O51945   0.822   4.914   0.817
12810WAT     H151946   0.815   4.994   0.782
12810WAT     H251947   0.749   4.906   0.863
12810WAT    EPW51948   0.810   4.925   0.819
12811WAT      O51949   0.681   6.624   0.627
12811WAT     H151950   0.736   6.672   0.674
12811WAT     H251951   0.708   6.635   0.545
12811WAT    EPW51952   0.693   6.633   0.622
12812WAT      O51953   0.232   4.971   1.122
12812WAT     H151954   0.233   4.897   1.075
12812WAT     H251955   0.152   5.003   1.108
12812WAT    EPW51956   0.220   4.964   1.113
12813WAT      O51957   1.162   5.225   0.462
12813WAT     H151958   1.224   5.187   0.413
12813WAT     H251959   1.162   5.178   0.536
12813WAT    EPW51960   1.171   5.212   0.466
12814WAT      O51961   0.583   6.407   0.911
12814WAT     H151962   0.579   6.440   0.992
12814WAT     H251963   0.667   6.384   0.904
12814WAT    EPW51964   0.595   6.409   0.922
12815WAT      O51965   0.421   6.687   0.671
12815WAT     H151966   0.505   6.670   0.655
12815WAT     H251967   0.384   6.681   0.593
12815WAT    EPW51968   0.428   6.684   0.657
12816WAT      O51969   0.594   5.333   0.645
12816WAT     H151970   0.579   5.382   0.715
12816WAT     H251971   0.533   5.270   0.650
12816WAT    EPW51972   0.583   5.331   0.657
12817WAT      O51973   0.691   6.083   0.525
12817WAT     H151974   0.618   6.040   0.543
12817WAT     H251975   0.678   6.162   0.560
12817WAT    EPW51976   0.679   6.089   0.533
12818WAT      O51977   1.006   5.379   0.767
12818WAT     H151978   1.090   5.357   0.782
12818WAT     H251979   0.975   5.398   0.846
12818WAT    EPW51980   1.014   5.378   0.781
12819WAT      O51981   1.251   6.518   0.901
12819WAT     H151982   1.174   6.524   0.861
12819WAT     H251983   1.234   6.472   0.973
12819WAT    EPW51984   1.237   6.512   0.906
12820WAT      O51985   1.268   5.628   0.636
12820WAT     H151986   1.327   5.564   0.634
12820WAT     H251987   1.208   5.602   0.579
12820WAT    EPW51988   1.268   5.615   0.627
12821WAT      O51989   0.998   6.540   0.769
12821WAT     H151990   0.948   6.611   0.780
12821WAT     H251991   0.989   6.521   0.684
12821WAT    EPW51992   0.989   6.547   0.758
12822WAT      O51993   0.848   5.495   0.357
12822WAT     H151994   0.786   5.525   0.410
12822WAT     H251995   0.811   5.499   0.278
12822WAT    EPW51996   0.834   5.500   0.353
12823WAT      O51997   0.328   6.636   0.416
12823WAT     H151998   0.296   6.555   0.420
12823WAT     H251999   0.393   6.630   0.357
12823WAT    EPW52000   0.333   6.623   0.408
12824WAT      O52001   0.417   5.114   0.687
12824WAT     H152002   0.421   5.028   0.678
12824WAT     H252003   0.405   5.125   0.773
12824WAT    EPW52004   0.416   5.103   0.699
12825WAT      O52005   0.734   6.091   0.918
12825WAT     H152006   0.777   6.166   0.911
12825WAT     H252007   0.774   6.039   0.860
12825WAT    EPW52008   0.746   6.094   0.908
12826WAT      O52009   0.270   5.430   0.373
12826WAT     H152010   0.325   5.487   0.338
12826WAT     H252011   0.318   5.357   0.381
12826WAT    EPW52012   0.285   5.427   0.369
12827WAT      O52013   0.569   6.433   0.336
12827WAT     H152014   0.602   6.366   0.291
12827WAT     H252015   0.630   6.495   0.327
12827WAT    EPW52016   0.583   6.432   0.328
12828WAT      O52017   0.645   6.174   0.259
12828WAT     H152018   0.562   6.158   0.238
12828WAT     H252019   0.656   6.134   0.335
12828WAT    EPW52020   0.634   6.166   0.267
12829WAT      O52021   0.832   5.929   0.715
12829WAT     H152022   0.798   5.974   0.648
12829WAT     H252023   0.918   5.942   0.706
12829WAT    EPW52024   0.839   5.938   0.703
12830WAT      O52025   0.552   6.552   1.151
12830WAT     H152026   0.585   6.581   1.226
12830WAT     H252027   0.557   6.621   1.098
12830WAT    EPW52028   0.558   6.567   1.154
12831WAT      O52029   1.062   4.973   0.940
12831WAT     H152030   0.983   4.964   0.906
12831WAT     H252031   1.057   4.930   1.016
12831WAT    EPW52032   1.050   4.966   0.946
12832WAT      O52033   0.457   5.957   0.604
12832WAT     H152034   0.415   6.008   0.661
12832WAT     H252035   0.491   5.894   0.653
12832WAT    EPW52036   0.456   5.955   0.619
12833WAT      O52037   0.906   6.214   0.386
12833WAT     H152038   0.861   6.220   0.312
12833WAT     H252039   0.854   6.166   0.437
12833WAT    EPW52040   0.892   6.208   0.383
12834WAT      O52041   0.372   6.133   0.260
12834WAT     H152042   0.336   6.185   0.320
12834WAT     H252043   0.351   6.053   0.287
12834WAT    EPW52044   0.364   6.129   0.273
12835WAT      O52045   0.962   5.808   0.437
12835WAT     H152046   0.960   5.756   0.507
12835WAT     H252047   0.886   5.791   0.397
12835WAT    EPW52048   0.951   5.797   0.442
12836WAT      O52049   1.194   5.908   0.324
12836WAT     H152050   1.123   5.874   0.363
12836WAT     H252051   1.167   5.924   0.243
12836WAT    EPW52052   1.179   5.905   0.318
12837WAT      O52053   0.778   5.352   0.972
12837WAT     H152054   0.717   5.326   1.029
12837WAT     H252055   0.778   5.290   0.911
12837WAT    EPW52056   0.769   5.339   0.971
12838WAT      O52057   1.193   6.513   0.364
12838WAT     H152058   1.233   6.526   0.288
12838WAT     H252059   1.249   6.464   0.409
12838WAT    EPW52060   1.207   6.508   0.360
12839WAT      O52061   0.707   5.657   1.079
12839WAT     H152062   0.731   5.681   1.160
12839WAT     H252063   0.629   5.695   1.069
12839WAT    EPW52064   0.699   5.666   1.090
12840WAT      O52065   0.931   5.699   0.924
12840WAT     H152066   0.944   5.784   0.939
12840WAT     H252067   0.859   5.681   0.970
12840WAT    EPW52068   0.923   5.709   0.933
12841WAT      O52069   1.218   5.807   1.100
12841WAT     H152070   1.228   5.747   1.037
12841WAT     H252071   1.296   5.845   1.105
12841WAT    EPW52072   1.231   5.804   1.092
12842WAT      O52073   1.103   6.009   0.718
12842WAT     H152074   1.174   5.961   0.705
12842WAT     H252075   1.107   6.069   0.655
12842WAT    EPW52076   1.114   6.011   0.707
12843WAT      O52077   0.806   5.184   0.749
12843WAT     H152078   0.877   5.232   0.732
12843WAT     H252079   0.744   5.222   0.701
12843WAT    EPW52080   0.807   5.197   0.739
12844WAT      O52081   0.335   5.874   0.370
12844WAT     H152082   0.372   5.896   0.445
12844WAT     H252083   0.259   5.838   0.393
12844WAT    EPW52084   0.329   5.872   0.384
12845WAT      O52085   0.928   4.959   0.523
12845WAT     H152086   0.900   5.039   0.504
12845WAT     H252087   1.003   4.974   0.566
12845WAT    EPW52088   0.935   4.973   0.527
12846WAT      O52089   0.473   6.035   0.975
12846WAT     H152090   0.553   6.057   0.949
12846WAT     H252091   0.421   6.076   0.918
12846WAT    EPW52092   0.477   6.044   0.962
12847WAT      O52093   0.855   6.344   0.907
12847WAT     H152094   0.888   6.364   0.985
12847WAT     H252095   0.899   6.396   0.853
12847WAT    EPW52096   0.867   6.355   0.911
12848WAT      O52097   0.566   5.507   0.857
12848WAT     H152098   0.497   5.501   0.910
12848WAT     H252099   0.633   5.487   0.908
12848WAT    EPW52100   0.566   5.503   0.872
12849WAT      O52101   0.627   5.572   0.502
12849WAT     H152102   0.626   5.629   0.568
12849WAT     H252103   0.609   5.496   0.540
12849WAT    EPW52104   0.624   5.569   0.517
12850WAT      O52105   0.250   6.550   0.971
12850WAT     H152106   0.276   6.506   0.901
12850WAT     H252107   0.262   6.494   1.037
12850WAT    EPW52108   0.256   6.535   0.970
12851WAT      O52109   0.313   6.141   0.770
12851WAT     H152110   0.226   6.136   0.778
12851WAT     H252111   0.328   6.227   0.759
12851WAT    EPW52112   0.302   6.153   0.769
12852WAT      O52113   0.368   6.421   0.743
12852WAT     H152114   0.442   6.408   0.787
12852WAT     H252115   0.375   6.503   0.714
12852WAT    EPW52116   0.380   6.431   0.745
12853WAT      O52117   1.200   5.614   0.903
12853WAT     H152118   1.113   5.623   0.909
12853WAT     H252119   1.217   5.629   0.819
12853WAT    EPW52120   1.190   5.618   0.892
12854WAT      O52121   0.607   5.750   0.718
12854WAT     H152122   0.600   5.685   0.775
12854WAT     H252123   0.685   5.784   0.735
12854WAT    EPW52124   0.617   5.746   0.729
12855WAT      O52125   0.450   5.773   1.064
12855WAT     H152126   0.453   5.852   1.027
12855WAT     H252127   0.444   5.790   1.149
12855WAT    EPW52128   0.449   5.787   1.071
12856WAT      O52129   0.743   6.646   0.352
12856WAT     H152130   0.715   6.727   0.339
12856WAT     H252131   0.824   6.656   0.384
12856WAT    EPW52132   0.751   6.659   0.355
12857WAT      O52133   0.333   6.350   0.456
12857WAT     H152134   0.350   6.353   0.542
12857WAT     H252135   0.408   6.373   0.419
12857WAT    EPW52136   0.346   6.354   0.463
12858WAT      O52137   0.975   6.426   1.144
12858WAT     H152138   1.058   6.400   1.150
12858WAT     H252139   0.938   6.394   1.217
12858WAT    EPW52140   0.981   6.417   1.156
12859WAT      O52141   0.939   5.631   0.653
12859WAT     H152142   0.960   5.547   0.668
12859WAT     H252143   0.928   5.664   0.733
12859WAT    EPW52144   0.940   5.623   0.667
12860WAT      O52145   0.420   5.122   0.974
12860WAT     H152146   0.461   5.178   1.026
12860WAT     H252147   0.360   5.085   1.026
12860WAT    EPW52148   0.417   5.125   0.989
12861WAT      O52149   0.883   5.226   0.425
12861WAT     H152150   0.970   5.223   0.425
12861WAT     H252151   0.865   5.310   0.409
12861WAT    EPW52152   0.893   5.238   0.422
12862WAT      O52153   1.152   5.039   0.673
12862WAT     H152154   1.133   5.019   0.756
12862WAT     H252155   1.222   4.991   0.656
12862WAT    EPW52156   1.159   5.029   0.682
12863WAT      O52157   0.403   5.178   0.410
12863WAT     H152158   0.348   5.120   0.374
12863WAT     H252159   0.396   5.161   0.496
12863WAT    EPW52160   0.393   5.167   0.418
12864WAT      O52161   0.649   6.345   0.586
12864WAT     H152162   0.674   6.418   0.628
12864WAT     H252163   0.626   6.374   0.507
12864WAT    EPW52164   0.649   6.360   0.581
12865WAT      O52165   0.560   6.741   0.946
12865WAT     H152166   0.510   6.702   0.886
12865WAT     H252167   0.519   6.817   0.961
12865WAT    EPW52168   0.547   6.747   0.939
12866WAT      O52169   1.159   6.142   0.474
12866WAT     H152170   1.176   6.069   0.429
12866WAT     H252171   1.084   6.171   0.439
12866WAT    EPW52172   1.150   6.136   0.462
12867WAT      O52173   0.958   6.470   0.503
12867WAT     H152174   1.028   6.492   0.457
12867WAT     H252175   0.935   6.393   0.469
12867WAT    EPW52176   0.965   6.462   0.491
12868WAT      O52177   0.658   5.076   0.333
12868WAT     H152178   0.721   5.131   0.358
12868WAT     H252179   0.584   5.118   0.356
12868WAT    EPW52180   0.656   5.090   0.340
12869WAT      O52181   1.016   5.959   0.986
12869WAT     H152182   1.086   5.925   1.025
12869WAT     H252183   1.047   5.991   0.911
12869WAT    EPW52184   1.031   5.959   0.981
12870WAT      O52185   1.019   5.410   1.095
12870WAT     H152186   1.020   5.488   1.136
12870WAT     H252187   0.936   5.401   1.072
12870WAT    EPW52188   1.007   5.420   1.098
12871WAT      O52189   1.123   5.502   0.430
12871WAT     H152190   1.038   5.508   0.410
12871WAT     H252191   1.136   5.416   0.441
12871WAT    EPW52192   1.113   5.490   0.428
12872WAT      O52193   0.837   6.010   1.208
12872WAT     H152194   0.902   6.041   1.258
12872WAT     H252195   0.870   6.012   1.128
12872WAT    EPW52196   0.851   6.015   1.204
12873WAT      O52197   0.486   3.156   7.423
12873WAT     H152198   0.479   3.207   7.352
12873WAT     H252199   0.570   3.136   7.426
12873WAT    EPW52200   0.497   3.160   7.413
12874WAT      O52201   1.057   4.649   7.180
12874WAT     H152202   1.118   4.591   7.203
12874WAT     H252203   0.998   4.601   7.136
12874WAT    EPW52204   1.057   4.633   7.177
12875WAT      O52205   0.710   3.988   7.540
12875WAT     H152206   0.722   3.974   7.455
12875WAT     H252207   0.659   3.922   7.565
12875WAT    EPW52208   0.704   3.976   7.531
12876WAT      O52209   0.175   4.460   7.714
12876WAT     H152210   0.200   4.381   7.687
12876WAT     H252211   0.243   4.511   7.694
12876WAT    EPW52212   0.188   4.456   7.707
12877WAT      O52213   0.278   4.376   7.295
12877WAT     H152214   0.309   4.303   7.333
12877WAT     H252215   0.312   4.373   7.215
12877WAT    EPW52216   0.288   4.365   7.289
12878WAT      O52217   0.618   3.441   6.813
12878WAT     H152218   0.584   3.512   6.852
12878WAT     H252219   0.643   3.391   6.880
12878WAT    EPW52220   0.616   3.444   6.829
12879WAT      O52221   0.631   4.772   7.105
12879WAT     H152222   0.707   4.815   7.115
12879WAT     H252223   0.649   4.692   7.135
12879WAT    EPW52224   0.645   4.767   7.111
12880WAT      O52225   0.391   4.820   7.228
12880WAT     H152226   0.410   4.872   7.295
12880WAT     H252227   0.467   4.808   7.188
12880WAT    EPW52228   0.405   4.826   7.232
12881WAT      O52229   1.178   3.415   7.559
12881WAT     H152230   1.137   3.489   7.577
12881WAT     H252231   1.114   3.361   7.535
12881WAT    EPW52232   1.163   3.418   7.558
12882WAT      O52233   0.369   3.708   7.424
12882WAT     H152234   0.401   3.657   7.361
12882WAT     H252235   0.436   3.716   7.480
12882WAT    EPW52236   0.384   3.702   7.423
12883WAT      O52237   0.474   3.653   6.947
12883WAT     H152238   0.488   3.738   6.963
12883WAT     H252239   0.421   3.653   6.877
12883WAT    EPW52240   0.468   3.665   6.939
12884WAT      O52241   0.858   4.931   7.087
12884WAT     H152242   0.904   4.907   7.017
12884WAT     H252243   0.914   4.982   7.131
12884WAT    EPW52244   0.873   4.935   7.083
12885WAT      O52245   0.342   4.588   6.872
12885WAT     H152246   0.293   4.642   6.919
12885WAT     H252247   0.418   4.630   6.864
12885WAT    EPW52248   0.346   4.602   6.877
12886WAT      O52249   0.685   3.293   7.037
12886WAT     H152250   0.739   3.225   7.046
12886WAT     H252251   0.716   3.352   7.094
12886WAT    EPW52252   0.698   3.292   7.047
12887WAT      O52253   0.464   3.558   7.211
12887WAT     H152254   0.443   3.473   7.205
12887WAT     H252255   0.460   3.586   7.129
12887WAT    EPW52256   0.460   3.550   7.198
12888WAT      O52257   0.447   3.280   7.177
12888WAT     H152258   0.393   3.227   7.135
12888WAT     H252259   0.521   3.276   7.130
12888WAT    EPW52260   0.450   3.272   7.164
12889WAT      O52261   1.114   4.866   7.485
12889WAT     H152262   1.073   4.942   7.491
12889WAT     H252263   1.050   4.809   7.466
12889WAT    EPW52264   1.099   4.869   7.483
12890WAT      O52265   0.251   3.499   7.565
12890WAT     H152266   0.273   3.570   7.520
12890WAT     H252267   0.164   3.499   7.561
12890WAT    EPW52268   0.242   3.509   7.558
12891WAT      O52269   0.843   4.448   7.472
12891WAT     H152270   0.911   4.393   7.476
12891WAT     H252271   0.774   4.396   7.484
12891WAT    EPW52272   0.843   4.432   7.474
12892WAT      O52273   0.749   3.089   7.467
12892WAT     H152274   0.740   3.076   7.553
12892WAT     H252275   0.786   3.015   7.439
12892WAT    EPW52276   0.753   3.076   7.475
12893WAT      O52277   1.022   4.252   7.060
12893WAT     H152278   1.018   4.200   7.129
12893WAT     H252279   1.107   4.257   7.042
12893WAT    EPW52280   1.034   4.245   7.067
12894WAT      O52281   0.824   3.903   6.989
12894WAT     H152282   0.821   3.985   6.960
12894WAT     H252283   0.787   3.907   7.068
12894WAT    EPW52284   0.818   3.915   6.996
12895WAT      O52285   1.171   3.370   6.963
12895WAT     H152286   1.211   3.314   6.909
12895WAT     H252287   1.133   3.427   6.909
12895WAT    EPW52288   1.172   3.370   6.947
12896WAT      O52289   1.050   3.255   7.189
12896WAT     H152290   1.123   3.216   7.216
12896WAT     H252291   1.076   3.303   7.120
12896WAT    EPW52292   1.064   3.256   7.183
12897WAT      O52293   0.418   4.595   7.656
12897WAT     H152294   0.415   4.681   7.670
12897WAT     H252295   0.427   4.589   7.569
12897WAT    EPW52296   0.419   4.607   7.645
12898WAT      O52297   0.712   3.532   7.691
12898WAT     H152298   0.724   3.497   7.770
12898WAT     H252299   0.654   3.479   7.653
12898WAT    EPW52300   0.705   3.519   7.697
12899WAT      O52301   0.733   3.486   7.226
12899WAT     H152302   0.783   3.545   7.266
12899WAT     H252303   0.653   3.518   7.232
12899WAT    EPW52304   0.729   3.499   7.232
12900WAT      O52305   0.479   3.935   7.007
12900WAT     H152306   0.501   4.018   6.993
12900WAT     H252307   0.456   3.933   7.091
12900WAT    EPW52308   0.479   3.947   7.017
12901WAT      O52309   1.041   4.248   7.480
12901WAT     H152310   1.048   4.201   7.553
12901WAT     H252311   1.012   4.191   7.422
12901WAT    EPW52312   1.038   4.233   7.483
12902WAT      O52313   0.518   4.360   7.767
12902WAT     H152314   0.492   4.438   7.738
12902WAT     H252315   0.544   4.377   7.849
12902WAT    EPW52316   0.518   4.374   7.775
12903WAT      O52317   0.212   4.790   7.009
12903WAT     H152318   0.260   4.803   7.082
12903WAT     H252319   0.237   4.855   6.956
12903WAT    EPW52320   0.223   4.801   7.012
12904WAT      O52321   0.452   3.932   7.284
12904WAT     H152322   0.429   4.004   7.328
12904WAT     H252323   0.412   3.868   7.328
12904WAT    EPW52324   0.443   3.933   7.297
12905WAT      O52325   0.300   4.203   7.691
12905WAT     H152326   0.257   4.173   7.761
12905WAT     H252327   0.367   4.246   7.725
12905WAT    EPW52328   0.303   4.205   7.707
12906WAT      O52329   1.228   4.823   7.056
12906WAT     H152330   1.294   4.773   7.028
12906WAT     H252331   1.175   4.766   7.096
12906WAT    EPW52332   1.230   4.807   7.058
12907WAT      O52333   1.086   4.114   7.720
12907WAT     H152334   1.082   4.179   7.778
12907WAT     H252335   1.169   4.088   7.723
12907WAT    EPW52336   1.097   4.120   7.729
12908WAT      O52337   1.291   4.575   7.871
12908WAT     H152338   1.287   4.619   7.796
12908WAT     H252339   1.369   4.597   7.904
12908WAT    EPW52340   1.302   4.585   7.865
12909WAT      O52341   0.877   4.489   7.049
12909WAT     H152342   0.914   4.411   7.059
12909WAT     H252343   0.804   4.484   7.096
12909WAT    EPW52344   0.871   4.477   7.057
12910WAT      O52345   0.967   3.619   7.598
12910WAT     H152346   0.893   3.583   7.629
12910WAT     H252347   0.965   3.700   7.631
12910WAT    EPW52348   0.956   3.625   7.608
12911WAT      O52349   0.540   4.190   6.921
12911WAT     H152350   0.627   4.192   6.918
12911WAT     H252351   0.517   4.201   6.837
12911WAT    EPW52352   0.550   4.192   6.908
12912WAT      O52353   0.413   4.878   7.670
12912WAT     H152354   0.422   4.914   7.591
12912WAT     H252355   0.348   4.923   7.706
12912WAT    EPW52356   0.405   4.890   7.663
12913WAT      O52357   1.079   3.797   6.962
12913WAT     H152358   1.126   3.853   6.915
12913WAT     H252359   1.000   3.832   6.963
12913WAT    EPW52360   1.075   3.810   6.955
12914WAT      O52361   0.863   3.697   7.353
12914WAT     H152362   0.892   3.668   7.430
12914WAT     H252363   0.935   3.730   7.315
12914WAT    EPW52364   0.878   3.697   7.358
12915WAT      O52365   0.976   3.252   7.458
12915WAT     H152366   0.896   3.216   7.465
12915WAT     H252367   0.983   3.270   7.373
12915WAT    EPW52368   0.965   3.249   7.447
12916WAT      O52369   0.969   4.079   7.273
12916WAT     H152370   1.016   4.005   7.268
12916WAT     H252371   0.887   4.051   7.268
12916WAT    EPW52372   0.964   4.064   7.272
12917WAT      O52373   0.639   4.260   7.533
12917WAT     H152374   0.612   4.287   7.611
12917WAT     H252375   0.669   4.179   7.548
12917WAT    EPW52376   0.640   4.252   7.547
12918WAT      O52377   0.399   4.163   7.431
12918WAT     H152378   0.355   4.164   7.506
12918WAT     H252379   0.476   4.199   7.451
12918WAT    EPW52380   0.404   4.169   7.445
12919WAT      O52381   0.686   4.904   7.734
12919WAT     H152382   0.599   4.895   7.730
12919WAT     H252383   0.708   4.855   7.802
12919WAT    EPW52384   0.676   4.896   7.743
12920WAT      O52385   1.077   3.827   7.239
12920WAT     H152386   1.085   3.817   7.153
12920WAT     H252387   1.153   3.799   7.271
12920WAT    EPW52388   1.089   3.822   7.231
12921WAT      O52389   0.435   4.584   7.380
12921WAT     H152390   0.408   4.653   7.334
12921WAT     H252391   0.379   4.521   7.358
12921WAT    EPW52392   0.423   4.585   7.370
12922WAT      O52393   0.502   3.382   7.593
12922WAT     H152394   0.421   3.414   7.590
12922WAT     H252395   0.499   3.311   7.542
12922WAT    EPW52396   0.490   3.376   7.585
12923WAT      O52397   0.929   3.883   7.680
12923WAT     H152398   0.981   3.951   7.699
12923WAT     H252399   0.862   3.920   7.638
12923WAT    EPW52400   0.927   3.899   7.676
12924WAT      O52401   0.896   4.711   7.397
12924WAT     H152402   0.875   4.632   7.427
12924WAT     H252403   0.941   4.695   7.324
12924WAT    EPW52404   0.900   4.697   7.391
12925WAT      O52405   0.565   3.761   7.620
12925WAT     H152406   0.617   3.694   7.639
12925WAT     H252407   0.518   3.771   7.692
12925WAT    EPW52408   0.566   3.752   7.633
12926WAT      O52409   0.730   3.925   7.264
12926WAT     H152410   0.755   3.846   7.290
12926WAT     H252411   0.643   3.920   7.264
12926WAT    EPW52412   0.721   3.912   7.268
12927WAT      O52413   1.021   4.867   6.875
12927WAT     H152414   1.093   4.858   6.924
12927WAT     H252415   1.003   4.785   6.851
12927WAT    EPW52416   1.029   4.854   6.879
12928WAT      O52417   0.636   4.508   7.189
12928WAT     H152418   0.603   4.520   7.269
12928WAT     H252419   0.571   4.471   7.145
12928WAT    EPW52420   0.622   4.505   7.195
12929WAT      O52421   0.421   4.397   7.057
12929WAT     H152422   0.454   4.330   7.012
12929WAT     H252423   0.389   4.449   6.994
12929WAT    EPW52424   0.421   4.395   7.041
12930WAT      O52425   0.506   3.149   5.558
12930WAT     H152426   0.510   3.201   5.489
12930WAT     H252427   0.589   3.125   5.571
12930WAT    EPW52428   0.519   3.153   5.550
12931WAT      O52429   0.449   3.798   5.972
12931WAT     H152430   0.418   3.879   5.988
12931WAT     H252431   0.501   3.782   6.040
12931WAT    EPW52432   0.452   3.808   5.984
12932WAT      O52433   1.045   4.651   5.325
12932WAT     H152434   1.110   4.594   5.339
12932WAT     H252435   0.990   4.608   5.273
12932WAT    EPW52436   1.047   4.637   5.319
12933WAT      O52437   0.721   3.986   5.648
12933WAT     H152438   0.729   3.973   5.562
12933WAT     H252439   0.665   3.923   5.673
12933WAT    EPW52440   0.714   3.975   5.639
12934WAT      O52441   0.293   4.507   5.921
12934WAT     H152442   0.276   4.428   5.888
12934WAT     H252443   0.351   4.540   5.865
12934WAT    EPW52444   0.299   4.500   5.908
12935WAT      O52445   0.300   4.385   5.433
12935WAT     H152446   0.333   4.315   5.474
12935WAT     H252447   0.328   4.375   5.350
12935WAT    EPW52448   0.309   4.373   5.426
12936WAT      O52449   0.350   3.681   6.694
12936WAT     H152450   0.268   3.681   6.665
12936WAT     H252451   0.372   3.765   6.693
12936WAT    EPW52452   0.341   3.693   6.690
12937WAT      O52453   0.885   3.092   6.470
12937WAT     H152454   0.863   3.161   6.421
12937WAT     H252455   0.811   3.071   6.511
12937WAT    EPW52456   0.871   3.099   6.469
12938WAT      O52457   0.619   3.440   4.921
12938WAT     H152458   0.584   3.510   4.960
12938WAT     H252459   0.644   3.390   4.988
12938WAT    EPW52460   0.617   3.443   4.937
12939WAT      O52461   0.629   4.785   5.215
12939WAT     H152462   0.705   4.825   5.224
12939WAT     H252463   0.646   4.704   5.243
12939WAT    EPW52464   0.643   4.779   5.221
12940WAT      O52465   0.396   4.840   5.349
12940WAT     H152466   0.421   4.881   5.421
12940WAT     H252467   0.471   4.825   5.306
12940WAT    EPW52468   0.410   4.844   5.353
12941WAT      O52469   1.194   3.423   5.660
12941WAT     H152470   1.150   3.498   5.668
12941WAT     H252471   1.131   3.364   5.649
12941WAT    EPW52472   1.178   3.425   5.659
12942WAT      O52473   0.694   4.776   6.231
12942WAT     H152474   0.760   4.831   6.217
12942WAT     H252475   0.678   4.743   6.152
12942WAT    EPW52476   0.701   4.779   6.218
12943WAT      O52477   0.275   3.122   6.791
12943WAT     H152478   0.282   3.052   6.739
12943WAT     H252479   0.196   3.154   6.770
12943WAT    EPW52480   0.264   3.116   6.780
12944WAT      O52481   0.377   3.718   5.545
12944WAT     H152482   0.407   3.665   5.483
12944WAT     H252483   0.444   3.724   5.601
12944WAT    EPW52484   0.392   3.711   5.544
12945WAT      O52485   0.478   3.652   5.066
12945WAT     H152486   0.489   3.737   5.085
12945WAT     H252487   0.425   3.654   4.996
12945WAT    EPW52488   0.471   3.665   5.059
12946WAT      O52489   0.860   4.937   5.205
12946WAT     H152490   0.907   4.914   5.135
12946WAT     H252491   0.916   4.985   5.252
12946WAT    EPW52492   0.875   4.941   5.202
12947WAT      O52493   1.094   3.393   6.103
12947WAT     H152494   1.158   3.386   6.043
12947WAT     H252495   1.111   3.330   6.160
12947WAT    EPW52496   1.106   3.383   6.102
12948WAT      O52497   0.607   4.610   6.578
12948WAT     H152498   0.596   4.620   6.664
12948WAT     H252499   0.687   4.579   6.571
12948WAT    EPW52500   0.617   4.607   6.590
12949WAT      O52501   0.347   4.588   4.992
12949WAT     H152502   0.300   4.645   5.038
12949WAT     H252503   0.423   4.629   4.981
12949WAT    EPW52504   0.351   4.602   4.997
12950WAT      O52505   0.689   3.296   5.147
12950WAT     H152506   0.743   3.229   5.159
12950WAT     H252507   0.720   3.358   5.200
12950WAT    EPW52508   0.701   3.295   5.157
12951WAT      O52509   0.470   3.560   5.334
12951WAT     H152510   0.451   3.475   5.332
12951WAT     H252511   0.463   3.585   5.250
12951WAT    EPW52512   0.466   3.551   5.321
12952WAT      O52513   0.433   4.843   6.294
12952WAT     H152514   0.518   4.830   6.277
12952WAT     H252515   0.394   4.829   6.217
12952WAT    EPW52516   0.440   4.839   6.280
12953WAT      O52517   0.469   3.279   5.314
12953WAT     H152518   0.415   3.218   5.283
12953WAT     H252519   0.536   3.278   5.258
12953WAT    EPW52520   0.471   3.270   5.301
12954WAT      O52521   1.137   4.865   5.606
12954WAT     H152522   1.096   4.941   5.619
12954WAT     H252523   1.072   4.808   5.598
12954WAT    EPW52524   1.121   4.868   5.607
12955WAT      O52525   0.283   3.503   5.705
12955WAT     H152526   0.292   3.575   5.657
12955WAT     H252527   0.262   3.533   5.784
12955WAT    EPW52528   0.282   3.518   5.709
12956WAT      O52529   0.890   4.444   5.681
12956WAT     H152530   0.952   4.385   5.666
12956WAT     H252531   0.816   4.400   5.671
12956WAT    EPW52532   0.888   4.429   5.678
12957WAT      O52533   0.610   3.490   6.319
12957WAT     H152534   0.607   3.531   6.396
12957WAT     H252535   0.547   3.430   6.325
12957WAT    EPW52536   0.600   3.487   6.331
12958WAT      O52537   0.735   4.202   6.201
12958WAT     H152538   0.653   4.176   6.218
12958WAT     H252539   0.731   4.289   6.210
12958WAT    EPW52540   0.722   4.211   6.205
12959WAT      O52541   0.764   3.078   5.633
12959WAT     H152542   0.764   3.072   5.720
12959WAT     H252543   0.800   3.004   5.606
12959WAT    EPW52544   0.769   3.066   5.642
12960WAT      O52545   0.982   3.548   6.419
12960WAT     H152546   1.064   3.528   6.443
12960WAT     H252547   0.936   3.536   6.492
12960WAT    EPW52548   0.988   3.543   6.433
12961WAT      O52549   1.004   4.256   5.181
12961WAT     H152550   1.004   4.209   5.255
12961WAT     H252551   1.089   4.265   5.163
12961WAT    EPW52552   1.017   4.251   5.189
12962WAT      O52553   1.251   4.657   6.564
12962WAT     H152554   1.177   4.659   6.518
12962WAT     H252555   1.230   4.611   6.635
12962WAT    EPW52556   1.237   4.650   6.567
12963WAT      O52557   0.832   3.906   5.099
12963WAT     H152558   0.825   3.987   5.068
12963WAT     H252559   0.794   3.911   5.178
12963WAT    EPW52560   0.825   3.919   5.106
12964WAT      O52561   1.170   3.379   5.096
12964WAT     H152562   1.211   3.320   5.046
12964WAT     H252563   1.133   3.433   5.038
12964WAT    EPW52564   1.171   3.378   5.080
12965WAT      O52565   1.278   3.783   6.315
12965WAT     H152566   1.336   3.717   6.314
12965WAT     H252567   1.220   3.760   6.254
12965WAT    EPW52568   1.278   3.770   6.306
12966WAT      O52569   1.046   3.257   5.319
12966WAT     H152570   1.120   3.218   5.342
12966WAT     H252571   1.070   3.310   5.254
12966WAT    EPW52572   1.060   3.259   5.313
12967WAT      O52573   0.481   4.638   5.770
12967WAT     H152574   0.445   4.717   5.772
12967WAT     H252575   0.482   4.619   5.685
12967WAT    EPW52576   0.476   4.647   5.758
12968WAT      O52577   0.740   3.528   5.762
12968WAT     H152578   0.770   3.497   5.838
12968WAT     H252579   0.676   3.473   5.741
12968WAT    EPW52580   0.735   3.516   5.770
12969WAT      O52581   1.016   4.686   6.406
12969WAT     H152582   0.973   4.762   6.413
12969WAT     H252583   1.016   4.670   6.320
12969WAT    EPW52584   1.009   4.694   6.394
12970WAT      O52585   0.861   3.712   6.038
12970WAT     H152586   0.791   3.738   6.083
12970WAT     H252587   0.861   3.763   5.968
12970WAT    EPW52588   0.850   3.723   6.035
12971WAT      O52589   0.329   4.770   6.046
12971WAT     H152590   0.299   4.693   6.017
12971WAT     H252591   0.346   4.814   5.972
12971WAT    EPW52592   0.327   4.765   6.031
12972WAT      O52593   0.431   3.272   6.368
12972WAT     H152594   0.431   3.188   6.346
12972WAT     H252595   0.437   3.271   6.455
12972WAT    EPW52596   0.432   3.260   6.378
12973WAT      O52597   0.740   3.493   5.329
12973WAT     H152598   0.791   3.555   5.363
12973WAT     H252599   0.659   3.524   5.341
12973WAT    EPW52600   0.736   3.507   5.336
12974WAT      O52601   0.757   4.265   6.634
12974WAT     H152602   0.794   4.342   6.613
12974WAT     H252603   0.790   4.210   6.576
12974WAT    EPW52604   0.768   4.269   6.623
12975WAT      O52605   0.252   3.595   5.964
12975WAT     H152606   0.312   3.658   5.972
12975WAT     H252607   0.282   3.532   6.016
12975WAT    EPW52608   0.265   3.595   5.973
12976WAT      O52609   0.477   3.935   5.134
12976WAT     H152610   0.497   4.019   5.117
12976WAT     H252611   0.454   3.937   5.218
12976WAT    EPW52612   0.476   3.948   5.144
12977WAT      O52613   1.061   4.230   5.639
12977WAT     H152614   1.060   4.180   5.709
12977WAT     H252615   1.026   4.180   5.577
12977WAT    EPW52616   1.056   4.215   5.640
12978WAT      O52617   0.672   4.657   5.977
12978WAT     H152618   0.613   4.637   5.915
12978WAT     H252619   0.707   4.731   5.948
12978WAT    EPW52620   0.668   4.665   5.963
12979WAT      O52621   0.653   4.284   5.948
12979WAT     H152622   0.580   4.316   5.984
12979WAT     H252623   0.685   4.231   6.009
12979WAT    EPW52624   0.647   4.281   5.962
12980WAT      O52625   0.222   4.796   5.126
12980WAT     H152626   0.266   4.816   5.198
12980WAT     H252627   0.241   4.860   5.071
12980WAT    EPW52628   0.231   4.808   5.128
12981WAT      O52629   0.839   4.098   6.433
12981WAT     H152630   0.806   4.135   6.361
12981WAT     H252631   0.924   4.115   6.429
12981WAT    EPW52632   0.847   4.106   6.422
12982WAT      O52633   0.583   4.723   6.837
12982WAT     H152634   0.606   4.742   6.919
12982WAT     H252635   0.615   4.790   6.791
12982WAT    EPW52636   0.591   4.736   6.842
12983WAT      O52637   0.987   3.220   6.690
12983WAT     H152638   0.957   3.177   6.621
12983WAT     H252639   0.988   3.160   6.753
12983WAT    EPW52640   0.983   3.205   6.689
12984WAT      O52641   0.485   4.109   6.272
12984WAT     H152642   0.447   4.170   6.321
12984WAT     H252643   0.509   4.048   6.329
12984WAT    EPW52644   0.483   4.109   6.288
12985WAT      O52645   0.457   3.952   5.417
12985WAT     H152646   0.438   4.021   5.467
12985WAT     H252647   0.419   3.885   5.458
12985WAT    EPW52648   0.448   3.952   5.430
12986WAT      O52649   0.903   4.418   5.972
12986WAT     H152650   0.922   4.442   5.890
12986WAT     H252651   0.823   4.384   5.965
12986WAT    EPW52652   0.894   4.416   5.959
12987WAT      O52653   0.273   4.234   5.830
12987WAT     H152654   0.188   4.213   5.824
12987WAT     H252655   0.301   4.183   5.895
12987WAT    EPW52656   0.264   4.223   5.839
12988WAT      O52657   1.222   4.813   5.183
12988WAT     H152658   1.292   4.763   5.169
12988WAT     H252659   1.168   4.761   5.228
12988WAT    EPW52660   1.224   4.798   5.188
12989WAT      O52661   0.976   4.053   6.136
12989WAT     H152662   0.977   3.983   6.187
12989WAT     H252663   0.898   4.089   6.150
12989WAT    EPW52664   0.965   4.048   6.145
12990WAT      O52665   1.074   4.066   5.870
12990WAT     H152666   1.047   4.068   5.953
12990WAT     H252667   1.161   4.062   5.877
12990WAT    EPW52668   1.083   4.065   5.883
12991WAT      O52669   0.854   3.468   6.661
12991WAT     H152670   0.778   3.463   6.704
12991WAT     H252671   0.889   3.388   6.672
12991WAT    EPW52672   0.848   3.455   6.669
12992WAT      O52673   1.223   4.575   5.946
12992WAT     H152674   1.264   4.625   5.888
12992WAT     H252675   1.281   4.566   6.010
12992WAT    EPW52676   1.237   4.581   5.947
12993WAT      O52677   0.716   3.802   6.751
12993WAT     H152678   0.742   3.821   6.832
12993WAT     H252679   0.642   3.849   6.742
12993WAT    EPW52680   0.709   3.812   6.762
12994WAT      O52681   0.946   3.860   6.607
12994WAT     H152682   0.961   3.942   6.631
12994WAT     H252683   0.873   3.839   6.651
12994WAT    EPW52684   0.937   3.869   6.617
12995WAT      O52685   0.879   4.502   5.166
12995WAT     H152686   0.911   4.421   5.175
12995WAT     H252687   0.803   4.498   5.209
12995WAT    EPW52688   0.872   4.490   5.174
12996WAT      O52689   0.989   3.621   5.677
12996WAT     H152690   0.919   3.575   5.701
12996WAT     H252691   0.981   3.696   5.721
12996WAT    EPW52692   0.978   3.625   5.687
12997WAT      O52693   1.237   3.949   6.792
12997WAT     H152694   1.244   3.891   6.726
12997WAT     H252695   1.316   3.985   6.795
12997WAT    EPW52696   1.250   3.946   6.782
12998WAT      O52697   1.103   4.194   6.423
12998WAT     H152698   1.171   4.146   6.396
12998WAT     H252699   1.097   4.256   6.362
12998WAT    EPW52700   1.112   4.196   6.410
12999WAT      O52701   0.535   4.189   5.036
12999WAT     H152702   0.622   4.189   5.032
12999WAT     H252703   0.511   4.200   4.953
12999WAT    EPW52704   0.544   4.190   5.023
13000WAT      O52705   0.837   3.328   6.324
13000WAT     H152706   0.895   3.391   6.338
13000WAT     H252707   0.761   3.370   6.315
13000WAT    EPW52708   0.834   3.344   6.325
13001WAT      O52709   0.336   4.051   6.039
13001WAT     H152710   0.387   4.083   6.103
13001WAT     H252711   0.263   4.027   6.080
13001WAT    EPW52712   0.333   4.052   6.054
13002WAT      O52713   0.361   4.891   5.781
13002WAT     H152714   0.406   4.929   5.716
13002WAT     H252715   0.286   4.935   5.782
13002WAT    EPW52716   0.357   4.903   5.772
13003WAT      O52717   0.893   3.118   6.147
13003WAT     H152718   0.871   3.193   6.186
13003WAT     H252719   0.978   3.110   6.165
13003WAT    EPW52720   0.902   3.128   6.155
13004WAT      O52721   0.491   4.196   6.647
13004WAT     H152722   0.573   4.224   6.633
13004WAT     H252723   0.445   4.238   6.586
13004WAT    EPW52724   0.496   4.206   6.636
13005WAT      O52725   0.866   4.517   6.572
13005WAT     H152726   0.899   4.545   6.648
13005WAT     H252727   0.913   4.560   6.512
13005WAT    EPW52728   0.878   4.527   6.574
13006WAT      O52729   1.091   3.807   5.071
13006WAT     H152730   1.136   3.864   5.023
13006WAT     H252731   1.010   3.841   5.072
13006WAT    EPW52732   1.086   3.821   5.064
13007WAT      O52733   0.589   3.653   6.545
13007WAT     H152734   0.512   3.646   6.585
13007WAT     H252735   0.645   3.667   6.611
13007WAT    EPW52736   0.586   3.654   6.561
13008WAT      O52737   0.621   3.739   6.181
13008WAT     H152738   0.625   3.792   6.250
13008WAT     H252739   0.615   3.660   6.216
13008WAT    EPW52740   0.621   3.735   6.196
13009WAT      O52741   0.282   4.734   6.641
13009WAT     H152742   0.300   4.693   6.567
13009WAT     H252743   0.290   4.672   6.702
13009WAT    EPW52744   0.286   4.719   6.639
13010WAT      O52745   0.873   3.709   5.443
13010WAT     H152746   0.903   3.677   5.518
13010WAT     H252747   0.943   3.746   5.407
13010WAT    EPW52748   0.888   3.709   5.449
13011WAT      O52749   0.984   3.250   5.593
13011WAT     H152750   0.907   3.212   5.607
13011WAT     H252751   0.983   3.268   5.508
13011WAT    EPW52752   0.972   3.247   5.583
13012WAT      O52753   0.972   4.093   5.407
13012WAT     H152754   1.020   4.022   5.394
13012WAT     H252755   0.890   4.065   5.397
13012WAT    EPW52756   0.967   4.078   5.404
13013WAT      O52757   0.352   4.310   6.431
13013WAT     H152758   0.266   4.302   6.424
13013WAT     H252759   0.366   4.394   6.416
13013WAT    EPW52760   0.342   4.321   6.427
13014WAT      O52761   0.670   4.259   5.675
13014WAT     H152762   0.659   4.269   5.760
13014WAT     H252763   0.696   4.176   5.667
13014WAT    EPW52764   0.672   4.248   5.686
13015WAT      O52765   0.416   4.181   5.587
13015WAT     H152766   0.370   4.192   5.660
13015WAT     H252767   0.495   4.211   5.608
13015WAT    EPW52768   0.421   4.187   5.601
13016WAT      O52769   0.387   4.593   6.417
13016WAT     H152770   0.460   4.595   6.464
13016WAT     H252771   0.392   4.666   6.369
13016WAT    EPW52772   0.398   4.604   6.417
13017WAT      O52773   1.208   3.768   6.583
13017WAT     H152774   1.122   3.781   6.588
13017WAT     H252775   1.226   3.781   6.498
13017WAT    EPW52776   1.198   3.772   6.571
13018WAT      O52777   0.621   3.902   6.410
13018WAT     H152778   0.614   3.832   6.462
13018WAT     H252779   0.699   3.935   6.430
13018WAT    EPW52780   0.631   3.897   6.420
13019WAT      O52781   0.465   3.929   6.725
13019WAT     H152782   0.469   4.009   6.691
13019WAT     H252783   0.455   3.944   6.810
13019WAT    EPW52784   0.464   3.943   6.733
13020WAT      O52785   0.747   4.918   5.912
13020WAT     H152786   0.685   4.975   5.935
13020WAT     H252787   0.809   4.929   5.972
13020WAT    EPW52788   0.747   4.928   5.924
13021WAT      O52789   0.447   4.374   6.108
13021WAT     H152790   0.394   4.428   6.064
13021WAT     H252791   0.496   4.428   6.155
13021WAT    EPW52792   0.446   4.390   6.108
13022WAT      O52793   0.970   4.603   6.813
13022WAT     H152794   1.051   4.571   6.818
13022WAT     H252795   0.929   4.566   6.882
13022WAT    EPW52796   0.976   4.593   6.824
13023WAT      O52797   1.087   3.849   5.346
13023WAT     H152798   1.098   3.838   5.260
13023WAT     H252799   1.160   3.815   5.380
13023WAT    EPW52800   1.100   3.843   5.338
13024WAT      O52801   0.453   4.603   5.497
13024WAT     H152802   0.417   4.668   5.451
13024WAT     H252803   0.398   4.536   5.483
13024WAT    EPW52804   0.439   4.603   5.488
13025WAT      O52805   0.956   3.828   6.325
13025WAT     H152806   0.961   3.741   6.328
13025WAT     H252807   0.947   3.851   6.409
13025WAT    EPW52808   0.956   3.819   6.338
13026WAT      O52809   0.476   3.258   6.647
13026WAT     H152810   0.515   3.319   6.696
13026WAT     H252811   0.414   3.226   6.700
13026WAT    EPW52812   0.473   3.262   6.662
13027WAT      O52813   0.518   3.365   5.734
13027WAT     H152814   0.443   3.407   5.725
13027WAT     H252815   0.511   3.299   5.676
13027WAT    EPW52816   0.506   3.361   5.724
13028WAT      O52817   0.828   3.439   6.009
13028WAT     H152818   0.906   3.407   6.032
13028WAT     H252819   0.833   3.523   6.031
13028WAT    EPW52820   0.840   3.447   6.016
13029WAT      O52821   0.911   3.857   5.803
13029WAT     H152822   0.968   3.919   5.823
13029WAT     H252823   0.852   3.898   5.754
13029WAT    EPW52824   0.911   3.872   5.799
13030WAT      O52825   0.914   4.701   5.565
13030WAT     H152826   0.905   4.624   5.604
13030WAT     H252827   0.945   4.681   5.486
13030WAT    EPW52828   0.917   4.687   5.559
13031WAT      O52829   1.143   3.173   6.275
13031WAT     H152830   1.111   3.158   6.355
13031WAT     H252831   1.225   3.146   6.281
13031WAT    EPW52832   1.150   3.167   6.288
13032WAT      O52833   0.363   3.386   6.115
13032WAT     H152834   0.363   3.353   6.196
13032WAT     H252835   0.434   3.351   6.079
13032WAT    EPW52836   0.374   3.376   6.122
13033WAT      O52837   0.693   4.485   6.205
13033WAT     H152838   0.705   4.552   6.260
13033WAT     H252839   0.702   4.521   6.126
13033WAT    EPW52840   0.696   4.500   6.202
13034WAT      O52841   0.664   4.889   6.619
13034WAT     H152842   0.625   4.823   6.578
13034WAT     H252843   0.603   4.952   6.618
13034WAT    EPW52844   0.649   4.889   6.613
13035WAT      O52845   1.100   4.313   6.162
13035WAT     H152846   1.080   4.229   6.149
13035WAT     H252847   1.047   4.355   6.106
13035WAT    EPW52848   1.089   4.307   6.152
13036WAT      O52849   1.008   4.635   6.127
13036WAT     H152850   1.077   4.634   6.074
13036WAT     H252851   0.953   4.578   6.090
13036WAT    EPW52852   1.010   4.626   6.114
13037WAT      O52853   0.592   3.284   5.988
13037WAT     H152854   0.661   3.334   6.006
13037WAT     H252855   0.566   3.312   5.910
13037WAT    EPW52856   0.598   3.295   5.979
13038WAT      O52857   0.581   3.759   5.730
13038WAT     H152858   0.635   3.691   5.744
13038WAT     H252859   0.540   3.769   5.806
13038WAT    EPW52860   0.583   3.750   5.743
13039WAT      O52861   0.734   3.937   5.371
13039WAT     H152862   0.758   3.856   5.394
13039WAT     H252863   0.646   3.933   5.376
13039WAT    EPW52864   0.724   3.924   5.375
13040WAT      O52865   1.023   4.870   4.994
13040WAT     H152866   1.093   4.858   5.045
13040WAT     H252867   1.003   4.789   4.967
13040WAT    EPW52868   1.031   4.856   4.998
13041WAT      O52869   1.036   4.112   6.687
13041WAT     H152870   1.106   4.075   6.724
13041WAT     H252871   1.069   4.151   6.616
13041WAT    EPW52872   1.051   4.112   6.682
13042WAT      O52873   0.637   4.521   5.301
13042WAT     H152874   0.601   4.538   5.379
13042WAT     H252875   0.574   4.478   5.258
13042WAT    EPW52876   0.622   4.517   5.306
13043WAT      O52877   1.072   3.565   6.802
13043WAT     H152878   1.059   3.643   6.837
13043WAT     H252879   0.997   3.549   6.759
13043WAT    EPW52880   1.059   3.574   6.801
13044WAT      O52881   1.131   3.675   6.100
13044WAT     H152882   1.047   3.697   6.087
13044WAT     H252883   1.127   3.588   6.107
13044WAT    EPW52884   1.118   3.665   6.099
13045WAT      O52885   0.814   4.163   6.898
13045WAT     H152886   0.885   4.194   6.939
13045WAT     H252887   0.828   4.184   6.814
13045WAT    EPW52888   0.827   4.170   6.892
13046WAT      O52889   0.422   4.395   5.179
13046WAT     H152890   0.453   4.328   5.134
13046WAT     H252891   0.390   4.448   5.118
13046WAT    EPW52892   0.422   4.393   5.163
13047WAT      O52893   0.507   3.147   3.659
13047WAT     H152894   0.512   3.200   3.590
13047WAT     H252895   0.589   3.123   3.672
13047WAT    EPW52896   0.520   3.151   3.651
13048WAT      O52897   0.458   3.799   4.077
13048WAT     H152898   0.427   3.879   4.094
13048WAT     H252899   0.508   3.782   4.147
13048WAT    EPW52900   0.461   3.808   4.090
13049WAT      O52901   1.048   4.650   3.429
13049WAT     H152902   1.112   4.593   3.448
13049WAT     H252903   0.995   4.605   3.377
13049WAT    EPW52904   1.050   4.635   3.424
13050WAT      O52905   0.726   3.983   3.754
13050WAT     H152906   0.733   3.971   3.668
13050WAT     H252907   0.670   3.921   3.779
13050WAT    EPW52908   0.718   3.972   3.745
13051WAT      O52909   0.301   4.506   4.026
13051WAT     H152910   0.284   4.427   3.992
13051WAT     H252911   0.358   4.540   3.970
13051WAT    EPW52912   0.307   4.499   4.012
13052WAT      O52913   0.310   4.384   3.532
13052WAT     H152914   0.342   4.315   3.574
13052WAT     H252915   0.338   4.374   3.451
13052WAT    EPW52916   0.319   4.372   3.527
13053WAT      O52917   0.359   3.680   4.811
13053WAT     H152918   0.276   3.682   4.784
13053WAT     H252919   0.381   3.765   4.813
13053WAT    EPW52920   0.350   3.693   4.807
13054WAT      O52921   0.911   3.101   4.578
13054WAT     H152922   0.885   3.168   4.529
13054WAT     H252923   0.839   3.078   4.622
13054WAT    EPW52924   0.897   3.108   4.577
13055WAT      O52925   0.615   3.441   3.021
13055WAT     H152926   0.582   3.511   3.061
13055WAT     H252927   0.641   3.390   3.088
13055WAT    EPW52928   0.614   3.444   3.037
13056WAT      O52929   0.632   4.785   3.319
13056WAT     H152930   0.709   4.825   3.327
13056WAT     H252931   0.649   4.704   3.347
13056WAT    EPW52932   0.646   4.779   3.325
13057WAT      O52933   0.399   4.840   3.453
13057WAT     H152934   0.424   4.880   3.526
13057WAT     H252935   0.474   4.825   3.411
13057WAT    EPW52936   0.414   4.844   3.457
13058WAT      O52937   1.192   3.422   3.771
13058WAT     H152938   1.148   3.498   3.778
13058WAT     H252939   1.128   3.363   3.760
13058WAT    EPW52940   1.176   3.425   3.771
13059WAT      O52941   0.702   4.778   4.336
13059WAT     H152942   0.770   4.832   4.324
13059WAT     H252943   0.687   4.747   4.256
13059WAT    EPW52944   0.710   4.782   4.323
13060WAT      O52945   0.281   3.114   4.898
13060WAT     H152946   0.281   3.041   4.850
13060WAT     H252947   0.205   3.151   4.878
13060WAT    EPW52948   0.270   3.109   4.888
13061WAT      O52949   0.380   3.719   3.646
13061WAT     H152950   0.411   3.666   3.584
13061WAT     H252951   0.447   3.724   3.703
13061WAT    EPW52952   0.395   3.712   3.645
13062WAT      O52953   0.477   3.654   3.169
13062WAT     H152954   0.489   3.738   3.187
13062WAT     H252955   0.424   3.656   3.099
13062WAT    EPW52956   0.471   3.667   3.161
13063WAT      O52957   0.863   4.936   3.305
13063WAT     H152958   0.911   4.913   3.235
13063WAT     H252959   0.919   4.984   3.353
13063WAT    EPW52960   0.879   4.940   3.302
13064WAT      O52961   1.096   3.384   4.202
13064WAT     H152962   1.162   3.379   4.145
13064WAT     H252963   1.113   3.321   4.260
13064WAT    EPW52964   1.108   3.374   4.202
13065WAT      O52965   0.608   4.602   4.694
13065WAT     H152966   0.600   4.618   4.779
13065WAT     H252967   0.690   4.572   4.686
13065WAT    EPW52968   0.619   4.600   4.705
13066WAT      O52969   0.357   4.588   3.094
13066WAT     H152970   0.309   4.643   3.140
13066WAT     H252971   0.432   4.631   3.081
13066WAT    EPW52972   0.361   4.602   3.099
13067WAT      O52973   0.689   3.296   3.246
13067WAT     H152974   0.744   3.229   3.258
13067WAT     H252975   0.722   3.359   3.297
13067WAT    EPW52976   0.702   3.296   3.255
13068WAT      O52977   0.474   3.561   3.436
13068WAT     H152978   0.456   3.476   3.434
13068WAT     H252979   0.465   3.586   3.353
13068WAT    EPW52980   0.470   3.552   3.423
13069WAT      O52981   0.442   4.839   4.406
13069WAT     H152982   0.526   4.826   4.387
13069WAT     H252983   0.402   4.825   4.329
13069WAT    EPW52984   0.448   4.835   4.392
13070WAT      O52985   0.472   3.280   3.416
13070WAT     H152986   0.417   3.221   3.383
13070WAT     H252987   0.539   3.279   3.359
13070WAT    EPW52988   0.474   3.271   3.403
13071WAT      O52989   1.144   4.861   3.713
13071WAT     H152990   1.102   4.937   3.723
13071WAT     H252991   1.079   4.803   3.706
13071WAT    EPW52992   1.128   4.864   3.714
13072WAT      O52993   0.286   3.502   3.802
13072WAT     H152994   0.295   3.574   3.755
13072WAT     H252995   0.267   3.531   3.882
13072WAT    EPW52996   0.284   3.517   3.807
13073WAT      O52997   0.899   4.440   3.785
13073WAT     H152998   0.961   4.380   3.769
13073WAT     H252999   0.825   4.395   3.775
13073WAT    EPW53000   0.897   4.424   3.781
13074WAT      O53001   0.615   3.489   4.431
13074WAT     H153002   0.611   3.530   4.508
13074WAT     H253003   0.552   3.428   4.437
13074WAT    EPW53004   0.605   3.486   4.444
13075WAT      O53005   0.741   4.205   4.308
13075WAT     H153006   0.659   4.178   4.325
13075WAT     H253007   0.736   4.292   4.316
13075WAT    EPW53008   0.728   4.214   4.312
13076WAT      O53009   0.762   3.076   3.738
13076WAT     H153010   0.762   3.069   3.825
13076WAT     H253011   0.801   3.001   3.712
13076WAT    EPW53012   0.768   3.064   3.747
13077WAT      O53013   0.987   3.550   4.529
13077WAT     H153014   1.069   3.530   4.552
13077WAT     H253015   0.941   3.537   4.603
13077WAT    EPW53016   0.992   3.545   4.544
13078WAT      O53017   0.996   4.252   3.290
13078WAT     H153018   0.999   4.205   3.364
13078WAT     H253019   1.080   4.269   3.272
13078WAT    EPW53020   1.009   4.247   3.298
13079WAT      O53021   1.241   4.661   4.677
13079WAT     H153022   1.167   4.662   4.630
13079WAT     H253023   1.218   4.619   4.750
13079WAT    EPW53024   1.226   4.655   4.681
13080WAT      O53025   0.828   3.895   3.204
13080WAT     H153026   0.826   3.976   3.172
13080WAT     H253027   0.791   3.904   3.283
13080WAT    EPW53028   0.822   3.908   3.211
13081WAT      O53029   1.165   3.373   3.210
13081WAT     H153030   1.204   3.310   3.165
13081WAT     H253031   1.130   3.424   3.148
13081WAT    EPW53032   1.165   3.371   3.194
13082WAT      O53033   1.265   3.814   4.426
13082WAT     H153034   1.303   3.767   4.363
13082WAT     H253035   1.180   3.810   4.405
13082WAT    EPW53036   1.258   3.806   4.413
13083WAT      O53037   1.038   3.252   3.431
13083WAT     H153038   1.113   3.214   3.454
13083WAT     H253039   1.062   3.307   3.368
13083WAT    EPW53040   1.053   3.255   3.425
13084WAT      O53041   0.487   4.641   3.875
13084WAT     H153042   0.450   4.720   3.878
13084WAT     H253043   0.488   4.622   3.790
13084WAT    EPW53044   0.482   4.649   3.863
13085WAT      O53045   0.741   3.527   3.864
13085WAT     H153046   0.771   3.495   3.940
13085WAT     H253047   0.677   3.472   3.843
13085WAT    EPW53048   0.736   3.514   3.872
13086WAT      O53049   1.007   4.686   4.516
13086WAT     H153050   0.969   4.764   4.523
13086WAT     H253051   1.011   4.672   4.429
13086WAT    EPW53052   1.002   4.695   4.504
13087WAT      O53053   0.862   3.709   4.146
13087WAT     H153054   0.791   3.734   4.190
13087WAT     H253055   0.863   3.761   4.076
13087WAT    EPW53056   0.852   3.720   4.142
13088WAT      O53057   0.339   4.767   4.155
13088WAT     H153058   0.308   4.691   4.126
13088WAT     H253059   0.355   4.812   4.082
13088WAT    EPW53060   0.337   4.762   4.140
13089WAT      O53061   0.437   3.267   4.478
13089WAT     H153062   0.431   3.184   4.453
13089WAT     H253063   0.446   3.262   4.564
13089WAT    EPW53064   0.437   3.254   4.487
13090WAT      O53065   0.745   3.498   3.422
13090WAT     H153066   0.796   3.558   3.460
13090WAT     H253067   0.664   3.527   3.436
13090WAT    EPW53068   0.741   3.511   3.430
13091WAT      O53069   0.759   4.260   4.741
13091WAT     H153070   0.795   4.337   4.722
13091WAT     H253071   0.794   4.206   4.682
13091WAT    EPW53072   0.769   4.263   4.729
13092WAT      O53073   0.266   3.592   4.063
13092WAT     H153074   0.324   3.656   4.074
13092WAT     H253075   0.292   3.531   4.119
13092WAT    EPW53076   0.279   3.593   4.073
13093WAT      O53077   0.482   3.938   3.236
13093WAT     H153078   0.506   4.020   3.219
13093WAT     H253079   0.458   3.941   3.320
13093WAT    EPW53080   0.482   3.950   3.246
13094WAT      O53081   1.071   4.226   3.740
13094WAT     H153082   1.069   4.176   3.812
13094WAT     H253083   1.033   4.176   3.680
13094WAT    EPW53084   1.065   4.211   3.742
13095WAT      O53085   0.680   4.656   4.081
13095WAT     H153086   0.620   4.639   4.019
13095WAT     H253087   0.718   4.730   4.053
13095WAT    EPW53088   0.677   4.665   4.068
13096WAT      O53089   0.659   4.287   4.054
13096WAT     H153090   0.586   4.317   4.090
13096WAT     H253091   0.692   4.234   4.115
13096WAT    EPW53092   0.653   4.283   4.068
13097WAT      O53093   0.229   4.794   3.226
13097WAT     H153094   0.272   4.815   3.300
13097WAT     H253095   0.250   4.858   3.171
13097WAT    EPW53096   0.239   4.806   3.229
13098WAT      O53097   0.847   4.096   4.537
13098WAT     H153098   0.814   4.135   4.466
13098WAT     H253099   0.932   4.117   4.534
13098WAT    EPW53100   0.855   4.105   4.526
13099WAT      O53101   0.586   4.724   4.948
13099WAT     H153102   0.607   4.750   5.028
13099WAT     H253103   0.611   4.791   4.898
13099WAT    EPW53104   0.593   4.738   4.952
13100WAT      O53105   0.997   3.229   4.807
13100WAT     H153106   0.973   3.187   4.734
13100WAT     H253107   0.993   3.167   4.868
13100WAT    EPW53108   0.993   3.214   4.805
13101WAT      O53109   0.492   4.107   4.378
13101WAT     H153110   0.454   4.168   4.428
13101WAT     H253111   0.516   4.046   4.435
13101WAT    EPW53112   0.490   4.107   4.394
13102WAT      O53113   0.459   3.954   3.518
13102WAT     H153114   0.441   4.022   3.570
13102WAT     H253115   0.422   3.887   3.560
13102WAT    EPW53116   0.451   3.954   3.532
13103WAT      O53117   0.912   4.420   4.075
13103WAT     H153118   0.930   4.441   3.992
13103WAT     H253119   0.830   4.388   4.071
13103WAT    EPW53120   0.902   4.418   4.062
13104WAT      O53121   0.280   4.233   3.934
13104WAT     H153122   0.195   4.212   3.927
13104WAT     H253123   0.309   4.182   3.998
13104WAT    EPW53124   0.271   4.222   3.942
13105WAT      O53125   1.223   4.808   3.283
13105WAT     H153126   1.294   4.759   3.271
13105WAT     H253127   1.169   4.756   3.328
13105WAT    EPW53128   1.225   4.793   3.288
13106WAT      O53129   0.983   4.060   4.239
13106WAT     H153130   0.983   3.988   4.288
13106WAT     H253131   0.905   4.096   4.255
13106WAT    EPW53132   0.971   4.055   4.249
13107WAT      O53133   1.082   4.066   3.975
13107WAT     H153134   1.052   4.072   4.057
13107WAT     H253135   1.169   4.065   3.984
13107WAT    EPW53136   1.090   4.067   3.988
13108WAT      O53137   0.860   3.473   4.775
13108WAT     H153138   0.783   3.466   4.815
13108WAT     H253139   0.896   3.394   4.786
13108WAT    EPW53140   0.854   3.460   4.783
13109WAT      O53141   1.240   4.585   4.061
13109WAT     H153142   1.281   4.636   4.004
13109WAT     H253143   1.297   4.577   4.127
13109WAT    EPW53144   1.254   4.591   4.063
13110WAT      O53145   0.728   3.803   4.860
13110WAT     H153146   0.755   3.820   4.941
13110WAT     H253147   0.653   3.847   4.854
13110WAT    EPW53148   0.721   3.812   4.871
13111WAT      O53149   0.958   3.861   4.712
13111WAT     H153150   0.970   3.944   4.736
13111WAT     H253151   0.886   3.838   4.756
13111WAT    EPW53152   0.949   3.870   4.722
13112WAT      O53153   0.883   4.502   3.267
13112WAT     H153154   0.912   4.420   3.277
13112WAT     H253155   0.807   4.502   3.310
13112WAT    EPW53156   0.876   4.490   3.275
13113WAT      O53157   0.990   3.622   3.783
13113WAT     H153158   0.919   3.577   3.806
13113WAT     H253159   0.982   3.697   3.828
13113WAT    EPW53160   0.978   3.627   3.793
13114WAT      O53161   1.247   3.962   4.900
13114WAT     H153162   1.255   3.902   4.838
13114WAT     H253163   1.326   4.000   4.902
13114WAT    EPW53164   1.260   3.959   4.891
13115WAT      O53165   1.109   4.201   4.531
13115WAT     H153166   1.181   4.159   4.507
13115WAT     H253167   1.100   4.263   4.470
13115WAT    EPW53168   1.118   4.204   4.519
13116WAT      O53169   0.548   4.188   3.132
13116WAT     H153170   0.635   4.186   3.124
13116WAT     H253171   0.520   4.200   3.051
13116WAT    EPW53172   0.556   4.190   3.119
13117WAT      O53173   0.844   3.330   4.429
13117WAT     H153174   0.901   3.394   4.444
13117WAT     H253175   0.768   3.371   4.424
13117WAT    EPW53176   0.842   3.345   4.431
13118WAT      O53177   0.344   4.050   4.143
13118WAT     H153178   0.393   4.082   4.208
13118WAT     H253179   0.271   4.025   4.184
13118WAT    EPW53180   0.340   4.051   4.159
13119WAT      O53181   0.368   4.894   3.890
13119WAT     H153182   0.412   4.930   3.823
13119WAT     H253183   0.298   4.945   3.899
13119WAT    EPW53184   0.364   4.907   3.882
13120WAT      O53185   0.890   3.116   4.253
13120WAT     H153186   0.871   3.192   4.292
13120WAT     H253187   0.976   3.106   4.269
13120WAT    EPW53188   0.900   3.126   4.261
13121WAT      O53189   0.492   4.192   4.760
13121WAT     H153190   0.574   4.219   4.746
13121WAT     H253191   0.446   4.233   4.698
13121WAT    EPW53192   0.497   4.202   4.749
13122WAT      O53193   0.869   4.513   4.686
13122WAT     H153194   0.902   4.543   4.761
13122WAT     H253195   0.912   4.559   4.625
13122WAT    EPW53196   0.880   4.524   4.688
13123WAT      O53197   1.086   3.794   3.177
13123WAT     H153198   1.127   3.851   3.125
13123WAT     H253199   1.004   3.824   3.180
13123WAT    EPW53200   1.080   3.807   3.170
13124WAT      O53201   0.595   3.655   4.657
13124WAT     H153202   0.519   3.647   4.698
13124WAT     H253203   0.652   3.667   4.721
13124WAT    EPW53204   0.592   3.656   4.672
13125WAT      O53205   0.625   3.737   4.291
13125WAT     H153206   0.628   3.790   4.360
13125WAT     H253207   0.617   3.657   4.326
13125WAT    EPW53208   0.624   3.733   4.306
13126WAT      O53209   0.289   4.730   4.757
13126WAT     H153210   0.305   4.687   4.683
13126WAT     H253211   0.296   4.668   4.818
13126WAT    EPW53212   0.292   4.714   4.755
13127WAT      O53213   0.878   3.708   3.546
13127WAT     H153214   0.907   3.677   3.622
13127WAT     H253215   0.949   3.745   3.510
13127WAT    EPW53216   0.893   3.709   3.552
13128WAT      O53217   0.980   3.251   3.705
13128WAT     H153218   0.903   3.211   3.718
13128WAT     H253219   0.980   3.267   3.619
13128WAT    EPW53220   0.969   3.248   3.694
13129WAT      O53221   0.974   4.087   3.515
13129WAT     H153222   1.023   4.017   3.500
13129WAT     H253223   0.893   4.058   3.504
13129WAT    EPW53224   0.969   4.073   3.511
13130WAT      O53225   0.359   4.305   4.539
13130WAT     H153226   0.273   4.297   4.527
13130WAT     H253227   0.373   4.390   4.526
13130WAT    EPW53228   0.348   4.316   4.535
13131WAT      O53229   0.677   4.257   3.780
13131WAT     H153230   0.666   4.269   3.866
13131WAT     H253231   0.702   4.174   3.774
13131WAT    EPW53232   0.679   4.246   3.792
13132WAT      O53233   0.423   4.182   3.690
13132WAT     H153234   0.376   4.192   3.763
13132WAT     H253235   0.502   4.211   3.712
13132WAT    EPW53236   0.428   4.187   3.704
13133WAT      O53237   0.390   4.588   4.530
13133WAT     H153238   0.463   4.589   4.578
13133WAT     H253239   0.397   4.661   4.482
13133WAT    EPW53240   0.402   4.599   4.530
13134WAT      O53241   1.224   3.772   4.699
13134WAT     H153242   1.137   3.785   4.700
13134WAT     H253243   1.245   3.786   4.616
13134WAT    EPW53244   1.214   3.776   4.687
13135WAT      O53245   0.627   3.902   4.518
13135WAT     H153246   0.620   3.833   4.572
13135WAT     H253247   0.704   3.937   4.540
13135WAT    EPW53248   0.637   3.897   4.529
13136WAT      O53249   0.476   3.927   4.848
13136WAT     H153250   0.476   4.006   4.812
13136WAT     H253251   0.464   3.943   4.933
13136WAT    EPW53252   0.474   3.941   4.855
13137WAT      O53253   0.766   4.916   4.022
13137WAT     H153254   0.704   4.973   4.045
13137WAT     H253255   0.827   4.927   4.082
13137WAT    EPW53256   0.766   4.926   4.034
13138WAT      O53257   0.452   4.373   4.214
13138WAT     H153258   0.400   4.426   4.169
13138WAT     H253259   0.501   4.428   4.261
13138WAT    EPW53260   0.451   4.389   4.215
13139WAT      O53261   0.972   4.607   4.926
13139WAT     H153262   1.055   4.581   4.936
13139WAT     H253263   0.932   4.574   4.996
13139WAT    EPW53264   0.978   4.598   4.938
13140WAT      O53265   1.095   3.847   3.450
13140WAT     H153266   1.102   3.833   3.364
13140WAT     H253267   1.167   3.811   3.483
13140WAT    EPW53268   1.106   3.840   3.442
13141WAT      O53269   0.458   4.604   3.601
13141WAT     H153270   0.422   4.669   3.556
13141WAT     H253271   0.405   4.536   3.586
13141WAT    EPW53272   0.445   4.603   3.592
13142WAT      O53273   0.982   3.826   4.430
13142WAT     H153274   0.972   3.739   4.433
13142WAT     H253275   0.965   3.851   4.512
13142WAT    EPW53276   0.978   3.817   4.443
13143WAT      O53277   0.489   3.244   4.756
13143WAT     H153278   0.523   3.309   4.804
13143WAT     H253279   0.427   3.210   4.807
13143WAT    EPW53280   0.485   3.248   4.771
13144WAT      O53281   0.520   3.363   3.835
13144WAT     H153282   0.445   3.406   3.826
13144WAT     H253283   0.513   3.297   3.778
13144WAT    EPW53284   0.508   3.360   3.825
13145WAT      O53285   0.831   3.436   4.111
13145WAT     H153286   0.908   3.403   4.133
13145WAT     H253287   0.836   3.520   4.135
13145WAT    EPW53288   0.843   3.444   4.118
13146WAT      O53289   0.915   3.857   3.913
13146WAT     H153290   0.974   3.919   3.931
13146WAT     H253291   0.857   3.898   3.863
13146WAT    EPW53292   0.915   3.872   3.909
13147WAT      O53293   0.919   4.698   3.671
13147WAT     H153294   0.911   4.620   3.709
13147WAT     H253295   0.949   4.679   3.592
13147WAT    EPW53296   0.923   4.684   3.665
13148WAT      O53297   1.146   3.164   4.375
13148WAT     H153298   1.115   3.148   4.455
13148WAT     H253299   1.230   3.144   4.382
13148WAT    EPW53300   1.154   3.159   4.388
13149WAT      O53301   0.370   3.388   4.226
13149WAT     H153302   0.370   3.353   4.306
13149WAT     H253303   0.439   3.351   4.188
13149WAT    EPW53304   0.380   3.377   4.232
13150WAT      O53305   0.698   4.487   4.310
13150WAT     H153306   0.711   4.553   4.365
13150WAT     H253307   0.705   4.524   4.231
13150WAT    EPW53308   0.701   4.502   4.306
13151WAT      O53309   0.649   4.893   4.727
13151WAT     H153310   0.608   4.830   4.683
13151WAT     H253311   0.592   4.959   4.729
13151WAT    EPW53312   0.634   4.893   4.721
13152WAT      O53313   1.109   4.320   4.270
13152WAT     H153314   1.090   4.236   4.255
13152WAT     H253315   1.058   4.363   4.215
13152WAT    EPW53316   1.099   4.314   4.260
13153WAT      O53317   1.013   4.636   4.233
13153WAT     H153318   1.086   4.636   4.184
13153WAT     H253319   0.961   4.580   4.192
13153WAT    EPW53320   1.016   4.628   4.220
13154WAT      O53321   0.592   3.284   4.091
13154WAT     H153322   0.663   3.333   4.108
13154WAT     H253323   0.566   3.312   4.012
13154WAT    EPW53324   0.599   3.296   4.082
13155WAT      O53325   0.584   3.757   3.832
13155WAT     H153326   0.636   3.689   3.846
13155WAT     H253327   0.544   3.768   3.909
13155WAT    EPW53328   0.586   3.749   3.846
13156WAT      O53329   0.736   3.935   3.477
13156WAT     H153330   0.760   3.854   3.499
13156WAT     H253331   0.649   3.932   3.481
13156WAT    EPW53332   0.727   3.922   3.481
13157WAT      O53333   1.026   4.868   3.093
13157WAT     H153334   1.095   4.853   3.145
13157WAT     H253335   1.003   4.788   3.066
13157WAT    EPW53336   1.033   4.854   3.097
13158WAT      O53337   1.040   4.115   4.794
13158WAT     H153338   1.111   4.081   4.831
13158WAT     H253339   1.071   4.157   4.724
13158WAT    EPW53340   1.055   4.116   4.789
13159WAT      O53341   0.643   4.522   3.405
13159WAT     H153342   0.607   4.538   3.483
13159WAT     H253343   0.581   4.478   3.363
13159WAT    EPW53344   0.629   4.518   3.410
13160WAT      O53345   1.076   3.567   4.922
13160WAT     H153346   1.066   3.648   4.953
13160WAT     H253347   1.002   3.553   4.877
13160WAT    EPW53348   1.064   3.577   4.920
13161WAT      O53349   1.134   3.667   4.191
13161WAT     H153350   1.050   3.688   4.183
13161WAT     H253351   1.133   3.580   4.201
13161WAT    EPW53352   1.122   3.657   4.191
13162WAT      O53353   0.808   4.164   5.007
13162WAT     H153354   0.876   4.198   5.050
13162WAT     H253355   0.824   4.186   4.924
13162WAT    EPW53356   0.820   4.172   5.001
13163WAT      O53357   0.434   4.393   3.279
13163WAT     H153358   0.466   4.326   3.233
13163WAT     H253359   0.402   4.447   3.218
13163WAT    EPW53360   0.434   4.391   3.263
13164WAT      O53361   0.509   3.146   1.760
13164WAT     H153362   0.511   3.200   1.691
13164WAT     H253363   0.592   3.125   1.772
13164WAT    EPW53364   0.521   3.151   1.751
13165WAT      O53365   0.452   3.796   2.182
13165WAT     H153366   0.423   3.876   2.198
13165WAT     H253367   0.504   3.778   2.249
13165WAT    EPW53368   0.455   3.805   2.194
13166WAT      O53369   1.054   4.644   1.529
13166WAT     H153370   1.119   4.586   1.545
13166WAT     H253371   0.998   4.599   1.481
13166WAT    EPW53372   1.056   4.629   1.525
13167WAT      O53373   0.724   3.987   1.861
13167WAT     H153374   0.733   3.974   1.775
13167WAT     H253375   0.668   3.924   1.886
13167WAT    EPW53376   0.717   3.976   1.852
13168WAT      O53377   0.295   4.505   2.125
13168WAT     H153378   0.278   4.426   2.093
13168WAT     H253379   0.353   4.538   2.069
13168WAT    EPW53380   0.301   4.498   2.112
13169WAT      O53381   0.301   4.382   1.639
13169WAT     H153382   0.333   4.314   1.682
13169WAT     H253383   0.330   4.370   1.558
13169WAT    EPW53384   0.310   4.370   1.633
13170WAT      O53385   0.354   3.682   2.915
13170WAT     H153386   0.269   3.685   2.893
13170WAT     H253387   0.377   3.766   2.916
13170WAT    EPW53388   0.345   3.695   2.912
13171WAT      O53389   0.902   3.099   2.678
13171WAT     H153390   0.875   3.166   2.629
13171WAT     H253391   0.830   3.076   2.722
13171WAT    EPW53392   0.887   3.105   2.678
13172WAT      O53393   0.575   3.437   1.146
13172WAT     H153394   0.548   3.509   1.189
13172WAT     H253395   0.611   3.389   1.209
13172WAT    EPW53396   0.577   3.441   1.162
13173WAT      O53397   0.630   4.780   1.407
13173WAT     H153398   0.707   4.820   1.408
13173WAT     H253399   0.648   4.699   1.435
13173WAT    EPW53400   0.644   4.774   1.411
13174WAT      O53401   0.398   4.834   1.547
13174WAT     H153402   0.424   4.875   1.619
13174WAT     H253403   0.472   4.820   1.503
13174WAT    EPW53404   0.412   4.838   1.551
13175WAT      O53405   1.194   3.427   1.858
13175WAT     H153406   1.150   3.502   1.870
13175WAT     H253407   1.131   3.369   1.840
13175WAT    EPW53408   1.178   3.430   1.857
13176WAT      O53409   0.694   4.779   2.434
13176WAT     H153410   0.759   4.835   2.420
13176WAT     H253411   0.677   4.746   2.355
13176WAT    EPW53412   0.701   4.783   2.420
13177WAT      O53413   0.278   3.114   2.998
13177WAT     H153414   0.279   3.041   2.950
13177WAT     H253415   0.200   3.149   2.979
13177WAT    EPW53416   0.266   3.108   2.989
13178WAT      O53417   0.379   3.722   1.755
13178WAT     H153418   0.407   3.667   1.694
13178WAT     H253419   0.446   3.727   1.811
13178WAT    EPW53420   0.393   3.715   1.754
13179WAT      O53421   0.460   3.660   1.286
13179WAT     H153422   0.478   3.744   1.302
13179WAT     H253423   0.409   3.663   1.215
13179WAT    EPW53424   0.455   3.673   1.278
13180WAT      O53425   0.863   4.930   1.379
13180WAT     H153426   0.911   4.905   1.310
13180WAT     H253427   0.918   4.979   1.426
13180WAT    EPW53428   0.879   4.934   1.376
13181WAT      O53429   1.094   3.387   2.305
13181WAT     H153430   1.157   3.375   2.245
13181WAT     H253431   1.110   3.324   2.363
13181WAT    EPW53432   1.106   3.376   2.304
13182WAT      O53433   0.616   4.622   2.789
13182WAT     H153434   0.605   4.628   2.875
13182WAT     H253435   0.695   4.586   2.780
13182WAT    EPW53436   0.626   4.618   2.801
13183WAT      O53437   0.307   4.583   1.219
13183WAT     H153438   0.266   4.642   1.268
13183WAT     H253439   0.383   4.623   1.199
13183WAT    EPW53440   0.312   4.597   1.223
13184WAT      O53441   0.685   3.294   1.354
13184WAT     H153442   0.743   3.228   1.355
13184WAT     H253443   0.719   3.352   1.410
13184WAT    EPW53444   0.699   3.293   1.362
13185WAT      O53445   0.466   3.557   1.549
13185WAT     H153446   0.445   3.473   1.543
13185WAT     H253447   0.456   3.586   1.467
13185WAT    EPW53448   0.462   3.549   1.536
13186WAT      O53449   0.432   4.840   2.500
13186WAT     H153450   0.516   4.827   2.483
13186WAT     H253451   0.393   4.825   2.423
13186WAT    EPW53452   0.439   4.836   2.486
13187WAT      O53453   0.464   3.277   1.518
13187WAT     H153454   0.413   3.212   1.488
13187WAT     H253455   0.532   3.276   1.463
13187WAT    EPW53456   0.466   3.267   1.505
13188WAT      O53457   1.126   4.871   1.799
13188WAT     H153458   1.083   4.947   1.806
13188WAT     H253459   1.061   4.813   1.791
13188WAT    EPW53460   1.110   4.874   1.798
13189WAT      O53461   0.284   3.504   1.910
13189WAT     H153462   0.294   3.577   1.864
13189WAT     H253463   0.264   3.532   1.990
13189WAT    EPW53464   0.283   3.519   1.915
13190WAT      O53465   0.891   4.443   1.885
13190WAT     H153466   0.953   4.382   1.871
13190WAT     H253467   0.817   4.398   1.876
13190WAT    EPW53468   0.890   4.427   1.882
13191WAT      O53469   0.606   3.489   2.531
13191WAT     H153470   0.603   3.530   2.608
13191WAT     H253471   0.544   3.428   2.537
13191WAT    EPW53472   0.596   3.486   2.543
13192WAT      O53473   0.737   4.204   2.403
13192WAT     H153474   0.656   4.178   2.422
13192WAT     H253475   0.733   4.291   2.412
13192WAT    EPW53476   0.724   4.213   2.407
13193WAT      O53477   0.769   3.084   1.833
13193WAT     H153478   0.768   3.080   1.921
13193WAT     H253479   0.805   3.009   1.809
13193WAT    EPW53480   0.774   3.072   1.843
13194WAT      O53481   0.976   3.549   2.626
13194WAT     H153482   1.057   3.528   2.647
13194WAT     H253483   0.931   3.538   2.700
13194WAT    EPW53484   0.981   3.544   2.640
13195WAT      O53485   1.023   4.241   1.389
13195WAT     H153486   1.023   4.193   1.461
13195WAT     H253487   1.108   4.249   1.369
13195WAT    EPW53488   1.036   4.235   1.397
13196WAT      O53489   1.260   4.674   2.776
13196WAT     H153490   1.186   4.676   2.730
13196WAT     H253491   1.238   4.632   2.849
13196WAT    EPW53492   1.246   4.668   2.780
13197WAT      O53493   0.823   3.913   1.314
13197WAT     H153494   0.823   3.995   1.283
13197WAT     H253495   0.788   3.922   1.394
13197WAT    EPW53496   0.818   3.927   1.321
13198WAT      O53497   1.146   3.382   1.257
13198WAT     H153498   1.192   3.336   1.198
13198WAT     H253499   1.097   3.435   1.208
13198WAT    EPW53500   1.146   3.383   1.241
13199WAT      O53501   1.270   3.795   2.528
13199WAT     H153502   1.324   3.727   2.520
13199WAT     H253503   1.206   3.776   2.473
13199WAT    EPW53504   1.269   3.782   2.519
13200WAT      O53505   1.043   3.262   1.495
13200WAT     H153506   1.118   3.229   1.524
13200WAT     H253507   1.067   3.308   1.425
13200WAT    EPW53508   1.058   3.264   1.489
13201WAT      O53509   0.482   4.637   1.973
13201WAT     H153510   0.445   4.716   1.975
13201WAT     H253511   0.484   4.617   1.888
13201WAT    EPW53512   0.477   4.646   1.961
13202WAT      O53513   0.741   3.527   1.966
13202WAT     H153514   0.770   3.495   2.041
13202WAT     H253515   0.677   3.472   1.943
13202WAT    EPW53516   0.736   3.514   1.974
13203WAT      O53517   1.024   4.692   2.617
13203WAT     H153518   0.984   4.770   2.622
13203WAT     H253519   1.023   4.675   2.531
13203WAT    EPW53520   1.018   4.701   2.605
13204WAT      O53521   0.863   3.706   2.244
13204WAT     H153522   0.794   3.733   2.290
13204WAT     H253523   0.864   3.759   2.175
13204WAT    EPW53524   0.853   3.718   2.241
13205WAT      O53525   0.330   4.767   2.250
13205WAT     H153526   0.300   4.690   2.221
13205WAT     H253527   0.347   4.812   2.177
13205WAT    EPW53528   0.328   4.762   2.235
13206WAT      O53529   0.430   3.267   2.577
13206WAT     H153530   0.427   3.183   2.553
13206WAT     H253531   0.439   3.263   2.664
13206WAT    EPW53532   0.431   3.254   2.586
13207WAT      O53533   0.735   3.482   1.547
13207WAT     H153534   0.786   3.546   1.576
13207WAT     H253535   0.655   3.514   1.557
13207WAT    EPW53536   0.731   3.496   1.553
13208WAT      O53537   0.748   4.272   2.824
13208WAT     H153538   0.790   4.346   2.808
13208WAT     H253539   0.785   4.215   2.769
13208WAT    EPW53540   0.759   4.274   2.813
13209WAT      O53541   0.254   3.593   2.171
13209WAT     H153542   0.314   3.656   2.180
13209WAT     H253543   0.283   3.530   2.224
13209WAT    EPW53544   0.267   3.593   2.180
13210WAT      O53545   0.480   3.947   1.343
13210WAT     H153546   0.507   4.027   1.325
13210WAT     H253547   0.457   3.951   1.427
13210WAT    EPW53548   0.480   3.959   1.353
13211WAT      O53549   1.062   4.226   1.846
13211WAT     H153550   1.065   4.176   1.917
13211WAT     H253551   1.032   4.173   1.784
13211WAT    EPW53552   1.058   4.211   1.847
13212WAT      O53553   0.672   4.659   2.179
13212WAT     H153554   0.614   4.639   2.118
13212WAT     H253555   0.709   4.733   2.150
13212WAT    EPW53556   0.669   4.667   2.166
13213WAT      O53557   0.650   4.289   2.152
13213WAT     H153558   0.577   4.319   2.190
13213WAT     H253559   0.685   4.237   2.213
13213WAT    EPW53560   0.644   4.286   2.167
13214WAT      O53561   0.192   4.801   1.350
13214WAT     H153562   0.247   4.816   1.416
13214WAT     H253563   0.212   4.863   1.292
13214WAT    EPW53564   0.203   4.812   1.351
13215WAT      O53565   0.842   4.098   2.632
13215WAT     H153566   0.810   4.134   2.560
13215WAT     H253567   0.927   4.117   2.629
13215WAT    EPW53568   0.850   4.106   2.621
13216WAT      O53569   0.594   4.731   3.050
13216WAT     H153570   0.611   4.753   3.133
13216WAT     H253571   0.628   4.797   3.004
13216WAT    EPW53572   0.601   4.744   3.056
13217WAT      O53573   0.988   3.225   2.908
13217WAT     H153574   0.963   3.183   2.837
13217WAT     H253575   0.988   3.164   2.970
13217WAT    EPW53576   0.985   3.210   2.907
13218WAT      O53577   0.490   4.108   2.481
13218WAT     H153578   0.454   4.170   2.531
13218WAT     H253579   0.515   4.047   2.538
13218WAT    EPW53580   0.489   4.108   2.497
13219WAT      O53581   0.458   3.956   1.625
13219WAT     H153582   0.439   4.024   1.677
13219WAT     H253583   0.421   3.888   1.666
13219WAT    EPW53584   0.450   3.956   1.639
13220WAT      O53585   0.902   4.421   2.178
13220WAT     H153586   0.925   4.445   2.097
13220WAT     H253587   0.821   4.390   2.169
13220WAT    EPW53588   0.894   4.420   2.165
13221WAT      O53589   0.274   4.231   2.039
13221WAT     H153590   0.190   4.210   2.033
13221WAT     H253591   0.304   4.181   2.104
13221WAT    EPW53592   0.266   4.220   2.048
13222WAT      O53593   1.226   4.807   1.384
13222WAT     H153594   1.296   4.758   1.367
13222WAT     H253595   1.174   4.753   1.430
13222WAT    EPW53596   1.228   4.791   1.388
13223WAT      O53597   0.980   4.056   2.338
13223WAT     H153598   0.980   3.985   2.388
13223WAT     H253599   0.901   4.091   2.351
13223WAT    EPW53600   0.969   4.051   2.347
13224WAT      O53601   1.085   4.063   2.076
13224WAT     H153602   1.056   4.067   2.158
13224WAT     H253603   1.172   4.059   2.086
13224WAT    EPW53604   1.093   4.063   2.090
13225WAT      O53605   0.856   3.471   2.875
13225WAT     H153606   0.779   3.466   2.915
13225WAT     H253607   0.890   3.392   2.885
13225WAT    EPW53608   0.850   3.459   2.882
13226WAT      O53609   1.216   4.570   2.150
13226WAT     H153610   1.251   4.620   2.088
13226WAT     H253611   1.277   4.566   2.212
13226WAT    EPW53612   1.230   4.576   2.150
13227WAT      O53613   0.719   3.796   2.965
13227WAT     H153614   0.747   3.812   3.047
13227WAT     H253615   0.646   3.843   2.959
13227WAT    EPW53616   0.712   3.805   2.976
13228WAT      O53617   0.937   3.860   2.806
13228WAT     H153618   0.948   3.944   2.827
13228WAT     H253619   0.869   3.835   2.855
13228WAT    EPW53620   0.929   3.869   2.816
13229WAT      O53621   0.887   4.484   1.385
13229WAT     H153622   0.919   4.403   1.395
13229WAT     H253623   0.809   4.480   1.424
13229WAT    EPW53624   0.880   4.471   1.392
13230WAT      O53625   0.988   3.623   1.882
13230WAT     H153626   0.918   3.577   1.907
13230WAT     H253627   0.981   3.698   1.927
13230WAT    EPW53628   0.977   3.628   1.892
13231WAT      O53629   1.220   3.952   2.994
13231WAT     H153630   1.226   3.892   2.931
13231WAT     H253631   1.297   3.994   2.990
13231WAT    EPW53632   1.232   3.950   2.984
13232WAT      O53633   1.104   4.198   2.632
13232WAT     H153634   1.174   4.153   2.605
13232WAT     H253635   1.096   4.260   2.571
13232WAT    EPW53636   1.113   4.201   2.619
13233WAT      O53637   0.551   4.195   1.233
13233WAT     H153638   0.638   4.196   1.225
13233WAT     H253639   0.522   4.205   1.152
13233WAT    EPW53640   0.559   4.197   1.220
13234WAT      O53641   0.835   3.327   2.530
13234WAT     H153642   0.891   3.392   2.544
13234WAT     H253643   0.758   3.369   2.524
13234WAT    EPW53644   0.832   3.343   2.531
13235WAT      O53645   0.341   4.049   2.248
13235WAT     H153646   0.391   4.081   2.312
13235WAT     H253647   0.269   4.023   2.291
13235WAT    EPW53648   0.338   4.050   2.264
13236WAT      O53649   0.361   4.889   1.984
13236WAT     H153650   0.404   4.926   1.918
13236WAT     H253651   0.287   4.936   1.988
13236WAT    EPW53652   0.357   4.901   1.975
13237WAT      O53653   0.887   3.118   2.352
13237WAT     H153654   0.866   3.192   2.391
13237WAT     H253655   0.972   3.109   2.370
13237WAT    EPW53656   0.897   3.128   2.360
13238WAT      O53657   0.488   4.192   2.860
13238WAT     H153658   0.569   4.220   2.844
13238WAT     H253659   0.440   4.233   2.799
13238WAT    EPW53660   0.493   4.202   2.848
13239WAT      O53661   0.872   4.520   2.779
13239WAT     H153662   0.904   4.546   2.856
13239WAT     H253663   0.920   4.565   2.721
13239WAT    EPW53664   0.884   4.531   2.782
13240WAT      O53665   1.068   3.794   1.262
13240WAT     H153666   1.113   3.853   1.216
13240WAT     H253667   0.990   3.831   1.273
13240WAT    EPW53668   1.063   3.808   1.257
13241WAT      O53669   0.588   3.654   2.757
13241WAT     H153670   0.511   3.647   2.798
13241WAT     H253671   0.645   3.666   2.822
13241WAT    EPW53672   0.585   3.655   2.773
13242WAT      O53673   0.625   3.736   2.390
13242WAT     H153674   0.628   3.789   2.459
13242WAT     H253675   0.616   3.657   2.425
13242WAT    EPW53676   0.624   3.732   2.405
13243WAT      O53677   0.275   4.720   2.860
13243WAT     H153678   0.300   4.681   2.786
13243WAT     H253679   0.290   4.661   2.922
13243WAT    EPW53680   0.281   4.706   2.858
13244WAT      O53681   0.868   3.704   1.647
13244WAT     H153682   0.900   3.676   1.724
13244WAT     H253683   0.938   3.737   1.607
13244WAT    EPW53684   0.883   3.705   1.653
13245WAT      O53685   0.983   3.260   1.775
13245WAT     H153686   0.907   3.222   1.793
13245WAT     H253687   0.979   3.277   1.690
13245WAT    EPW53688   0.971   3.257   1.765
13246WAT      O53689   0.985   4.079   1.616
13246WAT     H153690   1.031   4.007   1.599
13246WAT     H253691   0.902   4.054   1.607
13246WAT    EPW53692   0.979   4.065   1.612
13247WAT      O53693   0.358   4.309   2.639
13247WAT     H153694   0.273   4.303   2.621
13247WAT     H253695   0.374   4.394   2.630
13247WAT    EPW53696   0.348   4.321   2.635
13248WAT      O53697   0.671   4.260   1.880
13248WAT     H153698   0.658   4.273   1.966
13248WAT     H253699   0.697   4.177   1.875
13248WAT    EPW53700   0.673   4.250   1.892
13249WAT      O53701   0.417   4.181   1.796
13249WAT     H153702   0.371   4.191   1.870
13249WAT     H253703   0.496   4.212   1.817
13249WAT    EPW53704   0.421   4.187   1.810
13250WAT      O53705   0.393   4.593   2.634
13250WAT     H153706   0.467   4.598   2.679
13250WAT     H253707   0.394   4.665   2.585
13250WAT    EPW53708   0.404   4.604   2.633
13251WAT      O53709   1.198   3.764   2.794
13251WAT     H153710   1.112   3.778   2.795
13251WAT     H253711   1.221   3.782   2.711
13251WAT    EPW53712   1.189   3.769   2.782
13252WAT      O53713   0.624   3.900   2.618
13252WAT     H153714   0.616   3.832   2.671
13252WAT     H253715   0.702   3.934   2.639
13252WAT    EPW53716   0.634   3.895   2.629
13253WAT      O53717   0.471   3.928   2.950
13253WAT     H153718   0.473   4.007   2.913
13253WAT     H253719   0.461   3.945   3.035
13253WAT    EPW53720   0.470   3.942   2.957
13254WAT      O53721   0.752   4.919   2.110
13254WAT     H153722   0.689   4.975   2.134
13254WAT     H253723   0.814   4.930   2.171
13254WAT    EPW53724   0.752   4.929   2.123
13255WAT      O53725   0.444   4.373   2.316
13255WAT     H153726   0.393   4.427   2.271
13255WAT     H253727   0.496   4.427   2.362
13255WAT    EPW53728   0.444   4.389   2.316
13256WAT      O53729   0.972   4.606   3.024
13256WAT     H153730   1.056   4.583   3.032
13256WAT     H253731   0.934   4.572   3.095
13256WAT    EPW53732   0.979   4.598   3.036
13257WAT      O53733   1.084   3.831   1.539
13257WAT     H153734   1.091   3.821   1.453
13257WAT     H253735   1.156   3.792   1.570
13257WAT    EPW53736   1.096   3.824   1.531
13258WAT      O53737   0.456   4.600   1.699
13258WAT     H153738   0.421   4.664   1.653
13258WAT     H253739   0.401   4.533   1.687
13258WAT    EPW53740   0.443   4.599   1.691
13259WAT      O53741   0.964   3.827   2.524
13259WAT     H153742   0.962   3.740   2.528
13259WAT     H253743   0.950   3.851   2.606
13259WAT    EPW53744   0.961   3.818   2.536
13260WAT      O53745   0.483   3.246   2.856
13260WAT     H153746   0.517   3.311   2.904
13260WAT     H253747   0.421   3.213   2.907
13260WAT    EPW53748   0.479   3.251   2.870
13261WAT      O53749   0.519   3.363   1.935
13261WAT     H153750   0.443   3.406   1.927
13261WAT     H253751   0.511   3.298   1.879
13261WAT    EPW53752   0.507   3.360   1.926
13262WAT      O53753   0.829   3.434   2.212
13262WAT     H153754   0.906   3.401   2.234
13262WAT     H253755   0.835   3.518   2.235
13262WAT    EPW53756   0.841   3.441   2.219
13263WAT      O53757   0.915   3.857   2.014
13263WAT     H153758   0.975   3.918   2.032
13263WAT     H253759   0.856   3.900   1.966
13263WAT    EPW53760   0.915   3.872   2.010
13264WAT      O53761   0.910   4.697   1.762
13264WAT     H153762   0.903   4.621   1.804
13264WAT     H253763   0.946   4.675   1.686
13264WAT    EPW53764   0.914   4.682   1.757
13265WAT      O53765   1.136   3.169   2.482
13265WAT     H153766   1.103   3.152   2.561
13265WAT     H253767   1.220   3.147   2.490
13265WAT    EPW53768   1.144   3.164   2.495
13266WAT      O53769   0.363   3.383   2.323
13266WAT     H153770   0.364   3.350   2.404
13266WAT     H253771   0.433   3.348   2.286
13266WAT    EPW53772   0.373   3.373   2.330
13267WAT      O53773   0.690   4.487   2.408
13267WAT     H153774   0.702   4.554   2.463
13267WAT     H253775   0.699   4.524   2.330
13267WAT    EPW53776   0.693   4.502   2.405
13268WAT      O53777   0.685   4.894   2.831
13268WAT     H153778   0.648   4.824   2.793
13268WAT     H253779   0.621   4.954   2.829
13268WAT    EPW53780   0.670   4.892   2.825
13269WAT      O53781   1.095   4.319   2.372
13269WAT     H153782   1.080   4.235   2.356
13269WAT     H253783   1.044   4.361   2.315
13269WAT    EPW53784   1.085   4.313   2.361
13270WAT      O53785   1.008   4.638   2.337
13270WAT     H153786   1.077   4.634   2.284
13270WAT     H253787   0.950   4.583   2.301
13270WAT    EPW53788   1.010   4.629   2.324
13271WAT      O53789   0.589   3.284   2.192
13271WAT     H153790   0.660   3.332   2.209
13271WAT     H253791   0.564   3.311   2.113
13271WAT    EPW53792   0.596   3.295   2.182
13272WAT      O53793   0.583   3.759   1.939
13272WAT     H153794   0.636   3.691   1.952
13272WAT     H253795   0.543   3.768   2.016
13272WAT    EPW53796   0.585   3.750   1.952
13273WAT      O53797   0.736   3.939   1.586
13273WAT     H153798   0.759   3.858   1.605
13273WAT     H253799   0.649   3.937   1.590
13273WAT    EPW53800   0.726   3.927   1.589
13274WAT      O53801   1.039   4.846   1.182
13274WAT     H153802   1.104   4.839   1.240
13274WAT     H253803   1.015   4.763   1.167
13274WAT    EPW53804   1.045   4.833   1.188
13275WAT      O53805   1.020   4.115   2.892
13275WAT     H153806   1.088   4.075   2.929
13275WAT     H253807   1.054   4.155   2.823
13275WAT    EPW53808   1.035   4.115   2.887
13276WAT      O53809   0.638   4.518   1.501
13276WAT     H153810   0.603   4.536   1.579
13276WAT     H253811   0.574   4.474   1.460
13276WAT    EPW53812   0.623   4.514   1.507
13277WAT      O53813   1.074   3.554   3.026
13277WAT     H153814   1.064   3.634   3.059
13277WAT     H253815   1.001   3.541   2.980
13277WAT    EPW53816   1.062   3.564   3.024
13278WAT      O53817   1.135   3.669   2.301
13278WAT     H153818   1.051   3.690   2.288
13278WAT     H253819   1.133   3.582   2.308
13278WAT    EPW53820   1.122   3.659   2.300
13279WAT      O53821   0.821   4.150   3.103
13279WAT     H153822   0.879   4.187   3.157
13279WAT     H253823   0.856   4.161   3.024
13279WAT    EPW53824   0.835   4.157   3.099
13280WAT      O53825   0.422   4.388   1.385
13280WAT     H153826   0.457   4.327   1.335
13280WAT     H253827   0.379   4.440   1.328
13280WAT    EPW53828   0.420   4.387   1.369
13281WAT      O53829   0.460   3.779   0.289
13281WAT     H153830   0.432   3.861   0.302
13281WAT     H253831   0.513   3.765   0.357
13281WAT    EPW53832   0.464   3.789   0.301
13282WAT      O53833   0.347   3.682   1.028
13282WAT     H153834   0.264   3.680   0.999
13282WAT     H253835   0.366   3.767   1.029
13282WAT    EPW53836   0.337   3.694   1.024
13283WAT      O53837   0.823   3.068   0.817
13283WAT     H153838   0.816   3.147   0.781
13283WAT     H253839   0.750   3.059   0.863
13283WAT    EPW53840   0.811   3.078   0.818
13284WAT      O53841   0.692   4.774   0.611
13284WAT     H153842   0.748   4.817   0.661
13284WAT     H253843   0.722   4.787   0.530
13284WAT    EPW53844   0.705   4.782   0.606
13285WAT      O53845   0.233   3.124   1.121
13285WAT     H153846   0.234   3.050   1.075
13285WAT     H253847   0.152   3.155   1.108
13285WAT    EPW53848   0.221   3.117   1.112
13286WAT      O53849   1.160   3.379   0.462
13286WAT     H153850   1.221   3.340   0.412
13286WAT     H253851   1.161   3.332   0.536
13286WAT    EPW53852   1.169   3.366   0.466
13287WAT      O53853   0.586   4.550   0.927
13287WAT     H153854   0.582   4.590   1.005
13287WAT     H253855   0.671   4.534   0.917
13287WAT    EPW53856   0.598   4.554   0.937
13288WAT      O53857   0.431   4.834   0.657
13288WAT     H153858   0.515   4.819   0.639
13288WAT     H253859   0.390   4.810   0.584
13288WAT    EPW53860   0.438   4.828   0.643
13289WAT      O53861   0.595   3.486   0.648
13289WAT     H153862   0.580   3.536   0.717
13289WAT     H253863   0.534   3.424   0.653
13289WAT    EPW53864   0.584   3.484   0.659
13290WAT      O53865   0.688   4.258   0.518
13290WAT     H153866   0.617   4.210   0.536
13290WAT     H253867   0.665   4.338   0.542
13290WAT    EPW53868   0.674   4.263   0.524
13291WAT      O53869   1.007   3.533   0.768
13291WAT     H153870   1.090   3.511   0.783
13291WAT     H253871   0.976   3.551   0.848
13291WAT    EPW53872   1.014   3.532   0.782
13292WAT      O53873   1.259   4.673   0.900
13292WAT     H153874   1.181   4.679   0.861
13292WAT     H253875   1.242   4.628   0.973
13292WAT    EPW53876   1.245   4.667   0.905
13293WAT      O53877   1.270   3.782   0.638
13293WAT     H153878   1.329   3.718   0.636
13293WAT     H253879   1.210   3.756   0.579
13293WAT    EPW53880   1.270   3.769   0.629
13294WAT      O53881   1.005   4.689   0.770
13294WAT     H153882   0.957   4.761   0.779
13294WAT     H253883   0.995   4.667   0.686
13294WAT    EPW53884   0.997   4.696   0.759
13295WAT      O53885   0.851   3.664   0.353
13295WAT     H153886   0.787   3.686   0.408
13295WAT     H253887   0.811   3.656   0.276
13295WAT    EPW53888   0.836   3.666   0.350
13296WAT      O53889   0.336   4.715   0.425
13296WAT     H153890   0.304   4.635   0.438
13296WAT     H253891   0.402   4.702   0.369
13296WAT    EPW53892   0.341   4.701   0.419
13297WAT      O53893   0.417   3.269   0.688
13297WAT     H153894   0.420   3.182   0.677
13297WAT     H253895   0.405   3.279   0.774
13297WAT    EPW53896   0.415   3.257   0.699
13298WAT      O53897   0.737   4.244   0.921
13298WAT     H153898   0.779   4.319   0.915
13298WAT     H253899   0.774   4.194   0.859
13298WAT    EPW53900   0.748   4.247   0.911
13299WAT      O53901   0.272   3.587   0.375
13299WAT     H153902   0.328   3.643   0.338
13299WAT     H253903   0.319   3.514   0.382
13299WAT    EPW53904   0.288   3.585   0.370
13300WAT      O53905   0.571   4.624   0.292
13300WAT     H153906   0.602   4.552   0.254
13300WAT     H253907   0.639   4.680   0.290
13300WAT    EPW53908   0.586   4.622   0.286
13301WAT      O53909   0.640   4.352   0.249
13301WAT     H153910   0.558   4.331   0.228
13301WAT     H253911   0.652   4.312   0.326
13301WAT    EPW53912   0.630   4.343   0.258
13302WAT      O53913   0.829   4.093   0.706
13302WAT     H153914   0.797   4.141   0.640
13302WAT     H253915   0.915   4.104   0.701
13302WAT    EPW53916   0.837   4.102   0.696
13303WAT      O53917   0.542   4.714   1.150
13303WAT     H153918   0.578   4.744   1.224
13303WAT     H253919   0.552   4.780   1.094
13303WAT    EPW53920   0.549   4.728   1.153
13304WAT      O53921   1.062   3.128   0.941
13304WAT     H153922   0.983   3.117   0.907
13304WAT     H253923   1.058   3.084   1.017
13304WAT    EPW53924   1.050   3.120   0.947
13305WAT      O53925   0.461   4.120   0.605
13305WAT     H153926   0.420   4.167   0.665
13305WAT     H253927   0.497   4.054   0.651
13305WAT    EPW53928   0.460   4.117   0.621
13306WAT      O53929   0.907   4.367   0.375
13306WAT     H153930   0.863   4.379   0.301
13306WAT     H253931   0.852   4.320   0.424
13306WAT    EPW53932   0.892   4.362   0.371
13307WAT      O53933   0.373   4.284   0.253
13307WAT     H153934   0.348   4.331   0.322
13307WAT     H253935   0.358   4.202   0.278
13307WAT    EPW53936   0.367   4.279   0.267
13308WAT      O53937   0.961   3.943   0.426
13308WAT     H153938   0.958   3.906   0.505
13308WAT     H253939   0.913   3.889   0.377
13308WAT    EPW53940   0.953   3.929   0.430
13309WAT      O53941   1.189   4.061   0.324
13309WAT     H153942   1.118   4.025   0.361
13309WAT     H253943   1.162   4.080   0.243
13309WAT    EPW53944   1.174   4.059   0.317
13310WAT      O53945   0.777   3.506   0.971
13310WAT     H153946   0.716   3.480   1.028
13310WAT     H253947   0.778   3.443   0.911
13310WAT    EPW53948   0.768   3.493   0.971
13311WAT      O53949   1.192   4.675   0.367
13311WAT     H153950   1.233   4.694   0.293
13311WAT     H253951   1.248   4.625   0.410
13311WAT    EPW53952   1.206   4.670   0.363
13312WAT      O53953   0.709   3.812   1.081
13312WAT     H153954   0.732   3.835   1.162
13312WAT     H253955   0.632   3.851   1.070
13312WAT    EPW53956   0.701   3.821   1.092
13313WAT      O53957   0.931   3.856   0.925
13313WAT     H153958   0.946   3.940   0.941
13313WAT     H253959   0.860   3.838   0.972
13313WAT    EPW53960   0.923   3.866   0.934
13314WAT      O53961   1.218   3.961   1.100
13314WAT     H153962   1.228   3.901   1.037
13314WAT     H253963   1.297   3.999   1.104
13314WAT    EPW53964   1.231   3.958   1.091
13315WAT      O53965   1.101   4.164   0.714
13315WAT     H153966   1.173   4.115   0.702
13315WAT     H253967   1.107   4.225   0.652
13315WAT    EPW53968   1.113   4.166   0.703
13316WAT      O53969   0.808   3.337   0.749
13316WAT     H153970   0.878   3.386   0.733
13316WAT     H253971   0.745   3.376   0.702
13316WAT    EPW53972   0.809   3.350   0.739
13317WAT      O53973   0.345   4.027   0.370
13317WAT     H153974   0.381   4.052   0.445
13317WAT     H253975   0.269   3.992   0.394
13317WAT    EPW53976   0.339   4.026   0.384
13318WAT      O53977   0.928   3.117   0.522
13318WAT     H153978   0.898   3.197   0.505
13318WAT     H253979   1.002   3.131   0.566
13318WAT    EPW53980   0.934   3.131   0.526
13319WAT      O53981   0.472   4.193   0.964
13319WAT     H153982   0.554   4.215   0.943
13319WAT     H253983   0.424   4.243   0.911
13319WAT    EPW53984   0.477   4.204   0.953
13320WAT      O53985   0.858   4.497   0.910
13320WAT     H153986   0.892   4.518   0.987
13320WAT     H253987   0.901   4.549   0.854
13320WAT    EPW53988   0.870   4.508   0.913
13321WAT      O53989   0.570   3.665   0.855
13321WAT     H153990   0.501   3.660   0.908
13321WAT     H253991   0.637   3.644   0.906
13321WAT    EPW53992   0.569   3.661   0.870
13322WAT      O53993   0.629   3.723   0.502
13322WAT     H153994   0.627   3.782   0.566
13322WAT     H253995   0.611   3.648   0.542
13322WAT    EPW53996   0.626   3.721   0.517
13323WAT      O53997   0.228   4.727   0.993
13323WAT     H153998   0.259   4.686   0.922
13323WAT     H253999   0.240   4.669   1.057
13323WAT    EPW54000   0.234   4.712   0.992
13324WAT      O54001   0.308   4.319   0.762
13324WAT     H154002   0.225   4.310   0.788
13324WAT     H254003   0.324   4.404   0.773
13324WAT    EPW54004   0.298   4.330   0.767
13325WAT      O54005   0.358   4.591   0.787
13325WAT     H154006   0.434   4.578   0.828
13325WAT     H254007   0.375   4.658   0.733
13325WAT    EPW54008   0.372   4.599   0.785
13326WAT      O54009   1.199   3.767   0.904
13326WAT     H154010   1.113   3.777   0.910
13326WAT     H254011   1.216   3.782   0.820
13326WAT    EPW54012   1.189   3.771   0.893
13327WAT      O54013   0.608   3.908   0.713
13327WAT     H154014   0.603   3.844   0.771
13327WAT     H254015   0.687   3.943   0.726
13327WAT    EPW54016   0.619   3.904   0.723
13328WAT      O54017   0.453   3.932   1.061
13328WAT     H154018   0.455   4.010   1.023
13328WAT     H254019   0.447   3.950   1.146
13328WAT    EPW54020   0.452   3.946   1.068
13329WAT      O54021   0.763   4.819   0.340
13329WAT     H154022   0.726   4.897   0.328
13329WAT     H254023   0.840   4.838   0.376
13329WAT    EPW54024   0.769   4.833   0.343
13330WAT      O54025   0.333   4.432   0.493
13330WAT     H154026   0.305   4.391   0.564
13330WAT     H254027   0.413   4.459   0.516
13330WAT    EPW54028   0.341   4.430   0.507
13331WAT      O54029   0.978   4.581   1.144
13331WAT     H154030   1.061   4.556   1.149
13331WAT     H254031   0.942   4.548   1.217
13331WAT    EPW54032   0.985   4.572   1.156
13332WAT      O54033   0.939   3.785   0.657
13332WAT     H154034   0.961   3.702   0.672
13332WAT     H254035   0.929   3.819   0.736
13332WAT    EPW54036   0.941   3.778   0.671
13333WAT      O54037   0.420   3.275   0.974
13333WAT     H154038   0.461   3.332   1.027
13333WAT     H254039   0.360   3.238   1.026
13333WAT    EPW54040   0.417   3.278   0.990
13334WAT      O54041   0.881   3.388   0.425
13334WAT     H154042   0.968   3.383   0.425
13334WAT     H254043   0.866   3.473   0.410
13334WAT    EPW54044   0.891   3.400   0.423
13335WAT      O54045   1.151   3.194   0.673
13335WAT     H154046   1.132   3.174   0.756
13335WAT     H254047   1.221   3.146   0.656
13335WAT    EPW54048   1.158   3.184   0.683
13336WAT      O54049   0.403   3.334   0.411
13336WAT     H154050   0.348   3.277   0.374
13336WAT     H254051   0.396   3.317   0.496
13336WAT    EPW54052   0.394   3.323   0.418
13337WAT      O54053   0.597   4.517   0.543
13337WAT     H154054   0.634   4.581   0.589
13337WAT     H254055   0.593   4.550   0.463
13337WAT    EPW54056   0.602   4.531   0.538
13338WAT      O54057   0.567   4.891   0.932
13338WAT     H154058   0.520   4.854   0.869
13338WAT     H254059   0.527   4.968   0.946
13338WAT    EPW54060   0.554   4.897   0.925
13339WAT      O54061   1.158   4.297   0.471
13339WAT     H154062   1.175   4.224   0.428
13339WAT     H254063   1.084   4.326   0.435
13339WAT    EPW54064   1.150   4.291   0.459
13340WAT      O54065   0.963   4.611   0.508
13340WAT     H154066   1.029   4.642   0.461
13340WAT     H254067   0.939   4.539   0.466
13340WAT    EPW54068   0.969   4.605   0.495
13341WAT      O54069   0.658   3.234   0.335
13341WAT     H154070   0.721   3.290   0.359
13341WAT     H254071   0.585   3.275   0.357
13341WAT    EPW54072   0.657   3.248   0.341
13342WAT      O54073   1.017   4.114   0.984
13342WAT     H154074   1.088   4.081   1.024
13342WAT     H254075   1.049   4.146   0.909
13342WAT    EPW54076   1.032   4.114   0.979
13343WAT      O54077   1.018   3.565   1.095
13343WAT     H154078   1.019   3.642   1.136
13343WAT     H254079   0.934   3.555   1.072
13343WAT    EPW54080   1.006   3.575   1.098
13344WAT      O54081   1.127   3.656   0.430
13344WAT     H154082   1.042   3.663   0.411
13344WAT     H254083   1.138   3.570   0.441
13344WAT    EPW54084   1.116   3.644   0.429
13345WAT      O54085   0.827   4.166   1.206
13345WAT     H154086   0.894   4.196   1.253
13345WAT     H254087   0.856   4.170   1.124
13345WAT    EPW54088   0.841   4.171   1.201
13346WAT      O54089   0.479   1.304   7.402
13346WAT     H154090   0.469   1.352   7.330
13346WAT     H254091   0.565   1.291   7.406
13346WAT    EPW54092   0.491   1.309   7.392
13347WAT      O54093   1.054   2.801   7.174
13347WAT     H154094   1.117   2.744   7.195
13347WAT     H254095   0.997   2.753   7.130
13347WAT    EPW54096   1.055   2.786   7.171
13348WAT      O54097   0.704   2.138   7.539
13348WAT     H154098   0.716   2.124   7.453
13348WAT     H254099   0.652   2.072   7.563
13348WAT    EPW54100   0.698   2.126   7.530
13349WAT      O54101   0.174   2.613   7.713
13349WAT     H154102   0.200   2.534   7.686
13349WAT     H254103   0.242   2.664   7.694
13349WAT    EPW54104   0.188   2.609   7.706
13350WAT      O54105   0.277   2.529   7.295
13350WAT     H154106   0.308   2.456   7.332
13350WAT     H254107   0.310   2.527   7.214
13350WAT    EPW54108   0.287   2.518   7.288
13351WAT      O54109   0.619   1.596   6.812
13351WAT     H154110   0.586   1.667   6.852
13351WAT     H254111   0.645   1.546   6.879
13351WAT    EPW54112   0.618   1.599   6.828
13352WAT      O54113   0.631   2.927   7.100
13352WAT     H154114   0.707   2.969   7.110
13352WAT     H254115   0.647   2.847   7.131
13352WAT    EPW54116   0.644   2.922   7.106
13353WAT      O54117   0.391   2.974   7.227
13353WAT     H154118   0.411   3.026   7.295
13353WAT     H254119   0.468   2.963   7.187
13353WAT    EPW54120   0.406   2.980   7.231
13354WAT      O54121   1.164   1.597   7.530
13354WAT     H154122   1.118   1.667   7.554
13354WAT     H254123   1.102   1.539   7.509
13354WAT    EPW54124   1.148   1.599   7.530
13355WAT      O54125   0.366   1.858   7.419
13355WAT     H154126   0.398   1.805   7.356
13355WAT     H254127   0.432   1.865   7.475
13355WAT    EPW54128   0.381   1.851   7.418
13356WAT      O54129   0.477   1.808   6.946
13356WAT     H154130   0.489   1.892   6.963
13356WAT     H254131   0.424   1.808   6.876
13356WAT    EPW54132   0.471   1.820   6.938
13357WAT      O54133   0.860   3.084   7.085
13357WAT     H154134   0.906   3.059   7.015
13357WAT     H254135   0.916   3.132   7.131
13357WAT    EPW54136   0.875   3.087   7.081
13358WAT      O54137   0.342   2.741   6.868
13358WAT     H154138   0.295   2.797   6.916
13358WAT     H254139   0.419   2.782   6.860
13358WAT    EPW54140   0.347   2.756   6.874
13359WAT      O54141   0.686   1.443   7.033
13359WAT     H154142   0.740   1.375   7.040
13359WAT     H254143   0.715   1.499   7.094
13359WAT    EPW54144   0.698   1.442   7.043
13360WAT      O54145   0.459   1.703   7.207
13360WAT     H154146   0.437   1.620   7.196
13360WAT     H254147   0.459   1.735   7.126
13360WAT    EPW54148   0.456   1.696   7.193
13361WAT      O54149   0.439   1.427   7.155
13361WAT     H154150   0.385   1.386   7.101
13361WAT     H254151   0.516   1.425   7.113
13361WAT    EPW54152   0.443   1.421   7.141
13362WAT      O54153   1.114   3.010   7.471
13362WAT     H154154   1.075   3.087   7.482
13362WAT     H254155   1.048   2.956   7.452
13362WAT    EPW54156   1.099   3.013   7.470
13363WAT      O54157   0.248   1.652   7.564
13363WAT     H154158   0.270   1.722   7.517
13363WAT     H254159   0.161   1.657   7.568
13363WAT    EPW54160   0.239   1.663   7.558
13364WAT      O54161   0.844   2.597   7.465
13364WAT     H154162   0.912   2.543   7.469
13364WAT     H254163   0.775   2.545   7.479
13364WAT    EPW54164   0.844   2.581   7.468
13365WAT      O54165   0.744   1.250   7.455
13365WAT     H154166   0.733   1.235   7.540
13365WAT     H254167   0.785   1.178   7.427
13365WAT    EPW54168   0.748   1.237   7.463
13366WAT      O54169   1.008   2.402   7.060
13366WAT     H154170   1.006   2.349   7.129
13366WAT     H254171   1.093   2.408   7.041
13366WAT    EPW54172   1.021   2.395   7.067
13367WAT      O54173   0.820   2.055   6.988
13367WAT     H154174   0.816   2.137   6.958
13367WAT     H254175   0.782   2.060   7.066
13367WAT    EPW54176   0.814   2.068   6.995
13368WAT      O54177   1.168   1.523   6.952
13368WAT     H154178   1.207   1.468   6.896
13368WAT     H254179   1.130   1.581   6.899
13368WAT    EPW54180   1.168   1.524   6.936
13369WAT      O54181   1.042   1.416   7.176
13369WAT     H154182   1.115   1.378   7.207
13369WAT     H254183   1.070   1.460   7.106
13369WAT    EPW54184   1.057   1.416   7.171
13370WAT      O54185   0.418   2.748   7.655
13370WAT     H154186   0.415   2.833   7.670
13370WAT     H254187   0.427   2.743   7.568
13370WAT    EPW54188   0.419   2.759   7.644
13371WAT      O54189   0.706   1.680   7.683
13371WAT     H154190   0.716   1.639   7.759
13371WAT     H254191   0.651   1.629   7.639
13371WAT    EPW54192   0.699   1.666   7.688
13372WAT      O54193   0.727   1.626   7.234
13372WAT     H154194   0.776   1.688   7.269
13372WAT     H254195   0.646   1.658   7.238
13372WAT    EPW54196   0.722   1.640   7.240
13373WAT      O54197   0.476   2.090   7.003
13373WAT     H154198   0.496   2.174   6.990
13373WAT     H254199   0.453   2.087   7.087
13373WAT    EPW54200   0.476   2.102   7.014
13374WAT      O54201   1.045   2.401   7.473
13374WAT     H154202   1.050   2.357   7.548
13374WAT     H254203   1.014   2.341   7.417
13374WAT    EPW54204   1.041   2.385   7.476
13375WAT      O54205   0.519   2.512   7.765
13375WAT     H154206   0.492   2.590   7.736
13375WAT     H254207   0.546   2.529   7.846
13375WAT    EPW54208   0.519   2.526   7.772
13376WAT      O54209   0.215   2.944   7.007
13376WAT     H154210   0.262   2.958   7.079
13376WAT     H254211   0.240   3.010   6.954
13376WAT    EPW54212   0.226   2.956   7.010
13377WAT      O54213   0.447   2.084   7.280
13377WAT     H154214   0.424   2.156   7.325
13377WAT     H254215   0.408   2.020   7.324
13377WAT    EPW54216   0.438   2.085   7.293
13378WAT      O54217   0.299   2.356   7.690
13378WAT     H154218   0.256   2.328   7.761
13378WAT     H254219   0.367   2.399   7.724
13378WAT    EPW54220   0.303   2.358   7.705
13379WAT      O54221   1.235   2.967   7.049
13379WAT     H154222   1.299   2.913   7.023
13379WAT     H254223   1.179   2.914   7.089
13379WAT    EPW54224   1.236   2.951   7.051
13380WAT      O54225   1.079   2.275   7.718
13380WAT     H154226   1.076   2.340   7.775
13380WAT     H254227   1.163   2.249   7.722
13380WAT    EPW54228   1.091   2.280   7.727
13381WAT      O54229   1.268   2.726   7.848
13381WAT     H154230   1.271   2.764   7.769
13381WAT     H254231   1.340   2.757   7.887
13381WAT    EPW54232   1.279   2.736   7.842
13382WAT      O54233   0.872   2.642   7.046
13382WAT     H154234   0.907   2.563   7.057
13382WAT     H254235   0.799   2.639   7.094
13382WAT    EPW54236   0.866   2.630   7.055
13383WAT      O54237   0.955   1.783   7.596
13383WAT     H154238   0.883   1.745   7.628
13383WAT     H254239   0.952   1.863   7.632
13383WAT    EPW54240   0.944   1.789   7.606
13384WAT      O54241   0.535   2.345   6.916
13384WAT     H154242   0.622   2.345   6.914
13384WAT     H254243   0.513   2.356   6.832
13384WAT    EPW54244   0.545   2.347   6.903
13385WAT      O54245   0.413   3.030   7.671
13385WAT     H154246   0.423   3.067   7.593
13385WAT     H254247   0.349   3.076   7.708
13385WAT    EPW54248   0.405   3.042   7.665
13386WAT      O54249   1.075   1.949   6.957
13386WAT     H154250   1.124   2.007   6.914
13386WAT     H254251   0.996   1.986   6.959
13386WAT    EPW54252   1.070   1.963   6.951
13387WAT      O54253   0.855   1.846   7.346
13387WAT     H154254   0.882   1.823   7.425
13387WAT     H254255   0.927   1.877   7.308
13387WAT    EPW54256   0.870   1.847   7.352
13388WAT      O54257   0.966   1.419   7.445
13388WAT     H154258   0.887   1.383   7.453
13388WAT     H254259   0.973   1.435   7.359
13388WAT    EPW54260   0.956   1.416   7.433
13389WAT      O54261   0.965   2.226   7.273
13389WAT     H154262   1.011   2.152   7.266
13389WAT     H254263   0.882   2.199   7.269
13389WAT    EPW54264   0.960   2.211   7.272
13390WAT      O54265   0.639   2.411   7.530
13390WAT     H154266   0.612   2.439   7.608
13390WAT     H254267   0.666   2.330   7.546
13390WAT    EPW54268   0.639   2.404   7.544
13391WAT      O54269   0.397   2.315   7.429
13391WAT     H154270   0.354   2.317   7.505
13391WAT     H254271   0.474   2.350   7.449
13391WAT    EPW54272   0.402   2.321   7.443
13392WAT      O54273   0.687   3.053   7.733
13392WAT     H154274   0.600   3.045   7.730
13392WAT     H254275   0.710   3.006   7.803
13392WAT    EPW54276   0.678   3.045   7.743
13393WAT      O54277   1.071   1.974   7.234
13393WAT     H154278   1.078   1.965   7.147
13393WAT     H254279   1.148   1.946   7.264
13393WAT    EPW54280   1.083   1.969   7.225
13394WAT      O54281   0.433   2.738   7.379
13394WAT     H154282   0.407   2.807   7.333
13394WAT     H254283   0.377   2.675   7.357
13394WAT    EPW54284   0.421   2.739   7.369
13395WAT      O54285   0.501   1.536   7.567
13395WAT     H154286   0.419   1.565   7.572
13395WAT     H254287   0.494   1.463   7.518
13395WAT    EPW54288   0.488   1.529   7.560
13396WAT      O54289   0.921   2.044   7.687
13396WAT     H154290   0.973   2.112   7.703
13396WAT     H254291   0.855   2.079   7.643
13396WAT    EPW54292   0.919   2.059   7.683
13397WAT      O54293   0.891   2.861   7.389
13397WAT     H154294   0.872   2.781   7.419
13397WAT     H254295   0.935   2.845   7.316
13397WAT    EPW54296   0.895   2.847   7.383
13398WAT      O54297   0.559   1.910   7.617
13398WAT     H154298   0.611   1.842   7.635
13398WAT     H254299   0.511   1.920   7.689
13398WAT    EPW54300   0.559   1.901   7.630
13399WAT      O54301   0.724   2.077   7.262
13399WAT     H154302   0.749   1.997   7.287
13399WAT     H254303   0.637   2.072   7.262
13399WAT    EPW54304   0.715   2.064   7.266
13400WAT      O54305   1.024   3.017   6.873
13400WAT     H154306   1.096   3.006   6.921
13400WAT     H254307   1.003   2.936   6.849
13400WAT    EPW54308   1.031   3.004   6.877
13401WAT      O54309   0.632   2.664   7.186
13401WAT     H154310   0.599   2.676   7.266
13401WAT     H254311   0.567   2.626   7.143
13401WAT    EPW54312   0.618   2.660   7.192
13402WAT      O54313   0.417   2.551   7.054
13402WAT     H154314   0.450   2.484   7.010
13402WAT     H254315   0.386   2.604   6.992
13402WAT    EPW54316   0.417   2.549   7.039
13403WAT      O54317   0.496   1.309   5.538
13403WAT     H154318   0.493   1.360   5.467
13403WAT     H254319   0.582   1.296   5.550
13403WAT    EPW54320   0.508   1.314   5.529
13404WAT      O54321   0.450   1.954   5.970
13404WAT     H154322   0.420   2.035   5.987
13404WAT     H254323   0.501   1.936   6.038
13404WAT    EPW54324   0.453   1.964   5.982
13405WAT      O54325   1.044   2.801   5.314
13405WAT     H154326   1.109   2.744   5.326
13405WAT     H254327   0.989   2.758   5.262
13405WAT    EPW54328   1.046   2.786   5.309
13406WAT      O54329   0.723   2.140   5.647
13406WAT     H154330   0.732   2.128   5.562
13406WAT     H254331   0.666   2.078   5.672
13406WAT    EPW54332   0.716   2.129   5.638
13407WAT      O54333   0.295   2.661   5.923
13407WAT     H154334   0.277   2.582   5.890
13407WAT     H254335   0.353   2.694   5.866
13407WAT    EPW54336   0.301   2.654   5.909
13408WAT      O54337   0.302   2.538   5.431
13408WAT     H154338   0.334   2.468   5.473
13408WAT     H254339   0.331   2.528   5.349
13408WAT    EPW54340   0.311   2.526   5.425
13409WAT      O54341   0.354   1.835   6.693
13409WAT     H154342   0.273   1.837   6.663
13409WAT     H254343   0.379   1.919   6.692
13409WAT    EPW54344   0.346   1.848   6.688
13410WAT      O54345   0.882   1.233   6.455
13410WAT     H154346   0.858   1.303   6.408
13410WAT     H254347   0.809   1.212   6.499
13410WAT    EPW54348   0.867   1.240   6.454
13411WAT      O54349   0.627   1.607   4.923
13411WAT     H154350   0.593   1.677   4.962
13411WAT     H254351   0.650   1.555   4.989
13411WAT    EPW54352   0.626   1.610   4.938
13412WAT      O54353   0.631   2.932   5.219
13412WAT     H154354   0.707   2.973   5.227
13412WAT     H254355   0.649   2.851   5.247
13412WAT    EPW54356   0.645   2.926   5.224
13413WAT      O54357   0.397   2.990   5.349
13413WAT     H154358   0.421   3.032   5.422
13413WAT     H254359   0.472   2.975   5.308
13413WAT    EPW54360   0.412   2.994   5.354
13414WAT      O54361   1.198   1.599   5.662
13414WAT     H154362   1.151   1.672   5.670
13414WAT     H254363   1.137   1.537   5.647
13414WAT    EPW54364   1.182   1.600   5.661
13415WAT      O54365   0.699   2.929   6.231
13415WAT     H154366   0.765   2.984   6.217
13415WAT     H254367   0.683   2.896   6.152
13415WAT    EPW54368   0.706   2.932   6.217
13416WAT      O54369   0.287   1.273   6.808
13416WAT     H154370   0.297   1.203   6.757
13416WAT     H254371   0.207   1.302   6.789
13416WAT    EPW54372   0.277   1.267   6.798
13417WAT      O54373   0.377   1.876   5.542
13417WAT     H154374   0.406   1.821   5.480
13417WAT     H254375   0.444   1.881   5.598
13417WAT    EPW54376   0.391   1.868   5.541
13418WAT      O54377   0.481   1.814   5.068
13418WAT     H154378   0.490   1.898   5.086
13418WAT     H254379   0.428   1.813   4.998
13418WAT    EPW54380   0.475   1.826   5.060
13419WAT      O54381   0.860   3.087   5.204
13419WAT     H154382   0.906   3.065   5.134
13419WAT     H254383   0.916   3.135   5.251
13419WAT    EPW54384   0.875   3.091   5.201
13420WAT      O54385   1.094   1.536   6.089
13420WAT     H154386   1.159   1.525   6.032
13420WAT     H254387   1.109   1.476   6.150
13420WAT    EPW54388   1.106   1.526   6.090
13421WAT      O54389   0.609   2.751   6.576
13421WAT     H154390   0.601   2.766   6.662
13421WAT     H254391   0.691   2.723   6.567
13421WAT    EPW54392   0.620   2.749   6.588
13422WAT      O54393   0.354   2.741   4.993
13422WAT     H154394   0.305   2.797   5.038
13422WAT     H254395   0.428   2.784   4.980
13422WAT    EPW54396   0.357   2.756   4.997
13423WAT      O54397   0.689   1.453   5.144
13423WAT     H154398   0.742   1.385   5.153
13423WAT     H254399   0.720   1.511   5.202
13423WAT    EPW54400   0.701   1.452   5.154
13424WAT      O54401   0.469   1.716   5.332
13424WAT     H154402   0.448   1.631   5.326
13424WAT     H254403   0.466   1.744   5.250
13424WAT    EPW54404   0.466   1.707   5.319
13425WAT      O54405   0.440   2.997   6.296
13425WAT     H154406   0.524   2.983   6.278
13425WAT     H254407   0.400   2.983   6.220
13425WAT    EPW54408   0.446   2.993   6.282
13426WAT      O54409   0.457   1.437   5.293
13426WAT     H154410   0.398   1.393   5.246
13426WAT     H254411   0.528   1.435   5.242
13426WAT    EPW54412   0.458   1.430   5.278
13427WAT      O54413   1.128   3.013   5.598
13427WAT     H154414   1.089   3.090   5.612
13427WAT     H254415   1.062   2.958   5.587
13427WAT    EPW54416   1.112   3.016   5.598
13428WAT      O54417   0.279   1.663   5.701
13428WAT     H154418   0.289   1.735   5.654
13428WAT     H254419   0.259   1.693   5.781
13428WAT    EPW54420   0.277   1.678   5.706
13429WAT      O54421   0.891   2.596   5.679
13429WAT     H154422   0.952   2.536   5.664
13429WAT     H254423   0.816   2.552   5.670
13429WAT    EPW54424   0.889   2.581   5.676
13430WAT      O54425   0.610   1.643   6.318
13430WAT     H154426   0.609   1.684   6.395
13430WAT     H254427   0.546   1.584   6.325
13430WAT    EPW54428   0.600   1.641   6.330
13431WAT      O54429   0.741   2.354   6.201
13431WAT     H154430   0.660   2.328   6.218
13431WAT     H254431   0.737   2.441   6.210
13431WAT    EPW54432   0.728   2.363   6.205
13432WAT      O54433   0.757   1.268   5.617
13432WAT     H154434   0.756   1.256   5.703
13432WAT     H254435   0.795   1.196   5.586
13432WAT    EPW54436   0.763   1.256   5.625
13433WAT      O54437   0.980   1.695   6.412
13433WAT     H154438   1.061   1.676   6.437
13433WAT     H254439   0.933   1.684   6.484
13433WAT    EPW54440   0.985   1.690   6.426
13434WAT      O54441   1.009   2.406   5.182
13434WAT     H154442   1.011   2.359   5.255
13434WAT     H254443   1.094   2.412   5.160
13434WAT    EPW54444   1.022   2.400   5.189
13435WAT      O54445   1.256   2.821   6.567
13435WAT     H154446   1.184   2.824   6.518
13435WAT     H254447   1.232   2.771   6.634
13435WAT    EPW54448   1.242   2.814   6.570
13436WAT      O54449   0.832   2.058   5.099
13436WAT     H154450   0.828   2.139   5.068
13436WAT     H254451   0.794   2.064   5.178
13436WAT    EPW54452   0.826   2.071   5.106
13437WAT      O54453   1.169   1.531   5.084
13437WAT     H154454   1.208   1.470   5.036
13437WAT     H254455   1.135   1.585   5.026
13437WAT    EPW54456   1.170   1.530   5.069
13438WAT      O54457   1.266   1.960   6.329
13438WAT     H154458   1.302   1.885   6.300
13438WAT     H254459   1.184   1.956   6.300
13438WAT    EPW54460   1.259   1.948   6.320
13439WAT      O54461   1.041   1.415   5.308
13439WAT     H154462   1.116   1.378   5.335
13439WAT     H254463   1.066   1.465   5.240
13439WAT    EPW54464   1.056   1.417   5.302
13440WAT      O54465   0.484   2.790   5.771
13440WAT     H154466   0.447   2.869   5.773
13440WAT     H254467   0.485   2.771   5.686
13440WAT    EPW54468   0.478   2.799   5.759
13441WAT      O54469   0.736   1.681   5.755
13441WAT     H154470   0.765   1.648   5.830
13441WAT     H254471   0.672   1.626   5.731
13441WAT    EPW54472   0.731   1.668   5.762
13442WAT      O54473   1.020   2.844   6.406
13442WAT     H154474   0.975   2.919   6.413
13442WAT     H254475   1.020   2.828   6.321
13442WAT    EPW54476   1.014   2.853   6.395
13443WAT      O54477   0.860   1.861   6.040
13443WAT     H154478   0.789   1.885   6.084
13443WAT     H254479   0.861   1.914   5.972
13443WAT    EPW54480   0.850   1.872   6.037
13444WAT      O54481   0.334   2.923   6.049
13444WAT     H154482   0.303   2.846   6.021
13444WAT     H254483   0.350   2.967   5.975
13444WAT    EPW54484   0.332   2.918   6.034
13445WAT      O54485   0.427   1.431   6.370
13445WAT     H154486   0.426   1.348   6.345
13445WAT     H254487   0.435   1.427   6.457
13445WAT    EPW54488   0.428   1.418   6.379
13446WAT      O54489   0.737   1.639   5.339
13446WAT     H154490   0.789   1.703   5.368
13446WAT     H254491   0.657   1.672   5.348
13446WAT    EPW54492   0.733   1.653   5.345
13447WAT      O54493   0.763   2.414   6.626
13447WAT     H154494   0.800   2.490   6.605
13447WAT     H254495   0.798   2.358   6.570
13447WAT    EPW54496   0.774   2.417   6.615
13448WAT      O54497   0.250   1.756   5.962
13448WAT     H154498   0.311   1.818   5.969
13448WAT     H254499   0.278   1.692   6.015
13448WAT    EPW54500   0.263   1.755   5.971
13449WAT      O54501   0.480   2.095   5.134
13449WAT     H154502   0.503   2.177   5.116
13449WAT     H254503   0.456   2.098   5.218
13449WAT    EPW54504   0.480   2.107   5.144
13450WAT      O54505   1.060   2.380   5.637
13450WAT     H154506   1.064   2.330   5.708
13450WAT     H254507   1.025   2.328   5.577
13450WAT    EPW54508   1.056   2.365   5.639
13451WAT      O54509   0.675   2.808   5.977
13451WAT     H154510   0.616   2.789   5.916
13451WAT     H254511   0.711   2.882   5.948
13451WAT    EPW54512   0.672   2.816   5.964
13452WAT      O54513   0.655   2.436   5.948
13452WAT     H154514   0.583   2.468   5.985
13452WAT     H254515   0.689   2.384   6.010
13452WAT    EPW54516   0.650   2.433   5.963
13453WAT      O54517   0.225   2.947   5.124
13453WAT     H154518   0.269   2.967   5.197
13453WAT     H254519   0.247   3.011   5.069
13453WAT    EPW54520   0.235   2.959   5.127
13454WAT      O54521   0.848   2.243   6.428
13454WAT     H154522   0.816   2.282   6.357
13454WAT     H254523   0.933   2.263   6.425
13454WAT    EPW54524   0.856   2.252   6.417
13455WAT      O54525   0.586   2.871   6.832
13455WAT     H154526   0.609   2.893   6.913
13455WAT     H254527   0.613   2.938   6.784
13455WAT    EPW54528   0.594   2.884   6.837
13456WAT      O54529   0.978   1.368   6.676
13456WAT     H154530   0.949   1.323   6.606
13456WAT     H254531   0.981   1.309   6.739
13456WAT    EPW54532   0.974   1.353   6.675
13457WAT      O54533   0.490   2.261   6.271
13457WAT     H154534   0.452   2.322   6.319
13457WAT     H254535   0.514   2.201   6.329
13457WAT    EPW54536   0.488   2.261   6.286
13458WAT      O54537   0.458   2.109   5.416
13458WAT     H154538   0.439   2.177   5.467
13458WAT     H254539   0.421   2.042   5.456
13458WAT    EPW54540   0.450   2.109   5.429
13459WAT      O54541   0.906   2.571   5.970
13459WAT     H154542   0.924   2.595   5.889
13459WAT     H254543   0.825   2.537   5.964
13459WAT    EPW54544   0.897   2.569   5.957
13460WAT      O54545   0.273   2.389   5.830
13460WAT     H154546   0.188   2.368   5.824
13460WAT     H254547   0.302   2.338   5.895
13460WAT    EPW54548   0.265   2.378   5.839
13461WAT      O54549   1.221   2.964   5.172
13461WAT     H154550   1.284   2.911   5.142
13461WAT     H254551   1.168   2.909   5.216
13461WAT    EPW54552   1.222   2.948   5.174
13462WAT      O54553   0.985   2.209   6.132
13462WAT     H154554   0.986   2.137   6.181
13462WAT     H254555   0.906   2.243   6.146
13462WAT    EPW54556   0.973   2.203   6.141
13463WAT      O54557   1.085   2.216   5.867
13463WAT     H154558   1.058   2.221   5.950
13463WAT     H254559   1.172   2.211   5.874
13463WAT    EPW54560   1.094   2.216   5.881
13464WAT      O54561   0.849   1.619   6.653
13464WAT     H154562   0.775   1.614   6.698
13464WAT     H254563   0.883   1.539   6.661
13464WAT    EPW54564   0.843   1.606   6.661
13465WAT      O54565   1.225   2.723   5.951
13465WAT     H154566   1.260   2.769   5.886
13465WAT     H254567   1.288   2.722   6.012
13465WAT    EPW54568   1.240   2.729   5.951
13466WAT      O54569   0.726   1.953   6.745
13466WAT     H154570   0.750   1.971   6.827
13466WAT     H254571   0.653   1.999   6.735
13466WAT    EPW54572   0.719   1.962   6.756
13467WAT      O54573   0.960   2.006   6.603
13467WAT     H154574   0.973   2.089   6.626
13467WAT     H254575   0.886   1.985   6.645
13467WAT    EPW54576   0.951   2.015   6.612
13468WAT      O54577   0.878   2.649   5.158
13468WAT     H154578   0.914   2.570   5.170
13468WAT     H254579   0.804   2.645   5.204
13468WAT    EPW54580   0.873   2.637   5.167
13469WAT      O54581   0.984   1.785   5.677
13469WAT     H154582   0.915   1.736   5.700
13469WAT     H254583   0.973   1.858   5.723
13469WAT    EPW54584   0.972   1.788   5.687
13470WAT      O54585   1.242   2.106   6.801
13470WAT     H154586   1.254   2.046   6.738
13470WAT     H254587   1.321   2.143   6.808
13470WAT    EPW54588   1.256   2.103   6.792
13471WAT      O54589   1.110   2.348   6.423
13471WAT     H154590   1.183   2.307   6.399
13471WAT     H254591   1.101   2.410   6.362
13471WAT    EPW54592   1.120   2.351   6.411
13472WAT      O54593   0.544   2.345   5.032
13472WAT     H154594   0.631   2.345   5.027
13472WAT     H254595   0.519   2.357   4.950
13472WAT    EPW54596   0.553   2.347   5.019
13473WAT      O54597   0.832   1.475   6.317
13473WAT     H154598   0.892   1.536   6.332
13473WAT     H254599   0.758   1.519   6.311
13473WAT    EPW54600   0.830   1.490   6.318
13474WAT      O54601   0.339   2.206   6.039
13474WAT     H154602   0.390   2.238   6.102
13474WAT     H254603   0.266   2.183   6.081
13474WAT    EPW54604   0.335   2.207   6.054
13475WAT      O54605   0.362   3.042   5.782
13475WAT     H154606   0.405   3.080   5.717
13475WAT     H254607   0.285   3.083   5.783
13475WAT    EPW54608   0.357   3.054   5.773
13476WAT      O54609   0.891   1.278   6.126
13476WAT     H154610   0.865   1.350   6.169
13476WAT     H254611   0.975   1.271   6.147
13476WAT    EPW54612   0.900   1.288   6.136
13477WAT      O54613   0.496   2.347   6.641
13477WAT     H154614   0.577   2.375   6.627
13477WAT     H254615   0.449   2.390   6.581
13477WAT    EPW54616   0.501   2.358   6.630
13478WAT      O54617   0.872   2.667   6.565
13478WAT     H154618   0.901   2.696   6.642
13478WAT     H254619   0.918   2.713   6.507
13478WAT    EPW54620   0.883   2.678   6.568
13479WAT      O54621   1.089   1.954   5.066
13479WAT     H154622   1.132   2.011   5.017
13479WAT     H254623   1.008   1.988   5.070
13479WAT    EPW54624   1.083   1.968   5.059
13480WAT      O54625   0.593   1.806   6.543
13480WAT     H154626   0.516   1.799   6.584
13480WAT     H254627   0.650   1.817   6.608
13480WAT    EPW54628   0.590   1.807   6.559
13481WAT      O54629   0.621   1.891   6.180
13481WAT     H154630   0.624   1.944   6.249
13481WAT     H254631   0.612   1.812   6.215
13481WAT    EPW54632   0.620   1.887   6.195
13482WAT      O54633   0.294   2.892   6.638
13482WAT     H154634   0.308   2.849   6.563
13482WAT     H254635   0.299   2.829   6.699
13482WAT    EPW54636   0.297   2.876   6.636
13483WAT      O54637   0.874   1.861   5.437
13483WAT     H154638   0.902   1.833   5.515
13483WAT     H254639   0.944   1.896   5.400
13483WAT    EPW54640   0.888   1.862   5.443
13484WAT      O54641   0.986   1.429   5.583
13484WAT     H154642   0.907   1.396   5.598
13484WAT     H254643   0.987   1.443   5.497
13484WAT    EPW54644   0.975   1.426   5.573
13485WAT      O54645   0.976   2.240   5.407
13485WAT     H154646   1.024   2.168   5.392
13485WAT     H254647   0.894   2.212   5.395
13485WAT    EPW54648   0.971   2.225   5.403
13486WAT      O54649   0.354   2.461   6.427
13486WAT     H154650   0.267   2.454   6.422
13486WAT     H254651   0.368   2.546   6.412
13486WAT    EPW54652   0.343   2.473   6.424
13487WAT      O54653   0.671   2.413   5.675
13487WAT     H154654   0.660   2.423   5.761
13487WAT     H254655   0.697   2.330   5.667
13487WAT    EPW54656   0.673   2.402   5.686
13488WAT      O54657   0.417   2.335   5.588
13488WAT     H154658   0.370   2.346   5.660
13488WAT     H254659   0.496   2.366   5.610
13488WAT    EPW54660   0.421   2.342   5.602
13489WAT      O54661   0.390   2.744   6.413
13489WAT     H154662   0.463   2.743   6.461
13489WAT     H254663   0.398   2.818   6.367
13489WAT    EPW54664   0.402   2.755   6.413
13490WAT      O54665   1.226   1.917   6.598
13490WAT     H154666   1.139   1.927   6.601
13490WAT     H254667   1.246   1.937   6.516
13490WAT    EPW54668   1.216   1.921   6.586
13491WAT      O54669   0.626   2.054   6.408
13491WAT     H154670   0.619   1.985   6.461
13491WAT     H254671   0.704   2.088   6.430
13491WAT    EPW54672   0.637   2.049   6.419
13492WAT      O54673   0.477   2.080   6.721
13492WAT     H154674   0.479   2.160   6.686
13492WAT     H254675   0.465   2.095   6.806
13492WAT    EPW54676   0.476   2.094   6.729
13493WAT      O54677   0.753   3.069   5.911
13493WAT     H154678   0.691   3.126   5.934
13493WAT     H254679   0.815   3.081   5.971
13493WAT    EPW54680   0.753   3.079   5.924
13494WAT      O54681   0.449   2.526   6.108
13494WAT     H154682   0.396   2.580   6.064
13494WAT     H254683   0.498   2.580   6.156
13494WAT    EPW54684   0.449   2.542   6.108
13495WAT      O54685   0.965   2.755   6.810
13495WAT     H154686   1.045   2.721   6.813
13495WAT     H254687   0.925   2.719   6.878
13495WAT    EPW54688   0.971   2.745   6.820
13496WAT      O54689   1.092   1.997   5.342
13496WAT     H154690   1.102   1.986   5.256
13496WAT     H254691   1.165   1.962   5.375
13496WAT    EPW54692   1.104   1.990   5.334
13497WAT      O54693   0.456   2.754   5.498
13497WAT     H154694   0.421   2.820   5.452
13497WAT     H254695   0.401   2.688   5.483
13497WAT    EPW54696   0.443   2.754   5.489
13498WAT      O54697   0.983   1.974   6.320
13498WAT     H154698   0.971   1.888   6.320
13498WAT     H254699   0.968   1.997   6.403
13498WAT    EPW54700   0.979   1.965   6.332
13499WAT      O54701   0.478   1.410   6.650
13499WAT     H154702   0.518   1.472   6.696
13499WAT     H254703   0.420   1.377   6.706
13499WAT    EPW54704   0.476   1.414   6.665
13500WAT      O54705   0.511   1.519   5.723
13500WAT     H154706   0.436   1.563   5.718
13500WAT     H254707   0.503   1.455   5.664
13500WAT    EPW54708   0.499   1.516   5.714
13501WAT      O54709   0.826   1.589   6.000
13501WAT     H154710   0.905   1.556   6.020
13501WAT     H254711   0.833   1.672   6.025
13501WAT    EPW54712   0.839   1.596   6.007
13502WAT      O54713   0.908   2.015   5.812
13502WAT     H154714   0.969   2.075   5.828
13502WAT     H254715   0.851   2.057   5.761
13502WAT    EPW54716   0.908   2.030   5.807
13503WAT      O54717   0.907   2.849   5.554
13503WAT     H154718   0.901   2.772   5.594
13503WAT     H254719   0.940   2.828   5.476
13503WAT    EPW54720   0.911   2.835   5.548
13504WAT      O54721   1.133   1.318   6.268
13504WAT     H154722   1.099   1.295   6.345
13504WAT     H254723   1.218   1.299   6.277
13504WAT    EPW54724   1.140   1.312   6.281
13505WAT      O54725   0.360   1.549   6.118
13505WAT     H154726   0.360   1.515   6.198
13505WAT     H254727   0.428   1.512   6.079
13505WAT    EPW54728   0.370   1.539   6.124
13506WAT      O54729   0.696   2.636   6.205
13506WAT     H154730   0.708   2.703   6.260
13506WAT     H254731   0.704   2.673   6.127
13506WAT    EPW54732   0.699   2.652   6.202
13507WAT      O54733   0.651   3.042   6.614
13507WAT     H154734   0.608   2.981   6.570
13507WAT     H254735   0.595   3.109   6.617
13507WAT    EPW54736   0.636   3.043   6.608
13508WAT      O54737   1.103   2.471   6.164
13508WAT     H154738   1.085   2.387   6.148
13508WAT     H254739   1.051   2.514   6.109
13508WAT    EPW54740   1.093   2.465   6.154
13509WAT      O54741   1.009   2.788   6.128
13509WAT     H154742   1.080   2.783   6.077
13509WAT     H254743   0.953   2.733   6.090
13509WAT    EPW54744   1.011   2.779   6.115
13510WAT      O54745   0.582   1.444   5.982
13510WAT     H154746   0.653   1.493   5.998
13510WAT     H254747   0.557   1.471   5.903
13510WAT    EPW54748   0.589   1.456   5.972
13511WAT      O54749   0.581   1.914   5.727
13511WAT     H154750   0.632   1.845   5.740
13511WAT     H254751   0.540   1.925   5.803
13511WAT    EPW54752   0.582   1.905   5.740
13512WAT      O54753   0.735   2.090   5.370
13512WAT     H154754   0.760   2.010   5.392
13512WAT     H254755   0.648   2.088   5.375
13512WAT    EPW54756   0.726   2.078   5.374
13513WAT      O54757   1.020   3.023   4.990
13513WAT     H154758   1.090   3.009   5.040
13513WAT     H254759   0.999   2.943   4.962
13513WAT    EPW54760   1.027   3.009   4.993
13514WAT      O54761   1.041   2.260   6.685
13514WAT     H154762   1.111   2.227   6.725
13514WAT     H254763   1.074   2.302   6.616
13514WAT    EPW54764   1.056   2.262   6.680
13515WAT      O54765   0.643   2.668   5.304
13515WAT     H154766   0.608   2.686   5.382
13515WAT     H254767   0.579   2.627   5.262
13515WAT    EPW54768   0.628   2.665   5.309
13516WAT      O54769   1.064   1.719   6.795
13516WAT     H154770   1.050   1.797   6.831
13516WAT     H254771   0.990   1.703   6.752
13516WAT    EPW54772   1.051   1.728   6.794
13517WAT      O54773   1.135   1.817   6.082
13517WAT     H154774   1.051   1.841   6.075
13517WAT     H254775   1.131   1.731   6.091
13517WAT    EPW54776   1.122   1.808   6.082
13518WAT      O54777   0.808   2.312   6.891
13518WAT     H154778   0.876   2.345   6.934
13518WAT     H254779   0.822   2.335   6.808
13518WAT    EPW54780   0.820   2.320   6.885
13519WAT      O54781   0.428   2.547   5.179
13519WAT     H154782   0.460   2.481   5.133
13519WAT     H254783   0.397   2.602   5.118
13519WAT    EPW54784   0.428   2.546   5.163
13520WAT      O54785   0.498   1.305   3.638
13520WAT     H154786   0.494   1.357   3.568
13520WAT     H254787   0.584   1.292   3.649
13520WAT    EPW54788   0.510   1.311   3.629
13521WAT      O54789   0.457   1.956   4.074
13521WAT     H154790   0.426   2.035   4.091
13521WAT     H254791   0.507   1.938   4.143
13521WAT    EPW54792   0.460   1.965   4.087
13522WAT      O54793   1.049   2.801   3.421
13522WAT     H154794   1.112   2.743   3.433
13522WAT     H254795   0.993   2.759   3.368
13522WAT    EPW54796   1.050   2.786   3.415
13523WAT      O54797   0.726   2.141   3.749
13523WAT     H154798   0.734   2.129   3.663
13523WAT     H254799   0.670   2.079   3.773
13523WAT    EPW54800   0.719   2.130   3.739
13524WAT      O54801   0.296   2.658   4.021
13524WAT     H154802   0.278   2.579   3.988
13524WAT     H254803   0.353   2.691   3.965
13524WAT    EPW54804   0.302   2.651   4.008
13525WAT      O54805   0.304   2.538   3.531
13525WAT     H154806   0.337   2.468   3.573
13525WAT     H254807   0.333   2.527   3.450
13525WAT    EPW54808   0.313   2.526   3.526
13526WAT      O54809   0.357   1.837   4.814
13526WAT     H154810   0.274   1.838   4.789
13526WAT     H254811   0.380   1.922   4.814
13526WAT    EPW54812   0.348   1.850   4.810
13527WAT      O54813   0.893   1.246   4.563
13527WAT     H154814   0.869   1.317   4.517
13527WAT     H254815   0.820   1.225   4.605
13527WAT    EPW54816   0.879   1.254   4.562
13528WAT      O54817   0.628   1.607   3.022
13528WAT     H154818   0.594   1.677   3.060
13528WAT     H254819   0.650   1.555   3.089
13528WAT    EPW54820   0.626   1.609   3.037
13529WAT      O54821   0.630   2.930   3.317
13529WAT     H154822   0.706   2.972   3.325
13529WAT     H254823   0.648   2.849   3.346
13529WAT    EPW54824   0.644   2.924   3.323
13530WAT      O54825   0.397   2.990   3.449
13530WAT     H154826   0.421   3.032   3.521
13530WAT     H254827   0.472   2.975   3.407
13530WAT    EPW54828   0.412   2.994   3.453
13531WAT      O54829   1.194   1.590   3.754
13531WAT     H154830   1.149   1.664   3.763
13531WAT     H254831   1.133   1.530   3.739
13531WAT    EPW54832   1.178   1.592   3.753
13532WAT      O54833   0.692   2.930   4.335
13532WAT     H154834   0.759   2.985   4.321
13532WAT     H254835   0.676   2.897   4.255
13532WAT    EPW54836   0.700   2.933   4.321
13533WAT      O54837   0.284   1.297   4.928
13533WAT     H154838   0.294   1.231   4.872
13533WAT     H254839   0.204   1.327   4.911
13533WAT    EPW54840   0.274   1.292   4.917
13534WAT      O54841   0.380   1.877   3.644
13534WAT     H154842   0.409   1.822   3.582
13534WAT     H254843   0.447   1.882   3.700
13534WAT    EPW54844   0.394   1.869   3.643
13535WAT      O54845   0.481   1.812   3.169
13535WAT     H154846   0.492   1.897   3.187
13535WAT     H254847   0.428   1.812   3.100
13535WAT    EPW54848   0.475   1.825   3.161
13536WAT      O54849   0.858   3.086   3.304
13536WAT     H154850   0.907   3.064   3.235
13536WAT     H254851   0.912   3.132   3.355
13536WAT    EPW54852   0.873   3.089   3.302
13537WAT      O54853   1.097   1.550   4.199
13537WAT     H154854   1.159   1.540   4.140
13537WAT     H254855   1.113   1.486   4.257
13537WAT    EPW54856   1.108   1.539   4.199
13538WAT      O54857   0.611   2.775   4.687
13538WAT     H154858   0.602   2.781   4.774
13538WAT     H254859   0.691   2.741   4.678
13538WAT    EPW54860   0.622   2.771   4.699
13539WAT      O54861   0.351   2.738   3.093
13539WAT     H154862   0.303   2.795   3.139
13539WAT     H254863   0.426   2.781   3.080
13539WAT    EPW54864   0.355   2.753   3.098
13540WAT      O54865   0.686   1.455   3.245
13540WAT     H154866   0.738   1.386   3.254
13540WAT     H254867   0.717   1.512   3.304
13540WAT    EPW54868   0.698   1.454   3.255
13541WAT      O54869   0.470   1.715   3.434
13541WAT     H154870   0.448   1.631   3.428
13541WAT     H254871   0.467   1.743   3.351
13541WAT    EPW54872   0.466   1.707   3.421
13542WAT      O54873   0.430   2.994   4.398
13542WAT     H154874   0.515   2.980   4.382
13542WAT     H254875   0.392   2.979   4.321
13542WAT    EPW54876   0.437   2.990   4.384
13543WAT      O54877   0.455   1.436   3.395
13543WAT     H154878   0.395   1.394   3.348
13543WAT     H254879   0.525   1.436   3.344
13543WAT    EPW54880   0.456   1.430   3.381
13544WAT      O54881   1.129   3.017   3.711
13544WAT     H154882   1.087   3.093   3.724
13544WAT     H254883   1.064   2.960   3.700
13544WAT    EPW54884   1.113   3.020   3.711
13545WAT      O54885   0.284   1.663   3.803
13545WAT     H154886   0.294   1.735   3.756
13545WAT     H254887   0.265   1.692   3.883
13545WAT    EPW54888   0.283   1.678   3.808
13546WAT      O54889   0.894   2.596   3.783
13546WAT     H154890   0.955   2.536   3.769
13546WAT     H254891   0.819   2.552   3.774
13546WAT    EPW54892   0.892   2.580   3.780
13547WAT      O54893   0.612   1.648   4.430
13547WAT     H154894   0.609   1.689   4.506
13547WAT     H254895   0.548   1.588   4.436
13547WAT    EPW54896   0.602   1.645   4.442
13548WAT      O54897   0.739   2.357   4.303
13548WAT     H154898   0.658   2.330   4.321
13548WAT     H254899   0.735   2.443   4.311
13548WAT    EPW54900   0.726   2.366   4.307
13549WAT      O54901   0.760   1.258   3.713
13549WAT     H154902   0.760   1.248   3.800
13549WAT     H254903   0.795   1.183   3.684
13549WAT    EPW54904   0.765   1.245   3.722
13550WAT      O54905   0.984   1.705   4.521
13550WAT     H154906   1.066   1.685   4.543
13550WAT     H254907   0.939   1.693   4.594
13550WAT    EPW54908   0.989   1.700   4.535
13551WAT      O54909   1.023   2.410   3.281
13551WAT     H154910   1.022   2.362   3.354
13551WAT     H254911   1.107   2.413   3.259
13551WAT    EPW54912   1.035   2.403   3.288
13552WAT      O54913   1.267   2.821   4.666
13552WAT     H154914   1.195   2.824   4.617
13552WAT     H254915   1.244   2.772   4.734
13552WAT    EPW54916   1.253   2.814   4.669
13553WAT      O54917   0.832   2.060   3.200
13553WAT     H154918   0.830   2.142   3.169
13553WAT     H254919   0.795   2.067   3.278
13553WAT    EPW54920   0.826   2.073   3.207
13554WAT      O54921   1.173   1.528   3.178
13554WAT     H154922   1.212   1.469   3.128
13554WAT     H254923   1.138   1.584   3.121
13554WAT    EPW54924   1.173   1.528   3.162
13555WAT      O54925   1.281   1.947   4.414
13555WAT     H154926   1.337   1.880   4.414
13555WAT     H254927   1.221   1.924   4.355
13555WAT    EPW54928   1.280   1.934   4.405
13556WAT      O54929   1.043   1.411   3.399
13556WAT     H154930   1.117   1.372   3.423
13556WAT     H254931   1.067   1.461   3.332
13556WAT    EPW54932   1.058   1.412   3.393
13557WAT      O54933   0.483   2.790   3.870
13557WAT     H154934   0.446   2.869   3.873
13557WAT     H254935   0.486   2.771   3.785
13557WAT    EPW54936   0.478   2.799   3.858
13558WAT      O54937   0.738   1.681   3.856
13558WAT     H154938   0.767   1.649   3.932
13558WAT     H254939   0.675   1.625   3.833
13558WAT    EPW54940   0.733   1.668   3.864
13559WAT      O54941   1.027   2.844   4.513
13559WAT     H154942   0.988   2.921   4.520
13559WAT     H254943   1.024   2.827   4.427
13559WAT    EPW54944   1.021   2.853   4.501
13560WAT      O54945   0.861   1.865   4.142
13560WAT     H154946   0.792   1.892   4.188
13560WAT     H254947   0.861   1.918   4.073
13560WAT    EPW54948   0.851   1.877   4.138
13561WAT      O54949   0.330   2.920   4.147
13561WAT     H154950   0.301   2.843   4.118
13561WAT     H254951   0.347   2.964   4.074
13561WAT    EPW54952   0.328   2.915   4.132
13562WAT      O54953   0.432   1.430   4.479
13562WAT     H154954   0.427   1.346   4.454
13562WAT     H254955   0.438   1.426   4.565
13562WAT    EPW54956   0.432   1.417   4.488
13563WAT      O54957   0.738   1.638   3.443
13563WAT     H154958   0.789   1.702   3.470
13563WAT     H254959   0.657   1.671   3.451
13563WAT    EPW54960   0.734   1.652   3.448
13564WAT      O54961   0.758   2.425   4.735
13564WAT     H154962   0.795   2.501   4.714
13564WAT     H254963   0.791   2.369   4.676
13564WAT    EPW54964   0.768   2.428   4.723
13565WAT      O54965   0.259   1.754   4.065
13565WAT     H154966   0.320   1.816   4.073
13565WAT     H254967   0.286   1.691   4.119
13565WAT    EPW54968   0.272   1.754   4.074
13566WAT      O54969   0.482   2.094   3.234
13566WAT     H154970   0.507   2.176   3.217
13566WAT     H254971   0.458   2.098   3.318
13566WAT    EPW54972   0.482   2.107   3.244
13567WAT      O54973   1.063   2.380   3.741
13567WAT     H154974   1.066   2.329   3.811
13567WAT     H254975   1.028   2.328   3.680
13567WAT    EPW54976   1.058   2.364   3.742
13568WAT      O54977   0.672   2.808   4.079
13568WAT     H154978   0.614   2.789   4.017
13568WAT     H254979   0.708   2.882   4.052
13568WAT    EPW54980   0.668   2.816   4.066
13569WAT      O54981   0.656   2.438   4.049
13569WAT     H154982   0.582   2.469   4.086
13569WAT     H254983   0.689   2.386   4.111
13569WAT    EPW54984   0.650   2.435   4.064
13570WAT      O54985   0.224   2.946   3.225
13570WAT     H154986   0.268   2.966   3.298
13570WAT     H254987   0.246   3.010   3.170
13570WAT    EPW54988   0.234   2.958   3.228
13571WAT      O54989   0.843   2.256   4.535
13571WAT     H154990   0.811   2.291   4.462
13571WAT     H254991   0.929   2.272   4.530
13571WAT    EPW54992   0.851   2.263   4.524
13572WAT      O54993   0.592   2.883   4.949
13572WAT     H154994   0.610   2.903   5.032
13572WAT     H254995   0.627   2.948   4.904
13572WAT    EPW54996   0.600   2.895   4.955
13573WAT      O54997   0.987   1.375   4.790
13573WAT     H154998   0.960   1.331   4.720
13573WAT     H254999   0.988   1.314   4.853
13573WAT    EPW55000   0.983   1.360   4.789
13574WAT      O55001   0.490   2.264   4.378
13574WAT     H155002   0.453   2.325   4.427
13574WAT     H255003   0.515   2.203   4.435
13574WAT    EPW55004   0.488   2.264   4.393
13575WAT      O55005   0.460   2.110   3.516
13575WAT     H155006   0.441   2.178   3.567
13575WAT     H255007   0.423   2.043   3.557
13575WAT    EPW55008   0.452   2.110   3.530
13576WAT      O55009   0.907   2.571   4.076
13576WAT     H155010   0.928   2.595   3.995
13576WAT     H255011   0.826   2.539   4.068
13576WAT    EPW55012   0.898   2.570   4.063
13577WAT      O55013   0.276   2.385   3.932
13577WAT     H155014   0.191   2.363   3.926
13577WAT     H255015   0.305   2.335   3.997
13577WAT    EPW55016   0.267   2.374   3.940
13578WAT      O55017   1.223   2.965   3.280
13578WAT     H155018   1.290   2.915   3.258
13578WAT     H255019   1.171   2.911   3.324
13578WAT    EPW55020   1.225   2.950   3.283
13579WAT      O55021   0.983   2.211   4.238
13579WAT     H155022   0.982   2.140   4.289
13579WAT     H255023   0.904   2.246   4.251
13579WAT    EPW55024   0.971   2.206   4.247
13580WAT      O55025   1.086   2.218   3.974
13580WAT     H155026   1.057   2.223   4.056
13580WAT     H255027   1.172   2.215   3.983
13580WAT    EPW55028   1.094   2.218   3.987
13581WAT      O55029   0.861   1.627   4.766
13581WAT     H155030   0.786   1.625   4.811
13581WAT     H255031   0.893   1.546   4.775
13581WAT    EPW55032   0.855   1.615   4.774
13582WAT      O55033   1.221   2.727   4.056
13582WAT     H155034   1.259   2.776   3.995
13582WAT     H255035   1.281   2.722   4.119
13582WAT    EPW55036   1.235   2.733   4.057
13583WAT      O55037   0.721   1.955   4.864
13583WAT     H155038   0.750   1.972   4.944
13583WAT     H255039   0.648   2.001   4.857
13583WAT    EPW55040   0.715   1.964   4.875
13584WAT      O55041   0.943   2.018   4.709
13584WAT     H155042   0.956   2.101   4.732
13584WAT     H255043   0.874   1.994   4.756
13584WAT    EPW55044   0.935   2.027   4.719
13585WAT      O55045   0.885   2.650   3.261
13585WAT     H155046   0.921   2.572   3.272
13585WAT     H255047   0.810   2.645   3.305
13585WAT    EPW55048   0.879   2.638   3.269
13586WAT      O55049   0.986   1.782   3.777
13586WAT     H155050   0.916   1.735   3.800
13586WAT     H255051   0.977   1.856   3.822
13586WAT    EPW55052   0.974   1.786   3.787
13587WAT      O55053   1.236   2.110   4.891
13587WAT     H155054   1.242   2.053   4.825
13587WAT     H255055   1.314   2.150   4.890
13587WAT    EPW55056   1.249   2.108   4.881
13588WAT      O55057   1.110   2.349   4.529
13588WAT     H155058   1.180   2.303   4.503
13588WAT     H255059   1.102   2.410   4.468
13588WAT    EPW55060   1.119   2.351   4.516
13589WAT      O55061   0.550   2.345   3.134
13589WAT     H155062   0.637   2.346   3.129
13589WAT     H255063   0.524   2.356   3.052
13589WAT    EPW55064   0.559   2.346   3.121
13590WAT      O55065   0.838   1.485   4.423
13590WAT     H155066   0.896   1.548   4.438
13590WAT     H255067   0.762   1.528   4.419
13590WAT    EPW55068   0.835   1.501   4.424
13591WAT      O55069   0.342   2.206   4.143
13591WAT     H155070   0.392   2.239   4.207
13591WAT     H255071   0.269   2.181   4.185
13591WAT    EPW55072   0.338   2.207   4.159
13592WAT      O55073   0.360   3.041   3.882
13592WAT     H155074   0.404   3.079   3.817
13592WAT     H255075   0.285   3.085   3.884
13592WAT    EPW55076   0.356   3.053   3.873
13593WAT      O55077   0.892   1.289   4.229
13593WAT     H155078   0.867   1.360   4.272
13593WAT     H255079   0.977   1.281   4.251
13593WAT    EPW55080   0.901   1.298   4.239
13594WAT      O55081   0.494   2.350   4.758
13594WAT     H155082   0.575   2.378   4.744
13594WAT     H255083   0.447   2.390   4.696
13594WAT    EPW55084   0.499   2.360   4.747
13595WAT      O55085   0.869   2.677   4.674
13595WAT     H155086   0.899   2.704   4.751
13595WAT     H255087   0.918   2.719   4.616
13595WAT    EPW55088   0.880   2.687   4.677
13596WAT      O55089   1.087   1.952   3.167
13596WAT     H155090   1.131   2.008   3.117
13596WAT     H255091   1.007   1.986   3.170
13596WAT    EPW55092   1.081   1.965   3.160
13597WAT      O55093   0.592   1.811   4.656
13597WAT     H155094   0.515   1.804   4.697
13597WAT     H255095   0.649   1.824   4.721
13597WAT    EPW55096   0.589   1.812   4.672
13598WAT      O55097   0.624   1.895   4.288
13598WAT     H155098   0.628   1.948   4.357
13598WAT     H255099   0.616   1.815   4.323
13598WAT    EPW55100   0.623   1.891   4.303
13599WAT      O55101   0.272   2.875   4.759
13599WAT     H155102   0.296   2.835   4.685
13599WAT     H255103   0.287   2.815   4.820
13599WAT    EPW55104   0.278   2.860   4.757
13600WAT      O55105   0.873   1.861   3.538
13600WAT     H155106   0.902   1.834   3.616
13600WAT     H255107   0.943   1.897   3.501
13600WAT    EPW55108   0.887   1.863   3.544
13601WAT      O55109   0.988   1.418   3.675
13601WAT     H155110   0.908   1.385   3.690
13601WAT     H255111   0.987   1.434   3.589
13601WAT    EPW55112   0.976   1.415   3.664
13602WAT      O55113   0.979   2.244   3.505
13602WAT     H155114   1.026   2.172   3.491
13602WAT     H255115   0.897   2.218   3.494
13602WAT    EPW55116   0.974   2.229   3.502
13603WAT      O55117   0.358   2.464   4.539
13603WAT     H155118   0.272   2.455   4.528
13603WAT     H255119   0.372   2.549   4.527
13603WAT    EPW55120   0.348   2.475   4.535
13604WAT      O55121   0.673   2.414   3.776
13604WAT     H155122   0.662   2.424   3.862
13604WAT     H255123   0.699   2.331   3.769
13604WAT    EPW55124   0.675   2.403   3.788
13605WAT      O55125   0.419   2.336   3.688
13605WAT     H155126   0.373   2.345   3.761
13605WAT     H255127   0.498   2.366   3.710
13605WAT    EPW55128   0.424   2.342   3.702
13606WAT      O55129   0.388   2.747   4.532
13606WAT     H155130   0.463   2.753   4.578
13606WAT     H255131   0.389   2.819   4.483
13606WAT    EPW55132   0.400   2.759   4.531
13607WAT      O55133   1.207   1.929   4.681
13607WAT     H155134   1.121   1.942   4.686
13607WAT     H255135   1.225   1.944   4.597
13607WAT    EPW55136   1.197   1.934   4.670
13608WAT      O55137   0.625   2.058   4.517
13608WAT     H155138   0.618   1.989   4.570
13608WAT     H255139   0.702   2.092   4.538
13608WAT    EPW55140   0.635   2.053   4.528
13609WAT      O55141   0.473   2.085   4.848
13609WAT     H155142   0.475   2.164   4.810
13609WAT     H255143   0.461   2.102   4.932
13609WAT    EPW55144   0.472   2.099   4.855
13610WAT      O55145   0.751   3.068   4.016
13610WAT     H155146   0.690   3.125   4.038
13610WAT     H255147   0.813   3.079   4.077
13610WAT    EPW55148   0.751   3.078   4.028
13611WAT      O55149   0.448   2.525   4.209
13611WAT     H155150   0.396   2.579   4.164
13611WAT     H255151   0.497   2.579   4.257
13611WAT    EPW55152   0.448   2.541   4.209
13612WAT      O55153   0.965   2.761   4.919
13612WAT     H155154   1.046   2.728   4.919
13612WAT     H255155   0.928   2.724   4.989
13612WAT    EPW55156   0.972   2.751   4.929
13613WAT      O55157   1.089   1.998   3.441
13613WAT     H155158   1.099   1.987   3.355
13613WAT     H255159   1.162   1.963   3.475
13613WAT    EPW55160   1.102   1.991   3.434
13614WAT      O55161   0.459   2.754   3.596
13614WAT     H155162   0.423   2.820   3.551
13614WAT     H255163   0.404   2.687   3.582
13614WAT    EPW55164   0.446   2.754   3.588
13615WAT      O55165   0.961   1.985   4.427
13615WAT     H155166   0.964   1.898   4.431
13615WAT     H255167   0.948   2.009   4.510
13615WAT    EPW55168   0.960   1.976   4.440
13616WAT      O55169   0.485   1.419   4.762
13616WAT     H155170   0.525   1.483   4.805
13616WAT     H255171   0.424   1.391   4.818
13616WAT    EPW55172   0.482   1.424   4.777
13617WAT      O55173   0.515   1.517   3.824
13617WAT     H155174   0.441   1.561   3.818
13617WAT     H255175   0.506   1.452   3.765
13617WAT    EPW55176   0.503   1.514   3.814
13618WAT      O55177   0.828   1.593   4.104
13618WAT     H155178   0.906   1.561   4.125
13618WAT     H255179   0.833   1.677   4.127
13618WAT    EPW55180   0.841   1.601   4.110
13619WAT      O55181   0.913   2.015   3.910
13619WAT     H155182   0.973   2.075   3.929
13619WAT     H255183   0.856   2.057   3.860
13619WAT    EPW55184   0.913   2.030   3.905
13620WAT      O55185   0.912   2.849   3.660
13620WAT     H155186   0.905   2.772   3.701
13620WAT     H255187   0.945   2.829   3.583
13620WAT    EPW55188   0.916   2.835   3.655
13621WAT      O55189   1.136   1.322   4.369
13621WAT     H155190   1.099   1.300   4.445
13621WAT     H255191   1.220   1.300   4.379
13621WAT    EPW55192   1.143   1.316   4.382
13622WAT      O55193   0.366   1.549   4.224
13622WAT     H155194   0.368   1.514   4.304
13622WAT     H255195   0.434   1.511   4.184
13622WAT    EPW55196   0.377   1.538   4.230
13623WAT      O55197   0.693   2.638   4.308
13623WAT     H155198   0.704   2.705   4.363
13623WAT     H255199   0.701   2.675   4.229
13623WAT    EPW55200   0.696   2.653   4.304
13624WAT      O55201   0.686   3.045   4.730
13624WAT     H155202   0.648   2.976   4.692
13624WAT     H255203   0.623   3.106   4.729
13624WAT    EPW55204   0.671   3.044   4.725
13625WAT      O55205   1.106   2.471   4.270
13625WAT     H155206   1.086   2.387   4.254
13625WAT     H255207   1.054   2.514   4.215
13625WAT    EPW55208   1.095   2.465   4.260
13626WAT      O55209   1.007   2.789   4.235
13626WAT     H155210   1.077   2.786   4.183
13626WAT     H255211   0.952   2.733   4.198
13626WAT    EPW55212   1.009   2.780   4.222
13627WAT      O55213   0.586   1.445   4.083
13627WAT     H155214   0.656   1.494   4.099
13627WAT     H255215   0.560   1.471   4.004
13627WAT    EPW55216   0.593   1.456   4.074
13628WAT      O55217   0.584   1.915   3.829
13628WAT     H155218   0.635   1.846   3.842
13628WAT     H255219   0.544   1.926   3.906
13628WAT    EPW55220   0.586   1.906   3.842
13629WAT      O55221   0.737   2.093   3.471
13629WAT     H155222   0.761   2.012   3.493
13629WAT     H255223   0.650   2.091   3.476
13629WAT    EPW55224   0.728   2.081   3.475
13630WAT      O55225   1.024   3.023   3.094
13630WAT     H155226   1.094   3.009   3.145
13630WAT     H255227   1.004   2.943   3.066
13630WAT    EPW55228   1.032   3.009   3.097
13631WAT      O55229   1.033   2.271   4.791
13631WAT     H155230   1.102   2.233   4.828
13631WAT     H255231   1.065   2.310   4.720
13631WAT    EPW55232   1.048   2.271   4.786
13632WAT      O55233   0.646   2.667   3.403
13632WAT     H155234   0.611   2.685   3.481
13632WAT     H255235   0.581   2.626   3.361
13632WAT    EPW55236   0.631   2.663   3.408
13633WAT      O55237   1.081   1.720   4.908
13633WAT     H155238   1.068   1.798   4.943
13633WAT     H255239   1.006   1.704   4.865
13633WAT    EPW55240   1.068   1.729   4.907
13634WAT      O55241   1.132   1.832   4.201
13634WAT     H155242   1.049   1.854   4.189
13634WAT     H255243   1.130   1.745   4.207
13634WAT    EPW55244   1.120   1.823   4.200
13635WAT      O55245   0.817   2.315   5.004
13635WAT     H155246   0.882   2.349   5.051
13635WAT     H255247   0.840   2.335   4.922
13635WAT    EPW55248   0.830   2.323   4.999
13636WAT      O55249   0.430   2.546   3.279
13636WAT     H155250   0.462   2.480   3.233
13636WAT     H255251   0.397   2.600   3.218
13636WAT    EPW55252   0.430   2.544   3.263
13637WAT      O55253   0.496   1.307   1.745
13637WAT     H155254   0.490   1.358   1.675
13637WAT     H255255   0.582   1.295   1.755
13637WAT    EPW55256   0.508   1.313   1.736
13638WAT      O55257   0.452   1.954   2.180
13638WAT     H155258   0.421   2.034   2.198
13638WAT     H255259   0.504   1.936   2.248
13638WAT    EPW55260   0.455   1.963   2.193
13639WAT      O55261   1.055   2.799   1.531
13639WAT     H155262   1.119   2.742   1.547
13639WAT     H255263   0.999   2.753   1.483
13639WAT    EPW55264   1.056   2.784   1.526
13640WAT      O55265   0.721   2.144   1.859
13640WAT     H155266   0.730   2.131   1.774
13640WAT     H255267   0.665   2.082   1.884
13640WAT    EPW55268   0.714   2.133   1.850
13641WAT      O55269   0.295   2.660   2.126
13641WAT     H155270   0.276   2.580   2.095
13641WAT     H255271   0.353   2.691   2.070
13641WAT    EPW55272   0.301   2.653   2.113
13642WAT      O55273   0.300   2.537   1.637
13642WAT     H155274   0.332   2.469   1.682
13642WAT     H255275   0.330   2.524   1.556
13642WAT    EPW55276   0.309   2.525   1.632
13643WAT      O55277   0.357   1.836   2.915
13643WAT     H155278   0.273   1.837   2.891
13643WAT     H255279   0.379   1.920   2.916
13643WAT    EPW55280   0.348   1.848   2.912
13644WAT      O55281   0.896   1.245   2.660
13644WAT     H155282   0.872   1.315   2.614
13644WAT     H255283   0.824   1.224   2.704
13644WAT    EPW55284   0.882   1.252   2.659
13645WAT      O55285   0.588   1.608   1.156
13645WAT     H155286   0.559   1.678   1.199
13645WAT     H255287   0.622   1.558   1.218
13645WAT    EPW55288   0.589   1.611   1.171
13646WAT      O55289   0.632   2.933   1.407
13646WAT     H155290   0.709   2.973   1.408
13646WAT     H255291   0.650   2.852   1.435
13646WAT    EPW55292   0.646   2.927   1.411
13647WAT      O55293   0.401   2.988   1.548
13647WAT     H155294   0.428   3.029   1.620
13647WAT     H255295   0.475   2.974   1.504
13647WAT    EPW55296   0.416   2.992   1.552
13648WAT      O55297   1.195   1.590   1.861
13648WAT     H155298   1.151   1.665   1.872
13648WAT     H255299   1.132   1.533   1.840
13648WAT    EPW55300   1.179   1.592   1.859
13649WAT      O55301   0.692   2.930   2.435
13649WAT     H155302   0.758   2.986   2.422
13649WAT     H255303   0.676   2.897   2.356
13649WAT    EPW55304   0.700   2.934   2.422
13650WAT      O55305   0.286   1.293   3.030
13650WAT     H155306   0.297   1.227   2.973
13650WAT     H255307   0.206   1.322   3.012
13650WAT    EPW55308   0.276   1.288   3.019
13651WAT      O55309   0.376   1.881   1.752
13651WAT     H155310   0.404   1.824   1.692
13651WAT     H255311   0.443   1.886   1.808
13651WAT    EPW55312   0.390   1.873   1.752
13652WAT      O55313   0.461   1.824   1.291
13652WAT     H155314   0.477   1.908   1.306
13652WAT     H255315   0.410   1.825   1.220
13652WAT    EPW55316   0.456   1.836   1.283
13653WAT      O55317   0.865   3.084   1.380
13653WAT     H155318   0.913   3.059   1.312
13653WAT     H255319   0.920   3.132   1.427
13653WAT    EPW55320   0.880   3.088   1.377
13654WAT      O55321   1.095   1.546   2.302
13654WAT     H155322   1.158   1.535   2.243
13654WAT     H255323   1.111   1.484   2.361
13654WAT    EPW55324   1.107   1.535   2.302
13655WAT      O55325   0.612   2.770   2.788
13655WAT     H155326   0.601   2.777   2.874
13655WAT     H255327   0.692   2.737   2.779
13655WAT    EPW55328   0.622   2.766   2.799
13656WAT      O55329   0.310   2.736   1.219
13656WAT     H155330   0.269   2.795   1.268
13656WAT     H255331   0.385   2.776   1.199
13656WAT    EPW55332   0.315   2.751   1.223
13657WAT      O55333   0.684   1.449   1.358
13657WAT     H155334   0.741   1.384   1.356
13657WAT     H255335   0.716   1.503   1.419
13657WAT    EPW55336   0.697   1.448   1.367
13658WAT      O55337   0.462   1.712   1.549
13658WAT     H155338   0.438   1.628   1.539
13658WAT     H255339   0.455   1.745   1.468
13658WAT    EPW55340   0.458   1.704   1.535
13659WAT      O55341   0.431   2.993   2.500
13659WAT     H155342   0.515   2.980   2.483
13659WAT     H255343   0.392   2.979   2.423
13659WAT    EPW55344   0.438   2.989   2.486
13660WAT      O55345   0.448   1.433   1.502
13660WAT     H155346   0.394   1.380   1.459
13660WAT     H255347   0.521   1.431   1.453
13660WAT    EPW55348   0.451   1.425   1.488
13661WAT      O55349   1.130   3.026   1.801
13661WAT     H155350   1.088   3.102   1.808
13661WAT     H255351   1.065   2.967   1.793
13661WAT    EPW55352   1.114   3.028   1.801
13662WAT      O55353   0.280   1.664   1.908
13662WAT     H155354   0.290   1.738   1.862
13662WAT     H255355   0.261   1.692   1.988
13662WAT    EPW55356   0.278   1.679   1.913
13663WAT      O55357   0.892   2.598   1.887
13663WAT     H155358   0.953   2.537   1.873
13663WAT     H255359   0.817   2.554   1.877
13663WAT    EPW55360   0.890   2.582   1.883
13664WAT      O55361   0.612   1.646   2.531
13664WAT     H155362   0.609   1.688   2.608
13664WAT     H255363   0.548   1.586   2.538
13664WAT    EPW55364   0.602   1.643   2.544
13665WAT      O55365   0.736   2.356   2.405
13665WAT     H155366   0.655   2.330   2.424
13665WAT     H255367   0.732   2.443   2.414
13665WAT    EPW55368   0.724   2.365   2.409
13666WAT      O55369   0.759   1.266   1.815
13666WAT     H155370   0.760   1.257   1.902
13666WAT     H255371   0.796   1.193   1.786
13666WAT    EPW55372   0.765   1.254   1.824
13667WAT      O55373   0.986   1.702   2.621
13667WAT     H155374   1.068   1.681   2.644
13667WAT     H255375   0.940   1.689   2.694
13667WAT    EPW55376   0.991   1.697   2.635
13668WAT      O55377   1.023   2.395   1.393
13668WAT     H155378   1.023   2.347   1.466
13668WAT     H255379   1.108   2.404   1.374
13668WAT    EPW55380   1.036   2.389   1.401
13669WAT      O55381   1.264   2.818   2.771
13669WAT     H155382   1.189   2.821   2.725
13669WAT     H255383   1.242   2.774   2.843
13669WAT    EPW55384   1.249   2.812   2.775
13670WAT      O55385   0.824   2.068   1.314
13670WAT     H155386   0.825   2.149   1.283
13670WAT     H255387   0.789   2.077   1.393
13670WAT    EPW55388   0.819   2.081   1.321
13671WAT      O55389   1.153   1.538   1.258
13671WAT     H155390   1.197   1.490   1.199
13671WAT     H255391   1.105   1.592   1.209
13671WAT    EPW55392   1.153   1.539   1.242
13672WAT      O55393   1.277   1.941   2.512
13672WAT     H155394   1.334   1.875   2.513
13672WAT     H255395   1.219   1.917   2.452
13672WAT    EPW55396   1.277   1.928   2.504
13673WAT      O55397   1.046   1.419   1.491
13673WAT     H155398   1.120   1.383   1.520
13673WAT     H255399   1.071   1.465   1.421
13673WAT    EPW55400   1.060   1.421   1.485
13674WAT      O55401   0.484   2.787   1.973
13674WAT     H155402   0.447   2.866   1.975
13674WAT     H255403   0.486   2.767   1.888
13674WAT    EPW55404   0.479   2.796   1.961
13675WAT      O55405   0.736   1.682   1.960
13675WAT     H155406   0.766   1.649   2.035
13675WAT     H255407   0.673   1.627   1.936
13675WAT    EPW55408   0.731   1.669   1.967
13676WAT      O55409   1.024   2.843   2.616
13676WAT     H155410   0.983   2.920   2.622
13676WAT     H255411   1.023   2.826   2.530
13676WAT    EPW55412   1.018   2.852   2.604
13677WAT      O55413   0.860   1.862   2.243
13677WAT     H155414   0.792   1.889   2.291
13677WAT     H255415   0.860   1.917   2.175
13677WAT    EPW55416   0.850   1.874   2.240
13678WAT      O55417   0.329   2.922   2.250
13678WAT     H155418   0.300   2.845   2.221
13678WAT     H255419   0.348   2.966   2.176
13678WAT    EPW55420   0.328   2.917   2.235
13679WAT      O55421   0.432   1.428   2.581
13679WAT     H155422   0.428   1.344   2.556
13679WAT     H255423   0.439   1.424   2.667
13679WAT    EPW55424   0.433   1.415   2.590
13680WAT      O55425   0.729   1.630   1.559
13680WAT     H155426   0.781   1.695   1.585
13680WAT     H255427   0.649   1.663   1.566
13680WAT    EPW55428   0.725   1.645   1.564
13681WAT      O55429   0.758   2.424   2.838
13681WAT     H155430   0.796   2.499   2.818
13681WAT     H255431   0.791   2.368   2.779
13681WAT    EPW55432   0.768   2.427   2.826
13682WAT      O55433   0.254   1.752   2.170
13682WAT     H155434   0.315   1.815   2.179
13682WAT     H255435   0.282   1.689   2.224
13682WAT    EPW55436   0.267   1.752   2.179
13683WAT      O55437   0.480   2.108   1.343
13683WAT     H155438   0.509   2.188   1.325
13683WAT     H255439   0.458   2.114   1.428
13683WAT    EPW55440   0.481   2.121   1.353
13684WAT      O55441   1.061   2.381   1.849
13684WAT     H155442   1.065   2.331   1.921
13684WAT     H255443   1.031   2.327   1.788
13684WAT    EPW55444   1.057   2.365   1.851
13685WAT      O55445   0.673   2.810   2.180
13685WAT     H155446   0.616   2.790   2.118
13685WAT     H255447   0.710   2.884   2.151
13685WAT    EPW55448   0.670   2.818   2.167
13686WAT      O55449   0.651   2.441   2.154
13686WAT     H155450   0.578   2.471   2.191
13686WAT     H255451   0.684   2.387   2.214
13686WAT    EPW55452   0.645   2.437   2.168
13687WAT      O55453   0.197   2.954   1.350
13687WAT     H155454   0.252   2.970   1.416
13687WAT     H255455   0.216   3.017   1.292
13687WAT    EPW55456   0.208   2.966   1.351
13688WAT      O55457   0.841   2.254   2.637
13688WAT     H155458   0.808   2.290   2.565
13688WAT     H255459   0.926   2.270   2.632
13688WAT    EPW55460   0.849   2.262   2.626
13689WAT      O55461   0.589   2.879   3.048
13689WAT     H155462   0.608   2.900   3.131
13689WAT     H255463   0.622   2.945   3.002
13689WAT    EPW55464   0.597   2.892   3.054
13690WAT      O55465   0.992   1.372   2.887
13690WAT     H155466   0.966   1.331   2.815
13690WAT     H255467   0.986   1.310   2.949
13690WAT    EPW55468   0.987   1.357   2.885
13691WAT      O55469   0.488   2.263   2.481
13691WAT     H155470   0.451   2.324   2.531
13691WAT     H255471   0.513   2.201   2.538
13691WAT    EPW55472   0.486   2.263   2.497
13692WAT      O55473   0.458   2.115   1.625
13692WAT     H155474   0.439   2.182   1.677
13692WAT     H255475   0.420   2.047   1.665
13692WAT    EPW55476   0.449   2.115   1.638
13693WAT      O55477   0.903   2.572   2.179
13693WAT     H155478   0.925   2.597   2.099
13693WAT     H255479   0.822   2.540   2.170
13693WAT    EPW55480   0.894   2.571   2.166
13694WAT      O55481   0.271   2.386   2.040
13694WAT     H155482   0.187   2.365   2.034
13694WAT     H255483   0.301   2.336   2.105
13694WAT    EPW55484   0.263   2.376   2.049
13695WAT      O55485   1.227   2.960   1.384
13695WAT     H155486   1.297   2.911   1.367
13695WAT     H255487   1.175   2.907   1.430
13695WAT    EPW55488   1.229   2.945   1.388
13696WAT      O55489   0.979   2.208   2.341
13696WAT     H155490   0.979   2.137   2.392
13696WAT     H255491   0.901   2.243   2.354
13696WAT    EPW55492   0.968   2.203   2.351
13697WAT      O55493   1.085   2.216   2.079
13697WAT     H155494   1.056   2.220   2.162
13697WAT     H255495   1.171   2.211   2.088
13697WAT    EPW55496   1.093   2.216   2.093
13698WAT      O55497   0.863   1.623   2.866
13698WAT     H155498   0.788   1.620   2.910
13698WAT     H255499   0.895   1.543   2.875
13698WAT    EPW55500   0.856   1.611   2.874
13699WAT      O55501   1.216   2.721   2.150
13699WAT     H155502   1.252   2.772   2.089
13699WAT     H255503   1.277   2.717   2.212
13699WAT    EPW55504   1.231   2.728   2.150
13700WAT      O55505   0.720   1.954   2.966
13700WAT     H155506   0.749   1.974   3.046
13700WAT     H255507   0.646   2.000   2.959
13700WAT    EPW55508   0.713   1.964   2.977
13701WAT      O55509   0.941   2.014   2.810
13701WAT     H155510   0.955   2.097   2.832
13701WAT     H255511   0.872   1.992   2.857
13701WAT    EPW55512   0.933   2.023   2.820
13702WAT      O55513   0.889   2.638   1.387
13702WAT     H155514   0.920   2.557   1.398
13702WAT     H255515   0.810   2.634   1.425
13702WAT    EPW55516   0.882   2.625   1.394
13703WAT      O55517   0.985   1.783   1.882
13703WAT     H155518   0.915   1.736   1.906
13703WAT     H255519   0.975   1.857   1.927
13703WAT    EPW55520   0.973   1.787   1.892
13704WAT      O55521   1.234   2.104   2.989
13704WAT     H155522   1.240   2.047   2.923
13704WAT     H255523   1.312   2.144   2.989
13704WAT    EPW55524   1.246   2.102   2.979
13705WAT      O55525   1.106   2.348   2.630
13705WAT     H155526   1.174   2.300   2.603
13705WAT     H255527   1.098   2.409   2.569
13705WAT    EPW55528   1.115   2.350   2.617
13706WAT      O55529   0.556   2.353   1.230
13706WAT     H155530   0.643   2.353   1.220
13706WAT     H255531   0.526   2.363   1.148
13706WAT    EPW55532   0.565   2.354   1.216
13707WAT      O55533   0.838   1.484   2.522
13707WAT     H155534   0.897   1.547   2.537
13707WAT     H255535   0.763   1.527   2.519
13707WAT    EPW55536   0.836   1.499   2.524
13708WAT      O55537   0.338   2.204   2.249
13708WAT     H155538   0.388   2.237   2.312
13708WAT     H255539   0.265   2.180   2.291
13708WAT    EPW55540   0.335   2.206   2.264
13709WAT      O55541   0.363   3.039   1.983
13709WAT     H155542   0.407   3.077   1.918
13709WAT     H255543   0.286   3.080   1.982
13709WAT    EPW55544   0.358   3.050   1.973
13710WAT      O55545   0.893   1.287   2.329
13710WAT     H155546   0.868   1.359   2.372
13710WAT     H255547   0.978   1.279   2.350
13710WAT    EPW55548   0.902   1.296   2.339
13711WAT      O55549   0.494   2.349   2.861
13711WAT     H155550   0.576   2.377   2.846
13711WAT     H255551   0.447   2.389   2.800
13711WAT    EPW55552   0.499   2.359   2.850
13712WAT      O55553   0.871   2.675   2.780
13712WAT     H155554   0.904   2.702   2.856
13712WAT     H255555   0.919   2.718   2.721
13712WAT    EPW55556   0.883   2.685   2.783
13713WAT      O55557   1.072   1.951   1.265
13713WAT     H155558   1.115   2.011   1.218
13713WAT     H255559   0.993   1.987   1.275
13713WAT    EPW55560   1.066   1.965   1.259
13714WAT      O55561   0.591   1.810   2.757
13714WAT     H155562   0.515   1.802   2.799
13714WAT     H255563   0.648   1.822   2.822
13714WAT    EPW55564   0.588   1.810   2.773
13715WAT      O55565   0.623   1.893   2.390
13715WAT     H155566   0.627   1.946   2.459
13715WAT     H255567   0.616   1.814   2.426
13715WAT    EPW55568   0.623   1.889   2.406
13716WAT      O55569   0.276   2.875   2.859
13716WAT     H155570   0.299   2.835   2.785
13716WAT     H255571   0.289   2.815   2.920
13716WAT    EPW55572   0.281   2.860   2.857
13717WAT      O55573   0.864   1.857   1.646
13717WAT     H155574   0.895   1.831   1.723
13717WAT     H255575   0.934   1.890   1.605
13717WAT    EPW55576   0.879   1.858   1.651
13718WAT      O55577   0.985   1.428   1.768
13718WAT     H155578   0.905   1.396   1.784
13718WAT     H255579   0.985   1.443   1.682
13718WAT    EPW55580   0.973   1.425   1.758
13719WAT      O55581   0.984   2.233   1.620
13719WAT     H155582   1.030   2.160   1.603
13719WAT     H255583   0.902   2.207   1.610
13719WAT    EPW55584   0.979   2.218   1.616
13720WAT      O55585   0.356   2.461   2.643
13720WAT     H155586   0.270   2.453   2.634
13720WAT     H255587   0.370   2.546   2.629
13720WAT    EPW55588   0.346   2.473   2.639
13721WAT      O55589   0.669   2.417   1.881
13721WAT     H155590   0.657   2.428   1.967
13721WAT     H255591   0.695   2.334   1.874
13721WAT    EPW55592   0.671   2.407   1.893
13722WAT      O55593   0.415   2.338   1.797
13722WAT     H155594   0.369   2.348   1.871
13722WAT     H255595   0.494   2.369   1.819
13722WAT    EPW55596   0.420   2.344   1.811
13723WAT      O55597   0.389   2.745   2.631
13723WAT     H155598   0.463   2.749   2.677
13723WAT     H255599   0.390   2.818   2.583
13723WAT    EPW55600   0.400   2.756   2.631
13724WAT      O55601   1.204   1.924   2.780
13724WAT     H155602   1.118   1.936   2.785
13724WAT     H255603   1.222   1.938   2.696
13724WAT    EPW55604   1.194   1.928   2.768
13725WAT      O55605   0.623   2.057   2.619
13725WAT     H155606   0.616   1.987   2.672
13725WAT     H255607   0.701   2.091   2.640
13725WAT    EPW55608   0.633   2.052   2.630
13726WAT      O55609   0.471   2.084   2.949
13726WAT     H155610   0.474   2.163   2.912
13726WAT     H255611   0.460   2.101   3.034
13726WAT    EPW55612   0.470   2.098   2.956
13727WAT      O55613   0.752   3.071   2.112
13727WAT     H155614   0.689   3.127   2.136
13727WAT     H255615   0.813   3.082   2.173
13727WAT    EPW55616   0.752   3.081   2.125
13728WAT      O55617   0.445   2.527   2.316
13728WAT     H155618   0.393   2.581   2.271
13728WAT     H255619   0.496   2.581   2.362
13728WAT    EPW55620   0.445   2.543   2.316
13729WAT      O55621   0.975   2.760   3.022
13729WAT     H155622   1.058   2.731   3.027
13729WAT     H255623   0.937   2.724   3.092
13729WAT    EPW55624   0.982   2.751   3.033
13730WAT      O55625   1.083   1.984   1.542
13730WAT     H155626   1.092   1.976   1.456
13730WAT     H255627   1.154   1.945   1.574
13730WAT    EPW55628   1.095   1.977   1.534
13731WAT      O55629   0.457   2.753   1.699
13731WAT     H155630   0.422   2.818   1.653
13731WAT     H255631   0.401   2.687   1.686
13731WAT    EPW55632   0.443   2.753   1.690
13732WAT      O55633   0.957   1.982   2.528
13732WAT     H155634   0.963   1.895   2.531
13732WAT     H255635   0.945   2.005   2.611
13732WAT    EPW55636   0.956   1.972   2.540
13733WAT      O55637   0.486   1.416   2.863
13733WAT     H155638   0.526   1.480   2.906
13733WAT     H255639   0.426   1.387   2.920
13733WAT    EPW55640   0.483   1.421   2.878
13734WAT      O55641   0.512   1.520   1.928
13734WAT     H155642   0.437   1.564   1.923
13734WAT     H255643   0.503   1.456   1.870
13734WAT    EPW55644   0.500   1.517   1.919
13735WAT      O55645   0.828   1.591   2.206
13735WAT     H155646   0.906   1.559   2.227
13735WAT     H255647   0.833   1.675   2.229
13735WAT    EPW55648   0.840   1.599   2.212
13736WAT      O55649   0.910   2.015   2.015
13736WAT     H155650   0.971   2.075   2.033
13736WAT     H255651   0.852   2.059   1.966
13736WAT    EPW55652   0.911   2.031   2.010
13737WAT      O55653   0.913   2.852   1.765
13737WAT     H155654   0.905   2.776   1.806
13737WAT     H255655   0.948   2.830   1.688
13737WAT    EPW55656   0.917   2.838   1.760
13738WAT      O55657   1.137   1.320   2.472
13738WAT     H155658   1.101   1.295   2.547
13738WAT     H255659   1.221   1.300   2.482
13738WAT    EPW55660   1.144   1.313   2.484
13739WAT      O55661   0.364   1.546   2.327
13739WAT     H155662   0.366   1.511   2.407
13739WAT     H255663   0.432   1.509   2.287
13739WAT    EPW55664   0.374   1.536   2.333
13740WAT      O55665   0.692   2.639   2.410
13740WAT     H155666   0.703   2.707   2.464
13740WAT     H255667   0.701   2.675   2.331
13740WAT    EPW55668   0.695   2.654   2.406
13741WAT      O55669   0.676   3.044   2.830
13741WAT     H155670   0.638   2.975   2.791
13741WAT     H255671   0.613   3.105   2.828
13741WAT    EPW55672   0.661   3.043   2.824
13742WAT      O55673   1.099   2.469   2.371
13742WAT     H155674   1.081   2.385   2.356
13742WAT     H255675   1.047   2.512   2.315
13742WAT    EPW55676   1.088   2.463   2.361
13743WAT      O55677   1.009   2.788   2.337
13743WAT     H155678   1.077   2.785   2.284
13743WAT     H255679   0.952   2.733   2.301
13743WAT    EPW55680   1.010   2.779   2.324
13744WAT      O55681   0.585   1.445   2.186
13744WAT     H155682   0.655   1.494   2.202
13744WAT     H255683   0.558   1.473   2.108
13744WAT    EPW55684   0.591   1.456   2.177
13745WAT      O55685   0.581   1.916   1.936
13745WAT     H155686   0.633   1.847   1.948
13745WAT     H255687   0.541   1.925   2.013
13745WAT    EPW55688   0.582   1.907   1.949
13746WAT      O55689   0.735   2.094   1.584
13746WAT     H155690   0.758   2.012   1.604
13746WAT     H255691   0.648   2.093   1.589
13746WAT    EPW55692   0.725   2.082   1.588
13747WAT      O55693   1.040   3.000   1.183
13747WAT     H155694   1.105   2.992   1.240
13747WAT     H255695   1.016   2.917   1.168
13747WAT    EPW55696   1.046   2.986   1.189
13748WAT      O55697   1.031   2.267   2.892
13748WAT     H155698   1.101   2.229   2.928
13748WAT     H255699   1.063   2.306   2.821
13748WAT    EPW55700   1.046   2.267   2.887
13749WAT      O55701   0.638   2.671   1.502
13749WAT     H155702   0.603   2.689   1.580
13749WAT     H255703   0.575   2.627   1.460
13749WAT    EPW55704   0.624   2.667   1.507
13750WAT      O55705   1.080   1.719   3.008
13750WAT     H155706   1.067   1.797   3.044
13750WAT     H255707   1.007   1.703   2.964
13750WAT    EPW55708   1.068   1.728   3.007
13751WAT      O55709   1.132   1.828   2.298
13751WAT     H155710   1.048   1.850   2.286
13751WAT     H255711   1.130   1.741   2.305
13751WAT    EPW55712   1.119   1.818   2.297
13752WAT      O55713   0.824   2.319   3.108
13752WAT     H155714   0.891   2.351   3.154
13752WAT     H255715   0.846   2.336   3.025
13752WAT    EPW55716   0.837   2.326   3.103
13753WAT      O55717   0.423   2.541   1.384
13753WAT     H155718   0.460   2.481   1.333
13753WAT     H255719   0.381   2.593   1.328
13753WAT    EPW55720   0.422   2.540   1.368
13754WAT      O55721   0.446   1.919   0.294
13754WAT     H155722   0.420   2.002   0.303
13754WAT     H255723   0.503   1.908   0.360
13754WAT    EPW55724   0.451   1.930   0.305
13755WAT      O55725   0.344   1.841   1.034
13755WAT     H155726   0.261   1.838   1.006
13755WAT     H255727   0.363   1.926   1.034
13755WAT    EPW55728   0.334   1.853   1.030
13756WAT      O55729   0.823   1.229   0.828
13756WAT     H155730   0.814   1.307   0.790
13756WAT     H255731   0.751   1.222   0.877
13756WAT    EPW55732   0.811   1.240   0.830
13757WAT      O55733   0.691   2.928   0.610
13757WAT     H155734   0.748   2.971   0.661
13757WAT     H255735   0.721   2.943   0.530
13757WAT    EPW55736   0.704   2.937   0.606
13758WAT      O55737   0.252   1.267   1.137
13758WAT     H155738   0.262   1.196   1.086
13758WAT     H255739   0.169   1.290   1.123
13758WAT    EPW55740   0.241   1.260   1.127
13759WAT      O55741   1.143   1.530   0.449
13759WAT     H155742   1.202   1.490   0.399
13759WAT     H255743   1.145   1.485   0.523
13759WAT    EPW55744   1.152   1.518   0.453
13760WAT      O55745   0.589   2.709   0.924
13760WAT     H155746   0.584   2.747   1.002
13760WAT     H255747   0.673   2.690   0.914
13760WAT    EPW55748   0.600   2.712   0.934
13761WAT      O55749   0.430   2.988   0.656
13761WAT     H155750   0.515   2.973   0.638
13761WAT     H255751   0.389   2.963   0.583
13761WAT    EPW55752   0.437   2.982   0.642
13762WAT      O55753   0.597   1.651   0.656
13762WAT     H155754   0.584   1.704   0.724
13762WAT     H255755   0.535   1.590   0.665
13762WAT    EPW55756   0.586   1.650   0.667
13763WAT      O55757   0.687   2.411   0.516
13763WAT     H155758   0.615   2.364   0.533
13763WAT     H255759   0.664   2.492   0.540
13763WAT    EPW55760   0.673   2.416   0.522
13764WAT      O55761   1.004   1.695   0.763
13764WAT     H155762   1.087   1.673   0.781
13764WAT     H255763   0.971   1.715   0.842
13764WAT    EPW55764   1.011   1.694   0.777
13765WAT      O55765   1.259   2.827   0.901
13765WAT     H155766   1.181   2.832   0.861
13765WAT     H255767   1.242   2.781   0.973
13765WAT    EPW55768   1.245   2.821   0.905
13766WAT      O55769   1.267   1.936   0.632
13766WAT     H155770   1.326   1.873   0.630
13766WAT     H255771   1.207   1.909   0.575
13766WAT    EPW55772   1.267   1.923   0.623
13767WAT      O55773   1.006   2.842   0.770
13767WAT     H155774   0.957   2.914   0.779
13767WAT     H255775   0.996   2.820   0.686
13767WAT    EPW55776   0.997   2.849   0.759
13768WAT      O55777   0.846   1.822   0.348
13768WAT     H155778   0.782   1.845   0.404
13768WAT     H255779   0.805   1.818   0.271
13768WAT    EPW55780   0.830   1.825   0.345
13769WAT      O55781   0.336   2.867   0.425
13769WAT     H155782   0.304   2.786   0.437
13769WAT     H255783   0.402   2.854   0.369
13769WAT    EPW55784   0.341   2.853   0.418
13770WAT      O55785   0.419   1.445   0.715
13770WAT     H155786   0.431   1.359   0.705
13770WAT     H255787   0.410   1.455   0.801
13770WAT    EPW55788   0.420   1.434   0.726
13771WAT      O55789   0.732   2.400   0.916
13771WAT     H155790   0.777   2.474   0.912
13771WAT     H255791   0.770   2.350   0.855
13771WAT    EPW55792   0.744   2.403   0.906
13772WAT      O55793   0.254   1.726   0.375
13772WAT     H155794   0.313   1.780   0.341
13772WAT     H255795   0.297   1.650   0.382
13772WAT    EPW55796   0.269   1.722   0.371
13773WAT      O55797   0.572   2.779   0.291
13773WAT     H155798   0.603   2.707   0.253
13773WAT     H255799   0.639   2.834   0.289
13773WAT    EPW55800   0.586   2.777   0.285
13774WAT      O55801   0.641   2.506   0.248
13774WAT     H155802   0.559   2.484   0.226
13774WAT     H255803   0.652   2.467   0.325
13774WAT    EPW55804   0.630   2.497   0.256
13775WAT      O55805   0.827   2.248   0.704
13775WAT     H155806   0.796   2.296   0.638
13775WAT     H255807   0.913   2.260   0.699
13775WAT    EPW55808   0.835   2.257   0.694
13776WAT      O55809   0.544   2.868   1.150
13776WAT     H155810   0.580   2.897   1.224
13776WAT     H255811   0.554   2.934   1.095
13776WAT    EPW55812   0.551   2.882   1.153
13777WAT      O55813   1.069   1.280   0.936
13777WAT     H155814   0.988   1.273   0.906
13777WAT     H255815   1.067   1.238   1.012
13777WAT    EPW55816   1.057   1.273   0.943
13778WAT      O55817   0.457   2.275   0.600
13778WAT     H155818   0.416   2.322   0.661
13778WAT     H255819   0.493   2.210   0.647
13778WAT    EPW55820   0.457   2.272   0.616
13779WAT      O55821   0.907   2.520   0.375
13779WAT     H155822   0.864   2.533   0.300
13779WAT     H255823   0.852   2.472   0.423
13779WAT    EPW55824   0.893   2.515   0.371
13780WAT      O55825   0.374   2.433   0.251
13780WAT     H155826   0.349   2.481   0.320
13780WAT     H255827   0.359   2.351   0.275
13780WAT    EPW55828   0.368   2.428   0.265
13781WAT      O55829   0.967   2.104   0.422
13781WAT     H155830   0.962   2.066   0.500
13781WAT     H255831   0.915   2.055   0.372
13781WAT    EPW55832   0.959   2.091   0.426
13782WAT      O55833   1.200   2.216   0.324
13782WAT     H155834   1.129   2.181   0.359
13782WAT     H255835   1.176   2.235   0.242
13782WAT    EPW55836   1.186   2.214   0.317
13783WAT      O55837   0.786   1.672   0.975
13783WAT     H155838   0.726   1.650   1.034
13783WAT     H255839   0.783   1.608   0.917
13783WAT    EPW55840   0.777   1.660   0.975
13784WAT      O55841   1.190   2.829   0.367
13784WAT     H155842   1.234   2.857   0.297
13784WAT     H255843   1.247   2.779   0.410
13784WAT    EPW55844   1.205   2.826   0.363
13785WAT      O55845   0.706   1.972   1.081
13785WAT     H155846   0.731   1.994   1.161
13785WAT     H255847   0.630   2.012   1.072
13785WAT    EPW55848   0.699   1.981   1.091
13786WAT      O55849   0.929   2.012   0.922
13786WAT     H155850   0.944   2.097   0.939
13786WAT     H255851   0.858   1.994   0.970
13786WAT    EPW55852   0.921   2.022   0.932
13787WAT      O55853   1.217   2.118   1.098
13787WAT     H155854   1.226   2.058   1.035
13787WAT     H255855   1.296   2.155   1.102
13787WAT    EPW55856   1.230   2.115   1.089
13788WAT      O55857   1.099   2.320   0.715
13788WAT     H155858   1.170   2.271   0.704
13788WAT     H255859   1.106   2.381   0.652
13788WAT    EPW55860   1.111   2.322   0.704
13789WAT      O55861   0.805   1.500   0.757
13789WAT     H155862   0.876   1.546   0.738
13789WAT     H255863   0.742   1.539   0.711
13789WAT    EPW55864   0.806   1.512   0.747
13790WAT      O55865   0.343   2.176   0.366
13790WAT     H155866   0.379   2.202   0.441
13790WAT     H255867   0.265   2.145   0.390
13790WAT    EPW55868   0.337   2.175   0.381
13791WAT      O55869   0.895   1.287   0.539
13791WAT     H155870   0.871   1.367   0.512
13791WAT     H255871   0.975   1.299   0.571
13791WAT    EPW55872   0.903   1.300   0.539
13792WAT      O55873   0.468   2.352   0.962
13792WAT     H155874   0.549   2.372   0.940
13792WAT     H255875   0.419   2.399   0.908
13792WAT    EPW55876   0.473   2.362   0.951
13793WAT      O55877   0.860   2.650   0.910
13793WAT     H155878   0.894   2.670   0.988
13793WAT     H255879   0.903   2.702   0.855
13793WAT    EPW55880   0.871   2.661   0.913
13794WAT      O55881   0.568   1.829   0.862
13794WAT     H155882   0.498   1.822   0.913
13794WAT     H255883   0.635   1.815   0.916
13794WAT    EPW55884   0.568   1.826   0.877
13795WAT      O55885   0.626   1.881   0.501
13795WAT     H155886   0.625   1.941   0.564
13795WAT     H255887   0.611   1.806   0.544
13795WAT    EPW55888   0.624   1.879   0.517
13796WAT      O55889   0.229   2.880   0.993
13796WAT     H155890   0.260   2.839   0.922
13796WAT     H255891   0.242   2.822   1.057
13796WAT    EPW55892   0.236   2.865   0.992
13797WAT      O55893   0.304   2.474   0.758
13797WAT     H155894   0.221   2.465   0.784
13797WAT     H255895   0.321   2.559   0.770
13797WAT    EPW55896   0.295   2.485   0.764
13798WAT      O55897   0.358   2.744   0.785
13798WAT     H155898   0.435   2.732   0.826
13798WAT     H255899   0.374   2.812   0.732
13798WAT    EPW55900   0.372   2.753   0.783
13799WAT      O55901   1.198   1.927   0.900
13799WAT     H155902   1.111   1.936   0.905
13799WAT     H255903   1.214   1.941   0.815
13799WAT    EPW55904   1.187   1.930   0.888
13800WAT      O55905   0.605   2.066   0.711
13800WAT     H155906   0.600   2.003   0.771
13800WAT     H255907   0.684   2.101   0.725
13800WAT    EPW55908   0.616   2.062   0.722
13801WAT      O55909   0.450   2.091   1.062
13801WAT     H155910   0.451   2.170   1.024
13801WAT     H255911   0.444   2.110   1.147
13801WAT    EPW55912   0.449   2.106   1.069
13802WAT      O55913   0.762   2.975   0.339
13802WAT     H155914   0.725   3.054   0.328
13802WAT     H255915   0.840   2.994   0.375
13802WAT    EPW55916   0.768   2.990   0.343
13803WAT      O55917   0.335   2.583   0.490
13803WAT     H155918   0.306   2.543   0.562
13803WAT     H255919   0.415   2.611   0.513
13803WAT    EPW55920   0.343   2.581   0.504
13804WAT      O55921   0.978   2.735   1.145
13804WAT     H155922   1.061   2.710   1.150
13804WAT     H255923   0.943   2.702   1.218
13804WAT    EPW55924   0.985   2.726   1.157
13805WAT      O55925   0.939   1.947   0.652
13805WAT     H155926   0.960   1.864   0.666
13805WAT     H255927   0.927   1.980   0.732
13805WAT    EPW55928   0.940   1.939   0.666
13806WAT      O55929   0.429   1.439   0.998
13806WAT     H155930   0.470   1.497   1.049
13806WAT     H255931   0.372   1.401   1.052
13806WAT    EPW55932   0.427   1.442   1.013
13807WAT      O55933   0.863   1.541   0.407
13807WAT     H155934   0.950   1.534   0.407
13807WAT     H255935   0.850   1.627   0.397
13807WAT    EPW55936   0.874   1.553   0.405
13808WAT      O55937   1.139   1.349   0.664
13808WAT     H155938   1.126   1.331   0.748
13808WAT     H255939   1.210   1.303   0.643
13808WAT    EPW55940   1.148   1.340   0.673
13809WAT      O55941   0.386   1.474   0.432
13809WAT     H155942   0.352   1.396   0.415
13809WAT     H255943   0.384   1.479   0.519
13809WAT    EPW55944   0.381   1.463   0.442
13810WAT      O55945   0.598   2.671   0.543
13810WAT     H155946   0.634   2.735   0.590
13810WAT     H255947   0.594   2.704   0.462
13810WAT    EPW55948   0.603   2.685   0.538
13811WAT      O55949   0.568   3.045   0.933
13811WAT     H155950   0.521   3.008   0.870
13811WAT     H255951   0.528   3.122   0.946
13811WAT    EPW55952   0.555   3.051   0.925
13812WAT      O55953   1.158   2.452   0.471
13812WAT     H155954   1.177   2.379   0.428
13812WAT     H255955   1.084   2.479   0.434
13812WAT    EPW55956   1.150   2.445   0.459
13813WAT      O55957   0.962   2.764   0.509
13813WAT     H155958   1.028   2.795   0.461
13813WAT     H255959   0.938   2.691   0.467
13813WAT    EPW55960   0.968   2.758   0.495
13814WAT      O55961   0.639   1.368   0.352
13814WAT     H155962   0.703   1.426   0.360
13814WAT     H255963   0.568   1.414   0.373
13814WAT    EPW55964   0.638   1.383   0.357
13815WAT      O55965   1.015   2.271   0.985
13815WAT     H155966   1.086   2.237   1.023
13815WAT     H255967   1.046   2.303   0.910
13815WAT    EPW55968   1.030   2.270   0.979
13816WAT      O55969   1.028   1.724   1.099
13816WAT     H155970   1.028   1.801   1.140
13816WAT     H255971   0.946   1.714   1.073
13816WAT    EPW55972   1.016   1.734   1.101
13817WAT      O55973   1.120   1.809   0.427
13817WAT     H155974   1.035   1.819   0.407
13817WAT     H255975   1.129   1.723   0.436
13817WAT    EPW55976   1.109   1.798   0.426
13818WAT      O55977   0.833   2.320   1.206
13818WAT     H155978   0.898   2.350   1.256
13818WAT     H255979   0.867   2.321   1.125
13818WAT    EPW55980   0.847   2.324   1.201
13819WAT      O55981   1.068   0.960   7.180
13819WAT     H155982   1.128   0.905   7.212
13819WAT     H255983   1.017   0.908   7.132
13819WAT    EPW55984   1.069   0.944   7.178
13820WAT      O55985   0.722   0.286   7.427
13820WAT     H155986   0.776   0.263   7.362
13820WAT     H255987   0.644   0.258   7.400
13820WAT    EPW55988   0.718   0.278   7.413
13821WAT      O55989   0.232   0.766   7.748
13821WAT     H155990   0.241   0.681   7.729
13821WAT     H255991   0.294   0.804   7.700
13821WAT    EPW55992   0.242   0.759   7.738
13822WAT      O55993   0.266   0.662   7.259
13822WAT     H155994   0.290   0.594   7.307
13822WAT     H255995   0.287   0.638   7.178
13822WAT    EPW55996   0.273   0.648   7.254
13823WAT      O55997   0.642   1.063   7.088
13823WAT     H155998   0.716   1.108   7.098
13823WAT     H255999   0.663   0.982   7.112
13823WAT    EPW56000   0.656   1.058   7.093
13824WAT      O56001   0.406   1.099   7.223
13824WAT     H156002   0.421   1.159   7.285
13824WAT     H256003   0.482   1.095   7.180
13824WAT    EPW56004   0.419   1.107   7.226
13825WAT      O56005   0.861   1.233   7.075
13825WAT     H156006   0.907   1.210   7.004
13825WAT     H256007   0.916   1.284   7.119
13825WAT    EPW56008   0.876   1.237   7.071
13826WAT      O56009   0.359   0.860   6.865
13826WAT     H156010   0.315   0.917   6.915
13826WAT     H256011   0.438   0.896   6.858
13826WAT    EPW56012   0.364   0.874   6.871
13827WAT      O56013   1.110   1.182   7.481
13827WAT     H156014   1.067   1.258   7.483
13827WAT     H256015   1.048   1.124   7.462
13827WAT    EPW56016   1.095   1.185   7.478
13828WAT      O56017   0.837   0.762   7.456
13828WAT     H156018   0.904   0.706   7.457
13828WAT     H256019   0.768   0.710   7.449
13828WAT    EPW56020   0.837   0.746   7.455
13829WAT      O56021   1.039   0.545   7.027
13829WAT     H156022   1.053   0.499   7.099
13829WAT     H256023   1.119   0.570   7.002
13829WAT    EPW56024   1.053   0.542   7.034
13830WAT      O56025   0.784   0.113   6.918
13830WAT     H156026   0.815   0.188   6.885
13830WAT     H256027   0.712   0.139   6.960
13830WAT    EPW56028   0.778   0.128   6.919
13831WAT      O56029   0.457   0.871   7.610
13831WAT     H156030   0.447   0.957   7.619
13831WAT     H256031   0.459   0.859   7.524
13831WAT    EPW56032   0.456   0.882   7.599
13832WAT      O56033   0.588   0.249   7.070
13832WAT     H156034   0.533   0.283   7.012
13832WAT     H256035   0.541   0.241   7.142
13832WAT    EPW56036   0.573   0.253   7.072
13833WAT      O56037   1.036   0.565   7.464
13833WAT     H156038   1.022   0.517   7.536
13833WAT     H256039   1.041   0.505   7.401
13833WAT    EPW56040   1.034   0.549   7.465
13834WAT      O56041   0.564   0.643   7.729
13834WAT     H156042   0.538   0.720   7.699
13834WAT     H256043   0.605   0.663   7.804
13834WAT    EPW56044   0.566   0.657   7.736
13835WAT      O56045   0.238   1.068   7.001
13835WAT     H156046   0.281   1.081   7.076
13835WAT     H256047   0.257   1.139   6.954
13835WAT    EPW56048   0.247   1.081   7.006
13836WAT      O56049   0.466   0.228   7.324
13836WAT     H156050   0.431   0.303   7.352
13836WAT     H256051   0.410   0.168   7.352
13836WAT    EPW56052   0.452   0.231   7.332
13837WAT      O56053   0.328   0.500   7.701
13837WAT     H156054   0.316   0.446   7.769
13837WAT     H256055   0.404   0.538   7.719
13837WAT    EPW56056   0.337   0.497   7.714
13838WAT      O56057   1.231   1.132   7.045
13838WAT     H156058   1.306   1.089   7.030
13838WAT     H256059   1.182   1.074   7.086
13838WAT    EPW56060   1.235   1.117   7.048
13839WAT      O56061   1.006   0.441   7.712
13839WAT     H156062   0.989   0.504   7.769
13839WAT     H256063   1.089   0.421   7.728
13839WAT    EPW56064   1.016   0.448   7.722
13840WAT      O56065   1.303   0.921   7.864
13840WAT     H156066   1.304   0.973   7.794
13840WAT     H256067   1.380   0.935   7.902
13840WAT    EPW56068   1.314   0.930   7.859
13841WAT      O56069   0.912   0.791   7.034
13841WAT     H156070   0.944   0.710   7.035
13841WAT     H256071   0.835   0.783   7.074
13841WAT    EPW56072   0.905   0.778   7.040
13842WAT      O56073   0.637   0.584   6.950
13842WAT     H156074   0.698   0.522   6.951
13842WAT     H256075   0.611   0.584   6.867
13842WAT    EPW56076   0.642   0.575   6.938
13843WAT      O56077   0.416   1.149   7.634
13843WAT     H156078   0.422   1.198   7.562
13843WAT     H256079   0.339   1.171   7.667
13843WAT    EPW56080   0.405   1.159   7.628
13844WAT      O56081   1.080   0.388   7.255
13844WAT     H156082   1.153   0.342   7.269
13844WAT     H256083   1.020   0.328   7.237
13844WAT    EPW56084   1.082   0.373   7.254
13845WAT      O56085   0.643   0.555   7.473
13845WAT     H156086   0.634   0.567   7.559
13845WAT     H256087   0.681   0.477   7.467
13845WAT    EPW56088   0.647   0.545   7.485
13846WAT      O56089   0.382   0.470   7.427
13846WAT     H156090   0.350   0.475   7.508
13846WAT     H256091   0.462   0.506   7.434
13846WAT    EPW56092   0.389   0.476   7.440
13847WAT      O56093   0.680   1.198   7.718
13847WAT     H156094   0.595   1.182   7.708
13847WAT     H256095   0.707   1.134   7.771
13847WAT    EPW56096   0.671   1.186   7.724
13848WAT      O56097   0.453   0.846   7.333
13848WAT     H156098   0.428   0.923   7.300
13848WAT     H256099   0.388   0.792   7.312
13848WAT    EPW56100   0.440   0.849   7.325
13849WAT      O56101   0.766   0.293   7.705
13849WAT     H156102   0.845   0.329   7.710
13849WAT     H256103   0.754   0.279   7.620
13849WAT    EPW56104   0.776   0.296   7.693
13850WAT      O56105   0.896   1.025   7.387
13850WAT     H156106   0.871   0.946   7.415
13850WAT     H256107   0.943   1.008   7.316
13850WAT    EPW56108   0.899   1.011   7.381
13851WAT      O56109   0.856   0.232   7.181
13851WAT     H156110   0.873   0.165   7.128
13851WAT     H256111   0.786   0.269   7.146
13851WAT    EPW56112   0.848   0.228   7.168
13852WAT      O56113   1.023   1.169   6.861
13852WAT     H156114   1.095   1.160   6.909
13852WAT     H256115   1.005   1.088   6.835
13852WAT    EPW56116   1.031   1.156   6.864
13853WAT      O56117   0.659   0.792   7.145
13853WAT     H156118   0.602   0.789   7.210
13853WAT     H256119   0.635   0.725   7.094
13853WAT    EPW56120   0.647   0.781   7.147
13854WAT      O56121   0.364   0.612   7.002
13854WAT     H156122   0.450   0.599   6.998
13854WAT     H256123   0.352   0.685   6.956
13854WAT    EPW56124   0.375   0.621   6.994
13855WAT      O56125   1.057   0.958   5.322
13855WAT     H156126   1.115   0.899   5.348
13855WAT     H256127   1.007   0.915   5.265
13855WAT    EPW56128   1.058   0.943   5.317
13856WAT      O56129   0.718   0.325   5.605
13856WAT     H156130   0.769   0.304   5.538
13856WAT     H256131   0.638   0.300   5.579
13856WAT    EPW56132   0.714   0.318   5.591
13857WAT      O56133   0.288   0.831   5.915
13857WAT     H156134   0.260   0.751   5.893
13857WAT     H256135   0.346   0.849   5.852
13857WAT    EPW56136   0.293   0.822   5.902
13858WAT      O56137   0.283   0.681   5.422
13858WAT     H156138   0.301   0.617   5.479
13858WAT     H256139   0.303   0.646   5.345
13858WAT    EPW56140   0.289   0.667   5.419
13859WAT      O56141   0.633   1.076   5.183
13859WAT     H156142   0.708   1.121   5.196
13859WAT     H256143   0.653   0.996   5.211
13859WAT    EPW56144   0.647   1.071   5.189
13860WAT      O56145   0.412   1.120   5.342
13860WAT     H156146   0.435   1.174   5.406
13860WAT     H256147   0.484   1.113   5.294
13860WAT    EPW56148   0.426   1.127   5.344
13861WAT      O56149   0.691   1.099   6.206
13861WAT     H156150   0.757   1.153   6.191
13861WAT     H256151   0.672   1.067   6.127
13861WAT    EPW56152   0.698   1.102   6.192
13862WAT      O56153   0.859   1.240   5.189
13862WAT     H156154   0.908   1.219   5.120
13862WAT     H256155   0.913   1.287   5.239
13862WAT    EPW56156   0.874   1.244   5.187
13863WAT      O56157   0.621   0.890   6.564
13863WAT     H156158   0.616   0.907   6.649
13863WAT     H256159   0.698   0.851   6.555
13863WAT    EPW56160   0.631   0.887   6.575
13864WAT      O56161   0.366   0.848   5.030
13864WAT     H156162   0.316   0.915   5.057
13864WAT     H256163   0.436   0.887   4.996
13864WAT    EPW56164   0.369   0.864   5.029
13865WAT      O56165   0.434   1.161   6.284
13865WAT     H156166   0.518   1.149   6.263
13865WAT     H256167   0.392   1.148   6.209
13865WAT    EPW56168   0.441   1.157   6.270
13866WAT      O56169   1.123   1.187   5.598
13866WAT     H156170   1.084   1.265   5.609
13866WAT     H256171   1.056   1.134   5.582
13866WAT    EPW56172   1.107   1.191   5.597
13867WAT      O56173   0.823   0.799   5.653
13867WAT     H156174   0.888   0.755   5.614
13867WAT     H256175   0.755   0.746   5.645
13867WAT    EPW56176   0.823   0.784   5.646
13868WAT      O56177   0.702   0.532   6.218
13868WAT     H156178   0.634   0.505   6.265
13868WAT     H256179   0.697   0.619   6.223
13868WAT    EPW56180   0.691   0.541   6.225
13869WAT      O56181   1.018   0.564   5.122
13869WAT     H156182   1.027   0.527   5.200
13869WAT     H256183   1.101   0.575   5.096
13869WAT    EPW56184   1.032   0.560   5.130
13870WAT      O56185   1.247   0.970   6.544
13870WAT     H156186   1.172   0.967   6.500
13870WAT     H256187   1.231   0.923   6.616
13870WAT    EPW56188   1.234   0.963   6.548
13871WAT      O56189   0.757   0.121   5.026
13871WAT     H156190   0.789   0.198   5.001
13871WAT     H256191   0.695   0.142   5.084
13871WAT    EPW56192   0.753   0.135   5.031
13872WAT      O56193   0.484   0.922   5.742
13872WAT     H156194   0.448   1.002   5.738
13872WAT     H256195   0.490   0.898   5.658
13872WAT    EPW56196   0.479   0.930   5.729
13873WAT      O56197   1.005   0.971   6.392
13873WAT     H156198   0.962   1.047   6.395
13873WAT     H256199   1.005   0.951   6.307
13873WAT    EPW56200   0.999   0.979   6.380
13874WAT      O56201   0.333   1.091   6.031
13874WAT     H156202   0.303   1.014   6.005
13874WAT     H256203   0.353   1.132   5.957
13874WAT    EPW56204   0.332   1.086   6.017
13875WAT      O56205   0.806   0.506   6.605
13875WAT     H156206   0.842   0.585   6.591
13875WAT     H256207   0.844   0.455   6.544
13875WAT    EPW56208   0.817   0.510   6.594
13876WAT      O56209   0.589   0.257   5.223
13876WAT     H156210   0.538   0.290   5.160
13876WAT     H256211   0.540   0.263   5.295
13876WAT    EPW56212   0.574   0.263   5.224
13877WAT      O56213   1.034   0.655   5.550
13877WAT     H156214   1.049   0.613   5.625
13877WAT     H256215   1.031   0.591   5.491
13877WAT    EPW56216   1.036   0.639   5.553
13878WAT      O56217   0.667   0.973   5.950
13878WAT     H156218   0.615   0.946   5.886
13878WAT     H256219   0.698   1.049   5.920
13878WAT    EPW56220   0.664   0.980   5.936
13879WAT      O56221   0.629   0.595   5.942
13879WAT     H156222   0.565   0.634   5.988
13879WAT     H256223   0.653   0.528   5.994
13879WAT    EPW56224   0.623   0.591   5.956
13880WAT      O56225   0.242   1.084   5.118
13880WAT     H156226   0.284   1.099   5.193
13880WAT     H256227   0.259   1.155   5.070
13880WAT    EPW56228   0.251   1.097   5.122
13881WAT      O56229   0.945   0.352   6.412
13881WAT     H156230   0.929   0.356   6.327
13881WAT     H256231   1.025   0.385   6.421
13881WAT    EPW56232   0.954   0.357   6.401
13882WAT      O56233   0.599   1.004   6.821
13882WAT     H156234   0.619   1.026   6.903
13882WAT     H256235   0.621   1.074   6.774
13882WAT    EPW56236   0.605   1.018   6.826
13883WAT      O56237   0.482   0.436   6.363
13883WAT     H156238   0.440   0.503   6.400
13883WAT     H256239   0.506   0.387   6.432
13883WAT    EPW56240   0.479   0.438   6.379
13884WAT      O56241   0.466   0.275   5.485
13884WAT     H156242   0.427   0.345   5.519
13884WAT     H256243   0.414   0.209   5.509
13884WAT    EPW56244   0.452   0.276   5.494
13885WAT      O56245   0.877   0.725   5.921
13885WAT     H156246   0.864   0.767   5.846
13885WAT     H256247   0.802   0.683   5.935
13885WAT    EPW56248   0.864   0.725   5.912
13886WAT      O56249   0.234   0.553   5.864
13886WAT     H156250   0.149   0.533   5.868
13886WAT     H256251   0.268   0.513   5.934
13886WAT    EPW56252   0.226   0.544   5.875
13887WAT      O56253   1.219   1.127   5.175
13887WAT     H156254   1.292   1.082   5.160
13887WAT     H256255   1.170   1.071   5.222
13887WAT    EPW56256   1.222   1.112   5.180
13888WAT      O56257   0.933   0.419   6.130
13888WAT     H156258   0.911   0.382   6.054
13888WAT     H256259   0.859   0.457   6.157
13888WAT    EPW56260   0.919   0.419   6.123
13889WAT      O56261   1.046   0.532   5.801
13889WAT     H156262   1.010   0.593   5.852
13889WAT     H256263   1.118   0.509   5.844
13889WAT    EPW56264   1.051   0.538   5.815
13890WAT      O56265   1.237   0.886   5.945
13890WAT     H156266   1.265   0.949   5.892
13890WAT     H256267   1.301   0.879   6.004
13890WAT    EPW56268   1.251   0.894   5.946
13891WAT      O56269   0.908   0.816   5.143
13891WAT     H156270   0.937   0.734   5.138
13891WAT     H256271   0.831   0.807   5.183
13891WAT    EPW56272   0.901   0.802   5.148
13892WAT      O56273   1.187   0.344   6.810
13892WAT     H156274   1.167   0.260   6.821
13892WAT     H256275   1.274   0.346   6.814
13892WAT    EPW56276   1.197   0.332   6.812
13893WAT      O56277   1.191   0.485   6.407
13893WAT     H156278   1.266   0.446   6.383
13893WAT     H256279   1.172   0.535   6.338
13893WAT    EPW56280   1.199   0.486   6.393
13894WAT      O56281   0.641   0.596   5.080
13894WAT     H156282   0.699   0.531   5.076
13894WAT     H256283   0.608   0.599   4.999
13894WAT    EPW56284   0.645   0.587   5.067
13895WAT      O56285   0.341   0.458   6.106
13895WAT     H156286   0.369   0.540   6.119
13895WAT     H256287   0.371   0.415   6.176
13895WAT    EPW56288   0.349   0.464   6.119
13896WAT      O56289   0.362   1.173   5.750
13896WAT     H156290   0.402   1.222   5.690
13896WAT     H256291   0.277   1.189   5.736
13896WAT    EPW56292   0.355   1.183   5.739
13897WAT      O56293   0.542   0.530   6.689
13897WAT     H156294   0.621   0.525   6.652
13897WAT     H256295   0.497   0.581   6.634
13897WAT    EPW56296   0.547   0.537   6.676
13898WAT      O56297   0.875   0.783   6.559
13898WAT     H156298   0.902   0.818   6.634
13898WAT     H256299   0.917   0.830   6.499
13898WAT    EPW56300   0.885   0.796   6.561
13899WAT      O56301   0.309   1.044   6.657
13899WAT     H156302   0.321   1.007   6.578
13899WAT     H256303   0.317   0.977   6.712
13899WAT    EPW56304   0.312   1.029   6.653
13900WAT      O56305   1.040   0.441   5.369
13900WAT     H156306   1.112   0.397   5.391
13900WAT     H256307   0.979   0.379   5.367
13900WAT    EPW56308   1.042   0.425   5.372
13901WAT      O56309   0.361   0.647   6.499
13901WAT     H156310   0.277   0.642   6.523
13901WAT     H256311   0.367   0.727   6.464
13901WAT    EPW56312   0.350   0.658   6.497
13902WAT      O56313   0.633   0.588   5.666
13902WAT     H156314   0.631   0.587   5.753
13902WAT     H256315   0.671   0.512   5.646
13902WAT    EPW56316   0.638   0.577   5.676
13903WAT      O56317   0.373   0.502   5.619
13903WAT     H156318   0.329   0.515   5.693
13903WAT     H256319   0.450   0.539   5.635
13903WAT    EPW56320   0.378   0.510   5.632
13904WAT      O56321   0.390   0.918   6.420
13904WAT     H156322   0.469   0.910   6.456
13904WAT     H256323   0.397   0.989   6.370
13904WAT    EPW56324   0.403   0.927   6.418
13905WAT      O56325   0.413   0.360   6.881
13905WAT     H156326   0.454   0.397   6.814
13905WAT     H256327   0.370   0.426   6.918
13905WAT    EPW56328   0.413   0.375   6.877
13906WAT      O56329   0.743   1.235   5.893
13906WAT     H156330   0.681   1.290   5.920
13906WAT     H256331   0.807   1.247   5.950
13906WAT    EPW56332   0.743   1.245   5.905
13907WAT      O56333   0.440   0.714   6.113
13907WAT     H156334   0.393   0.769   6.065
13907WAT     H256335   0.499   0.765   6.152
13907WAT    EPW56336   0.442   0.729   6.112
13908WAT      O56337   0.969   0.907   6.791
13908WAT     H156338   1.049   0.874   6.786
13908WAT     H256339   0.936   0.871   6.863
13908WAT    EPW56340   0.976   0.897   6.801
13909WAT      O56341   0.472   0.874   5.465
13909WAT     H156342   0.441   0.946   5.428
13909WAT     H256343   0.408   0.816   5.454
13909WAT    EPW56344   0.458   0.876   5.458
13910WAT      O56345   0.845   0.352   5.866
13910WAT     H156346   0.908   0.403   5.835
13910WAT     H256347   0.801   0.328   5.795
13910WAT    EPW56348   0.848   0.356   5.851
13911WAT      O56349   0.893   1.041   5.532
13911WAT     H156350   0.866   0.968   5.571
13911WAT     H256351   0.934   1.012   5.461
13911WAT    EPW56352   0.895   1.026   5.527
13912WAT      O56353   0.691   0.814   6.189
13912WAT     H156354   0.704   0.886   6.237
13912WAT     H256355   0.701   0.843   6.107
13912WAT    EPW56356   0.694   0.829   6.184
13913WAT      O56357   0.649   1.191   6.609
13913WAT     H156358   0.601   1.134   6.563
13913WAT     H256359   0.596   1.260   6.617
13913WAT    EPW56360   0.634   1.192   6.603
13914WAT      O56361   1.124   0.623   6.176
13914WAT     H156362   1.069   0.561   6.149
13914WAT     H256363   1.079   0.697   6.164
13914WAT    EPW56364   1.109   0.625   6.170
13915WAT      O56365   1.014   0.874   6.118
13915WAT     H156366   1.082   0.893   6.066
13915WAT     H256367   0.955   0.840   6.065
13915WAT    EPW56368   1.016   0.872   6.103
13916WAT      O56369   0.838   0.247   5.357
13916WAT     H156370   0.858   0.164   5.340
13916WAT     H256371   0.768   0.262   5.308
13916WAT    EPW56372   0.831   0.237   5.347
13917WAT      O56373   1.027   1.176   4.979
13917WAT     H156374   1.094   1.162   5.033
13917WAT     H256375   1.007   1.097   4.950
13917WAT    EPW56376   1.034   1.162   4.983
13918WAT      O56377   1.123   0.570   6.663
13918WAT     H156378   1.135   0.498   6.710
13918WAT     H256379   1.144   0.545   6.582
13918WAT    EPW56380   1.128   0.556   6.658
13919WAT      O56381   0.661   0.813   5.265
13919WAT     H156382   0.608   0.814   5.334
13919WAT     H256383   0.635   0.744   5.220
13919WAT    EPW56384   0.650   0.803   5.269
13920WAT      O56385   0.849   0.397   6.869
13920WAT     H156386   0.918   0.436   6.905
13920WAT     H256387   0.847   0.429   6.788
13920WAT    EPW56388   0.859   0.408   6.862
13921WAT      O56389   0.375   0.605   5.168
13921WAT     H156390   0.461   0.592   5.156
13921WAT     H256391   0.359   0.678   5.124
13921WAT    EPW56392   0.385   0.614   5.160
13922WAT      O56393   1.042   0.962   3.395
13922WAT     H156394   1.114   0.922   3.423
13922WAT     H256395   1.003   0.901   3.345
13922WAT    EPW56396   1.047   0.947   3.392
13923WAT      O56397   0.723   0.313   3.714
13923WAT     H156398   0.779   0.281   3.654
13923WAT     H256399   0.645   0.289   3.684
13923WAT    EPW56400   0.720   0.305   3.701
13924WAT      O56401   0.303   0.824   4.016
13924WAT     H156402   0.273   0.746   3.993
13924WAT     H256403   0.361   0.843   3.953
13924WAT    EPW56404   0.307   0.815   4.003
13925WAT      O56405   0.295   0.678   3.524
13925WAT     H156406   0.310   0.612   3.580
13925WAT     H256407   0.312   0.642   3.446
13925WAT    EPW56408   0.300   0.663   3.521
13926WAT      O56409   0.637   1.066   3.283
13926WAT     H156410   0.709   1.114   3.296
13926WAT     H256411   0.661   0.987   3.311
13926WAT    EPW56412   0.651   1.061   3.289
13927WAT      O56413   0.417   1.114   3.442
13927WAT     H156414   0.440   1.169   3.505
13927WAT     H256415   0.489   1.107   3.394
13927WAT    EPW56416   0.431   1.121   3.444
13928WAT      O56417   0.692   1.109   4.309
13928WAT     H156418   0.757   1.164   4.294
13928WAT     H256419   0.673   1.077   4.230
13928WAT    EPW56420   0.699   1.112   4.295
13929WAT      O56421   0.853   1.241   3.289
13929WAT     H156422   0.898   1.217   3.218
13929WAT     H256423   0.910   1.287   3.336
13929WAT    EPW56424   0.868   1.244   3.285
13930WAT      O56425   0.622   0.898   4.667
13930WAT     H156426   0.616   0.913   4.753
13930WAT     H256427   0.699   0.859   4.658
13930WAT    EPW56428   0.632   0.894   4.678
13931WAT      O56429   0.370   0.843   3.133
13931WAT     H156430   0.320   0.910   3.159
13931WAT     H256431   0.439   0.882   3.095
13931WAT    EPW56432   0.373   0.859   3.131
13932WAT      O56433   0.432   1.158   4.389
13932WAT     H156434   0.516   1.150   4.368
13932WAT     H256435   0.390   1.145   4.313
13932WAT    EPW56436   0.438   1.155   4.375
13933WAT      O56437   1.123   1.176   3.678
13933WAT     H156438   1.085   1.254   3.690
13933WAT     H256439   1.056   1.122   3.665
13933WAT    EPW56440   1.108   1.180   3.678
13934WAT      O56441   0.840   0.778   3.739
13934WAT     H156442   0.897   0.723   3.704
13934WAT     H256443   0.765   0.734   3.736
13934WAT    EPW56444   0.837   0.764   3.734
13935WAT      O56445   0.708   0.547   4.343
13935WAT     H156446   0.634   0.521   4.381
13935WAT     H256447   0.701   0.634   4.341
13935WAT    EPW56448   0.696   0.556   4.348
13936WAT      O56449   1.055   0.509   3.235
13936WAT     H156450   1.061   0.468   3.311
13936WAT     H256451   1.127   0.558   3.233
13936WAT    EPW56452   1.067   0.510   3.246
13937WAT      O56453   1.250   0.987   4.658
13937WAT     H156454   1.176   0.981   4.612
13937WAT     H256455   1.233   0.941   4.731
13937WAT    EPW56456   1.236   0.979   4.662
13938WAT      O56457   0.759   0.102   3.133
13938WAT     H156458   0.793   0.176   3.102
13938WAT     H256459   0.705   0.128   3.196
13938WAT    EPW56460   0.756   0.116   3.138
13939WAT      O56461   0.494   0.922   3.841
13939WAT     H156462   0.455   1.000   3.837
13939WAT     H256463   0.500   0.898   3.758
13939WAT    EPW56464   0.490   0.930   3.828
13940WAT      O56465   1.011   0.977   4.501
13940WAT     H156466   0.967   1.053   4.503
13940WAT     H256467   1.009   0.955   4.416
13940WAT    EPW56468   1.004   0.985   4.488
13941WAT      O56469   0.337   1.087   4.133
13941WAT     H156470   0.311   1.008   4.107
13941WAT     H256471   0.355   1.128   4.058
13941WAT    EPW56472   0.336   1.081   4.118
13942WAT      O56473   0.802   0.516   4.717
13942WAT     H156474   0.835   0.595   4.701
13942WAT     H256475   0.840   0.465   4.658
13942WAT    EPW56476   0.813   0.520   4.706
13943WAT      O56477   0.610   0.239   3.338
13943WAT     H156478   0.561   0.276   3.276
13943WAT     H256479   0.561   0.248   3.410
13943WAT    EPW56480   0.595   0.246   3.340
13944WAT      O56481   1.020   0.581   3.656
13944WAT     H156482   1.020   0.543   3.735
13944WAT     H256483   1.029   0.514   3.601
13944WAT    EPW56484   1.021   0.565   3.660
13945WAT      O56485   0.673   0.977   4.053
13945WAT     H156486   0.621   0.949   3.989
13945WAT     H256487   0.704   1.053   4.023
13945WAT    EPW56488   0.670   0.984   4.039
13946WAT      O56489   0.653   0.590   4.035
13946WAT     H156490   0.594   0.609   4.096
13946WAT     H256491   0.679   0.509   4.056
13946WAT    EPW56492   0.648   0.581   4.047
13947WAT      O56493   0.246   1.079   3.219
13947WAT     H156494   0.288   1.094   3.294
13947WAT     H256495   0.262   1.150   3.172
13947WAT    EPW56496   0.254   1.092   3.223
13948WAT      O56497   0.945   0.363   4.527
13948WAT     H156498   0.925   0.369   4.442
13948WAT     H256499   1.027   0.392   4.531
13948WAT    EPW56500   0.954   0.368   4.515
13949WAT      O56501   0.574   1.024   4.917
13949WAT     H156502   0.595   1.044   4.999
13949WAT     H256503   0.612   1.087   4.870
13949WAT    EPW56504   0.583   1.036   4.922
13950WAT      O56505   0.479   0.444   4.470
13950WAT     H156506   0.437   0.509   4.511
13950WAT     H256507   0.507   0.394   4.536
13950WAT    EPW56508   0.477   0.447   4.486
13951WAT      O56509   0.474   0.264   3.592
13951WAT     H156510   0.434   0.335   3.624
13951WAT     H256511   0.421   0.198   3.614
13951WAT    EPW56512   0.461   0.265   3.600
13952WAT      O56513   0.893   0.731   4.018
13952WAT     H156514   0.881   0.767   3.940
13952WAT     H256515   0.817   0.691   4.034
13952WAT    EPW56516   0.880   0.730   4.009
13953WAT      O56517   0.239   0.548   3.963
13953WAT     H156518   0.154   0.532   3.968
13953WAT     H256519   0.272   0.508   4.033
13953WAT    EPW56520   0.231   0.540   3.974
13954WAT      O56521   1.214   1.124   3.251
13954WAT     H156522   1.276   1.070   3.222
13954WAT     H256523   1.160   1.072   3.295
13954WAT    EPW56524   1.215   1.109   3.253
13955WAT      O56525   0.931   0.429   4.244
13955WAT     H156526   0.902   0.384   4.175
13955WAT     H256527   0.860   0.470   4.272
13955WAT    EPW56528   0.916   0.429   4.238
13956WAT      O56529   1.028   0.504   3.921
13956WAT     H156530   1.003   0.576   3.962
13956WAT     H256531   1.109   0.489   3.951
13956WAT    EPW56532   1.036   0.512   3.931
13957WAT      O56533   1.244   0.934   4.072
13957WAT     H156534   1.270   0.989   4.009
13957WAT     H256535   1.310   0.935   4.129
13957WAT    EPW56536   1.257   0.942   4.071
13958WAT      O56537   0.925   0.764   3.244
13958WAT     H156538   0.952   0.681   3.244
13958WAT     H256539   0.848   0.761   3.284
13958WAT    EPW56540   0.918   0.751   3.250
13959WAT      O56541   1.176   0.373   4.923
13959WAT     H156542   1.143   0.292   4.926
13959WAT     H256543   1.262   0.360   4.921
13959WAT    EPW56544   1.184   0.359   4.923
13960WAT      O56545   1.199   0.482   4.499
13960WAT     H156546   1.271   0.442   4.473
13960WAT     H256547   1.179   0.535   4.433
13960WAT    EPW56548   1.207   0.484   4.486
13961WAT      O56549   0.643   0.597   3.180
13961WAT     H156550   0.698   0.529   3.176
13961WAT     H256551   0.608   0.601   3.101
13961WAT    EPW56552   0.646   0.587   3.168
13962WAT      O56553   0.346   0.452   4.205
13962WAT     H156554   0.378   0.532   4.216
13962WAT     H256555   0.370   0.410   4.278
13962WAT    EPW56556   0.355   0.458   4.217
13963WAT      O56557   0.364   1.168   3.850
13963WAT     H156558   0.403   1.218   3.790
13963WAT     H256559   0.279   1.182   3.836
13963WAT    EPW56560   0.357   1.178   3.839
13964WAT      O56561   0.541   0.545   4.820
13964WAT     H156562   0.617   0.536   4.779
13964WAT     H256563   0.491   0.588   4.762
13964WAT    EPW56564   0.545   0.550   4.805
13965WAT      O56565   0.874   0.791   4.667
13965WAT     H156566   0.902   0.826   4.742
13965WAT     H256567   0.919   0.834   4.607
13965WAT    EPW56568   0.885   0.802   4.669
13966WAT      O56569   0.344   1.089   4.761
13966WAT     H156570   0.337   1.036   4.693
13966WAT     H256571   0.402   1.049   4.812
13966WAT    EPW56572   0.351   1.075   4.759
13967WAT      O56573   1.080   0.376   3.479
13967WAT     H156574   1.154   0.335   3.499
13967WAT     H256575   1.020   0.312   3.480
13967WAT    EPW56576   1.082   0.360   3.482
13968WAT      O56577   0.360   0.649   4.620
13968WAT     H156578   0.277   0.641   4.644
13968WAT     H256579   0.363   0.730   4.586
13968WAT    EPW56580   0.348   0.660   4.619
13969WAT      O56581   0.636   0.581   3.760
13969WAT     H156582   0.638   0.585   3.847
13969WAT     H256583   0.676   0.505   3.743
13969WAT    EPW56584   0.643   0.570   3.771
13970WAT      O56585   0.376   0.493   3.719
13970WAT     H156586   0.333   0.507   3.793
13970WAT     H256587   0.454   0.530   3.734
13970WAT    EPW56588   0.381   0.501   3.732
13971WAT      O56589   0.383   0.921   4.538
13971WAT     H156590   0.464   0.913   4.568
13971WAT     H256591   0.388   0.988   4.482
13971WAT    EPW56592   0.396   0.930   4.534
13972WAT      O56593   0.425   0.367   5.021
13972WAT     H156594   0.461   0.407   4.952
13972WAT     H256595   0.381   0.431   5.061
13972WAT    EPW56596   0.424   0.383   5.017
13973WAT      O56597   0.750   1.238   3.992
13973WAT     H156598   0.687   1.293   4.018
13973WAT     H256599   0.813   1.251   4.050
13973WAT    EPW56600   0.750   1.248   4.005
13974WAT      O56601   0.456   0.702   4.210
13974WAT     H156602   0.410   0.754   4.159
13974WAT     H256603   0.513   0.756   4.249
13974WAT    EPW56604   0.458   0.718   4.208
13975WAT      O56605   0.966   0.919   4.897
13975WAT     H156606   1.047   0.886   4.893
13975WAT     H256607   0.934   0.887   4.971
13975WAT    EPW56608   0.973   0.910   4.907
13976WAT      O56609   0.485   0.870   3.565
13976WAT     H156610   0.452   0.942   3.528
13976WAT     H256611   0.421   0.811   3.555
13976WAT    EPW56612   0.470   0.872   3.558
13977WAT      O56613   0.811   0.350   3.991
13977WAT     H156614   0.882   0.392   3.962
13977WAT     H256615   0.776   0.316   3.918
13977WAT    EPW56616   0.816   0.351   3.976
13978WAT      O56617   0.892   1.028   3.623
13978WAT     H156618   0.871   0.952   3.660
13978WAT     H256619   0.924   1.005   3.545
13978WAT    EPW56620   0.894   1.013   3.617
13979WAT      O56621   0.691   0.825   4.293
13979WAT     H156622   0.703   0.896   4.342
13979WAT     H256623   0.702   0.854   4.211
13979WAT    EPW56624   0.695   0.840   4.288
13980WAT      O56625   0.655   1.201   4.709
13980WAT     H156626   0.608   1.149   4.658
13980WAT     H256627   0.604   1.271   4.721
13980WAT    EPW56628   0.641   1.204   4.703
13981WAT      O56629   1.133   0.629   4.273
13981WAT     H156630   1.075   0.568   4.251
13981WAT     H256631   1.088   0.704   4.265
13981WAT    EPW56632   1.117   0.631   4.268
13982WAT      O56633   1.017   0.880   4.228
13982WAT     H156634   1.084   0.908   4.179
13982WAT     H256635   0.962   0.846   4.169
13982WAT    EPW56636   1.019   0.879   4.212
13983WAT      O56637   0.858   0.201   3.484
13983WAT     H156638   0.872   0.116   3.473
13983WAT     H256639   0.792   0.218   3.429
13983WAT    EPW56640   0.850   0.191   3.474
13984WAT      O56641   1.005   1.167   3.072
13984WAT     H156642   1.078   1.156   3.119
13984WAT     H256643   0.983   1.086   3.048
13984WAT    EPW56644   1.013   1.154   3.075
13985WAT      O56645   1.142   0.588   4.751
13985WAT     H156646   1.145   0.518   4.803
13985WAT     H256647   1.161   0.556   4.672
13985WAT    EPW56648   1.145   0.573   4.747
13986WAT      O56649   0.678   0.806   3.369
13986WAT     H156650   0.624   0.809   3.437
13986WAT     H256651   0.645   0.742   3.320
13986WAT    EPW56652   0.665   0.797   3.372
13987WAT      O56653   0.836   0.402   4.979
13987WAT     H156654   0.904   0.444   5.014
13987WAT     H256655   0.832   0.433   4.897
13987WAT    EPW56656   0.846   0.413   4.972
13988WAT      O56657   0.378   0.597   3.268
13988WAT     H156658   0.464   0.587   3.257
13988WAT     H256659   0.360   0.670   3.224
13988WAT    EPW56660   0.388   0.607   3.260
13989WAT      O56661   1.064   0.953   1.530
13989WAT     H156662   1.124   0.896   1.556
13989WAT     H256663   1.014   0.908   1.476
13989WAT    EPW56664   1.065   0.938   1.526
13990WAT      O56665   0.725   0.322   1.818
13990WAT     H156666   0.778   0.299   1.752
13990WAT     H256667   0.646   0.295   1.791
13990WAT    EPW56668   0.721   0.314   1.804
13991WAT      O56669   0.289   0.831   2.115
13991WAT     H156670   0.262   0.750   2.095
13991WAT     H256671   0.348   0.849   2.053
13991WAT    EPW56672   0.294   0.821   2.103
13992WAT      O56673   0.288   0.679   1.622
13992WAT     H156674   0.305   0.613   1.677
13992WAT     H256675   0.303   0.644   1.544
13992WAT    EPW56676   0.293   0.664   1.619
13993WAT      O56677   0.641   1.081   1.395
13993WAT     H156678   0.717   1.124   1.398
13993WAT     H256679   0.662   1.000   1.421
13993WAT    EPW56680   0.655   1.075   1.399
13994WAT      O56681   0.414   1.119   1.547
13994WAT     H156682   0.436   1.171   1.614
13994WAT     H256683   0.488   1.114   1.501
13994WAT    EPW56684   0.428   1.126   1.550
13995WAT      O56685   0.693   1.107   2.410
13995WAT     H156686   0.759   1.163   2.395
13995WAT     H256687   0.675   1.075   2.331
13995WAT    EPW56688   0.700   1.111   2.396
13996WAT      O56689   0.868   1.242   1.374
13996WAT     H156690   0.917   1.218   1.306
13996WAT     H256691   0.922   1.290   1.422
13996WAT    EPW56692   0.883   1.246   1.371
13997WAT      O56693   0.632   0.900   2.763
13997WAT     H156694   0.626   0.912   2.849
13997WAT     H256695   0.708   0.858   2.754
13997WAT    EPW56696   0.643   0.895   2.774
13998WAT      O56697   0.333   0.855   1.211
13998WAT     H156698   0.292   0.913   1.261
13998WAT     H256699   0.411   0.891   1.196
13998WAT    EPW56700   0.338   0.869   1.216
13999WAT      O56701   0.434   1.156   2.491
13999WAT     H156702   0.518   1.148   2.469
13999WAT     H256703   0.391   1.144   2.416
13999WAT    EPW56704   0.440   1.153   2.477
14000WAT      O56705   1.123   1.189   1.798
14000WAT     H156706   1.084   1.266   1.804
14000WAT     H256707   1.057   1.133   1.783
14000WAT    EPW56708   1.108   1.192   1.797
14001WAT      O56709   0.827   0.792   1.850
14001WAT     H156710   0.889   0.745   1.810
14001WAT     H256711   0.756   0.740   1.845
14001WAT    EPW56712   0.826   0.777   1.843
14002WAT      O56713   0.708   0.541   2.421
14002WAT     H156714   0.640   0.513   2.468
14002WAT     H256715   0.702   0.627   2.426
14002WAT    EPW56716   0.697   0.549   2.429
14003WAT      O56717   1.027   0.547   1.344
14003WAT     H156718   1.043   0.504   1.418
14003WAT     H256719   1.106   0.563   1.312
14003WAT    EPW56720   1.041   0.543   1.350
14004WAT      O56721   1.259   0.995   2.737
14004WAT     H156722   1.186   0.990   2.690
14004WAT     H256723   1.239   0.953   2.811
14004WAT    EPW56724   1.246   0.988   2.741
14005WAT      O56725   0.762   0.130   1.234
14005WAT     H156726   0.791   0.208   1.209
14005WAT     H256727   0.704   0.148   1.296
14005WAT    EPW56728   0.758   0.144   1.239
14006WAT      O56729   0.488   0.922   1.946
14006WAT     H156730   0.451   1.001   1.942
14006WAT     H256731   0.494   0.898   1.863
14006WAT    EPW56732   0.483   0.930   1.933
14007WAT      O56733   1.012   0.977   2.594
14007WAT     H156734   0.969   1.052   2.597
14007WAT     H256735   1.010   0.955   2.510
14007WAT    EPW56736   1.006   0.984   2.582
14008WAT      O56737   0.333   1.088   2.237
14008WAT     H156738   0.302   1.012   2.209
14008WAT     H256739   0.354   1.130   2.163
14008WAT    EPW56740   0.332   1.083   2.222
14009WAT      O56741   0.804   0.513   2.820
14009WAT     H156742   0.835   0.593   2.801
14009WAT     H256743   0.841   0.462   2.760
14009WAT    EPW56744   0.814   0.517   2.808
14010WAT      O56745   0.600   0.251   1.440
14010WAT     H156746   0.547   0.285   1.379
14010WAT     H256747   0.552   0.255   1.513
14010WAT    EPW56748   0.585   0.257   1.442
14011WAT      O56749   1.029   0.634   1.748
14011WAT     H156750   1.043   0.597   1.826
14011WAT     H256751   1.042   0.568   1.692
14011WAT    EPW56752   1.033   0.619   1.751
14012WAT      O56753   0.670   0.979   2.154
14012WAT     H156754   0.618   0.951   2.090
14012WAT     H256755   0.701   1.055   2.123
14012WAT    EPW56756   0.667   0.986   2.140
14013WAT      O56757   0.634   0.599   2.147
14013WAT     H156758   0.569   0.639   2.190
14013WAT     H256759   0.659   0.536   2.202
14013WAT    EPW56760   0.628   0.595   2.162
14014WAT      O56761   0.224   1.072   1.344
14014WAT     H156762   0.275   1.090   1.413
14014WAT     H256763   0.238   1.140   1.291
14014WAT    EPW56764   0.233   1.085   1.347
14015WAT      O56765   0.946   0.369   2.624
14015WAT     H156766   0.934   0.370   2.537
14015WAT     H256767   1.025   0.403   2.635
14015WAT    EPW56768   0.956   0.374   2.613
14016WAT      O56769   0.578   1.020   3.015
14016WAT     H156770   0.600   1.037   3.098
14016WAT     H256771   0.618   1.084   2.971
14016WAT    EPW56772   0.587   1.032   3.021
14017WAT      O56773   0.490   0.443   2.569
14017WAT     H156774   0.449   0.508   2.611
14017WAT     H256775   0.518   0.391   2.634
14017WAT    EPW56776   0.488   0.445   2.585
14018WAT      O56777   0.474   0.266   1.699
14018WAT     H156778   0.434   0.337   1.731
14018WAT     H256779   0.423   0.201   1.726
14018WAT    EPW56780   0.460   0.267   1.708
14019WAT      O56781   0.881   0.730   2.122
14019WAT     H156782   0.868   0.769   2.045
14019WAT     H256783   0.806   0.689   2.137
14019WAT    EPW56784   0.868   0.730   2.113
14020WAT      O56785   0.238   0.550   2.068
14020WAT     H156786   0.153   0.531   2.074
14020WAT     H256787   0.273   0.513   2.138
14020WAT    EPW56788   0.231   0.542   2.079
14021WAT      O56789   1.231   1.116   1.380
14021WAT     H156790   1.303   1.071   1.360
14021WAT     H256791   1.184   1.059   1.426
14021WAT    EPW56792   1.235   1.100   1.384
14022WAT      O56793   0.941   0.426   2.339
14022WAT     H156794   0.918   0.385   2.265
14022WAT     H256795   0.866   0.465   2.364
14022WAT    EPW56796   0.926   0.426   2.332
14023WAT      O56797   1.045   0.531   2.006
14023WAT     H156798   1.011   0.594   2.055
14023WAT     H256799   1.120   0.512   2.048
14023WAT    EPW56800   1.051   0.538   2.020
14024WAT      O56801   1.243   0.899   2.155
14024WAT     H156802   1.269   0.960   2.099
14024WAT     H256803   1.308   0.896   2.213
14024WAT    EPW56804   1.257   0.908   2.155
14025WAT      O56805   0.916   0.798   1.363
14025WAT     H156806   0.944   0.716   1.362
14025WAT     H256807   0.837   0.793   1.399
14025WAT    EPW56808   0.908   0.785   1.368
14026WAT      O56809   1.170   0.361   3.020
14026WAT     H156810   1.143   0.392   3.097
14026WAT     H256811   1.256   0.354   3.030
14026WAT    EPW56812   1.178   0.364   3.033
14027WAT      O56813   1.192   0.505   2.616
14027WAT     H156814   1.263   0.461   2.592
14027WAT     H256815   1.172   0.552   2.545
14027WAT    EPW56816   1.199   0.505   2.602
14028WAT      O56817   0.631   0.601   1.278
14028WAT     H156818   0.691   0.537   1.280
14028WAT     H256819   0.600   0.598   1.197
14028WAT    EPW56820   0.635   0.591   1.267
14029WAT      O56821   0.345   0.462   2.313
14029WAT     H156822   0.373   0.544   2.324
14029WAT     H256823   0.376   0.421   2.383
14029WAT    EPW56824   0.354   0.468   2.325
14030WAT      O56825   0.362   1.171   1.956
14030WAT     H156826   0.402   1.221   1.896
14030WAT     H256827   0.277   1.188   1.943
14030WAT    EPW56828   0.355   1.181   1.945
14031WAT      O56829   0.543   0.538   2.923
14031WAT     H156830   0.620   0.530   2.883
14031WAT     H256831   0.494   0.581   2.865
14031WAT    EPW56832   0.547   0.543   2.909
14032WAT      O56833   0.882   0.784   2.763
14032WAT     H156834   0.906   0.818   2.840
14032WAT     H256835   0.928   0.831   2.705
14032WAT    EPW56836   0.892   0.796   2.766
14033WAT      O56837   0.348   1.086   2.863
14033WAT     H156838   0.342   1.032   2.794
14033WAT     H256839   0.409   1.048   2.913
14033WAT    EPW56840   0.356   1.072   2.860
14034WAT      O56841   1.075   0.409   1.582
14034WAT     H156842   1.146   0.363   1.602
14034WAT     H256843   1.011   0.351   1.583
14034WAT    EPW56844   1.076   0.394   1.585
14035WAT      O56845   0.368   0.646   2.720
14035WAT     H156846   0.284   0.636   2.741
14035WAT     H256847   0.372   0.726   2.687
14035WAT    EPW56848   0.356   0.656   2.718
14036WAT      O56849   0.634   0.584   1.872
14036WAT     H156850   0.633   0.585   1.959
14036WAT     H256851   0.675   0.509   1.853
14036WAT    EPW56852   0.640   0.573   1.882
14037WAT      O56853   0.375   0.498   1.821
14037WAT     H156854   0.331   0.511   1.895
14037WAT     H256855   0.453   0.534   1.837
14037WAT    EPW56856   0.380   0.505   1.834
14038WAT      O56857   0.390   0.918   2.640
14038WAT     H156858   0.472   0.911   2.668
14038WAT     H256859   0.393   0.986   2.584
14038WAT    EPW56860   0.403   0.927   2.636
14039WAT      O56861   0.446   0.354   3.137
14039WAT     H156862   0.478   0.392   3.065
14039WAT     H256863   0.397   0.416   3.172
14039WAT    EPW56864   0.444   0.369   3.131
14040WAT      O56865   0.748   1.240   2.093
14040WAT     H156866   0.686   1.294   2.121
14040WAT     H256867   0.813   1.252   2.151
14040WAT    EPW56868   0.749   1.250   2.106
14041WAT      O56869   0.443   0.719   2.315
14041WAT     H156870   0.395   0.773   2.267
14041WAT     H256871   0.501   0.771   2.353
14041WAT    EPW56872   0.444   0.735   2.314
14042WAT      O56873   0.953   0.903   3.005
14042WAT     H156874   1.038   0.885   2.995
14042WAT     H256875   0.931   0.857   3.077
14042WAT    EPW56876   0.962   0.893   3.014
14043WAT      O56877   0.475   0.872   1.670
14043WAT     H156878   0.444   0.944   1.633
14043WAT     H256879   0.411   0.814   1.658
14043WAT    EPW56880   0.461   0.874   1.662
14044WAT      O56881   0.851   0.349   2.079
14044WAT     H156882   0.913   0.401   2.046
14044WAT     H256883   0.805   0.325   2.009
14044WAT    EPW56884   0.853   0.353   2.064
14045WAT      O56885   0.896   1.037   1.736
14045WAT     H156886   0.868   0.963   1.774
14045WAT     H256887   0.939   1.008   1.665
14045WAT    EPW56888   0.898   1.022   1.731
14046WAT      O56889   0.692   0.823   2.392
14046WAT     H156890   0.705   0.893   2.442
14046WAT     H256891   0.702   0.852   2.311
14046WAT    EPW56892   0.695   0.837   2.388
14047WAT      O56893   0.661   1.201   2.810
14047WAT     H156894   0.615   1.147   2.758
14047WAT     H256895   0.608   1.269   2.821
14047WAT    EPW56896   0.646   1.203   2.804
14048WAT      O56897   1.132   0.631   2.377
14048WAT     H156898   1.077   0.568   2.353
14048WAT     H256899   1.086   0.704   2.364
14048WAT    EPW56900   1.117   0.633   2.372
14049WAT      O56901   1.017   0.880   2.321
14049WAT     H156902   1.084   0.899   2.269
14049WAT     H256903   0.959   0.845   2.266
14049WAT    EPW56904   1.018   0.878   2.305
14050WAT      O56905   0.852   0.236   1.576
14050WAT     H156906   0.865   0.150   1.566
14050WAT     H256907   0.784   0.254   1.525
14050WAT    EPW56908   0.844   0.226   1.567
14051WAT      O56909   1.046   1.158   1.179
14051WAT     H156910   1.110   1.146   1.237
14051WAT     H256911   1.020   1.078   1.160
14051WAT    EPW56912   1.052   1.145   1.185
14052WAT      O56913   1.181   0.597   2.879
14052WAT     H156914   1.171   0.522   2.921
14052WAT     H256915   1.179   0.574   2.795
14052WAT    EPW56916   1.179   0.583   2.872
14053WAT      O56917   0.662   0.813   1.467
14053WAT     H156918   0.609   0.812   1.536
14053WAT     H256919   0.633   0.746   1.418
14053WAT    EPW56920   0.650   0.803   1.470
14054WAT      O56921   0.828   0.399   3.087
14054WAT     H156922   0.904   0.425   3.120
14054WAT     H256923   0.830   0.427   3.005
14054WAT    EPW56924   0.839   0.407   3.080
14055WAT      O56925   0.363   0.610   1.358
14055WAT     H156926   0.449   0.603   1.345
14055WAT     H256927   0.342   0.681   1.311
14055WAT    EPW56928   0.373   0.620   1.349
14056WAT      O56929   0.696   1.078   0.633
14056WAT     H156930   0.748   1.129   0.680
14056WAT     H256931   0.718   1.096   0.551
14056WAT    EPW56932   0.707   1.088   0.628
14057WAT      O56933   0.585   0.835   0.914
14057WAT     H156934   0.587   0.878   0.991
14057WAT     H256935   0.670   0.823   0.897
14057WAT    EPW56936   0.598   0.840   0.923
14058WAT      O56937   0.446   1.168   0.677
14058WAT     H156938   0.527   1.144   0.658
14058WAT     H256939   0.408   1.176   0.598
14058WAT    EPW56940   0.452   1.166   0.663
14059WAT      O56941   0.661   0.530   0.533
14059WAT     H156942   0.596   0.498   0.581
14059WAT     H256943   0.677   0.608   0.569
14059WAT    EPW56944   0.654   0.537   0.545
14060WAT      O56945   1.258   0.989   0.870
14060WAT     H156946   1.180   0.995   0.831
14060WAT     H256947   1.241   0.943   0.942
14060WAT    EPW56948   1.244   0.983   0.875
14061WAT      O56949   1.004   1.003   0.740
14061WAT     H156950   0.958   1.074   0.763
14061WAT     H256951   1.002   1.005   0.653
14061WAT    EPW56952   0.997   1.014   0.730
14062WAT      O56953   0.355   1.189   0.415
14062WAT     H156954   0.317   1.111   0.419
14062WAT     H256955   0.421   1.177   0.360
14062WAT    EPW56956   0.359   1.176   0.407
14063WAT      O56957   0.797   0.526   0.933
14063WAT     H156958   0.829   0.606   0.916
14063WAT     H256959   0.835   0.475   0.873
14063WAT    EPW56960   0.807   0.530   0.921
14064WAT      O56961   0.552   0.890   0.357
14064WAT     H156962   0.580   0.822   0.311
14064WAT     H256963   0.611   0.952   0.341
14064WAT    EPW56964   0.565   0.889   0.348
14065WAT      O56965   0.646   0.640   0.274
14065WAT     H156966   0.574   0.611   0.234
14065WAT     H256967   0.646   0.597   0.350
14065WAT    EPW56968   0.635   0.629   0.280
14066WAT      O56969   0.924   0.371   0.737
14066WAT     H156970   0.901   0.351   0.656
14066WAT     H256971   1.006   0.399   0.729
14066WAT    EPW56972   0.933   0.372   0.724
14067WAT      O56973   0.562   1.000   1.140
14067WAT     H156974   0.594   1.031   1.216
14067WAT     H256975   0.563   1.070   1.088
14067WAT    EPW56976   0.567   1.015   1.144
14068WAT      O56977   0.455   0.432   0.693
14068WAT     H156978   0.412   0.497   0.732
14068WAT     H256979   0.489   0.387   0.760
14068WAT    EPW56980   0.453   0.435   0.709
14069WAT      O56981   0.887   0.742   0.394
14069WAT     H156982   0.835   0.714   0.330
14069WAT     H256983   0.832   0.758   0.460
14069WAT    EPW56984   0.871   0.741   0.394
14070WAT      O56985   0.393   0.548   0.209
14070WAT     H156986   0.319   0.593   0.200
14070WAT     H256987   0.377   0.495   0.276
14070WAT    EPW56988   0.379   0.546   0.217
14071WAT      O56989   0.850   0.338   0.464
14071WAT     H156990   0.797   0.276   0.434
14071WAT     H256991   0.795   0.405   0.480
14071WAT    EPW56992   0.834   0.339   0.462
14072WAT      O56993   1.105   0.382   0.353
14072WAT     H156994   1.026   0.364   0.387
14072WAT     H256995   1.096   0.361   0.268
14072WAT    EPW56996   1.092   0.376   0.345
14073WAT      O56997   1.232   1.006   0.330
14073WAT     H156998   1.272   1.006   0.253
14073WAT     H256999   1.278   0.950   0.378
14073WAT    EPW57000   1.244   0.997   0.326
14074WAT      O57001   1.165   0.375   1.110
14074WAT     H157002   1.133   0.294   1.113
14074WAT     H257003   1.251   0.363   1.113
14074WAT    EPW57004   1.173   0.361   1.111
14075WAT      O57005   1.177   0.485   0.688
14075WAT     H157006   1.252   0.449   0.664
14075WAT     H257007   1.158   0.539   0.622
14075WAT    EPW57008   1.185   0.488   0.675
14076WAT      O57009   0.349   0.385   0.433
14076WAT     H157010   0.377   0.399   0.515
14076WAT     H257011   0.306   0.310   0.439
14076WAT    EPW57012   0.347   0.376   0.446
14077WAT      O57013   0.532   0.528   1.023
14077WAT     H157014   0.611   0.529   0.987
14077WAT     H257015   0.486   0.583   0.974
14077WAT    EPW57016   0.536   0.536   1.011
14078WAT      O57017   0.859   0.803   0.884
14078WAT     H157018   0.889   0.832   0.961
14078WAT     H257019   0.904   0.851   0.826
14078WAT    EPW57020   0.870   0.815   0.886
14079WAT      O57021   0.270   1.028   0.995
14079WAT     H157022   0.291   0.990   0.919
14079WAT     H257023   0.282   0.965   1.054
14079WAT    EPW57024   0.275   1.013   0.992
14080WAT      O57025   0.329   0.637   0.834
14080WAT     H157026   0.249   0.634   0.869
14080WAT     H257027   0.337   0.719   0.807
14080WAT    EPW57028   0.318   0.648   0.835
14081WAT      O57029   0.375   0.911   0.757
14081WAT     H157030   0.450   0.889   0.797
14081WAT     H257031   0.391   0.991   0.727
14081WAT    EPW57032   0.388   0.919   0.759
14082WAT      O57033   0.430   0.358   1.241
14082WAT     H157034   0.463   0.393   1.168
14082WAT     H257035   0.382   0.422   1.275
14082WAT    EPW57036   0.428   0.372   1.235
14083WAT      O57037   0.735   1.102   0.357
14083WAT     H157038   0.717   1.187   0.350
14083WAT     H257039   0.820   1.101   0.376
14083WAT    EPW57040   0.745   1.114   0.359
14084WAT      O57041   0.300   0.922   0.473
14084WAT     H157042   0.311   0.893   0.554
14084WAT     H257043   0.375   0.899   0.433
14084WAT    EPW57044   0.313   0.914   0.479
14085WAT      O57045   0.968   0.904   1.117
14085WAT     H157046   1.048   0.870   1.107
14085WAT     H257047   0.940   0.869   1.192
14085WAT    EPW57048   0.976   0.893   1.127
14086WAT      O57049   0.690   0.803   0.579
14086WAT     H157050   0.706   0.876   0.624
14086WAT     H257051   0.636   0.829   0.517
14086WAT    EPW57052   0.685   0.817   0.577
14087WAT      O57053   0.569   1.206   0.946
14087WAT     H157054   0.520   1.179   0.879
14087WAT     H257055   0.534   1.283   0.968
14087WAT    EPW57056   0.557   1.213   0.940
14088WAT      O57057   1.134   0.635   0.458
14088WAT     H157058   1.135   0.559   0.414
14088WAT     H257059   1.057   0.670   0.439
14088WAT    EPW57060   1.123   0.629   0.449
14089WAT      O57061   0.987   0.994   0.458
14089WAT     H157062   1.061   1.012   0.416
14089WAT     H257063   0.962   0.917   0.425
14089WAT    EPW57064   0.994   0.986   0.447
14090WAT      O57065   1.138   0.593   0.942
14090WAT     H157066   1.138   0.522   0.992
14090WAT     H257067   1.150   0.561   0.862
14090WAT    EPW57068   1.140   0.578   0.937
14091WAT      O57069   0.832   0.408   1.191
14091WAT     H157070   0.903   0.444   1.229
14091WAT     H257071   0.832   0.442   1.111
14091WAT    EPW57072   0.843   0.419   1.185
   8.09217   8.04338   8.05573
