Generic title
 1062
    1C5    HO5'    1   3.417   5.451   3.642
    1C5     O5'    2   3.495   5.478   3.591
    1C5     C5'    3   3.611   5.437   3.662
    1C5     H5'    4   3.700   5.459   3.604
    1C5    H5''    5   3.607   5.330   3.680
    1C5     C4'    6   3.618   5.512   3.796
    1C5     H4'    7   3.647   5.615   3.776
    1C5     O4'    8   3.492   5.514   3.863
    1C5     C1'    9   3.511   5.489   4.002
    1C5     H1'   10   3.464   5.567   4.062
    1C5      N1   11   3.453   5.356   4.039
    1C5      C6   12   3.429   5.259   3.945
    1C5      H6   13   3.457   5.275   3.842
    1C5      C5   14   3.368   5.143   3.979
    1C5      H5   15   3.349   5.067   3.905
    1C5      C4   16   3.332   5.126   4.115
    1C5      N4   17   3.275   5.016   4.153
    1C5     H41   18   3.271   4.938   4.091
    1C5     H42   19   3.258   5.004   4.253
    1C5      N3   20   3.352   5.218   4.207
    1C5      C2   21   3.411   5.335   4.171
    1C5      O2   22   3.423   5.421   4.259
    1C5     C3'   23   3.722   5.454   3.891
    1C5     H3'   24   3.727   5.346   3.882
    1C5     C2'   25   3.662   5.494   4.026
    1C5     H2'   26   3.693   5.425   4.105
    1C5     O2'   27   3.702   5.627   4.055
    1C5    HO2'   28   3.787   5.634   4.007
    1C5     O3'   29   3.847   5.518   3.872
    2U        P   30   3.981   5.432   3.871
    2U      OP1   31   4.094   5.525   3.844
    2U      OP2   32   3.958   5.319   3.781
    2U      O5'   33   3.985   5.385   4.024
    2U      C5'   34   4.015   5.478   4.127
    2U      H5'   35   3.956   5.568   4.112
    2U     H5''   36   4.120   5.505   4.122
    2U      C4'   37   3.985   5.428   4.269
    2U      H4'   38   4.013   5.508   4.338
    2U      O4'   39   3.847   5.400   4.292
    2U      C1'   40   3.838   5.293   4.386
    2U      H1'   41   3.777   5.324   4.471
    2U       N1   42   3.773   5.173   4.325
    2U       C6   43   3.769   5.153   4.188
    2U       H6   44   3.825   5.218   4.123
    2U       C5   45   3.695   5.052   4.136
    2U       H5   46   3.693   5.036   4.029
    2U       C4   47   3.621   4.960   4.219
    2U       O4   48   3.547   4.871   4.179
    2U       N3   49   3.634   4.984   4.354
    2U       H3   50   3.595   4.915   4.417
    2U       C2   51   3.708   5.084   4.411
    2U       O2   52   3.713   5.095   4.533
    2U      C3'   53   4.063   5.305   4.313
    2U      H3'   54   4.059   5.228   4.236
    2U      C2'   55   3.980   5.265   4.436
    2U      H2'   56   3.995   5.161   4.463
    2U      O2'   57   4.006   5.352   4.546
    2U     HO2'   58   3.987   5.304   4.629
    2U      O3'   59   4.196   5.341   4.347
    3G        P   60   4.312   5.234   4.345
    3G      OP1   61   4.429   5.306   4.402
    3G      OP2   62   4.324   5.185   4.207
    3G      O5'   63   4.270   5.116   4.444
    3G      C5'   64   4.295   5.126   4.584
    3G      H5'   65   4.250   5.219   4.620
    3G     H5''   66   4.403   5.131   4.599
    3G      C4'   67   4.241   5.011   4.670
    3G      H4'   68   4.269   5.029   4.773
    3G      O4'   69   4.099   5.003   4.664
    3G      C1'   70   4.059   4.868   4.686
    3G      H1'   71   3.998   4.858   4.776
    3G       N9   72   3.980   4.818   4.572
    3G       C8   73   3.977   4.866   4.443
    3G       H8   74   4.038   4.948   4.410
    3G       N7   75   3.892   4.804   4.366
    3G       C5   76   3.840   4.703   4.447
    3G       C6   77   3.744   4.599   4.421
    3G       O6   78   3.679   4.577   4.319
    3G       N1   79   3.722   4.516   4.529
    3G       H1   80   3.658   4.439   4.517
    3G       C2   81   3.780   4.531   4.651
    3G       N2   82   3.745   4.445   4.742
    3G      H21   83   3.683   4.368   4.720
    3G      H22   84   3.787   4.447   4.836
    3G       N3   85   3.867   4.629   4.681
    3G       C4   86   3.894   4.711   4.574
    3G      C3'   87   4.294   4.872   4.634
    3G      H3'   88   4.289   4.859   4.525
    3G      C2'   89   4.187   4.785   4.702
    3G      H2'   90   4.178   4.690   4.649
    3G      O2'   91   4.207   4.763   4.841
    3G     HO2'   92   4.179   4.671   4.855
    3G      O3'   93   4.425   4.849   4.683
    4G        P   94   4.520   4.739   4.617
    4G      OP1   95   4.643   4.735   4.701
    4G      OP2   96   4.534   4.772   4.474
    4G      O5'   97   4.441   4.600   4.636
    4G      C5'   98   4.442   4.534   4.762
    4G      H5'   99   4.426   4.609   4.839
    4G     H5''  100   4.541   4.489   4.777
    4G      C4'  101   4.336   4.427   4.784
    4G      H4'  102   4.339   4.400   4.889
    4G      O4'  103   4.204   4.474   4.755
    4G      C1'  104   4.126   4.363   4.710
    4G      H1'  105   4.033   4.356   4.767
    4G       N9  106   4.089   4.377   4.567
    4G       C8  107   4.133   4.467   4.473
    4G       H8  108   4.210   4.540   4.494
    4G       N7  109   4.072   4.459   4.358
    4G       C5  110   3.983   4.352   4.375
    4G       C6  111   3.884   4.294   4.288
    4G       O6  112   3.847   4.326   4.175
    4G       N1  113   3.817   4.187   4.344
    4G       H1  114   3.747   4.141   4.288
    4G       C2  115   3.838   4.143   4.470
    4G       N2  116   3.767   4.042   4.511
    4G      H21  117   3.700   3.997   4.449
    4G      H22  118   3.778   4.017   4.608
    4G       N3  119   3.924   4.197   4.556
    4G       C4  120   3.995   4.301   4.502
    4G      C3'  121   4.353   4.296   4.707
    4G      H3'  122   4.369   4.318   4.601
    4G      C2'  123   4.212   4.238   4.730
    4G      H2'  124   4.189   4.160   4.657
    4G      O2'  125   4.190   4.192   4.864
    4G     HO2'  126   4.094   4.182   4.876
    4G      O3'  127   4.459   4.217   4.760
    5G        P  128   4.527   4.103   4.675
    5G      OP1  129   4.624   4.033   4.762
    5G      OP2  130   4.577   4.160   4.548
    5G      O5'  131   4.412   3.999   4.639
    5G      C5'  132   4.357   3.915   4.739
    5G      H5'  133   4.312   3.976   4.818
    5G     H5''  134   4.436   3.855   4.782
    5G      C4'  135   4.250   3.821   4.683
    5G      H4'  136   4.217   3.755   4.764
    5G      O4'  137   4.136   3.888   4.632
    5G      C1'  138   4.085   3.812   4.523
    5G      H1'  139   3.981   3.783   4.541
    5G       N9  140   4.090   3.895   4.400
    5G       C8  141   4.172   4.001   4.372
    5G       H8  142   4.247   4.036   4.442
    5G       N7  143   4.152   4.055   4.256
    5G       C5  144   4.046   3.981   4.201
    5G       C6  145   3.973   3.993   4.078
    5G       O6  146   3.982   4.075   3.987
    5G       N1  147   3.875   3.897   4.063
    5G       H1  148   3.823   3.899   3.977
    5G       C2  149   3.846   3.803   4.155
    5G       N2  150   3.748   3.721   4.126
    5G      H21  151   3.708   3.723   4.033
    5G      H22  152   3.727   3.647   4.192
    5G       N3  153   3.908   3.790   4.273
    5G       C4  154   4.008   3.882   4.290
    5G      C3'  155   4.303   3.734   4.570
    5G      H3'  156   4.356   3.796   4.498
    5G      C2'  157   4.171   3.685   4.510
    5G      H2'  158   4.184   3.656   4.405
    5G      O2'  159   4.109   3.582   4.585
    5G     HO2'  160   4.172   3.509   4.596
    5G      O3'  161   4.391   3.634   4.622
    6U        P  162   4.479   3.542   4.527
    6U      OP1  163   4.604   3.511   4.600
    6U      OP2  164   4.488   3.606   4.394
    6U      O5'  165   4.388   3.411   4.524
    6U      C5'  166   4.379   3.331   4.641
    6U      H5'  167   4.357   3.395   4.726
    6U     H5''  168   4.475   3.282   4.659
    6U      C4'  169   4.269   3.225   4.633
    6U      H4'  170   4.264   3.174   4.729
    6U      O4'  171   4.143   3.284   4.608
    6U      C1'  172   4.066   3.196   4.527
    6U      H1'  173   3.972   3.169   4.576
    6U       N1  174   4.033   3.256   4.394
    6U       C6  175   4.103   3.365   4.343
    6U       H6  176   4.189   3.402   4.396
    6U       C5  177   4.063   3.426   4.229
    6U       H5  178   4.116   3.512   4.191
    6U       C4  179   3.947   3.381   4.156
    6U       O4  180   3.899   3.434   4.056
    6U       N3  181   3.890   3.268   4.208
    6U       H3  182   3.810   3.233   4.158
    6U       C2  183   3.926   3.203   4.323
    6U       O2  184   3.864   3.102   4.357
    6U      C3'  185   4.293   3.119   4.526
    6U      H3'  186   4.331   3.165   4.435
    6U      C2'  187   4.149   3.069   4.509
    6U      H2'  188   4.134   3.027   4.410
    6U      O2'  189   4.120   2.973   4.609
    6U     HO2'  190   4.203   2.927   4.624
    6U      O3'  191   4.376   3.013   4.574
    7C        P  192   4.474   2.933   4.476
    7C      OP1  193   4.497   2.803   4.542
    7C      OP2  194   4.589   3.021   4.445
    7C      O5'  195   4.388   2.910   4.343
    7C      C5'  196   4.291   2.808   4.333
    7C      H5'  197   4.224   2.813   4.419
    7C     H5''  198   4.341   2.711   4.334
    7C      C4'  199   4.206   2.819   4.205
    7C      H4'  200   4.133   2.738   4.205
    7C      O4'  201   4.135   2.942   4.196
    7C      C1'  202   4.128   2.985   4.061
    7C      H1'  203   4.023   2.994   4.029
    7C       N1  204   4.196   3.116   4.041
    7C       C6  205   4.296   3.159   4.125
    7C       H6  206   4.326   3.099   4.209
    7C       C5  207   4.359   3.278   4.102
    7C       H5  208   4.438   3.311   4.168
    7C       C4  209   4.316   3.352   3.989
    7C       N4  210   4.374   3.465   3.958
    7C      H41  211   4.449   3.500   4.014
    7C      H42  212   4.344   3.507   3.871
    7C       N3  213   4.218   3.313   3.911
    7C       C2  214   4.155   3.196   3.934
    7C       O2  215   4.063   3.161   3.860
    7C      C3'  216   4.288   2.807   4.077
    7C      H3'  217   4.381   2.862   4.087
    7C      C2'  218   4.195   2.876   3.977
    7C      H2'  219   4.252   2.919   3.893
    7C      O2'  220   4.097   2.785   3.930
    7C     HO2'  221   4.141   2.700   3.925
    7C      O3'  222   4.308   2.670   4.041
    8G        P  223   4.451   2.621   3.997
    8G      OP1  224   4.441   2.482   3.946
    8G      OP2  225   4.548   2.650   4.103
    8G      O5'  226   4.486   2.714   3.873
    8G      C5'  227   4.418   2.696   3.749
    8G      H5'  228   4.311   2.700   3.766
    8G     H5''  229   4.443   2.598   3.709
    8G      C4'  230   4.455   2.801   3.645
    8G      H4'  231   4.411   2.772   3.550
    8G      O4'  232   4.408   2.931   3.679
    8G      C1'  233   4.492   3.026   3.613
    8G      H1'  234   4.435   3.084   3.540
    8G       N9  235   4.548   3.120   3.712
    8G       C8  236   4.581   3.098   3.844
    8G       H8  237   4.558   3.005   3.894
    8G       N7  238   4.645   3.196   3.901
    8G       C5  239   4.652   3.294   3.800
    8G       C6  240   4.713   3.425   3.798
    8G       O6  241   4.773   3.484   3.888
    8G       N1  242   4.701   3.488   3.676
    8G       H1  243   4.757   3.571   3.662
    8G       C2  244   4.633   3.437   3.570
    8G       N2  245   4.621   3.511   3.463
    8G      H21  246   4.650   3.607   3.465
    8G      H22  247   4.557   3.477   3.392
    8G       N3  248   4.576   3.316   3.567
    8G       C4  249   4.590   3.249   3.686
    8G      C3'  250   4.605   2.817   3.625
    8G      H3'  251   4.650   2.836   3.722
    8G      C2'  252   4.604   2.947   3.543
    8G      H2'  253   4.700   2.998   3.550
    8G      O2'  254   4.568   2.926   3.407
    8G     HO2'  255   4.604   3.000   3.355
    8G      O3'  256   4.664   2.703   3.563
    9C        P  257   4.808   2.652   3.606
    9C      OP1  258   4.842   2.531   3.530
    9C      OP2  259   4.820   2.649   3.754
    9C      O5'  260   4.906   2.766   3.555
    9C      C5'  261   5.043   2.764   3.589
    9C      H5'  262   5.082   2.662   3.587
    9C     H5''  263   5.057   2.804   3.690
    9C      C4'  264   5.124   2.849   3.490
    9C      H4'  265   5.226   2.856   3.526
    9C      O4'  266   5.124   2.792   3.360
    9C      C1'  267   5.120   2.897   3.263
    9C      H1'  268   5.206   2.891   3.197
    9C       N1  269   4.994   2.892   3.182
    9C       C6  270   4.883   2.821   3.223
    9C       H6  271   4.881   2.772   3.319
    9C       C5  272   4.774   2.812   3.142
    9C       H5  273   4.688   2.757   3.175
    9C       C4  274   4.780   2.878   3.017
    9C       N4  275   4.679   2.871   2.935
    9C      H41  276   4.593   2.832   2.967
    9C      H42  277   4.685   2.919   2.845
    9C       N3  278   4.885   2.946   2.976
    9C       C2  279   4.993   2.955   3.058
    9C       O2  280   5.090   3.019   3.016
    9C      C3'  281   5.069   2.991   3.476
    9C      H3'  282   4.960   2.989   3.468
    9C      C2'  283   5.130   3.029   3.341
    9C      H2'  284   5.071   3.108   3.294
    9C      O2'  285   5.266   3.066   3.355
    9C     HO2'  286   5.271   3.119   3.436
    9C      O3'  287   5.113   3.078   3.579
   10A        P  288   5.015   3.188   3.637
   10A      OP1  289   5.091   3.259   3.742
   10A      OP2  290   4.891   3.117   3.673
   10A      O5'  291   4.992   3.284   3.511
   10A      C5'  292   5.095   3.368   3.463
   10A      H5'  293   5.187   3.311   3.454
   10A     H5''  294   5.112   3.448   3.534
   10A      C4'  295   5.063   3.430   3.327
   10A      H4'  296   5.150   3.488   3.296
   10A      O4'  297   5.037   3.333   3.226
   10A      C1'  298   4.927   3.374   3.146
   10A      H1'  299   4.954   3.371   3.040
   10A       N9  300   4.810   3.285   3.166
   10A       C8  301   4.772   3.212   3.275
   10A       H8  302   4.824   3.214   3.370
   10A       N7  303   4.668   3.136   3.255
   10A       C5  304   4.630   3.167   3.124
   10A       C6  305   4.525   3.128   3.039
   10A       N6  306   4.429   3.044   3.072
   10A      H61  307   4.349   3.039   3.012
   10A      H62  308   4.422   3.017   3.169
   10A       N1  309   4.514   3.176   2.915
   10A       C2  310   4.606   3.264   2.875
   10A       H2  311   4.595   3.300   2.775
   10A       N3  312   4.711   3.309   2.943
   10A       C4  313   4.716   3.258   3.069
   10A      C3'  314   4.945   3.527   3.329
   10A      H3'  315   4.868   3.492   3.398
   10A      C2'  316   4.896   3.518   3.185
   10A      H2'  317   4.789   3.540   3.178
   10A      O2'  318   4.971   3.605   3.100
   10A     HO2'  319   4.987   3.684   3.154
   10A      O3'  320   4.989   3.659   3.357
   11G        P  321   4.939   3.738   3.486
   11G      OP1  322   5.028   3.856   3.500
   11G      OP2  323   4.929   3.643   3.598
   11G      O5'  324   4.792   3.785   3.445
   11G      C5'  325   4.768   3.849   3.320
   11G      H5'  326   4.765   3.774   3.241
   11G     H5''  327   4.848   3.920   3.299
   11G      C4'  328   4.635   3.926   3.317
   11G      H4'  329   4.622   3.966   3.217
   11G      O4'  330   4.527   3.838   3.347
   11G      C1'  331   4.455   3.889   3.458
   11G      H1'  332   4.372   3.951   3.423
   11G       N9  333   4.400   3.776   3.537
   11G       C8  334   4.439   3.726   3.659
   11G       H8  335   4.517   3.771   3.719
   11G       N7  336   4.379   3.615   3.693
   11G       C5  337   4.288   3.594   3.590
   11G       C6  338   4.193   3.489   3.566
   11G       O6  339   4.174   3.385   3.626
   11G       N1  340   4.116   3.509   3.454
   11G       H1  341   4.047   3.438   3.434
   11G       C2  342   4.133   3.611   3.368
   11G       N2  343   4.057   3.611   3.261
   11G      H21  344   3.985   3.539   3.251
   11G      H22  345   4.069   3.686   3.197
   11G       N3  346   4.223   3.708   3.381
   11G       C4  347   4.297   3.695   3.496
   11G      C3'  348   4.632   4.041   3.418
   11G      H3'  349   4.732   4.068   3.452
   11G      C2'  350   4.554   3.977   3.533
   11G      H2'  351   4.623   3.914   3.589
   11G      O2'  352   4.493   4.070   3.621
   11G     HO2'  353   4.449   4.138   3.569
   11G      O3'  354   4.566   4.153   3.360
   12U        P  355   4.641   4.240   3.247
   12U      OP1  356   4.574   4.218   3.117
   12U      OP2  357   4.786   4.212   3.256
   12U      O5'  358   4.621   4.393   3.288
   12U      C5'  359   4.655   4.442   3.417
   12U      H5'  360   4.730   4.377   3.462
   12U     H5''  361   4.567   4.438   3.479
   12U      C4'  362   4.711   4.585   3.415
   12U      H4'  363   4.721   4.618   3.519
   12U      O4'  364   4.839   4.582   3.352
   12U      C1'  365   4.832   4.664   3.236
   12U      H1'  366   4.864   4.764   3.264
   12U       N1  367   4.917   4.615   3.125
   12U       C6  368   4.913   4.483   3.085
   12U       H6  369   4.851   4.413   3.141
   12U       C5  370   4.988   4.440   2.980
   12U       H5  371   4.984   4.336   2.951
   12U       C4  372   5.074   4.531   2.907
   12U       O4  373   5.145   4.501   2.811
   12U       N3  374   5.071   4.660   2.951
   12U       H3  375   5.128   4.726   2.903
   12U       C2  376   4.996   4.708   3.057
   12U       O2  377   5.003   4.828   3.085
   12U      C3'  378   4.626   4.688   3.337
   12U      H3'  379   4.520   4.664   3.341
   12U      C2'  380   4.684   4.672   3.196
   12U      H2'  381   4.650   4.580   3.150
   12U      O2'  382   4.657   4.785   3.114
   12U     HO2'  383   4.644   4.857   3.177
   12U      O3'  384   4.653   4.825   3.371
   13A        P  385   4.597   4.894   3.502
   13A      OP1  386   4.617   5.039   3.482
   13A      OP2  387   4.662   4.830   3.619
   13A      O5'  388   4.443   4.859   3.492
   13A      C5'  389   4.354   4.878   3.601
   13A      H5'  390   4.351   4.983   3.628
   13A     H5''  391   4.389   4.819   3.686
   13A      C4'  392   4.212   4.832   3.565
   13A      H4'  393   4.145   4.858   3.646
   13A      O4'  394   4.165   4.892   3.444
   13A      C1'  395   4.070   4.805   3.384
   13A      H1'  396   3.970   4.847   3.396
   13A       N9  397   4.096   4.789   3.238
   13A       C8  398   4.035   4.859   3.137
   13A       H8  399   3.957   4.932   3.158
   13A       N7  400   4.078   4.834   3.016
   13A       C5  401   4.177   4.736   3.040
   13A       C6  402   4.266   4.664   2.957
   13A       N6  403   4.275   4.679   2.827
   13A      H61  404   4.345   4.626   2.778
   13A      H62  405   4.219   4.749   2.782
   13A       N1  406   4.350   4.572   3.006
   13A       C2  407   4.347   4.552   3.138
   13A       H2  408   4.415   4.478   3.176
   13A       N3  409   4.271   4.613   3.227
   13A       C4  410   4.187   4.706   3.174
   13A      C3'  411   4.201   4.681   3.543
   13A      H3'  412   4.283   4.647   3.480
   13A      C2'  413   4.068   4.676   3.467
   13A      H2'  414   4.059   4.587   3.406
   13A      O2'  415   3.959   4.690   3.557
   13A     HO2'  416   3.973   4.624   3.626
   13A      O3'  417   4.192   4.607   3.665
   14A        P  418   4.294   4.487   3.698
   14A      OP1  419   4.286   4.459   3.842
   14A      OP2  420   4.425   4.521   3.640
   14A      O5'  421   4.234   4.361   3.618
   14A      C5'  422   4.246   4.351   3.477
   14A      H5'  423   4.348   4.324   3.451
   14A     H5''  424   4.223   4.446   3.431
   14A      C4'  425   4.149   4.248   3.417
   14A      H4'  426   4.146   4.265   3.309
   14A      O4'  427   4.195   4.114   3.437
   14A      C1'  428   4.082   4.029   3.454
   14A      H1'  429   4.082   3.949   3.379
   14A       N9  430   4.087   3.966   3.588
   14A       C8  431   4.173   3.991   3.692
   14A       H8  432   4.239   4.077   3.694
   14A       N7  433   4.171   3.901   3.787
   14A       C5  434   4.070   3.814   3.745
   14A       C6  435   4.010   3.696   3.798
   14A       N6  436   4.043   3.641   3.913
   14A      H61  437   3.995   3.556   3.941
   14A      H62  438   4.119   3.681   3.965
   14A       N1  439   3.915   3.631   3.731
   14A       C2  440   3.876   3.681   3.615
   14A       H2  441   3.799   3.626   3.563
   14A       N3  442   3.920   3.790   3.553
   14A       C4  443   4.018   3.853   3.625
   14A      C3'  444   4.005   4.257   3.468
   14A      H3'  445   4.005   4.271   3.576
   14A      C2'  446   3.956   4.115   3.435
   14A      H2'  447   3.877   4.084   3.503
   14A      O2'  448   3.912   4.109   3.299
   14A     HO2'  449   3.860   4.190   3.288
   14A      O3'  450   3.929   4.358   3.402
   15C        P  451   3.779   4.393   3.447
   15C      OP1  452   3.748   4.534   3.414
   15C      OP2  453   3.753   4.343   3.583
   15C      O5'  454   3.690   4.307   3.346
   15C      C5'  455   3.560   4.353   3.316
   15C      H5'  456   3.565   4.455   3.279
   15C     H5''  457   3.501   4.352   3.408
   15C      C4'  458   3.485   4.272   3.210
   15C      H4'  459   3.385   4.315   3.202
   15C      O4'  460   3.550   4.283   3.084
   15C      C1'  461   3.566   4.152   3.032
   15C      H1'  462   3.474   4.121   2.981
   15C       N1  463   3.678   4.146   2.933
   15C       C6  464   3.797   4.083   2.961
   15C       H6  465   3.815   4.037   3.057
   15C       C5  466   3.895   4.077   2.867
   15C       H5  467   3.988   4.028   2.889
   15C       C4  468   3.869   4.138   2.742
   15C       N4  469   3.962   4.137   2.650
   15C      H41  470   4.052   4.100   2.675
   15C      H42  471   3.945   4.189   2.566
   15C       N3  472   3.757   4.202   2.712
   15C       C2  473   3.659   4.205   2.807
   15C       O2  474   3.554   4.262   2.777
   15C      C3'  475   3.472   4.124   3.247
   15C      H3'  476   3.495   4.106   3.352
   15C      C2'  477   3.578   4.063   3.156
   15C      H2'  478   3.675   4.079   3.204
   15C      O2'  479   3.559   3.926   3.125
   15C     HO2'  480   3.566   3.875   3.207
   15C      O3'  481   3.341   4.080   3.213
   16C        P  482   3.221   4.098   3.314
   16C      OP1  483   3.098   4.060   3.240
   16C      OP2  484   3.231   4.234   3.373
   16C      O5'  485   3.254   3.987   3.425
   16C      C5'  486   3.222   3.851   3.403
   16C      H5'  487   3.267   3.819   3.309
   16C     H5''  488   3.114   3.842   3.394
   16C      C4'  489   3.269   3.755   3.513
   16C      H4'  490   3.217   3.660   3.498
   16C      O4'  491   3.408   3.725   3.508
   16C      C1'  492   3.458   3.713   3.642
   16C      H1'  493   3.518   3.622   3.653
   16C       N1  494   3.544   3.830   3.677
   16C       C6  495   3.552   3.941   3.596
   16C       H6  496   3.489   3.947   3.508
   16C       C5  497   3.637   4.041   3.625
   16C       H5  498   3.642   4.128   3.561
   16C       C4  499   3.720   4.027   3.739
   16C       N4  500   3.800   4.125   3.771
   16C      H41  501   3.802   4.208   3.712
   16C      H42  502   3.865   4.112   3.848
   16C       N3  503   3.713   3.923   3.820
   16C       C2  504   3.625   3.823   3.792
   16C       O2  505   3.616   3.729   3.870
   16C      C3'  506   3.235   3.798   3.656
   16C      H3'  507   3.263   3.902   3.671
   16C      C2'  508   3.333   3.704   3.730
   16C      H2'  509   3.353   3.738   3.832
   16C      O2'  510   3.290   3.568   3.729
   16C     HO2'  511   3.353   3.514   3.780
   16C      O3'  512   3.098   3.776   3.686
   17C        P  513   3.024   3.855   3.804
   17C      OP1  514   2.889   3.794   3.816
   17C      OP2  515   3.034   4.000   3.778
   17C      O5'  516   3.105   3.821   3.936
   17C      C5'  517   3.096   3.693   3.996
   17C      H5'  518   3.129   3.617   3.926
   17C     H5''  519   2.992   3.674   4.022
   17C      C4'  520   3.178   3.683   4.124
   17C      H4'  521   3.154   3.587   4.170
   17C      O4'  522   3.318   3.686   4.102
   17C      C1'  523   3.380   3.754   4.211
   17C      H1'  524   3.462   3.694   4.253
   17C       N1  525   3.437   3.885   4.165
   17C       C6  526   3.405   3.938   4.042
   17C       H6  527   3.329   3.891   3.982
   17C       C5  528   3.470   4.047   3.995
   17C       H5  529   3.445   4.087   3.898
   17C       C4  530   3.572   4.102   4.077
   17C       N4  531   3.636   4.208   4.035
   17C      H41  532   3.638   4.225   3.936
   17C      H42  533   3.714   4.242   4.091
   17C       N3  534   3.600   4.057   4.197
   17C       C2  535   3.535   3.947   4.243
   17C       O2  536   3.562   3.906   4.356
   17C      C3'  537   3.146   3.791   4.227
   17C      H3'  538   3.148   3.890   4.180
   17C      C2'  539   3.270   3.771   4.317
   17C      H2'  540   3.288   3.858   4.380
   17C      O2'  541   3.259   3.652   4.393
   17C     HO2'  542   3.332   3.646   4.458
   17C      O3'  543   3.022   3.766   4.291
   18C        P  544   2.939   3.878   4.368
   18C      OP1  545   2.822   3.807   4.424
   18C      OP2  546   2.913   3.991   4.277
   18C      O5'  547   3.033   3.929   4.487
   18C      C5'  548   3.056   3.850   4.602
   18C      H5'  549   3.091   3.751   4.571
   18C     H5''  550   2.963   3.838   4.657
   18C      C4'  551   3.161   3.910   4.696
   18C      H4'  552   3.168   3.845   4.784
   18C      O4'  553   3.291   3.915   4.636
   18C      C1'  554   3.361   4.029   4.684
   18C      H1'  555   3.458   4.000   4.726
   18C       N1  556   3.385   4.128   4.575
   18C       C6  557   3.316   4.123   4.456
   18C       H6  558   3.235   4.052   4.445
   18C       C5  559   3.347   4.205   4.354
   18C       H5  560   3.293   4.199   4.261
   18C       C4  561   3.453   4.297   4.375
   18C       N4  562   3.490   4.376   4.278
   18C      H41  563   3.462   4.353   4.186
   18C      H42  564   3.569   4.437   4.297
   18C       N3  565   3.520   4.307   4.488
   18C       C2  566   3.488   4.223   4.590
   18C       O2  567   3.549   4.235   4.695
   18C      C3'  568   3.131   4.052   4.747
   18C      H3'  569   3.102   4.116   4.664
   18C      C2'  570   3.273   4.087   4.796
   18C      H2'  571   3.287   4.194   4.804
   18C      O2'  572   3.308   4.019   4.916
   18C     HO2'  573   3.348   4.082   4.979
   18C      O3'  574   3.033   4.054   4.851
   19A        P  575   2.945   4.184   4.884
   19A      OP1  576   2.863   4.151   5.003
   19A      OP2  577   2.871   4.226   4.763
   19A      O5'  578   3.047   4.301   4.928
   19A      C5'  579   3.111   4.297   5.055
   19A      H5'  580   3.143   4.195   5.074
   19A     H5''  581   3.040   4.324   5.133
   19A      C4'  582   3.234   4.387   5.070
   19A      H4'  583   3.282   4.361   5.165
   19A      O4'  584   3.329   4.360   4.967
   19A      C1'  585   3.400   4.479   4.935
   19A      H1'  586   3.508   4.461   4.938
   19A       N9  587   3.363   4.524   4.798
   19A       C8  588   3.274   4.465   4.711
   19A       H8  589   3.210   4.383   4.741
   19A       N7  590   3.274   4.514   4.590
   19A       C5  591   3.371   4.615   4.598
   19A       C6  592   3.426   4.706   4.506
   19A       N6  593   3.396   4.709   4.377
   19A      H61  594   3.456   4.763   4.317
   19A      H62  595   3.342   4.631   4.343
   19A       N1  596   3.518   4.796   4.542
   19A       C2  597   3.559   4.794   4.669
   19A       H2  598   3.634   4.867   4.695
   19A       N3  599   3.520   4.712   4.766
   19A       C4  600   3.424   4.624   4.724
   19A      C3'  601   3.214   4.539   5.071
   19A      H3'  602   3.148   4.568   4.989
   19A      C2'  603   3.359   4.580   5.043
   19A      H2'  604   3.365   4.683   5.006
   19A      O2'  605   3.444   4.560   5.155
   19A     HO2'  606   3.535   4.579   5.127
   19A      O3'  607   3.166   4.590   5.196
   20G        P  608   3.107   4.737   5.211
   20G      OP1  609   3.072   4.759   5.353
   20G      OP2  610   2.998   4.752   5.113
   20G      O5'  611   3.218   4.846   5.173
   20G      C5'  612   3.334   4.868   5.252
   20G      H5'  613   3.396   4.779   5.252
   20G     H5''  614   3.305   4.889   5.355
   20G      C4'  615   3.420   4.986   5.202
   20G      H4'  616   3.511   4.990   5.262
   20G      O4'  617   3.452   4.966   5.065
   20G      C1'  618   3.393   5.068   4.987
   20G      H1'  619   3.469   5.142   4.963
   20G       N9  620   3.336   5.015   4.862
   20G       C8  621   3.250   4.910   4.844
   20G       H8  622   3.219   4.846   4.926
   20G       N7  623   3.207   4.896   4.722
   20G       C5  624   3.273   4.997   4.652
   20G       C6  625   3.268   5.035   4.514
   20G       O6  626   3.201   4.988   4.422
   20G       N1  627   3.347   5.144   4.485
   20G       H1  628   3.350   5.174   4.389
   20G       C2  629   3.419   5.213   4.577
   20G       N2  630   3.477   5.323   4.533
   20G      H21  631   3.471   5.349   4.436
   20G      H22  632   3.528   5.379   4.600
   20G       N3  633   3.423   5.185   4.707
   20G       C4  634   3.351   5.073   4.738
   20G      C3'  635   3.347   5.121   5.211
   20G      H3'  636   3.270   5.121   5.288
   20G      C2'  637   3.284   5.131   5.072
   20G      H2'  638   3.193   5.071   5.068
   20G      O2'  639   3.257   5.266   5.038
   20G     HO2'  640   3.327   5.316   5.081
   20G      O3'  641   3.437   5.231   5.227
   21U        P  642   3.475   5.284   5.371
   21U      OP1  643   3.463   5.174   5.468
   21U      OP2  644   3.401   5.410   5.393
   21U      O5'  645   3.629   5.325   5.354
   21U      C5'  646   3.734   5.228   5.360
   21U      H5'  647   3.714   5.147   5.290
   21U     H5''  648   3.740   5.187   5.460
   21U      C4'  649   3.871   5.291   5.323
   21U      H4'  650   3.951   5.225   5.358
   21U      O4'  651   3.882   5.304   5.182
   21U      C1'  652   3.894   5.441   5.147
   21U      H1'  653   4.000   5.463   5.130
   21U       N1  654   3.815   5.471   5.026
   21U       C6  655   3.687   5.420   5.012
   21U       H6  656   3.646   5.358   5.091
   21U       C5  657   3.617   5.441   4.898
   21U       H5  658   3.518   5.398   4.886
   21U       C4  659   3.673   5.515   4.787
   21U       O4  660   3.617   5.538   4.681
   21U       N3  661   3.800   5.564   4.809
   21U       H3  662   3.846   5.606   4.731
   21U       C2  663   3.872   5.551   4.926
   21U       O2  664   3.978   5.613   4.939
   21U      C3'  665   3.889   5.431   5.383
   21U      H3'  666   3.824   5.444   5.469
   21U      C2'  667   3.846   5.522   5.268
   21U      H2'  668   3.737   5.529   5.266
   21U      O2'  669   3.904   5.651   5.278
   21U     HO2'  670   3.981   5.640   5.336
   21U      O3'  671   4.025   5.458   5.416
   22U        P  672   4.066   5.478   5.568
   22U      OP1  673   3.963   5.564   5.629
   22U      OP2  674   4.207   5.521   5.573
   22U      O5'  675   4.050   5.331   5.628
   22U      C5'  676   4.153   5.233   5.618
   22U      H5'  677   4.245   5.272   5.663
   22U     H5''  678   4.173   5.211   5.513
   22U      C4'  679   4.114   5.103   5.691
   22U      H4'  680   4.196   5.032   5.679
   22U      O4'  681   4.093   5.126   5.830
   22U      C1'  682   3.958   5.096   5.864
   22U      H1'  683   3.956   4.995   5.907
   22U       N1  684   3.908   5.195   5.963
   22U       C6  685   3.923   5.331   5.939
   22U       H6  686   3.967   5.363   5.846
   22U       C5  687   3.887   5.423   6.033
   22U       H5  688   3.903   5.528   6.013
   22U       C4  689   3.834   5.383   6.161
   22U       O4  690   3.798   5.460   6.251
   22U       N3  691   3.821   5.247   6.178
   22U       H3  692   3.788   5.215   6.266
   22U       C2  693   3.855   5.150   6.085
   22U       O2  694   3.836   5.032   6.112
   22U      C3'  695   3.984   5.042   5.634
   22U      H3'  696   3.964   5.078   5.534
   22U      C2'  697   3.879   5.093   5.733
   22U      H2'  698   3.849   5.194   5.705
   22U      O2'  699   3.768   5.006   5.737
   22U     HO2'  700   3.797   4.928   5.687
   22U      O3'  701   3.989   4.900   5.636
   23A        P  702   4.066   4.822   5.520
   23A      OP1  703   4.094   4.684   5.567
   23A      OP2  704   4.178   4.906   5.476
   23A      O5'  705   3.957   4.820   5.403
   23A      C5'  706   3.830   4.761   5.418
   23A      H5'  707   3.772   4.817   5.491
   23A     H5''  708   3.841   4.658   5.452
   23A      C4'  709   3.753   4.760   5.285
   23A      H4'  710   3.653   4.720   5.300
   23A      O4'  711   3.741   4.891   5.230
   23A      C1'  712   3.763   4.883   5.089
   23A      H1'  713   3.679   4.927   5.035
   23A       N9  714   3.884   4.959   5.055
   23A       C8  715   4.011   4.955   5.108
   23A       H8  716   4.039   4.886   5.186
   23A       N7  717   4.094   5.043   5.058
   23A       C5  718   4.014   5.110   4.964
   23A       C6  719   4.033   5.219   4.876
   23A       N6  720   4.145   5.289   4.867
   23A      H61  721   4.147   5.364   4.799
   23A      H62  722   4.223   5.264   4.926
   23A       N1  723   3.937   5.261   4.795
   23A       C2  724   3.820   5.197   4.800
   23A       H2  725   3.743   5.233   4.734
   23A       N3  726   3.785   5.098   4.881
   23A       C4  727   3.888   5.059   4.961
   23A      C3'  728   3.821   4.673   5.180
   23A      H3'  729   3.929   4.684   5.187
   23A      C2'  730   3.771   4.735   5.049
   23A      H2'  731   3.840   4.716   4.966
   23A      O2'  732   3.639   4.693   5.019
   23A     HO2'  733   3.618   4.706   4.924
   23A      O3'  734   3.780   4.540   5.196
   24A        P  735   3.869   4.420   5.143
   24A      OP1  736   4.010   4.453   5.175
   24A      OP2  737   3.830   4.390   5.005
   24A      O5'  738   3.816   4.309   5.246
   24A      C5'  739   3.850   4.321   5.383
   24A      H5'  740   3.832   4.423   5.416
   24A     H5''  741   3.956   4.299   5.395
   24A      C4'  742   3.771   4.228   5.476
   24A      H4'  743   3.809   4.244   5.577
   24A      O4'  744   3.630   4.255   5.479
   24A      C1'  745   3.561   4.132   5.498
   24A      H1'  746   3.498   4.137   5.587
   24A       N9  747   3.474   4.101   5.382
   24A       C8  748   3.484   4.142   5.252
   24A       H8  749   3.564   4.208   5.216
   24A       N7  750   3.389   4.097   5.175
   24A       C5  751   3.311   4.019   5.261
   24A       C6  752   3.193   3.940   5.246
   24A       N6  753   3.127   3.924   5.133
   24A      H61  754   3.050   3.860   5.129
   24A      H62  755   3.165   3.964   5.048
   24A       N1  756   3.138   3.879   5.351
   24A       C2  757   3.200   3.890   5.468
   24A       H2  758   3.155   3.837   5.551
   24A       N3  759   3.309   3.960   5.498
   24A       C4  760   3.361   4.022   5.388
   24A      C3'  761   3.788   4.080   5.445
   24A      H3'  762   3.782   4.062   5.337
   24A      C2'  763   3.666   4.023   5.519
   24A      H2'  764   3.636   3.928   5.476
   24A      O2'  765   3.693   4.011   5.659
   24A     HO2'  766   3.782   3.975   5.660
   24A      O3'  767   3.909   4.032   5.502
   25C        P  768   3.993   3.916   5.434
   25C      OP1  769   4.111   3.896   5.519
   25C      OP2  770   4.009   3.944   5.290
   25C      O5'  771   3.894   3.792   5.453
   25C      C5'  772   3.882   3.729   5.579
   25C      H5'  773   3.857   3.804   5.654
   25C     H5''  774   3.977   3.684   5.606
   25C      C4'  775   3.774   3.621   5.581
   25C      H4'  776   3.774   3.575   5.680
   25C      O4'  777   3.643   3.674   5.557
   25C      C1'  778   3.565   3.575   5.492
   25C      H1'  779   3.479   3.547   5.553
   25C       N1  780   3.516   3.621   5.358
   25C       C6  781   3.586   3.712   5.282
   25C       H6  782   3.681   3.750   5.318
   25C       C5  783   3.538   3.752   5.162
   25C       H5  784   3.594   3.822   5.102
   25C       C4  785   3.416   3.695   5.118
   25C       N4  786   3.363   3.729   5.004
   25C      H41  787   3.404   3.804   4.951
   25C      H42  788   3.278   3.684   4.977
   25C       N3  789   3.346   3.609   5.189
   25C       C2  790   3.394   3.572   5.310
   25C       O2  791   3.325   3.495   5.377
   25C      C3'  792   3.796   3.509   5.480
   25C      H3'  793   3.825   3.550   5.383
   25C      C2'  794   3.654   3.452   5.476
   25C      H2'  795   3.635   3.401   5.382
   25C      O2'  796   3.634   3.362   5.585
   25C     HO2'  797   3.718   3.313   5.589
   25C      O3'  798   3.889   3.413   5.527
   26A        P  799   3.959   3.310   5.429
   26A      OP1  800   4.027   3.211   5.516
   26A      OP2  801   4.039   3.387   5.333
   26A      O5'  802   3.835   3.238   5.357
   26A      C5'  803   3.828   3.221   5.216
   26A      H5'  804   3.879   3.129   5.188
   26A     H5''  805   3.874   3.305   5.164
   26A      C4'  806   3.680   3.214   5.173
   26A      H4'  807   3.625   3.163   5.252
   26A      O4'  808   3.624   3.343   5.156
   26A      C1'  809   3.535   3.345   5.045
   26A      H1'  810   3.435   3.377   5.075
   26A       N9  811   3.587   3.440   4.943
   26A       C8  812   3.697   3.522   4.953
   26A       H8  813   3.768   3.516   5.034
   26A       N7  814   3.708   3.610   4.857
   26A       C5  815   3.596   3.584   4.777
   26A       C6  816   3.544   3.642   4.659
   26A       N6  817   3.601   3.742   4.595
   26A      H61  818   3.563   3.777   4.509
   26A      H62  819   3.692   3.770   4.627
   26A       N1  820   3.430   3.598   4.606
   26A       C2  821   3.368   3.498   4.667
   26A       H2  822   3.276   3.464   4.622
   26A       N3  823   3.404   3.435   4.779
   26A       C4  824   3.521   3.482   4.829
   26A      C3'  825   3.657   3.137   5.043
   26A      H3'  826   3.738   3.156   4.973
   26A      C2'  827   3.527   3.201   4.994
   26A      H2'  828   3.518   3.196   4.886
   26A      O2'  829   3.416   3.137   5.057
   26A     HO2'  830   3.446   3.045   5.069
   26A      O3'  831   3.638   2.999   5.072
   27A        P  832   3.703   2.886   4.980
   27A      OP1  833   3.660   2.755   5.033
   27A      OP2  834   3.848   2.915   4.969
   27A      O5'  835   3.629   2.911   4.841
   27A      C5'  836   3.493   2.874   4.825
   27A      H5'  837   3.434   2.916   4.906
   27A     H5''  838   3.486   2.765   4.830
   27A      C4'  839   3.431   2.921   4.693
   27A      H4'  840   3.328   2.885   4.689
   27A      O4'  841   3.426   3.062   4.686
   27A      C1'  842   3.448   3.102   4.551
   27A      H1'  843   3.363   3.160   4.515
   27A       N9  844   3.567   3.191   4.546
   27A       C8  845   3.674   3.196   4.631
   27A       H8  846   3.689   3.123   4.710
   27A       N7  847   3.755   3.297   4.611
   27A       C5  848   3.696   3.362   4.501
   27A       C6  849   3.728   3.476   4.423
   27A       N6  850   3.834   3.553   4.442
   27A      H61  851   3.849   3.630   4.378
   27A      H62  852   3.900   3.531   4.515
   27A       N1  853   3.651   3.514   4.321
   27A       C2  854   3.543   3.441   4.295
   27A       H2  855   3.483   3.473   4.212
   27A       N3  856   3.499   3.333   4.359
   27A       C4  857   3.582   3.298   4.461
   27A      C3'  858   3.502   2.867   4.568
   27A      H3'  859   3.610   2.868   4.583
   27A      C2'  860   3.460   2.975   4.466
   27A      H2'  861   3.536   2.987   4.388
   27A      O2'  862   3.331   2.952   4.411
   27A     HO2'  863   3.343   2.900   4.331
   27A      O3'  864   3.452   2.735   4.545
   28A        P  865   3.522   2.628   4.450
   28A      OP1  866   3.451   2.500   4.468
   28A      OP2  867   3.668   2.627   4.476
   28A      O5'  868   3.493   2.677   4.300
   28A      C5'  869   3.364   2.659   4.243
   28A      H5'  870   3.292   2.716   4.302
   28A     H5''  871   3.337   2.554   4.250
   28A      C4'  872   3.353   2.702   4.096
   28A      H4'  873   3.254   2.674   4.061
   28A      O4'  874   3.366   2.844   4.086
   28A      C1'  875   3.462   2.870   3.984
   28A      H1'  876   3.415   2.867   3.886
   28A       N9  877   3.523   3.004   4.004
   28A       C8  878   3.634   3.037   4.078
   28A       H8  879   3.690   2.966   4.137
   28A       N7  880   3.667   3.162   4.070
   28A       C5  881   3.570   3.218   3.986
   28A       C6  882   3.545   3.348   3.936
   28A       N6  883   3.620   3.454   3.960
   28A      H61  884   3.600   3.541   3.914
   28A      H62  885   3.711   3.440   4.003
   28A       N1  886   3.439   3.371   3.857
   28A       C2  887   3.363   3.267   3.825
   28A       H2  888   3.280   3.289   3.760
   28A       N3  889   3.374   3.140   3.863
   28A       C4  890   3.481   3.122   3.946
   28A      C3'  891   3.457   2.638   4.003
   28A      H3'  892   3.501   2.547   4.046
   28A      C2'  893   3.559   2.752   3.996
   28A      H2'  894   3.612   2.758   4.091
   28A      O2'  895   3.653   2.741   3.890
   28A     HO2'  896   3.715   2.815   3.894
   28A      O3'  897   3.395   2.617   3.877
   29A        P  898   3.384   2.475   3.806
   29A      OP1  899   3.251   2.418   3.839
   29A      OP2  900   3.504   2.392   3.829
   29A      O5'  901   3.381   2.516   3.650
   29A      C5'  902   3.484   2.597   3.593
   29A      H5'  903   3.541   2.538   3.521
   29A     H5''  904   3.552   2.635   3.669
   29A      C4'  905   3.419   2.716   3.520
   29A      H4'  906   3.323   2.683   3.481
   29A      O4'  907   3.395   2.826   3.608
   29A      C1'  908   3.420   2.949   3.540
   29A      H1'  909   3.337   3.019   3.553
   29A       N9  910   3.543   3.012   3.594
   29A       C8  911   3.645   2.954   3.663
   29A       H8  912   3.649   2.848   3.681
   29A       N7  913   3.736   3.036   3.707
   29A       C5  914   3.692   3.161   3.659
   29A       C6  915   3.739   3.295   3.667
   29A       N6  916   3.848   3.334   3.730
   29A      H61  917   3.871   3.433   3.731
   29A      H62  918   3.909   3.268   3.776
   29A       N1  919   3.672   3.393   3.606
   29A       C2  920   3.561   3.363   3.540
   29A       H2  921   3.511   3.446   3.493
   29A       N3  922   3.504   3.244   3.525
   29A       C4  923   3.575   3.146   3.588
   29A      C3'  924   3.499   2.772   3.402
   29A      H3'  925   3.605   2.777   3.427
   29A      C2'  926   3.437   2.912   3.393
   29A      H2'  927   3.503   2.982   3.342
   29A      O2'  928   3.309   2.905   3.329
   29A     HO2'  929   3.323   2.844   3.255
   29A      O3'  930   3.475   2.698   3.283
   30C        P  931   3.583   2.692   3.165
   30C      OP1  932   3.519   2.625   3.049
   30C      OP2  933   3.712   2.643   3.217
   30C      O5'  934   3.607   2.844   3.127
   30C      C5'  935   3.518   2.915   3.042
   30C      H5'  936   3.418   2.913   3.084
   30C     H5''  937   3.516   2.867   2.944
   30C      C4'  938   3.563   3.060   3.026
   30C      H4'  939   3.492   3.110   2.960
   30C      O4'  940   3.568   3.130   3.149
   30C      C1'  941   3.676   3.224   3.146
   30C      H1'  942   3.639   3.326   3.163
   30C       N1  943   3.780   3.194   3.249
   30C       C6  944   3.792   3.070   3.307
   30C       H6  945   3.728   2.989   3.274
   30C       C5  946   3.883   3.049   3.405
   30C       H5  947   3.891   2.952   3.452
   30C       C4  948   3.963   3.159   3.445
   30C       N4  949   4.049   3.147   3.543
   30C      H41  950   4.040   3.070   3.606
   30C      H42  951   4.088   3.234   3.579
   30C       N3  952   3.954   3.278   3.389
   30C       C2  953   3.863   3.298   3.291
   30C       O2  954   3.856   3.410   3.240
   30C      C3'  955   3.702   3.073   2.963
   30C      H3'  956   3.770   3.004   3.012
   30C      C2'  957   3.734   3.217   3.004
   30C      H2'  958   3.842   3.236   3.004
   30C      O2'  959   3.665   3.309   2.921
   30C     HO2'  960   3.674   3.273   2.831
   30C      O3'  961   3.698   3.055   2.822
   31A        P  962   3.825   3.001   2.743
   31A      OP1  963   3.787   2.973   2.603
   31A      OP2  964   3.890   2.895   2.823
   31A      O5'  965   3.923   3.128   2.741
   31A      C5'  966   3.895   3.242   2.660
   31A      H5'  967   3.817   3.302   2.707
   31A     H5''  968   3.859   3.209   2.563
   31A      C4'  969   4.019   3.329   2.638
   31A      H4'  970   3.993   3.407   2.565
   31A      O4'  971   4.060   3.391   2.759
   31A      C1'  972   4.189   3.344   2.795
   31A      H1'  973   4.265   3.420   2.772
   31A       N9  974   4.192   3.312   2.940
   31A       C8  975   4.122   3.213   3.005
   31A       H8  976   4.048   3.152   2.956
   31A       N7  977   4.154   3.197   3.130
   31A       C5  978   4.252   3.296   3.151
   31A       C6  979   4.335   3.334   3.259
   31A       N6  980   4.333   3.277   3.378
   31A      H61  981   4.396   3.312   3.449
   31A      H62  982   4.254   3.219   3.402
   31A       N1  983   4.426   3.431   3.246
   31A       C2  984   4.433   3.493   3.129
   31A       H2  985   4.506   3.572   3.122
   31A       N3  986   4.363   3.469   3.018
   31A       C4  987   4.274   3.368   3.035
   31A      C3'  988   4.136   3.248   2.582
   31A      H3'  989   4.101   3.154   2.538
   31A      C2'  990   4.217   3.220   2.709
   31A      H2'  991   4.174   3.132   2.757
   31A      O2'  992   4.354   3.197   2.685
   31A     HO2'  993   4.403   3.192   2.769
   31A      O3'  994   4.203   3.327   2.486
   32A        P  995   4.221   3.272   2.338
   32A      OP1  996   4.091   3.288   2.268
   32A      OP2  997   4.282   3.138   2.345
   32A      O5'  998   4.327   3.377   2.278
   32A      C5'  999   4.282   3.493   2.210
   32A      H5' 1000   4.198   3.536   2.266
   32A     H5'' 1001   4.247   3.464   2.112
   32A      C4' 1002   4.389   3.602   2.195
   32A      H4' 1003   4.352   3.674   2.123
   32A      O4' 1004   4.410   3.673   2.317
   32A      C1' 1005   4.548   3.705   2.329
   32A      H1' 1006   4.563   3.811   2.348
   32A       N9 1007   4.608   3.629   2.442
   32A       C8 1008   4.563   3.515   2.505
   32A       H8 1009   4.475   3.460   2.472
   32A       N7 1010   4.633   3.480   2.609
   32A       C5 1011   4.732   3.578   2.617
   32A       C6 1012   4.838   3.606   2.707
   32A       N6 1013   4.865   3.539   2.817
   32A      H61 1014   4.932   3.578   2.881
   32A      H62 1015   4.804   3.462   2.843
   32A       N1 1016   4.918   3.711   2.687
   32A       C2 1017   4.895   3.788   2.582
   32A       H2 1018   4.962   3.872   2.569
   32A       N3 1019   4.798   3.777   2.491
   32A       C4 1020   4.719   3.668   2.514
   32A      C3' 1021   4.526   3.553   2.145
   32A      H3' 1022   4.553   3.459   2.193
   32A      C2' 1023   4.614   3.668   2.196
   32A      H2' 1024   4.716   3.636   2.212
   32A      O2' 1025   4.612   3.779   2.106
   32A     HO2' 1026   4.596   3.739   2.020
   32A      O3' 1027   4.534   3.548   2.003
   33G3       P 1028   4.588   3.418   1.927
   33G3     OP1 1029   4.619   3.461   1.790
   33G3     OP2 1030   4.493   3.306   1.945
   33G3     O5' 1031   4.726   3.381   2.000
   33G3     C5' 1032   4.837   3.469   1.990
   33G3     H5' 1033   4.801   3.572   1.990
   33G3    H5'' 1034   4.887   3.451   1.896
   33G3     C4' 1035   4.936   3.455   2.106
   33G3     H4' 1036   5.011   3.534   2.097
   33G3     O4' 1037   4.872   3.472   2.232
   33G3     C1' 1038   4.939   3.396   2.330
   33G3     H1' 1039   4.976   3.459   2.412
   33G3      N9 1040   4.847   3.294   2.387
   33G3      C8 1041   4.743   3.228   2.326
   33G3      H8 1042   4.705   3.254   2.228
   33G3      N7 1043   4.697   3.126   2.395
   33G3      C5 1044   4.769   3.134   2.516
   33G3      C6 1045   4.765   3.054   2.635
   33G3      O6 1046   4.695   2.956   2.662
   33G3      N1 1047   4.857   3.092   2.730
   33G3      H1 1048   4.858   3.043   2.817
   33G3      C2 1049   4.944   3.195   2.714
   33G3      N2 1050   5.031   3.216   2.809
   33G3     H21 1051   5.033   3.156   2.891
   33G3     H22 1052   5.089   3.296   2.798
   33G3      N3 1053   4.954   3.270   2.605
   33G3      C4 1054   4.862   3.236   2.510
   33G3     C3' 1055   5.008   3.321   2.115
   33G3     H3' 1056   4.936   3.240   2.103
   33G3     C2' 1057   5.057   3.326   2.261
   33G3     H2' 1058   5.074   3.226   2.301
   33G3     O2' 1059   5.172   3.407   2.275
   33G3    HO2' 1060   5.236   3.380   2.208
   33G3     O3' 1061   5.117   3.307   2.023
   33G3    HO3' 1062   5.127   3.212   2.006
   8.09217   8.04338   8.05573
