Generic title
57072
    1C5    HO5'    1   3.406   5.445   3.660
    1C5     O5'    2   3.484   5.472   3.609
    1C5     C5'    3   3.600   5.431   3.680
    1C5     H5'    4   3.689   5.453   3.622
    1C5    H5''    5   3.596   5.324   3.698
    1C5     C4'    6   3.607   5.506   3.814
    1C5     H4'    7   3.636   5.609   3.794
    1C5     O4'    8   3.481   5.508   3.881
    1C5     C1'    9   3.500   5.483   4.020
    1C5     H1'   10   3.453   5.561   4.080
    1C5      N1   11   3.442   5.350   4.057
    1C5      C6   12   3.418   5.253   3.963
    1C5      H6   13   3.446   5.269   3.860
    1C5      C5   14   3.357   5.137   3.997
    1C5      H5   15   3.338   5.061   3.923
    1C5      C4   16   3.321   5.120   4.133
    1C5      N4   17   3.264   5.010   4.171
    1C5     H41   18   3.260   4.932   4.109
    1C5     H42   19   3.247   4.998   4.271
    1C5      N3   20   3.341   5.212   4.225
    1C5      C2   21   3.400   5.329   4.189
    1C5      O2   22   3.412   5.415   4.277
    1C5     C3'   23   3.711   5.448   3.909
    1C5     H3'   24   3.716   5.340   3.900
    1C5     C2'   25   3.651   5.488   4.044
    1C5     H2'   26   3.682   5.419   4.123
    1C5     O2'   27   3.691   5.621   4.073
    1C5    HO2'   28   3.776   5.628   4.025
    1C5     O3'   29   3.836   5.512   3.890
    2U        P   30   3.970   5.426   3.889
    2U      OP1   31   4.083   5.519   3.862
    2U      OP2   32   3.947   5.313   3.799
    2U      O5'   33   3.974   5.379   4.042
    2U      C5'   34   4.004   5.472   4.145
    2U      H5'   35   3.945   5.562   4.130
    2U     H5''   36   4.109   5.499   4.140
    2U      C4'   37   3.974   5.422   4.287
    2U      H4'   38   4.002   5.502   4.356
    2U      O4'   39   3.836   5.394   4.310
    2U      C1'   40   3.827   5.287   4.404
    2U      H1'   41   3.766   5.318   4.489
    2U       N1   42   3.762   5.167   4.343
    2U       C6   43   3.758   5.147   4.206
    2U       H6   44   3.814   5.212   4.141
    2U       C5   45   3.684   5.046   4.154
    2U       H5   46   3.682   5.030   4.047
    2U       C4   47   3.610   4.954   4.237
    2U       O4   48   3.536   4.865   4.197
    2U       N3   49   3.623   4.978   4.372
    2U       H3   50   3.584   4.909   4.435
    2U       C2   51   3.697   5.078   4.429
    2U       O2   52   3.702   5.089   4.551
    2U      C3'   53   4.052   5.299   4.331
    2U      H3'   54   4.048   5.222   4.254
    2U      C2'   55   3.969   5.259   4.454
    2U      H2'   56   3.984   5.155   4.481
    2U      O2'   57   3.995   5.346   4.564
    2U     HO2'   58   3.976   5.298   4.647
    2U      O3'   59   4.185   5.335   4.365
    3G        P   60   4.301   5.228   4.363
    3G      OP1   61   4.418   5.300   4.420
    3G      OP2   62   4.313   5.179   4.225
    3G      O5'   63   4.259   5.110   4.462
    3G      C5'   64   4.284   5.120   4.602
    3G      H5'   65   4.239   5.213   4.638
    3G     H5''   66   4.392   5.125   4.617
    3G      C4'   67   4.230   5.005   4.688
    3G      H4'   68   4.258   5.023   4.791
    3G      O4'   69   4.088   4.997   4.682
    3G      C1'   70   4.048   4.862   4.704
    3G      H1'   71   3.987   4.852   4.794
    3G       N9   72   3.969   4.812   4.590
    3G       C8   73   3.966   4.860   4.461
    3G       H8   74   4.027   4.942   4.428
    3G       N7   75   3.881   4.798   4.384
    3G       C5   76   3.829   4.697   4.465
    3G       C6   77   3.733   4.593   4.439
    3G       O6   78   3.668   4.571   4.337
    3G       N1   79   3.711   4.510   4.547
    3G       H1   80   3.647   4.433   4.535
    3G       C2   81   3.769   4.525   4.669
    3G       N2   82   3.734   4.439   4.760
    3G      H21   83   3.672   4.362   4.738
    3G      H22   84   3.776   4.441   4.854
    3G       N3   85   3.856   4.623   4.699
    3G       C4   86   3.883   4.705   4.592
    3G      C3'   87   4.283   4.866   4.652
    3G      H3'   88   4.278   4.853   4.543
    3G      C2'   89   4.176   4.779   4.720
    3G      H2'   90   4.167   4.684   4.667
    3G      O2'   91   4.196   4.757   4.859
    3G     HO2'   92   4.168   4.665   4.873
    3G      O3'   93   4.414   4.843   4.701
    4G        P   94   4.509   4.733   4.635
    4G      OP1   95   4.632   4.729   4.719
    4G      OP2   96   4.523   4.766   4.492
    4G      O5'   97   4.430   4.594   4.654
    4G      C5'   98   4.431   4.528   4.780
    4G      H5'   99   4.415   4.603   4.857
    4G     H5''  100   4.530   4.483   4.795
    4G      C4'  101   4.325   4.421   4.802
    4G      H4'  102   4.328   4.394   4.907
    4G      O4'  103   4.193   4.468   4.773
    4G      C1'  104   4.115   4.357   4.728
    4G      H1'  105   4.022   4.350   4.785
    4G       N9  106   4.078   4.371   4.585
    4G       C8  107   4.122   4.461   4.491
    4G       H8  108   4.199   4.534   4.512
    4G       N7  109   4.061   4.453   4.376
    4G       C5  110   3.972   4.346   4.393
    4G       C6  111   3.873   4.288   4.306
    4G       O6  112   3.836   4.320   4.193
    4G       N1  113   3.806   4.181   4.362
    4G       H1  114   3.736   4.135   4.306
    4G       C2  115   3.827   4.137   4.488
    4G       N2  116   3.756   4.036   4.529
    4G      H21  117   3.689   3.991   4.467
    4G      H22  118   3.767   4.011   4.626
    4G       N3  119   3.913   4.191   4.574
    4G       C4  120   3.984   4.295   4.520
    4G      C3'  121   4.342   4.290   4.725
    4G      H3'  122   4.358   4.312   4.619
    4G      C2'  123   4.201   4.232   4.748
    4G      H2'  124   4.178   4.154   4.675
    4G      O2'  125   4.179   4.186   4.882
    4G     HO2'  126   4.083   4.176   4.894
    4G      O3'  127   4.448   4.211   4.778
    5G        P  128   4.516   4.097   4.693
    5G      OP1  129   4.613   4.027   4.780
    5G      OP2  130   4.566   4.154   4.566
    5G      O5'  131   4.401   3.993   4.657
    5G      C5'  132   4.346   3.909   4.757
    5G      H5'  133   4.301   3.970   4.836
    5G     H5''  134   4.425   3.849   4.800
    5G      C4'  135   4.239   3.815   4.701
    5G      H4'  136   4.206   3.749   4.782
    5G      O4'  137   4.125   3.882   4.650
    5G      C1'  138   4.074   3.806   4.541
    5G      H1'  139   3.970   3.777   4.559
    5G       N9  140   4.079   3.889   4.418
    5G       C8  141   4.161   3.995   4.390
    5G       H8  142   4.236   4.030   4.460
    5G       N7  143   4.141   4.049   4.274
    5G       C5  144   4.035   3.975   4.219
    5G       C6  145   3.962   3.987   4.096
    5G       O6  146   3.971   4.069   4.005
    5G       N1  147   3.864   3.891   4.081
    5G       H1  148   3.812   3.893   3.995
    5G       C2  149   3.835   3.797   4.173
    5G       N2  150   3.737   3.715   4.144
    5G      H21  151   3.697   3.717   4.051
    5G      H22  152   3.716   3.641   4.210
    5G       N3  153   3.897   3.784   4.291
    5G       C4  154   3.997   3.876   4.308
    5G      C3'  155   4.292   3.728   4.588
    5G      H3'  156   4.345   3.790   4.516
    5G      C2'  157   4.160   3.679   4.528
    5G      H2'  158   4.173   3.650   4.423
    5G      O2'  159   4.098   3.576   4.603
    5G     HO2'  160   4.161   3.503   4.614
    5G      O3'  161   4.380   3.628   4.640
    6U        P  162   4.468   3.536   4.545
    6U      OP1  163   4.593   3.505   4.618
    6U      OP2  164   4.477   3.600   4.412
    6U      O5'  165   4.377   3.405   4.542
    6U      C5'  166   4.368   3.325   4.659
    6U      H5'  167   4.346   3.389   4.744
    6U     H5''  168   4.464   3.276   4.677
    6U      C4'  169   4.258   3.219   4.651
    6U      H4'  170   4.253   3.168   4.747
    6U      O4'  171   4.132   3.278   4.626
    6U      C1'  172   4.055   3.190   4.545
    6U      H1'  173   3.961   3.163   4.594
    6U       N1  174   4.022   3.250   4.412
    6U       C6  175   4.092   3.359   4.361
    6U       H6  176   4.178   3.396   4.414
    6U       C5  177   4.052   3.420   4.247
    6U       H5  178   4.105   3.506   4.209
    6U       C4  179   3.936   3.375   4.174
    6U       O4  180   3.888   3.428   4.074
    6U       N3  181   3.879   3.262   4.226
    6U       H3  182   3.799   3.227   4.176
    6U       C2  183   3.915   3.197   4.341
    6U       O2  184   3.853   3.096   4.375
    6U      C3'  185   4.282   3.113   4.544
    6U      H3'  186   4.320   3.159   4.453
    6U      C2'  187   4.138   3.063   4.527
    6U      H2'  188   4.123   3.021   4.428
    6U      O2'  189   4.109   2.967   4.627
    6U     HO2'  190   4.192   2.921   4.642
    6U      O3'  191   4.365   3.007   4.592
    7C        P  192   4.463   2.927   4.494
    7C      OP1  193   4.486   2.797   4.560
    7C      OP2  194   4.578   3.015   4.463
    7C      O5'  195   4.377   2.904   4.361
    7C      C5'  196   4.280   2.802   4.351
    7C      H5'  197   4.213   2.807   4.437
    7C     H5''  198   4.330   2.705   4.352
    7C      C4'  199   4.195   2.813   4.223
    7C      H4'  200   4.122   2.732   4.223
    7C      O4'  201   4.124   2.936   4.214
    7C      C1'  202   4.117   2.979   4.079
    7C      H1'  203   4.012   2.988   4.047
    7C       N1  204   4.185   3.110   4.059
    7C       C6  205   4.285   3.153   4.143
    7C       H6  206   4.315   3.093   4.227
    7C       C5  207   4.348   3.272   4.120
    7C       H5  208   4.427   3.305   4.186
    7C       C4  209   4.305   3.346   4.007
    7C       N4  210   4.363   3.459   3.976
    7C      H41  211   4.438   3.494   4.032
    7C      H42  212   4.333   3.501   3.889
    7C       N3  213   4.207   3.307   3.929
    7C       C2  214   4.144   3.190   3.952
    7C       O2  215   4.052   3.155   3.878
    7C      C3'  216   4.277   2.801   4.095
    7C      H3'  217   4.370   2.856   4.105
    7C      C2'  218   4.184   2.870   3.995
    7C      H2'  219   4.241   2.913   3.911
    7C      O2'  220   4.086   2.779   3.948
    7C     HO2'  221   4.130   2.694   3.943
    7C      O3'  222   4.297   2.664   4.059
    8G        P  223   4.440   2.615   4.015
    8G      OP1  224   4.430   2.476   3.964
    8G      OP2  225   4.537   2.644   4.121
    8G      O5'  226   4.475   2.708   3.891
    8G      C5'  227   4.407   2.690   3.767
    8G      H5'  228   4.300   2.694   3.784
    8G     H5''  229   4.432   2.592   3.727
    8G      C4'  230   4.444   2.795   3.663
    8G      H4'  231   4.400   2.766   3.568
    8G      O4'  232   4.397   2.925   3.697
    8G      C1'  233   4.481   3.020   3.631
    8G      H1'  234   4.424   3.078   3.558
    8G       N9  235   4.537   3.114   3.730
    8G       C8  236   4.570   3.092   3.862
    8G       H8  237   4.547   2.999   3.912
    8G       N7  238   4.634   3.190   3.919
    8G       C5  239   4.641   3.288   3.818
    8G       C6  240   4.702   3.419   3.816
    8G       O6  241   4.762   3.478   3.906
    8G       N1  242   4.690   3.482   3.694
    8G       H1  243   4.746   3.565   3.680
    8G       C2  244   4.622   3.431   3.588
    8G       N2  245   4.610   3.505   3.481
    8G      H21  246   4.639   3.601   3.483
    8G      H22  247   4.546   3.471   3.410
    8G       N3  248   4.565   3.310   3.585
    8G       C4  249   4.579   3.243   3.704
    8G      C3'  250   4.594   2.811   3.643
    8G      H3'  251   4.639   2.830   3.740
    8G      C2'  252   4.593   2.941   3.561
    8G      H2'  253   4.689   2.992   3.568
    8G      O2'  254   4.557   2.920   3.425
    8G     HO2'  255   4.593   2.994   3.373
    8G      O3'  256   4.653   2.697   3.581
    9C        P  257   4.797   2.646   3.624
    9C      OP1  258   4.831   2.525   3.548
    9C      OP2  259   4.809   2.643   3.772
    9C      O5'  260   4.895   2.760   3.573
    9C      C5'  261   5.032   2.758   3.607
    9C      H5'  262   5.071   2.656   3.605
    9C     H5''  263   5.046   2.798   3.708
    9C      C4'  264   5.113   2.843   3.508
    9C      H4'  265   5.215   2.850   3.544
    9C      O4'  266   5.113   2.786   3.378
    9C      C1'  267   5.109   2.891   3.281
    9C      H1'  268   5.195   2.885   3.215
    9C       N1  269   4.983   2.886   3.200
    9C       C6  270   4.872   2.815   3.241
    9C       H6  271   4.870   2.766   3.337
    9C       C5  272   4.763   2.806   3.160
    9C       H5  273   4.677   2.751   3.193
    9C       C4  274   4.769   2.872   3.035
    9C       N4  275   4.668   2.865   2.953
    9C      H41  276   4.582   2.826   2.985
    9C      H42  277   4.674   2.913   2.863
    9C       N3  278   4.874   2.940   2.994
    9C       C2  279   4.982   2.949   3.076
    9C       O2  280   5.079   3.013   3.034
    9C      C3'  281   5.058   2.985   3.494
    9C      H3'  282   4.949   2.983   3.486
    9C      C2'  283   5.119   3.023   3.359
    9C      H2'  284   5.060   3.102   3.312
    9C      O2'  285   5.255   3.060   3.373
    9C     HO2'  286   5.260   3.113   3.454
    9C      O3'  287   5.102   3.072   3.597
   10A        P  288   5.004   3.182   3.655
   10A      OP1  289   5.080   3.253   3.760
   10A      OP2  290   4.880   3.111   3.691
   10A      O5'  291   4.981   3.278   3.529
   10A      C5'  292   5.084   3.362   3.481
   10A      H5'  293   5.176   3.305   3.472
   10A     H5''  294   5.101   3.442   3.552
   10A      C4'  295   5.052   3.424   3.345
   10A      H4'  296   5.139   3.482   3.314
   10A      O4'  297   5.026   3.327   3.244
   10A      C1'  298   4.916   3.368   3.164
   10A      H1'  299   4.943   3.365   3.058
   10A       N9  300   4.799   3.279   3.184
   10A       C8  301   4.761   3.206   3.293
   10A       H8  302   4.813   3.208   3.388
   10A       N7  303   4.657   3.130   3.273
   10A       C5  304   4.619   3.161   3.142
   10A       C6  305   4.514   3.122   3.057
   10A       N6  306   4.418   3.038   3.090
   10A      H61  307   4.338   3.033   3.030
   10A      H62  308   4.411   3.011   3.187
   10A       N1  309   4.503   3.170   2.933
   10A       C2  310   4.595   3.258   2.893
   10A       H2  311   4.584   3.294   2.793
   10A       N3  312   4.700   3.303   2.961
   10A       C4  313   4.705   3.252   3.087
   10A      C3'  314   4.934   3.521   3.347
   10A      H3'  315   4.857   3.486   3.416
   10A      C2'  316   4.885   3.512   3.203
   10A      H2'  317   4.778   3.534   3.196
   10A      O2'  318   4.960   3.599   3.118
   10A     HO2'  319   4.976   3.678   3.172
   10A      O3'  320   4.978   3.653   3.375
   11G        P  321   4.928   3.732   3.504
   11G      OP1  322   5.017   3.850   3.518
   11G      OP2  323   4.918   3.637   3.616
   11G      O5'  324   4.781   3.779   3.463
   11G      C5'  325   4.757   3.843   3.338
   11G      H5'  326   4.754   3.768   3.259
   11G     H5''  327   4.837   3.914   3.317
   11G      C4'  328   4.624   3.920   3.335
   11G      H4'  329   4.611   3.960   3.235
   11G      O4'  330   4.516   3.832   3.365
   11G      C1'  331   4.444   3.883   3.476
   11G      H1'  332   4.361   3.945   3.441
   11G       N9  333   4.389   3.770   3.555
   11G       C8  334   4.428   3.720   3.677
   11G       H8  335   4.506   3.765   3.737
   11G       N7  336   4.368   3.609   3.711
   11G       C5  337   4.277   3.588   3.608
   11G       C6  338   4.182   3.483   3.584
   11G       O6  339   4.163   3.379   3.644
   11G       N1  340   4.105   3.503   3.472
   11G       H1  341   4.036   3.432   3.452
   11G       C2  342   4.122   3.605   3.386
   11G       N2  343   4.046   3.605   3.279
   11G      H21  344   3.974   3.533   3.269
   11G      H22  345   4.058   3.680   3.215
   11G       N3  346   4.212   3.702   3.399
   11G       C4  347   4.286   3.689   3.514
   11G      C3'  348   4.621   4.035   3.436
   11G      H3'  349   4.721   4.062   3.470
   11G      C2'  350   4.543   3.971   3.551
   11G      H2'  351   4.612   3.908   3.607
   11G      O2'  352   4.482   4.064   3.639
   11G     HO2'  353   4.438   4.132   3.587
   11G      O3'  354   4.555   4.147   3.378
   12U        P  355   4.630   4.234   3.265
   12U      OP1  356   4.563   4.212   3.135
   12U      OP2  357   4.775   4.206   3.274
   12U      O5'  358   4.610   4.387   3.306
   12U      C5'  359   4.644   4.436   3.435
   12U      H5'  360   4.719   4.371   3.480
   12U     H5''  361   4.556   4.432   3.497
   12U      C4'  362   4.700   4.579   3.433
   12U      H4'  363   4.710   4.612   3.537
   12U      O4'  364   4.828   4.576   3.370
   12U      C1'  365   4.821   4.658   3.254
   12U      H1'  366   4.853   4.758   3.282
   12U       N1  367   4.906   4.609   3.143
   12U       C6  368   4.902   4.477   3.103
   12U       H6  369   4.840   4.407   3.159
   12U       C5  370   4.977   4.434   2.998
   12U       H5  371   4.973   4.330   2.969
   12U       C4  372   5.063   4.525   2.925
   12U       O4  373   5.134   4.495   2.829
   12U       N3  374   5.060   4.654   2.969
   12U       H3  375   5.117   4.720   2.921
   12U       C2  376   4.985   4.702   3.075
   12U       O2  377   4.992   4.822   3.103
   12U      C3'  378   4.615   4.682   3.355
   12U      H3'  379   4.509   4.658   3.359
   12U      C2'  380   4.673   4.666   3.214
   12U      H2'  381   4.639   4.574   3.168
   12U      O2'  382   4.646   4.779   3.132
   12U     HO2'  383   4.633   4.851   3.195
   12U      O3'  384   4.642   4.819   3.389
   13A        P  385   4.586   4.888   3.520
   13A      OP1  386   4.606   5.033   3.500
   13A      OP2  387   4.651   4.824   3.637
   13A      O5'  388   4.432   4.853   3.510
   13A      C5'  389   4.343   4.872   3.619
   13A      H5'  390   4.340   4.977   3.646
   13A     H5''  391   4.378   4.813   3.704
   13A      C4'  392   4.201   4.826   3.583
   13A      H4'  393   4.134   4.852   3.664
   13A      O4'  394   4.154   4.886   3.462
   13A      C1'  395   4.059   4.799   3.402
   13A      H1'  396   3.959   4.841   3.414
   13A       N9  397   4.085   4.783   3.256
   13A       C8  398   4.024   4.853   3.155
   13A       H8  399   3.946   4.926   3.176
   13A       N7  400   4.067   4.828   3.034
   13A       C5  401   4.166   4.730   3.058
   13A       C6  402   4.255   4.658   2.975
   13A       N6  403   4.264   4.673   2.845
   13A      H61  404   4.334   4.620   2.796
   13A      H62  405   4.208   4.743   2.800
   13A       N1  406   4.339   4.566   3.024
   13A       C2  407   4.336   4.546   3.156
   13A       H2  408   4.404   4.472   3.194
   13A       N3  409   4.260   4.607   3.245
   13A       C4  410   4.176   4.700   3.192
   13A      C3'  411   4.190   4.675   3.561
   13A      H3'  412   4.272   4.641   3.498
   13A      C2'  413   4.057   4.670   3.485
   13A      H2'  414   4.048   4.581   3.424
   13A      O2'  415   3.948   4.684   3.575
   13A     HO2'  416   3.962   4.618   3.644
   13A      O3'  417   4.181   4.601   3.683
   14A        P  418   4.283   4.481   3.716
   14A      OP1  419   4.275   4.453   3.860
   14A      OP2  420   4.414   4.515   3.658
   14A      O5'  421   4.223   4.355   3.636
   14A      C5'  422   4.235   4.345   3.495
   14A      H5'  423   4.337   4.318   3.469
   14A     H5''  424   4.212   4.440   3.449
   14A      C4'  425   4.138   4.242   3.435
   14A      H4'  426   4.135   4.259   3.327
   14A      O4'  427   4.184   4.108   3.455
   14A      C1'  428   4.071   4.023   3.472
   14A      H1'  429   4.071   3.943   3.397
   14A       N9  430   4.076   3.960   3.606
   14A       C8  431   4.162   3.985   3.710
   14A       H8  432   4.228   4.071   3.712
   14A       N7  433   4.160   3.895   3.805
   14A       C5  434   4.059   3.808   3.763
   14A       C6  435   3.999   3.690   3.816
   14A       N6  436   4.032   3.635   3.931
   14A      H61  437   3.984   3.550   3.959
   14A      H62  438   4.108   3.675   3.983
   14A       N1  439   3.904   3.625   3.749
   14A       C2  440   3.865   3.675   3.633
   14A       H2  441   3.788   3.620   3.581
   14A       N3  442   3.909   3.784   3.571
   14A       C4  443   4.007   3.847   3.643
   14A      C3'  444   3.994   4.251   3.486
   14A      H3'  445   3.994   4.265   3.594
   14A      C2'  446   3.945   4.109   3.453
   14A      H2'  447   3.866   4.078   3.521
   14A      O2'  448   3.901   4.103   3.317
   14A     HO2'  449   3.849   4.184   3.306
   14A      O3'  450   3.918   4.352   3.420
   15C        P  451   3.768   4.387   3.465
   15C      OP1  452   3.737   4.528   3.432
   15C      OP2  453   3.742   4.337   3.601
   15C      O5'  454   3.679   4.301   3.364
   15C      C5'  455   3.549   4.347   3.334
   15C      H5'  456   3.554   4.449   3.297
   15C     H5''  457   3.490   4.346   3.426
   15C      C4'  458   3.474   4.266   3.228
   15C      H4'  459   3.374   4.309   3.220
   15C      O4'  460   3.539   4.277   3.102
   15C      C1'  461   3.555   4.146   3.050
   15C      H1'  462   3.463   4.115   2.999
   15C       N1  463   3.667   4.140   2.951
   15C       C6  464   3.786   4.077   2.979
   15C       H6  465   3.804   4.031   3.075
   15C       C5  466   3.884   4.071   2.885
   15C       H5  467   3.977   4.022   2.907
   15C       C4  468   3.858   4.132   2.760
   15C       N4  469   3.951   4.131   2.668
   15C      H41  470   4.041   4.094   2.693
   15C      H42  471   3.934   4.183   2.584
   15C       N3  472   3.746   4.196   2.730
   15C       C2  473   3.648   4.199   2.825
   15C       O2  474   3.543   4.256   2.795
   15C      C3'  475   3.461   4.118   3.265
   15C      H3'  476   3.484   4.100   3.370
   15C      C2'  477   3.567   4.057   3.174
   15C      H2'  478   3.664   4.073   3.222
   15C      O2'  479   3.548   3.920   3.143
   15C     HO2'  480   3.555   3.869   3.225
   15C      O3'  481   3.330   4.074   3.231
   16C        P  482   3.210   4.092   3.332
   16C      OP1  483   3.087   4.054   3.258
   16C      OP2  484   3.220   4.228   3.391
   16C      O5'  485   3.243   3.981   3.443
   16C      C5'  486   3.211   3.845   3.421
   16C      H5'  487   3.256   3.813   3.327
   16C     H5''  488   3.103   3.836   3.412
   16C      C4'  489   3.258   3.749   3.531
   16C      H4'  490   3.206   3.654   3.516
   16C      O4'  491   3.397   3.719   3.526
   16C      C1'  492   3.447   3.707   3.660
   16C      H1'  493   3.507   3.616   3.671
   16C       N1  494   3.533   3.824   3.695
   16C       C6  495   3.541   3.935   3.614
   16C       H6  496   3.478   3.941   3.526
   16C       C5  497   3.626   4.035   3.643
   16C       H5  498   3.631   4.122   3.579
   16C       C4  499   3.709   4.021   3.757
   16C       N4  500   3.789   4.119   3.789
   16C      H41  501   3.791   4.202   3.730
   16C      H42  502   3.854   4.106   3.866
   16C       N3  503   3.702   3.917   3.838
   16C       C2  504   3.614   3.817   3.810
   16C       O2  505   3.605   3.723   3.888
   16C      C3'  506   3.224   3.792   3.674
   16C      H3'  507   3.252   3.896   3.689
   16C      C2'  508   3.322   3.698   3.748
   16C      H2'  509   3.342   3.732   3.850
   16C      O2'  510   3.279   3.562   3.747
   16C     HO2'  511   3.342   3.508   3.798
   16C      O3'  512   3.087   3.770   3.704
   17C        P  513   3.013   3.849   3.822
   17C      OP1  514   2.878   3.788   3.834
   17C      OP2  515   3.023   3.994   3.796
   17C      O5'  516   3.094   3.815   3.954
   17C      C5'  517   3.085   3.687   4.014
   17C      H5'  518   3.118   3.611   3.944
   17C     H5''  519   2.981   3.668   4.040
   17C      C4'  520   3.167   3.677   4.142
   17C      H4'  521   3.143   3.581   4.188
   17C      O4'  522   3.307   3.680   4.120
   17C      C1'  523   3.369   3.748   4.229
   17C      H1'  524   3.451   3.688   4.271
   17C       N1  525   3.426   3.879   4.183
   17C       C6  526   3.394   3.932   4.060
   17C       H6  527   3.318   3.885   4.000
   17C       C5  528   3.459   4.041   4.013
   17C       H5  529   3.434   4.081   3.916
   17C       C4  530   3.561   4.096   4.095
   17C       N4  531   3.625   4.202   4.053
   17C      H41  532   3.627   4.219   3.954
   17C      H42  533   3.703   4.236   4.109
   17C       N3  534   3.589   4.051   4.215
   17C       C2  535   3.524   3.941   4.261
   17C       O2  536   3.551   3.900   4.374
   17C      C3'  537   3.135   3.785   4.245
   17C      H3'  538   3.137   3.884   4.198
   17C      C2'  539   3.259   3.765   4.335
   17C      H2'  540   3.277   3.852   4.398
   17C      O2'  541   3.248   3.646   4.411
   17C     HO2'  542   3.321   3.640   4.476
   17C      O3'  543   3.011   3.760   4.309
   18C        P  544   2.928   3.872   4.386
   18C      OP1  545   2.811   3.801   4.442
   18C      OP2  546   2.902   3.985   4.295
   18C      O5'  547   3.022   3.923   4.505
   18C      C5'  548   3.045   3.844   4.620
   18C      H5'  549   3.080   3.745   4.589
   18C     H5''  550   2.952   3.832   4.675
   18C      C4'  551   3.150   3.904   4.714
   18C      H4'  552   3.157   3.839   4.802
   18C      O4'  553   3.280   3.909   4.654
   18C      C1'  554   3.350   4.023   4.702
   18C      H1'  555   3.447   3.994   4.744
   18C       N1  556   3.374   4.122   4.593
   18C       C6  557   3.305   4.117   4.474
   18C       H6  558   3.224   4.046   4.463
   18C       C5  559   3.336   4.199   4.372
   18C       H5  560   3.282   4.193   4.279
   18C       C4  561   3.442   4.291   4.393
   18C       N4  562   3.479   4.370   4.296
   18C      H41  563   3.451   4.347   4.204
   18C      H42  564   3.558   4.431   4.315
   18C       N3  565   3.509   4.301   4.506
   18C       C2  566   3.477   4.217   4.608
   18C       O2  567   3.538   4.229   4.713
   18C      C3'  568   3.120   4.046   4.765
   18C      H3'  569   3.091   4.110   4.682
   18C      C2'  570   3.262   4.081   4.814
   18C      H2'  571   3.276   4.188   4.822
   18C      O2'  572   3.297   4.013   4.934
   18C     HO2'  573   3.337   4.076   4.997
   18C      O3'  574   3.022   4.048   4.869
   19A        P  575   2.934   4.178   4.902
   19A      OP1  576   2.852   4.145   5.021
   19A      OP2  577   2.860   4.220   4.781
   19A      O5'  578   3.036   4.295   4.946
   19A      C5'  579   3.100   4.291   5.073
   19A      H5'  580   3.132   4.189   5.092
   19A     H5''  581   3.029   4.318   5.151
   19A      C4'  582   3.223   4.381   5.088
   19A      H4'  583   3.271   4.355   5.183
   19A      O4'  584   3.318   4.354   4.985
   19A      C1'  585   3.389   4.473   4.953
   19A      H1'  586   3.497   4.455   4.956
   19A       N9  587   3.352   4.518   4.816
   19A       C8  588   3.263   4.459   4.729
   19A       H8  589   3.199   4.377   4.759
   19A       N7  590   3.263   4.508   4.608
   19A       C5  591   3.360   4.609   4.616
   19A       C6  592   3.415   4.700   4.524
   19A       N6  593   3.385   4.703   4.395
   19A      H61  594   3.445   4.757   4.335
   19A      H62  595   3.331   4.625   4.361
   19A       N1  596   3.507   4.790   4.560
   19A       C2  597   3.548   4.788   4.687
   19A       H2  598   3.623   4.861   4.713
   19A       N3  599   3.509   4.706   4.784
   19A       C4  600   3.413   4.618   4.742
   19A      C3'  601   3.203   4.533   5.089
   19A      H3'  602   3.137   4.562   5.007
   19A      C2'  603   3.348   4.574   5.061
   19A      H2'  604   3.354   4.677   5.024
   19A      O2'  605   3.433   4.554   5.173
   19A     HO2'  606   3.524   4.573   5.145
   19A      O3'  607   3.155   4.584   5.214
   20G        P  608   3.096   4.731   5.229
   20G      OP1  609   3.061   4.753   5.371
   20G      OP2  610   2.987   4.746   5.131
   20G      O5'  611   3.207   4.840   5.191
   20G      C5'  612   3.323   4.862   5.270
   20G      H5'  613   3.385   4.773   5.270
   20G     H5''  614   3.294   4.883   5.373
   20G      C4'  615   3.409   4.980   5.220
   20G      H4'  616   3.500   4.984   5.280
   20G      O4'  617   3.441   4.960   5.083
   20G      C1'  618   3.382   5.062   5.005
   20G      H1'  619   3.458   5.136   4.981
   20G       N9  620   3.325   5.009   4.880
   20G       C8  621   3.239   4.904   4.862
   20G       H8  622   3.208   4.840   4.944
   20G       N7  623   3.196   4.890   4.740
   20G       C5  624   3.262   4.991   4.670
   20G       C6  625   3.257   5.029   4.532
   20G       O6  626   3.190   4.982   4.440
   20G       N1  627   3.336   5.138   4.503
   20G       H1  628   3.339   5.168   4.407
   20G       C2  629   3.408   5.207   4.595
   20G       N2  630   3.466   5.317   4.551
   20G      H21  631   3.460   5.343   4.454
   20G      H22  632   3.517   5.373   4.618
   20G       N3  633   3.412   5.179   4.725
   20G       C4  634   3.340   5.067   4.756
   20G      C3'  635   3.336   5.115   5.229
   20G      H3'  636   3.259   5.115   5.306
   20G      C2'  637   3.273   5.125   5.090
   20G      H2'  638   3.182   5.065   5.086
   20G      O2'  639   3.246   5.260   5.056
   20G     HO2'  640   3.316   5.310   5.099
   20G      O3'  641   3.426   5.225   5.245
   21U        P  642   3.464   5.278   5.389
   21U      OP1  643   3.452   5.168   5.486
   21U      OP2  644   3.390   5.404   5.411
   21U      O5'  645   3.618   5.319   5.372
   21U      C5'  646   3.723   5.222   5.378
   21U      H5'  647   3.703   5.141   5.308
   21U     H5''  648   3.729   5.181   5.478
   21U      C4'  649   3.860   5.285   5.341
   21U      H4'  650   3.940   5.219   5.376
   21U      O4'  651   3.871   5.298   5.200
   21U      C1'  652   3.883   5.435   5.165
   21U      H1'  653   3.989   5.457   5.148
   21U       N1  654   3.804   5.465   5.044
   21U       C6  655   3.676   5.414   5.030
   21U       H6  656   3.635   5.352   5.109
   21U       C5  657   3.606   5.435   4.916
   21U       H5  658   3.507   5.392   4.904
   21U       C4  659   3.662   5.509   4.805
   21U       O4  660   3.606   5.532   4.699
   21U       N3  661   3.789   5.558   4.827
   21U       H3  662   3.835   5.600   4.749
   21U       C2  663   3.861   5.545   4.944
   21U       O2  664   3.967   5.607   4.957
   21U      C3'  665   3.878   5.425   5.401
   21U      H3'  666   3.813   5.438   5.487
   21U      C2'  667   3.835   5.516   5.286
   21U      H2'  668   3.726   5.523   5.284
   21U      O2'  669   3.893   5.645   5.296
   21U     HO2'  670   3.970   5.634   5.354
   21U      O3'  671   4.014   5.452   5.434
   22U        P  672   4.055   5.472   5.586
   22U      OP1  673   3.952   5.558   5.647
   22U      OP2  674   4.196   5.515   5.591
   22U      O5'  675   4.039   5.325   5.646
   22U      C5'  676   4.142   5.227   5.636
   22U      H5'  677   4.234   5.266   5.681
   22U     H5''  678   4.162   5.205   5.531
   22U      C4'  679   4.103   5.097   5.709
   22U      H4'  680   4.185   5.026   5.697
   22U      O4'  681   4.082   5.120   5.848
   22U      C1'  682   3.947   5.090   5.882
   22U      H1'  683   3.945   4.989   5.925
   22U       N1  684   3.897   5.189   5.981
   22U       C6  685   3.912   5.325   5.957
   22U       H6  686   3.956   5.357   5.864
   22U       C5  687   3.876   5.417   6.051
   22U       H5  688   3.892   5.522   6.031
   22U       C4  689   3.823   5.377   6.179
   22U       O4  690   3.787   5.454   6.269
   22U       N3  691   3.810   5.241   6.196
   22U       H3  692   3.777   5.209   6.284
   22U       C2  693   3.844   5.144   6.103
   22U       O2  694   3.825   5.026   6.130
   22U      C3'  695   3.973   5.036   5.652
   22U      H3'  696   3.953   5.072   5.552
   22U      C2'  697   3.868   5.087   5.751
   22U      H2'  698   3.838   5.188   5.723
   22U      O2'  699   3.757   5.000   5.755
   22U     HO2'  700   3.786   4.922   5.705
   22U      O3'  701   3.978   4.894   5.654
   23A        P  702   4.055   4.816   5.538
   23A      OP1  703   4.083   4.678   5.585
   23A      OP2  704   4.167   4.900   5.494
   23A      O5'  705   3.946   4.814   5.421
   23A      C5'  706   3.819   4.755   5.436
   23A      H5'  707   3.761   4.811   5.509
   23A     H5''  708   3.830   4.652   5.470
   23A      C4'  709   3.742   4.754   5.303
   23A      H4'  710   3.642   4.714   5.318
   23A      O4'  711   3.730   4.885   5.248
   23A      C1'  712   3.752   4.877   5.107
   23A      H1'  713   3.668   4.921   5.053
   23A       N9  714   3.873   4.953   5.073
   23A       C8  715   4.000   4.949   5.126
   23A       H8  716   4.028   4.880   5.204
   23A       N7  717   4.083   5.037   5.076
   23A       C5  718   4.003   5.104   4.982
   23A       C6  719   4.022   5.213   4.894
   23A       N6  720   4.134   5.283   4.885
   23A      H61  721   4.136   5.358   4.817
   23A      H62  722   4.212   5.258   4.944
   23A       N1  723   3.926   5.255   4.813
   23A       C2  724   3.809   5.191   4.818
   23A       H2  725   3.732   5.227   4.752
   23A       N3  726   3.774   5.092   4.899
   23A       C4  727   3.877   5.053   4.979
   23A      C3'  728   3.810   4.667   5.198
   23A      H3'  729   3.918   4.678   5.205
   23A      C2'  730   3.760   4.729   5.067
   23A      H2'  731   3.829   4.710   4.984
   23A      O2'  732   3.628   4.687   5.037
   23A     HO2'  733   3.607   4.700   4.942
   23A      O3'  734   3.769   4.534   5.214
   24A        P  735   3.858   4.414   5.161
   24A      OP1  736   3.999   4.447   5.193
   24A      OP2  737   3.819   4.384   5.023
   24A      O5'  738   3.805   4.303   5.264
   24A      C5'  739   3.839   4.315   5.401
   24A      H5'  740   3.821   4.417   5.434
   24A     H5''  741   3.945   4.293   5.413
   24A      C4'  742   3.760   4.222   5.494
   24A      H4'  743   3.798   4.238   5.595
   24A      O4'  744   3.619   4.249   5.497
   24A      C1'  745   3.550   4.126   5.516
   24A      H1'  746   3.487   4.131   5.605
   24A       N9  747   3.463   4.095   5.400
   24A       C8  748   3.473   4.136   5.270
   24A       H8  749   3.553   4.202   5.234
   24A       N7  750   3.378   4.091   5.193
   24A       C5  751   3.300   4.013   5.279
   24A       C6  752   3.182   3.934   5.264
   24A       N6  753   3.116   3.918   5.151
   24A      H61  754   3.039   3.854   5.147
   24A      H62  755   3.154   3.958   5.066
   24A       N1  756   3.127   3.873   5.369
   24A       C2  757   3.189   3.884   5.486
   24A       H2  758   3.144   3.831   5.569
   24A       N3  759   3.298   3.954   5.516
   24A       C4  760   3.350   4.016   5.406
   24A      C3'  761   3.777   4.074   5.463
   24A      H3'  762   3.771   4.056   5.355
   24A      C2'  763   3.655   4.017   5.537
   24A      H2'  764   3.625   3.922   5.494
   24A      O2'  765   3.682   4.005   5.677
   24A     HO2'  766   3.771   3.969   5.678
   24A      O3'  767   3.898   4.026   5.520
   25C        P  768   3.982   3.910   5.452
   25C      OP1  769   4.100   3.890   5.537
   25C      OP2  770   3.998   3.938   5.308
   25C      O5'  771   3.883   3.786   5.471
   25C      C5'  772   3.871   3.723   5.597
   25C      H5'  773   3.846   3.798   5.672
   25C     H5''  774   3.966   3.678   5.624
   25C      C4'  775   3.763   3.615   5.599
   25C      H4'  776   3.763   3.569   5.698
   25C      O4'  777   3.632   3.668   5.575
   25C      C1'  778   3.554   3.569   5.510
   25C      H1'  779   3.468   3.541   5.571
   25C       N1  780   3.505   3.615   5.376
   25C       C6  781   3.575   3.706   5.300
   25C       H6  782   3.670   3.744   5.336
   25C       C5  783   3.527   3.746   5.180
   25C       H5  784   3.583   3.816   5.120
   25C       C4  785   3.405   3.689   5.136
   25C       N4  786   3.352   3.723   5.022
   25C      H41  787   3.393   3.798   4.969
   25C      H42  788   3.267   3.678   4.995
   25C       N3  789   3.335   3.603   5.207
   25C       C2  790   3.383   3.566   5.328
   25C       O2  791   3.314   3.489   5.395
   25C      C3'  792   3.785   3.503   5.498
   25C      H3'  793   3.814   3.544   5.401
   25C      C2'  794   3.643   3.446   5.494
   25C      H2'  795   3.624   3.395   5.400
   25C      O2'  796   3.623   3.356   5.603
   25C     HO2'  797   3.707   3.307   5.607
   25C      O3'  798   3.878   3.407   5.545
   26A        P  799   3.948   3.304   5.447
   26A      OP1  800   4.016   3.205   5.534
   26A      OP2  801   4.028   3.381   5.351
   26A      O5'  802   3.824   3.232   5.375
   26A      C5'  803   3.817   3.215   5.234
   26A      H5'  804   3.868   3.123   5.206
   26A     H5''  805   3.863   3.299   5.182
   26A      C4'  806   3.669   3.208   5.191
   26A      H4'  807   3.614   3.157   5.270
   26A      O4'  808   3.613   3.337   5.174
   26A      C1'  809   3.524   3.339   5.063
   26A      H1'  810   3.424   3.371   5.093
   26A       N9  811   3.576   3.434   4.961
   26A       C8  812   3.686   3.516   4.971
   26A       H8  813   3.757   3.510   5.052
   26A       N7  814   3.697   3.604   4.875
   26A       C5  815   3.585   3.578   4.795
   26A       C6  816   3.533   3.636   4.677
   26A       N6  817   3.590   3.736   4.613
   26A      H61  818   3.552   3.771   4.527
   26A      H62  819   3.681   3.764   4.645
   26A       N1  820   3.419   3.592   4.624
   26A       C2  821   3.357   3.492   4.685
   26A       H2  822   3.265   3.458   4.640
   26A       N3  823   3.393   3.429   4.797
   26A       C4  824   3.510   3.476   4.847
   26A      C3'  825   3.646   3.131   5.061
   26A      H3'  826   3.727   3.150   4.991
   26A      C2'  827   3.516   3.195   5.012
   26A      H2'  828   3.507   3.190   4.904
   26A      O2'  829   3.405   3.131   5.075
   26A     HO2'  830   3.435   3.039   5.087
   26A      O3'  831   3.627   2.993   5.090
   27A        P  832   3.692   2.880   4.998
   27A      OP1  833   3.649   2.749   5.051
   27A      OP2  834   3.837   2.909   4.987
   27A      O5'  835   3.618   2.905   4.859
   27A      C5'  836   3.482   2.868   4.843
   27A      H5'  837   3.423   2.910   4.924
   27A     H5''  838   3.475   2.759   4.848
   27A      C4'  839   3.420   2.915   4.711
   27A      H4'  840   3.317   2.879   4.707
   27A      O4'  841   3.415   3.056   4.704
   27A      C1'  842   3.437   3.096   4.569
   27A      H1'  843   3.352   3.154   4.533
   27A       N9  844   3.556   3.185   4.564
   27A       C8  845   3.663   3.190   4.649
   27A       H8  846   3.678   3.117   4.728
   27A       N7  847   3.744   3.291   4.629
   27A       C5  848   3.685   3.356   4.519
   27A       C6  849   3.717   3.470   4.441
   27A       N6  850   3.823   3.547   4.460
   27A      H61  851   3.838   3.624   4.396
   27A      H62  852   3.889   3.525   4.533
   27A       N1  853   3.640   3.508   4.339
   27A       C2  854   3.532   3.435   4.313
   27A       H2  855   3.472   3.467   4.230
   27A       N3  856   3.488   3.327   4.377
   27A       C4  857   3.571   3.292   4.479
   27A      C3'  858   3.491   2.861   4.586
   27A      H3'  859   3.599   2.862   4.601
   27A      C2'  860   3.449   2.969   4.484
   27A      H2'  861   3.525   2.981   4.406
   27A      O2'  862   3.320   2.946   4.429
   27A     HO2'  863   3.332   2.894   4.349
   27A      O3'  864   3.441   2.729   4.563
   28A        P  865   3.511   2.622   4.468
   28A      OP1  866   3.440   2.494   4.486
   28A      OP2  867   3.657   2.621   4.494
   28A      O5'  868   3.482   2.671   4.318
   28A      C5'  869   3.353   2.653   4.261
   28A      H5'  870   3.281   2.710   4.320
   28A     H5''  871   3.326   2.548   4.268
   28A      C4'  872   3.342   2.696   4.114
   28A      H4'  873   3.243   2.668   4.079
   28A      O4'  874   3.355   2.838   4.104
   28A      C1'  875   3.451   2.864   4.002
   28A      H1'  876   3.404   2.861   3.904
   28A       N9  877   3.512   2.998   4.022
   28A       C8  878   3.623   3.031   4.096
   28A       H8  879   3.679   2.960   4.155
   28A       N7  880   3.656   3.156   4.088
   28A       C5  881   3.559   3.212   4.004
   28A       C6  882   3.534   3.342   3.954
   28A       N6  883   3.609   3.448   3.978
   28A      H61  884   3.589   3.535   3.932
   28A      H62  885   3.700   3.434   4.021
   28A       N1  886   3.428   3.365   3.875
   28A       C2  887   3.352   3.261   3.843
   28A       H2  888   3.269   3.283   3.778
   28A       N3  889   3.363   3.134   3.881
   28A       C4  890   3.470   3.116   3.964
   28A      C3'  891   3.446   2.632   4.021
   28A      H3'  892   3.490   2.541   4.064
   28A      C2'  893   3.548   2.746   4.014
   28A      H2'  894   3.601   2.752   4.109
   28A      O2'  895   3.642   2.735   3.908
   28A     HO2'  896   3.704   2.809   3.912
   28A      O3'  897   3.384   2.611   3.895
   29A        P  898   3.373   2.469   3.824
   29A      OP1  899   3.240   2.412   3.857
   29A      OP2  900   3.493   2.386   3.847
   29A      O5'  901   3.370   2.510   3.668
   29A      C5'  902   3.473   2.591   3.611
   29A      H5'  903   3.530   2.532   3.539
   29A     H5''  904   3.541   2.629   3.687
   29A      C4'  905   3.408   2.710   3.538
   29A      H4'  906   3.312   2.677   3.499
   29A      O4'  907   3.384   2.820   3.626
   29A      C1'  908   3.409   2.943   3.558
   29A      H1'  909   3.326   3.013   3.571
   29A       N9  910   3.532   3.006   3.612
   29A       C8  911   3.634   2.948   3.681
   29A       H8  912   3.638   2.842   3.699
   29A       N7  913   3.725   3.030   3.725
   29A       C5  914   3.681   3.155   3.677
   29A       C6  915   3.728   3.289   3.685
   29A       N6  916   3.837   3.328   3.748
   29A      H61  917   3.860   3.427   3.749
   29A      H62  918   3.898   3.262   3.794
   29A       N1  919   3.661   3.387   3.624
   29A       C2  920   3.550   3.357   3.558
   29A       H2  921   3.500   3.440   3.511
   29A       N3  922   3.493   3.238   3.543
   29A       C4  923   3.564   3.140   3.606
   29A      C3'  924   3.488   2.766   3.420
   29A      H3'  925   3.594   2.771   3.445
   29A      C2'  926   3.426   2.906   3.411
   29A      H2'  927   3.492   2.976   3.360
   29A      O2'  928   3.298   2.899   3.347
   29A     HO2'  929   3.312   2.838   3.273
   29A      O3'  930   3.464   2.692   3.301
   30C        P  931   3.572   2.686   3.183
   30C      OP1  932   3.508   2.619   3.067
   30C      OP2  933   3.701   2.637   3.235
   30C      O5'  934   3.596   2.838   3.145
   30C      C5'  935   3.507   2.909   3.060
   30C      H5'  936   3.407   2.907   3.102
   30C     H5''  937   3.505   2.861   2.962
   30C      C4'  938   3.552   3.054   3.044
   30C      H4'  939   3.481   3.104   2.978
   30C      O4'  940   3.557   3.124   3.167
   30C      C1'  941   3.665   3.218   3.164
   30C      H1'  942   3.628   3.320   3.181
   30C       N1  943   3.769   3.188   3.267
   30C       C6  944   3.781   3.064   3.325
   30C       H6  945   3.717   2.983   3.292
   30C       C5  946   3.872   3.043   3.423
   30C       H5  947   3.880   2.946   3.470
   30C       C4  948   3.952   3.153   3.463
   30C       N4  949   4.038   3.141   3.561
   30C      H41  950   4.029   3.064   3.624
   30C      H42  951   4.077   3.228   3.597
   30C       N3  952   3.943   3.272   3.407
   30C       C2  953   3.852   3.292   3.309
   30C       O2  954   3.845   3.404   3.258
   30C      C3'  955   3.691   3.067   2.981
   30C      H3'  956   3.759   2.998   3.030
   30C      C2'  957   3.723   3.211   3.022
   30C      H2'  958   3.831   3.230   3.022
   30C      O2'  959   3.654   3.303   2.939
   30C     HO2'  960   3.663   3.267   2.849
   30C      O3'  961   3.687   3.049   2.840
   31A        P  962   3.814   2.995   2.761
   31A      OP1  963   3.776   2.967   2.621
   31A      OP2  964   3.879   2.889   2.841
   31A      O5'  965   3.912   3.122   2.759
   31A      C5'  966   3.884   3.236   2.678
   31A      H5'  967   3.806   3.296   2.725
   31A     H5''  968   3.848   3.203   2.581
   31A      C4'  969   4.008   3.323   2.656
   31A      H4'  970   3.982   3.401   2.583
   31A      O4'  971   4.049   3.385   2.777
   31A      C1'  972   4.178   3.338   2.813
   31A      H1'  973   4.254   3.414   2.790
   31A       N9  974   4.181   3.306   2.958
   31A       C8  975   4.111   3.207   3.023
   31A       H8  976   4.037   3.146   2.974
   31A       N7  977   4.143   3.191   3.148
   31A       C5  978   4.241   3.290   3.169
   31A       C6  979   4.324   3.328   3.277
   31A       N6  980   4.322   3.271   3.396
   31A      H61  981   4.385   3.306   3.467
   31A      H62  982   4.243   3.213   3.420
   31A       N1  983   4.415   3.425   3.264
   31A       C2  984   4.422   3.487   3.147
   31A       H2  985   4.495   3.566   3.140
   31A       N3  986   4.352   3.463   3.036
   31A       C4  987   4.263   3.362   3.053
   31A      C3'  988   4.125   3.242   2.600
   31A      H3'  989   4.090   3.148   2.556
   31A      C2'  990   4.206   3.214   2.727
   31A      H2'  991   4.163   3.126   2.775
   31A      O2'  992   4.343   3.191   2.703
   31A     HO2'  993   4.392   3.186   2.787
   31A      O3'  994   4.192   3.321   2.504
   32A        P  995   4.210   3.266   2.356
   32A      OP1  996   4.080   3.282   2.286
   32A      OP2  997   4.271   3.132   2.363
   32A      O5'  998   4.316   3.371   2.296
   32A      C5'  999   4.271   3.487   2.228
   32A      H5' 1000   4.187   3.530   2.284
   32A     H5'' 1001   4.236   3.458   2.130
   32A      C4' 1002   4.378   3.596   2.213
   32A      H4' 1003   4.341   3.668   2.141
   32A      O4' 1004   4.399   3.667   2.335
   32A      C1' 1005   4.537   3.699   2.347
   32A      H1' 1006   4.552   3.805   2.366
   32A       N9 1007   4.597   3.623   2.460
   32A       C8 1008   4.552   3.509   2.523
   32A       H8 1009   4.464   3.454   2.490
   32A       N7 1010   4.622   3.474   2.627
   32A       C5 1011   4.721   3.572   2.635
   32A       C6 1012   4.827   3.600   2.725
   32A       N6 1013   4.854   3.533   2.835
   32A      H61 1014   4.921   3.572   2.899
   32A      H62 1015   4.793   3.456   2.861
   32A       N1 1016   4.907   3.705   2.705
   32A       C2 1017   4.884   3.782   2.600
   32A       H2 1018   4.951   3.866   2.587
   32A       N3 1019   4.787   3.771   2.509
   32A       C4 1020   4.708   3.662   2.532
   32A      C3' 1021   4.515   3.547   2.163
   32A      H3' 1022   4.542   3.453   2.211
   32A      C2' 1023   4.603   3.662   2.214
   32A      H2' 1024   4.705   3.630   2.230
   32A      O2' 1025   4.601   3.773   2.124
   32A     HO2' 1026   4.585   3.733   2.038
   32A      O3' 1027   4.523   3.542   2.021
   33G3       P 1028   4.577   3.412   1.945
   33G3     OP1 1029   4.608   3.455   1.808
   33G3     OP2 1030   4.482   3.300   1.963
   33G3     O5' 1031   4.715   3.375   2.018
   33G3     C5' 1032   4.826   3.463   2.008
   33G3     H5' 1033   4.790   3.566   2.008
   33G3    H5'' 1034   4.876   3.445   1.914
   33G3     C4' 1035   4.925   3.449   2.124
   33G3     H4' 1036   5.000   3.528   2.115
   33G3     O4' 1037   4.861   3.466   2.250
   33G3     C1' 1038   4.928   3.390   2.348
   33G3     H1' 1039   4.965   3.453   2.430
   33G3      N9 1040   4.836   3.288   2.405
   33G3      C8 1041   4.732   3.222   2.344
   33G3      H8 1042   4.694   3.248   2.246
   33G3      N7 1043   4.686   3.120   2.413
   33G3      C5 1044   4.758   3.128   2.534
   33G3      C6 1045   4.754   3.048   2.653
   33G3      O6 1046   4.684   2.950   2.680
   33G3      N1 1047   4.846   3.086   2.748
   33G3      H1 1048   4.847   3.037   2.835
   33G3      C2 1049   4.933   3.189   2.732
   33G3      N2 1050   5.020   3.210   2.827
   33G3     H21 1051   5.022   3.150   2.909
   33G3     H22 1052   5.078   3.290   2.816
   33G3      N3 1053   4.943   3.264   2.623
   33G3      C4 1054   4.851   3.230   2.528
   33G3     C3' 1055   4.997   3.315   2.133
   33G3     H3' 1056   4.925   3.234   2.121
   33G3     C2' 1057   5.046   3.320   2.279
   33G3     H2' 1058   5.063   3.220   2.319
   33G3     O2' 1059   5.161   3.401   2.293
   33G3    HO2' 1060   5.225   3.374   2.226
   33G3     O3' 1061   5.106   3.301   2.041
   33G3    HO3' 1062   5.116   3.206   2.024
   34K+      K+ 1063   4.945   4.165   4.118
   35K+      K+ 1064   4.612   3.436   5.247
   36K+      K+ 1065   2.803   4.435   4.078
   37K+      K+ 1066   4.695   4.324   5.504
   38K+      K+ 1067   5.229   2.915   4.444
   39K+      K+ 1068   4.203   2.261   3.386
   40K+      K+ 1069   4.954   4.854   4.044
   41K+      K+ 1070   4.132   2.241   4.869
   42K+      K+ 1071   2.552   3.268   4.097
   43K+      K+ 1072   2.827   3.615   2.745
   44K+      K+ 1073   3.341   4.424   6.150
   45K+      K+ 1074   4.451   2.562   2.437
   46K+      K+ 1075   4.665   5.105   5.021
   47K+      K+ 1076   3.070   4.701   3.294
   48K+      K+ 1077   2.875   3.338   5.127
   49K+      K+ 1078   4.487   5.648   3.288
   50K+      K+ 1079   2.507   5.283   5.461
   51K+      K+ 1080   5.678   4.084   3.336
   52K+      K+ 1081   4.076   1.829   4.285
   53K+      K+ 1082   3.726   3.119   1.873
   54K+      K+ 1083   4.610   5.793   4.475
   55K+      K+ 1084   3.501   2.570   5.824
   56K+      K+ 1085   4.780   2.643   4.037
   57K+      K+ 1086   4.758   4.527   2.361
   58K+      K+ 1087   2.907   2.131   3.419
   59K+      K+ 1088   3.713   5.902   5.696
   60K+      K+ 1089   4.212   4.069   6.436
   61K+      K+ 1090   2.237   4.324   4.415
   62K+      K+ 1091   3.689   4.889   2.258
   63K+      K+ 1092   2.830   5.749   4.707
   64K+      K+ 1093   5.747   2.808   2.631
   65K+      K+ 1094   2.754   2.148   4.656
   66K+      K+ 1095   4.680   2.777   1.194
   67K+      K+ 1096   4.707   5.688   6.300
   68K+      K+ 1097   2.186   3.689   3.196
   69K+      K+ 1098   5.035   3.712   4.659
   70K+      K+ 1099   3.384   2.355   2.255
   71K+      K+ 1100   3.530   6.410   4.557
   72K+      K+ 1101   4.290   3.970   1.452
   73K+      K+ 1102   2.590   4.350   5.727
   74K+      K+ 1103   5.308   1.898   3.377
   75K+      K+ 1104   4.523   2.943   6.227
   76K+      K+ 1105   6.199   5.286   2.536
   77K+      K+ 1106   3.571   5.787   7.199
   78K+      K+ 1107   3.581   5.970   3.238
   79K+      K+ 1108   5.979   3.643   1.310
   80K+      K+ 1109   2.847   3.213   6.698
   81K+      K+ 1110   6.215   3.478   3.515
   82K+      K+ 1111   4.405   6.686   5.617
   83K+      K+ 1112   2.864   1.189   3.837
   84K+      K+ 1113   2.481   6.195   3.161
   85K+      K+ 1114   4.308   5.076   7.380
   86K+      K+ 1115   4.406   2.738   5.338
   87Cl-    Cl- 1116   6.039   3.850   3.911
   88Cl-    Cl- 1117   2.983   6.138   3.938
   89Cl-    Cl- 1118   3.702   3.288   6.580
   90Cl-    Cl- 1119   4.239   5.700   7.080
   91Cl-    Cl- 1120   5.282   2.562   5.184
   92Cl-    Cl- 1121   2.657   1.693   3.860
   93Cl-    Cl- 1122   3.112   5.623   2.476
   94Cl-    Cl- 1123   3.629   6.777   5.210
   95Cl-    Cl- 1124   3.974   2.526   1.634
   96Cl-    Cl- 1125   2.599   3.951   6.372
   97Cl-    Cl- 1126   6.140   3.360   1.916
   98Cl-    Cl- 1127   3.934   1.855   5.494
   99Cl-    Cl- 1128   1.995   5.169   4.729
  100Cl-    Cl- 1129   4.179   4.787   1.665
  101Cl-    Cl- 1130   5.027   6.285   5.416
  102Cl-    Cl- 1131   4.649   1.451   3.632
  103Cl-    Cl- 1132   4.813   3.691   6.073
  104Cl-    Cl- 1133   2.810   2.768   2.363
  105Cl-    Cl- 1134   3.491   4.856   7.287
  106Cl-    Cl- 1135   6.168   4.610   3.092
  107Cl-    Cl- 1136   5.692   1.699   2.658
  108WAT      O 1137   6.911   7.298   7.067
  108WAT     H1 1138   6.836   7.293   7.022
  108WAT     H2 1139   6.906   7.231   7.122
  108WAT    EPW 1140   6.899   7.287   7.068
  109WAT      O 1141   7.175   7.905   6.909
  109WAT     H1 1142   7.144   7.857   6.843
  109WAT     H2 1143   7.188   7.846   6.972
  109WAT    EPW 1144   7.172   7.889   6.908
  110WAT      O 1145   7.583   7.014   7.252
  110WAT     H1 1146   7.583   7.094   7.217
  110WAT     H2 1147   7.629   6.967   7.196
  110WAT    EPW 1148   7.590   7.019   7.239
  111WAT      O 1149   7.271   7.779   7.504
  111WAT     H1 1150   7.193   7.770   7.467
  111WAT     H2 1151   7.321   7.723   7.459
  111WAT    EPW 1152   7.267   7.769   7.492
  112WAT      O 1153   7.375   7.540   7.396
  112WAT     H1 1154   7.418   7.497   7.459
  112WAT     H2 1155   7.293   7.508   7.402
  112WAT    EPW 1156   7.369   7.529   7.406
  113WAT      O 1157   7.344   7.010   7.413
  113WAT     H1 1158   7.299   7.060   7.357
  113WAT     H2 1159   7.426   7.014   7.382
  113WAT    EPW 1160   7.349   7.018   7.400
  114WAT      O 1161   7.728   7.018   7.492
  114WAT     H1 1162   7.726   7.098   7.527
  114WAT     H2 1163   7.686   7.028   7.416
  114WAT    EPW 1164   7.722   7.031   7.486
  115WAT      O 1165   7.003   7.476   7.693
  115WAT     H1 1166   6.927   7.517   7.676
  115WAT     H2 1167   6.979   7.393   7.704
  115WAT    EPW 1168   6.988   7.470   7.692
  116WAT      O 1169   6.937   7.111   7.280
  116WAT     H1 1170   6.927   7.025   7.280
  116WAT     H2 1171   6.886   7.138   7.346
  116WAT    EPW 1172   6.928   7.102   7.290
  117WAT      O 1173   7.788   7.380   7.297
  117WAT     H1 1174   7.737   7.341   7.238
  117WAT     H2 1175   7.868   7.370   7.265
  117WAT    EPW 1176   7.792   7.373   7.284
  118WAT      O 1177   7.714   7.309   7.558
  118WAT     H1 1178   7.737   7.328   7.475
  118WAT     H2 1179   7.726   7.385   7.600
  118WAT    EPW 1180   7.719   7.323   7.552
  119WAT      O 1181   7.311   6.766   7.554
  119WAT     H1 1182   7.319   6.848   7.526
  119WAT     H2 1183   7.296   6.721   7.481
  119WAT    EPW 1184   7.310   6.771   7.539
  120WAT      O 1185   7.245   7.196   7.602
  120WAT     H1 1186   7.267   7.125   7.557
  120WAT     H2 1187   7.166   7.177   7.633
  120WAT    EPW 1188   7.237   7.183   7.600
  121WAT      O 1189   7.049   7.747   7.339
  121WAT     H1 1190   7.004   7.673   7.325
  121WAT     H2 1191   7.099   7.754   7.268
  121WAT    EPW 1192   7.049   7.737   7.327
  122WAT      O 1193   7.614   7.255   7.120
  122WAT     H1 1194   7.615   7.226   7.037
  122WAT     H2 1195   7.567   7.328   7.116
  122WAT    EPW 1196   7.607   7.261   7.107
  123WAT      O 1197   7.210   7.428   7.116
  123WAT     H1 1198   7.207   7.359   7.169
  123WAT     H2 1199   7.183   7.396   7.039
  123WAT    EPW 1200   7.206   7.413   7.112
  124WAT      O 1201   7.441   7.655   7.705
  124WAT     H1 1202   7.381   7.697   7.658
  124WAT     H2 1203   7.420   7.571   7.696
  124WAT    EPW 1204   7.429   7.649   7.696
  125WAT      O 1205   7.395   6.830   7.094
  125WAT     H1 1206   7.424   6.857   7.172
  125WAT     H2 1207   7.364   6.903   7.058
  125WAT    EPW 1208   7.394   6.845   7.101
  126WAT      O 1209   7.227   7.720   7.123
  126WAT     H1 1210   7.219   7.633   7.125
  126WAT     H2 1211   7.308   7.733   7.155
  126WAT    EPW 1212   7.238   7.709   7.128
  127WAT      O 1213   6.900   6.827   7.285
  127WAT     H1 1214   6.901   6.772   7.217
  127WAT     H2 1215   6.875   6.777   7.352
  127WAT    EPW 1216   6.897   6.812   7.285
  128WAT      O 1217   7.706   7.646   7.361
  128WAT     H1 1218   7.703   7.637   7.447
  128WAT     H2 1219   7.731   7.567   7.333
  128WAT    EPW 1220   7.709   7.633   7.369
  129WAT      O 1221   7.317   7.074   6.992
  129WAT     H1 1222   7.258   7.067   6.929
  129WAT     H2 1223   7.384   7.114   6.953
  129WAT    EPW 1224   7.318   7.079   6.977
  130WAT      O 1225   7.704   7.593   7.638
  130WAT     H1 1226   7.622   7.612   7.660
  130WAT     H2 1227   7.751   7.646   7.689
  130WAT    EPW 1228   7.699   7.604   7.649
  131WAT      O 1229   7.449   7.386   7.620
  131WAT     H1 1230   7.523   7.342   7.604
  131WAT     H2 1231   7.389   7.323   7.625
  131WAT    EPW 1232   7.451   7.370   7.618
  132WAT      O 1233   6.946   7.488   7.281
  132WAT     H1 1234   7.005   7.455   7.336
  132WAT     H2 1235   6.957   7.441   7.208
  132WAT    EPW 1236   6.956   7.476   7.278
  133WAT      O 1237   7.468   7.608   6.854
  133WAT     H1 1238   7.460   7.573   6.934
  133WAT     H2 1239   7.393   7.586   6.814
  133WAT    EPW 1240   7.456   7.600   6.860
  134WAT      O 1241   7.475   7.490   7.103
  134WAT     H1 1242   7.485   7.558   7.157
  134WAT     H2 1243   7.392   7.466   7.116
  134WAT    EPW 1244   7.464   7.496   7.113
  135WAT      O 1245   6.971   7.189   7.687
  135WAT     H1 1246   6.907   7.180   7.629
  135WAT     H2 1247   6.944   7.141   7.755
  135WAT    EPW 1248   6.958   7.181   7.688
  136WAT      O 1249   7.640   7.800   6.963
  136WAT     H1 1250   7.581   7.755   6.917
  136WAT     H2 1251   7.714   7.757   6.949
  136WAT    EPW 1252   7.642   7.787   6.954
  137WAT      O 1253   7.208   7.172   7.234
  137WAT     H1 1254   7.230   7.139   7.156
  137WAT     H2 1255   7.124   7.152   7.243
  137WAT    EPW 1256   7.199   7.164   7.224
  138WAT      O 1257   7.109   7.319   6.875
  138WAT     H1 1258   7.037   7.313   6.924
  138WAT     H2 1259   7.116   7.239   6.840
  138WAT    EPW 1260   7.099   7.306   6.877
  139WAT      O 1261   7.670   6.852   7.036
  139WAT     H1 1262   7.690   6.860   6.952
  139WAT     H2 1263   7.584   6.836   7.035
  139WAT    EPW 1264   7.660   6.851   7.024
  140WAT      O 1265   7.137   7.413   7.462
  140WAT     H1 1266   7.101   7.446   7.535
  140WAT     H2 1267   7.174   7.339   7.490
  140WAT    EPW 1268   7.137   7.407   7.477
  141WAT      O 1269   7.501   7.755   7.201
  141WAT     H1 1270   7.550   7.782   7.134
  141WAT     H2 1271   7.560   7.731   7.261
  141WAT    EPW 1272   7.517   7.755   7.200
  142WAT      O 1273   6.901   7.323   5.185
  142WAT     H1 1274   6.834   7.367   5.151
  142WAT     H2 1275   6.870   7.242   5.196
  142WAT    EPW 1276   6.887   7.318   5.181
  143WAT      O 1277   7.183   7.908   5.013
  143WAT     H1 1278   7.151   7.864   4.945
  143WAT     H2 1279   7.191   7.847   5.075
  143WAT    EPW 1280   7.179   7.892   5.012
  144WAT      O 1281   7.599   6.987   5.365
  144WAT     H1 1282   7.602   7.069   5.335
  144WAT     H2 1283   7.648   6.943   5.309
  144WAT    EPW 1284   7.607   6.993   5.352
  145WAT      O 1285   7.185   7.735   5.685
  145WAT     H1 1286   7.137   7.747   5.613
  145WAT     H2 1287   7.247   7.679   5.660
  145WAT    EPW 1288   7.187   7.729   5.671
  146WAT      O 1289   7.581   7.249   6.191
  146WAT     H1 1290   7.639   7.245   6.126
  146WAT     H2 1291   7.550   7.168   6.195
  146WAT    EPW 1292   7.585   7.236   6.182
  147WAT      O 1293   7.341   7.512   5.614
  147WAT     H1 1294   7.375   7.464   5.678
  147WAT     H2 1295   7.263   7.476   5.600
  147WAT    EPW 1296   7.335   7.499   5.621
  148WAT      O 1297   7.358   7.018   5.528
  148WAT     H1 1298   7.316   7.069   5.471
  148WAT     H2 1299   7.440   7.017   5.497
  148WAT    EPW 1300   7.364   7.026   5.515
  149WAT      O 1301   7.694   6.944   5.628
  149WAT     H1 1302   7.688   7.023   5.666
  149WAT     H2 1303   7.673   6.960   5.545
  149WAT    EPW 1304   7.690   6.958   5.622
  150WAT      O 1305   6.968   7.407   5.912
  150WAT     H1 1306   6.899   7.455   5.935
  150WAT     H2 1307   6.940   7.325   5.922
  150WAT    EPW 1308   6.954   7.402   5.917
  151WAT      O 1309   7.171   6.974   5.947
  151WAT     H1 1310   7.143   6.900   5.911
  151WAT     H2 1311   7.233   6.948   6.002
  151WAT    EPW 1312   7.176   6.959   5.950
  152WAT      O 1313   7.548   7.176   6.852
  152WAT     H1 1314   7.566   7.128   6.782
  152WAT     H2 1315   7.581   7.254   6.833
  152WAT    EPW 1316   7.556   7.180   6.839
  153WAT      O 1317   7.134   7.050   6.786
  153WAT     H1 1318   7.059   7.009   6.772
  153WAT     H2 1319   7.188   7.012   6.729
  153WAT    EPW 1320   7.131   7.038   6.775
  154WAT      O 1321   7.711   6.847   6.764
  154WAT     H1 1322   7.736   6.786   6.707
  154WAT     H2 1323   7.673   6.908   6.714
  154WAT    EPW 1324   7.709   6.847   6.748
  155WAT      O 1325   6.861   7.180   6.561
  155WAT     H1 1326   6.843   7.257   6.596
  155WAT     H2 1327   6.928   7.197   6.507
  155WAT    EPW 1328   6.868   7.194   6.558
  156WAT      O 1329   6.979   7.079   5.444
  156WAT     H1 1330   6.958   6.995   5.432
  156WAT     H2 1331   6.932   7.102   5.514
  156WAT    EPW 1332   6.969   7.070   5.453
  157WAT      O 1333   7.756   7.345   5.481
  157WAT     H1 1334   7.722   7.310   5.409
  157WAT     H2 1335   7.841   7.351   5.463
  157WAT    EPW 1336   7.763   7.341   5.468
  158WAT      O 1337   7.669   7.212   5.718
  158WAT     H1 1338   7.703   7.260   5.654
  158WAT     H2 1339   7.709   7.242   5.790
  158WAT    EPW 1340   7.680   7.223   5.719
  159WAT      O 1341   7.311   6.765   5.638
  159WAT     H1 1342   7.326   6.847   5.612
  159WAT     H2 1343   7.309   6.720   5.563
  159WAT    EPW 1344   7.313   6.771   5.623
  160WAT      O 1345   7.416   7.707   6.018
  160WAT     H1 1346   7.416   7.663   6.093
  160WAT     H2 1347   7.344   7.678   5.977
  160WAT    EPW 1348   7.405   7.696   6.023
  161WAT      O 1349   7.237   7.151   5.742
  161WAT     H1 1350   7.274   7.102   5.680
  161WAT     H2 1351   7.220   7.095   5.806
  161WAT    EPW 1352   7.240   7.136   5.742
  162WAT      O 1353   7.121   7.334   6.140
  162WAT     H1 1354   7.201   7.344   6.107
  162WAT     H2 1355   7.069   7.356   6.074
  162WAT    EPW 1356   7.125   7.339   6.125
  163WAT      O 1357   7.665   7.420   6.805
  163WAT     H1 1358   7.605   7.482   6.818
  163WAT     H2 1359   7.696   7.437   6.726
  163WAT    EPW 1360   7.661   7.432   6.795
  164WAT      O 1361   7.048   7.739   5.443
  164WAT     H1 1362   7.010   7.660   5.436
  164WAT     H2 1363   7.099   7.743   5.373
  164WAT    EPW 1364   7.050   7.728   5.431
  165WAT      O 1365   7.631   7.237   5.248
  165WAT     H1 1366   7.638   7.207   5.166
  165WAT     H2 1367   7.580   7.307   5.240
  165WAT    EPW 1368   7.625   7.243   5.235
  166WAT      O 1369   7.237   7.516   6.725
  166WAT     H1 1370   7.193   7.456   6.771
  166WAT     H2 1371   7.255   7.475   6.650
  166WAT    EPW 1372   7.233   7.501   6.721
  167WAT      O 1373   7.207   7.428   5.223
  167WAT     H1 1374   7.204   7.360   5.277
  167WAT     H2 1375   7.174   7.397   5.148
  167WAT    EPW 1376   7.202   7.413   5.220
  168WAT      O 1377   7.141   7.638   5.938
  168WAT     H1 1378   7.147   7.672   5.858
  168WAT     H2 1379   7.096   7.564   5.925
  168WAT    EPW 1380   7.135   7.632   5.924
  169WAT      O 1381   7.349   7.575   6.274
  169WAT     H1 1382   7.351   7.513   6.213
  169WAT     H2 1383   7.278   7.622   6.254
  169WAT    EPW 1384   7.339   7.573   6.262
  170WAT      O 1385   7.081   7.743   6.692
  170WAT     H1 1386   7.059   7.743   6.607
  170WAT     H2 1387   7.130   7.672   6.700
  170WAT    EPW 1388   7.085   7.732   6.681
  171WAT      O 1389   7.754   7.312   5.968
  171WAT     H1 1390   7.724   7.394   5.973
  171WAT     H2 1391   7.837   7.319   5.992
  171WAT    EPW 1392   7.762   7.325   5.972
  172WAT      O 1393   7.407   6.834   5.206
  172WAT     H1 1394   7.449   6.870   5.274
  172WAT     H2 1395   7.368   6.902   5.169
  172WAT    EPW 1396   7.408   6.850   5.211
  173WAT      O 1397   7.222   7.714   5.222
  173WAT     H1 1398   7.212   7.628   5.223
  173WAT     H2 1399   7.304   7.725   5.250
  173WAT    EPW 1400   7.233   7.703   5.227
  174WAT      O 1401   6.892   6.812   5.408
  174WAT     H1 1402   6.890   6.759   5.338
  174WAT     H2 1403   6.860   6.762   5.472
  174WAT    EPW 1404   6.887   6.797   5.407
  175WAT      O 1405   7.615   7.594   5.508
  175WAT     H1 1406   7.541   7.572   5.548
  175WAT     H2 1407   7.661   7.520   5.505
  175WAT    EPW 1408   7.611   7.580   5.513
  176WAT      O 1409   7.309   7.069   5.102
  176WAT     H1 1410   7.250   7.064   5.037
  176WAT     H2 1411   7.378   7.107   5.065
  176WAT    EPW 1412   7.310   7.074   5.087
  177WAT      O 1413   7.670   7.574   5.993
  177WAT     H1 1414   7.595   7.616   5.977
  177WAT     H2 1415   7.704   7.620   6.059
  177WAT    EPW 1416   7.664   7.587   6.001
  178WAT      O 1417   7.155   7.756   6.189
  178WAT     H1 1418   7.211   7.819   6.167
  178WAT     H2 1419   7.135   7.718   6.113
  178WAT    EPW 1420   7.160   7.760   6.174
  179WAT      O 1421   7.433   7.334   5.804
  179WAT     H1 1422   7.506   7.295   5.777
  179WAT     H2 1423   7.371   7.274   5.788
  179WAT    EPW 1424   7.434   7.320   5.797
  180WAT      O 1425   6.947   7.475   5.427
  180WAT     H1 1426   6.985   7.433   5.493
  180WAT     H2 1427   6.957   7.420   5.359
  180WAT    EPW 1428   6.954   7.461   5.427
  181WAT      O 1429   7.466   7.579   4.957
  181WAT     H1 1430   7.457   7.541   5.035
  181WAT     H2 1431   7.390   7.564   4.918
  181WAT    EPW 1432   7.454   7.571   4.963
  182WAT      O 1433   7.476   7.461   5.207
  182WAT     H1 1434   7.488   7.538   5.247
  182WAT     H2 1435   7.391   7.445   5.219
  182WAT    EPW 1436   7.465   7.470   5.215
  183WAT      O 1437   6.928   7.127   5.929
  183WAT     H1 1438   6.902   7.113   5.847
  183WAT     H2 1439   7.003   7.083   5.935
  183WAT    EPW 1440   6.935   7.118   5.918
  184WAT      O 1441   7.754   7.724   6.213
  184WAT     H1 1442   7.768   7.810   6.217
  184WAT     H2 1443   7.702   7.709   6.282
  184WAT    EPW 1444   7.748   7.735   6.224
  185WAT      O 1445   7.545   7.278   6.467
  185WAT     H1 1446   7.557   7.200   6.504
  185WAT     H2 1447   7.560   7.263   6.383
  185WAT    EPW 1448   7.549   7.264   6.460
  186WAT      O 1449   7.654   6.855   6.396
  186WAT     H1 1450   7.671   6.841   6.312
  186WAT     H2 1451   7.689   6.786   6.436
  186WAT    EPW 1452   7.662   6.843   6.390
  187WAT      O 1453   7.655   7.755   5.067
  187WAT     H1 1454   7.593   7.716   5.020
  187WAT     H2 1455   7.727   7.710   5.045
  187WAT    EPW 1456   7.657   7.742   5.057
  188WAT      O 1457   7.383   7.392   6.070
  188WAT     H1 1458   7.400   7.385   5.985
  188WAT     H2 1459   7.446   7.346   6.108
  188WAT    EPW 1460   7.395   7.385   6.063
  189WAT      O 1461   7.643   6.811   6.115
  189WAT     H1 1462   7.557   6.813   6.097
  189WAT     H2 1463   7.680   6.835   6.040
  189WAT    EPW 1464   7.636   6.815   6.101
  190WAT      O 1465   6.873   6.944   6.706
  190WAT     H1 1466   6.875   7.018   6.659
  190WAT     H2 1467   6.789   6.920   6.702
  190WAT    EPW 1468   6.861   6.951   6.698
  191WAT      O 1469   7.219   7.177   5.348
  191WAT     H1 1470   7.234   7.140   5.271
  191WAT     H2 1471   7.140   7.149   5.371
  191WAT    EPW 1472   7.210   7.168   5.340
  192WAT      O 1473   7.294   7.394   6.482
  192WAT     H1 1474   7.305   7.455   6.420
  192WAT     H2 1475   7.371   7.353   6.485
  192WAT    EPW 1476   7.307   7.397   6.474
  193WAT      O 1477   7.078   7.244   6.392
  193WAT     H1 1478   7.089   7.260   6.307
  193WAT     H2 1479   7.146   7.285   6.429
  193WAT    EPW 1480   7.090   7.253   6.385
  194WAT      O 1481   7.318   6.931   6.615
  194WAT     H1 1482   7.345   6.847   6.612
  194WAT     H2 1483   7.280   6.943   6.537
  194WAT    EPW 1484   7.317   6.920   6.603
  195WAT      O 1485   6.995   7.714   6.420
  195WAT     H1 1486   7.041   7.739   6.349
  195WAT     H2 1487   6.966   7.635   6.399
  195WAT    EPW 1488   6.997   7.706   6.406
  196WAT      O 1489   7.097   7.320   4.986
  196WAT     H1 1490   7.025   7.316   5.035
  196WAT     H2 1491   7.102   7.239   4.952
  196WAT    EPW 1492   7.087   7.307   4.988
  197WAT      O 1493   7.567   7.678   6.420
  197WAT     H1 1494   7.529   7.720   6.487
  197WAT     H2 1495   7.500   7.643   6.376
  197WAT    EPW 1496   7.552   7.679   6.424
  198WAT      O 1497   7.452   7.020   6.276
  198WAT     H1 1498   7.369   7.006   6.300
  198WAT     H2 1499   7.495   6.954   6.314
  198WAT    EPW 1500   7.446   7.008   6.285
  199WAT      O 1501   7.724   7.476   6.541
  199WAT     H1 1502   7.676   7.408   6.514
  199WAT     H2 1503   7.687   7.544   6.502
  199WAT    EPW 1504   7.711   7.476   6.531
  200WAT      O 1505   7.688   6.837   5.141
  200WAT     H1 1506   7.712   6.851   5.059
  200WAT     H2 1507   7.602   6.823   5.136
  200WAT    EPW 1508   7.679   6.837   5.128
  201WAT      O 1509   7.193   6.990   6.377
  201WAT     H1 1510   7.135   6.928   6.357
  201WAT     H2 1511   7.146   7.063   6.377
  201WAT    EPW 1512   7.178   6.991   6.374
  202WAT      O 1513   7.085   7.372   5.651
  202WAT     H1 1514   7.042   7.391   5.724
  202WAT     H2 1515   7.123   7.295   5.669
  202WAT    EPW 1516   7.084   7.363   5.664
  203WAT      O 1517   7.496   7.723   5.294
  203WAT     H1 1518   7.555   7.747   5.235
  203WAT     H2 1519   7.543   7.701   5.364
  203WAT    EPW 1520   7.511   7.724   5.296
  204WAT      O 1521   7.575   7.030   6.600
  204WAT     H1 1522   7.607   6.985   6.532
  204WAT     H2 1523   7.492   7.003   6.604
  204WAT    EPW 1524   7.567   7.020   6.590
  205WAT      O 1525   6.905   7.325   3.272
  205WAT     H1 1526   6.840   7.373   3.237
  205WAT     H2 1527   6.868   7.247   3.284
  205WAT    EPW 1528   6.890   7.321   3.269
  206WAT      O 1529   7.186   7.899   3.110
  206WAT     H1 1530   7.155   7.853   3.042
  206WAT     H2 1531   7.192   7.839   3.174
  206WAT    EPW 1532   7.182   7.883   3.109
  207WAT      O 1533   7.602   6.990   3.457
  207WAT     H1 1534   7.604   7.072   3.427
  207WAT     H2 1535   7.654   6.947   3.402
  207WAT    EPW 1536   7.610   6.995   3.444
  208WAT      O 1537   7.185   7.735   3.780
  208WAT     H1 1538   7.135   7.745   3.709
  208WAT     H2 1539   7.245   7.677   3.755
  208WAT    EPW 1540   7.187   7.728   3.766
  209WAT      O 1541   7.586   7.244   4.285
  209WAT     H1 1542   7.646   7.246   4.222
  209WAT     H2 1543   7.567   7.159   4.293
  209WAT    EPW 1544   7.592   7.232   4.277
  210WAT      O 1545   7.338   7.509   3.712
  210WAT     H1 1546   7.373   7.461   3.775
  210WAT     H2 1547   7.260   7.472   3.700
  210WAT    EPW 1548   7.331   7.497   3.719
  211WAT      O 1549   7.362   7.024   3.633
  211WAT     H1 1550   7.320   7.073   3.575
  211WAT     H2 1551   7.445   7.023   3.604
  211WAT    EPW 1552   7.368   7.031   3.620
  212WAT      O 1553   7.687   6.941   3.722
  212WAT     H1 1554   7.684   7.019   3.761
  212WAT     H2 1555   7.671   6.960   3.638
  212WAT    EPW 1556   7.684   6.955   3.715
  213WAT      O 1557   6.967   7.412   4.009
  213WAT     H1 1558   6.897   7.459   4.030
  213WAT     H2 1559   6.941   7.330   4.018
  213WAT    EPW 1560   6.953   7.407   4.013
  214WAT      O 1561   7.164   6.974   4.058
  214WAT     H1 1562   7.147   6.897   4.021
  214WAT     H2 1563   7.209   6.954   4.129
  214WAT    EPW 1564   7.168   6.960   4.063
  215WAT      O 1565   7.547   7.158   4.972
  215WAT     H1 1566   7.557   7.111   4.899
  215WAT     H2 1567   7.583   7.235   4.951
  215WAT    EPW 1568   7.554   7.163   4.958
  216WAT      O 1569   7.126   7.051   4.891
  216WAT     H1 1570   7.047   7.017   4.877
  216WAT     H2 1571   7.175   7.016   4.827
  216WAT    EPW 1572   7.122   7.041   4.879
  217WAT      O 1573   7.736   6.857   4.871
  217WAT     H1 1574   7.769   6.801   4.813
  217WAT     H2 1575   7.682   6.906   4.823
  217WAT    EPW 1576   7.733   6.856   4.855
  218WAT      O 1577   6.857   7.179   4.651
  218WAT     H1 1578   6.843   7.255   4.691
  218WAT     H2 1579   6.923   7.197   4.596
  218WAT    EPW 1580   6.865   7.193   4.649
  219WAT      O 1581   6.980   7.082   3.536
  219WAT     H1 1582   6.957   6.999   3.524
  219WAT     H2 1583   6.934   7.105   3.606
  219WAT    EPW 1584   6.970   7.073   3.545
  220WAT      O 1585   7.756   7.344   3.575
  220WAT     H1 1586   7.722   7.310   3.503
  220WAT     H2 1587   7.842   7.347   3.558
  220WAT    EPW 1588   7.764   7.339   3.562
  221WAT      O 1589   7.668   7.211   3.814
  221WAT     H1 1590   7.702   7.259   3.749
  221WAT     H2 1591   7.709   7.240   3.885
  221WAT    EPW 1592   7.679   7.222   3.815
  222WAT      O 1593   7.319   6.767   3.731
  222WAT     H1 1594   7.333   6.849   3.706
  222WAT     H2 1595   7.315   6.723   3.655
  222WAT    EPW 1596   7.321   6.773   3.716
  223WAT      O 1597   7.414   7.698   4.114
  223WAT     H1 1598   7.423   7.631   4.169
  223WAT     H2 1599   7.342   7.679   4.070
  223WAT    EPW 1600   7.405   7.686   4.116
  224WAT      O 1601   7.237   7.150   3.850
  224WAT     H1 1602   7.275   7.101   3.788
  224WAT     H2 1603   7.221   7.093   3.914
  224WAT    EPW 1604   7.240   7.134   3.850
  225WAT      O 1605   7.126   7.340   4.233
  225WAT     H1 1606   7.206   7.350   4.199
  225WAT     H2 1607   7.074   7.364   4.167
  225WAT    EPW 1608   7.130   7.345   4.218
  226WAT      O 1609   7.669   7.398   4.910
  226WAT     H1 1610   7.606   7.458   4.921
  226WAT     H2 1611   7.698   7.412   4.829
  226WAT    EPW 1612   7.664   7.409   4.900
  227WAT      O 1613   7.042   7.732   3.541
  227WAT     H1 1614   7.006   7.653   3.534
  227WAT     H2 1615   7.094   7.737   3.471
  227WAT    EPW 1616   7.045   7.722   3.530
  228WAT      O 1617   7.631   7.239   3.339
  228WAT     H1 1618   7.637   7.210   3.257
  228WAT     H2 1619   7.583   7.311   3.331
  228WAT    EPW 1620   7.625   7.246   3.326
  229WAT      O 1621   7.227   7.511   4.829
  229WAT     H1 1622   7.182   7.453   4.876
  229WAT     H2 1623   7.246   7.468   4.756
  229WAT    EPW 1624   7.223   7.496   4.825
  230WAT      O 1625   7.213   7.424   3.318
  230WAT     H1 1626   7.211   7.356   3.373
  230WAT     H2 1627   7.181   7.391   3.244
  230WAT    EPW 1628   7.208   7.409   3.315
  231WAT      O 1629   7.141   7.640   4.034
  231WAT     H1 1630   7.146   7.675   3.954
  231WAT     H2 1631   7.094   7.568   4.021
  231WAT    EPW 1632   7.135   7.635   4.020
  232WAT      O 1633   7.344   7.563   4.388
  232WAT     H1 1634   7.350   7.505   4.324
  232WAT     H2 1635   7.280   7.617   4.362
  232WAT    EPW 1636   7.335   7.562   4.375
  233WAT      O 1637   7.083   7.746   4.793
  233WAT     H1 1638   7.064   7.747   4.708
  233WAT     H2 1639   7.131   7.673   4.803
  233WAT    EPW 1640   7.088   7.736   4.782
  234WAT      O 1641   7.755   7.318   4.061
  234WAT     H1 1642   7.728   7.400   4.066
  234WAT     H2 1643   7.839   7.322   4.085
  234WAT    EPW 1644   7.763   7.330   4.065
  235WAT      O 1645   7.414   6.836   3.296
  235WAT     H1 1646   7.454   6.869   3.365
  235WAT     H2 1647   7.376   6.905   3.259
  235WAT    EPW 1648   7.414   6.851   3.301
  236WAT      O 1649   7.219   7.709   3.323
  236WAT     H1 1650   7.211   7.623   3.322
  236WAT     H2 1651   7.301   7.722   3.353
  236WAT    EPW 1652   7.230   7.699   3.327
  237WAT      O 1653   6.892   6.815   3.495
  237WAT     H1 1654   6.888   6.763   3.425
  237WAT     H2 1655   6.867   6.763   3.560
  237WAT    EPW 1656   6.888   6.800   3.494
  238WAT      O 1657   7.628   7.599   3.603
  238WAT     H1 1658   7.556   7.579   3.648
  238WAT     H2 1659   7.671   7.523   3.598
  238WAT    EPW 1660   7.624   7.585   3.609
  239WAT      O 1661   7.318   7.075   3.198
  239WAT     H1 1662   7.258   7.068   3.135
  239WAT     H2 1663   7.385   7.114   3.158
  239WAT    EPW 1664   7.319   7.079   3.182
  240WAT      O 1665   7.677   7.583   4.086
  240WAT     H1 1666   7.604   7.627   4.067
  240WAT     H2 1667   7.708   7.624   4.156
  240WAT    EPW 1668   7.671   7.595   4.093
  241WAT      O 1669   7.166   7.754   4.288
  241WAT     H1 1670   7.233   7.805   4.265
  241WAT     H2 1671   7.141   7.717   4.213
  241WAT    EPW 1672   7.172   7.756   4.274
  242WAT      O 1673   7.433   7.334   3.903
  242WAT     H1 1674   7.506   7.295   3.876
  242WAT     H2 1675   7.371   7.274   3.890
  242WAT    EPW 1676   7.435   7.320   3.897
  243WAT      O 1677   6.947   7.467   3.522
  243WAT     H1 1678   6.987   7.425   3.588
  243WAT     H2 1679   6.962   7.415   3.453
  243WAT    EPW 1680   6.955   7.453   3.522
  244WAT      O 1681   7.474   7.588   3.050
  244WAT     H1 1682   7.468   7.549   3.127
  244WAT     H2 1683   7.400   7.565   3.009
  244WAT    EPW 1684   7.462   7.579   3.055
  245WAT      O 1685   7.481   7.466   3.298
  245WAT     H1 1686   7.491   7.542   3.340
  245WAT     H2 1687   7.396   7.448   3.309
  245WAT    EPW 1688   7.470   7.475   3.306
  246WAT      O 1689   6.929   7.133   4.023
  246WAT     H1 1690   6.904   7.118   3.941
  246WAT     H2 1691   7.002   7.086   4.031
  246WAT    EPW 1692   6.936   7.124   4.012
  247WAT      O 1693   7.754   7.719   4.317
  247WAT     H1 1694   7.775   7.802   4.330
  247WAT     H2 1695   7.702   7.699   4.384
  247WAT    EPW 1696   7.750   7.728   4.329
  248WAT      O 1697   7.533   7.257   4.569
  248WAT     H1 1698   7.540   7.178   4.606
  248WAT     H2 1699   7.550   7.242   4.485
  248WAT    EPW 1700   7.537   7.243   4.562
  249WAT      O 1701   7.614   6.805   4.549
  249WAT     H1 1702   7.694   6.770   4.553
  249WAT     H2 1703   7.566   6.750   4.596
  249WAT    EPW 1704   7.619   6.792   4.556
  250WAT      O 1705   7.629   7.793   3.164
  250WAT     H1 1706   7.575   7.743   3.117
  250WAT     H2 1707   7.707   7.779   3.127
  250WAT    EPW 1708   7.632   7.784   3.151
  251WAT      O 1709   7.392   7.398   4.170
  251WAT     H1 1710   7.407   7.388   4.084
  251WAT     H2 1711   7.452   7.348   4.207
  251WAT    EPW 1712   7.403   7.389   4.163
  252WAT      O 1713   7.592   6.788   4.164
  252WAT     H1 1714   7.510   6.799   4.190
  252WAT     H2 1715   7.585   6.774   4.078
  252WAT    EPW 1716   7.579   6.787   4.155
  253WAT      O 1717   6.875   6.949   4.806
  253WAT     H1 1718   6.872   7.021   4.757
  253WAT     H2 1719   6.791   6.929   4.817
  253WAT    EPW 1720   6.862   6.957   4.800
  254WAT      O 1721   7.225   7.176   3.447
  254WAT     H1 1722   7.242   7.139   3.369
  254WAT     H2 1723   7.145   7.147   3.467
  254WAT    EPW 1724   7.216   7.166   3.438
  255WAT      O 1725   7.288   7.383   4.591
  255WAT     H1 1726   7.300   7.445   4.530
  255WAT     H2 1727   7.363   7.340   4.591
  255WAT    EPW 1728   7.301   7.386   4.582
  256WAT      O 1729   7.075   7.245   4.481
  256WAT     H1 1730   7.088   7.267   4.397
  256WAT     H2 1731   7.142   7.283   4.522
  256WAT    EPW 1732   7.087   7.254   4.474
  257WAT      O 1733   7.280   6.928   4.691
  257WAT     H1 1734   7.275   6.842   4.677
  257WAT     H2 1735   7.261   6.962   4.613
  257WAT    EPW 1736   7.277   6.920   4.677
  258WAT      O 1737   7.001   7.717   4.518
  258WAT     H1 1738   7.049   7.741   4.449
  258WAT     H2 1739   6.972   7.638   4.496
  258WAT    EPW 1740   7.004   7.709   4.505
  259WAT      O 1741   7.105   7.315   3.080
  259WAT     H1 1742   7.032   7.316   3.129
  259WAT     H2 1743   7.107   7.234   3.048
  259WAT    EPW 1744   7.094   7.303   3.083
  260WAT      O 1745   7.570   7.663   4.523
  260WAT     H1 1746   7.534   7.706   4.590
  260WAT     H2 1747   7.501   7.631   4.480
  260WAT    EPW 1748   7.554   7.664   4.526
  261WAT      O 1749   7.489   7.006   4.387
  261WAT     H1 1750   7.404   6.991   4.391
  261WAT     H2 1751   7.525   6.931   4.414
  261WAT    EPW 1752   7.482   6.993   4.392
  262WAT      O 1753   7.717   7.452   4.643
  262WAT     H1 1754   7.666   7.386   4.616
  262WAT     H2 1755   7.682   7.521   4.603
  262WAT    EPW 1756   7.704   7.452   4.633
  263WAT      O 1757   7.690   6.841   3.229
  263WAT     H1 1758   7.712   6.853   3.146
  263WAT     H2 1759   7.604   6.830   3.227
  263WAT    EPW 1760   7.681   6.841   3.217
  264WAT      O 1761   7.206   7.002   4.437
  264WAT     H1 1762   7.147   6.938   4.428
  264WAT     H2 1763   7.158   7.074   4.443
  264WAT    EPW 1764   7.190   7.003   4.437
  265WAT      O 1765   7.085   7.367   3.749
  265WAT     H1 1766   7.042   7.390   3.821
  265WAT     H2 1767   7.123   7.291   3.771
  265WAT    EPW 1768   7.084   7.359   3.763
  266WAT      O 1769   7.491   7.724   3.397
  266WAT     H1 1770   7.545   7.759   3.337
  266WAT     H2 1771   7.545   7.704   3.463
  266WAT    EPW 1772   7.507   7.726   3.398
  267WAT      O 1773   7.545   7.011   4.719
  267WAT     H1 1774   7.577   6.962   4.655
  267WAT     H2 1775   7.460   6.990   4.721
  267WAT    EPW 1776   7.537   7.001   4.710
  268WAT      O 1777   6.887   7.312   1.358
  268WAT     H1 1778   6.821   7.362   1.330
  268WAT     H2 1779   6.853   7.232   1.358
  268WAT    EPW 1780   6.872   7.308   1.354
  269WAT      O 1781   7.180   7.920   1.227
  269WAT     H1 1782   7.148   7.876   1.160
  269WAT     H2 1783   7.190   7.859   1.289
  269WAT    EPW 1784   7.177   7.905   1.227
  270WAT      O 1785   7.608   6.995   1.564
  270WAT     H1 1786   7.607   7.077   1.535
  270WAT     H2 1787   7.660   6.954   1.507
  270WAT    EPW 1788   7.616   7.001   1.551
  271WAT      O 1789   7.184   7.734   1.869
  271WAT     H1 1790   7.129   7.744   1.802
  271WAT     H2 1791   7.236   7.669   1.843
  271WAT    EPW 1792   7.184   7.726   1.855
  272WAT      O 1793   7.567   7.236   2.384
  272WAT     H1 1794   7.627   7.231   2.320
  272WAT     H2 1795   7.537   7.154   2.389
  272WAT    EPW 1796   7.571   7.223   2.375
  273WAT      O 1797   7.306   7.495   1.803
  273WAT     H1 1798   7.351   7.452   1.864
  273WAT     H2 1799   7.227   7.458   1.806
  273WAT    EPW 1800   7.301   7.483   1.812
  274WAT      O 1801   7.361   7.031   1.745
  274WAT     H1 1802   7.322   7.081   1.684
  274WAT     H2 1803   7.445   7.033   1.722
  274WAT    EPW 1804   7.368   7.039   1.732
  275WAT      O 1805   7.690   6.948   1.828
  275WAT     H1 1806   7.682   7.027   1.865
  275WAT     H2 1807   7.674   6.964   1.744
  275WAT    EPW 1808   7.686   6.962   1.821
  276WAT      O 1809   6.929   7.446   2.125
  276WAT     H1 1810   6.885   7.522   2.125
  276WAT     H2 1811   6.879   7.393   2.172
  276WAT    EPW 1812   6.915   7.450   2.132
  277WAT      O 1813   7.226   6.969   2.165
  277WAT     H1 1814   7.179   6.901   2.135
  277WAT     H2 1815   7.290   6.931   2.209
  277WAT    EPW 1816   7.228   6.953   2.167
  278WAT      O 1817   7.558   7.167   3.063
  278WAT     H1 1818   7.571   7.118   2.992
  278WAT     H2 1819   7.591   7.245   3.041
  278WAT    EPW 1820   7.565   7.172   3.049
  279WAT      O 1821   7.127   7.045   2.996
  279WAT     H1 1822   7.050   7.009   2.974
  279WAT     H2 1823   7.182   7.011   2.938
  279WAT    EPW 1824   7.123   7.035   2.984
  280WAT      O 1825   7.730   6.852   2.956
  280WAT     H1 1826   7.749   6.789   2.899
  280WAT     H2 1827   7.686   6.911   2.909
  280WAT    EPW 1828   7.726   6.851   2.941
  281WAT      O 1829   6.854   7.176   2.741
  281WAT     H1 1830   6.844   7.253   2.781
  281WAT     H2 1831   6.917   7.191   2.683
  281WAT    EPW 1832   6.862   7.189   2.739
  282WAT      O 1833   6.983   7.093   1.639
  282WAT     H1 1834   6.961   7.010   1.625
  282WAT     H2 1835   6.939   7.114   1.711
  282WAT    EPW 1836   6.973   7.084   1.648
  283WAT      O 1837   7.758   7.349   1.683
  283WAT     H1 1838   7.723   7.316   1.610
  283WAT     H2 1839   7.844   7.349   1.666
  283WAT    EPW 1840   7.766   7.345   1.670
  284WAT      O 1841   7.659   7.214   1.915
  284WAT     H1 1842   7.696   7.263   1.853
  284WAT     H2 1843   7.699   7.239   1.988
  284WAT    EPW 1844   7.670   7.225   1.916
  285WAT      O 1845   7.317   6.773   1.845
  285WAT     H1 1846   7.331   6.856   1.822
  285WAT     H2 1847   7.316   6.730   1.769
  285WAT    EPW 1848   7.319   6.779   1.830
  286WAT      O 1849   7.430   7.694   2.221
  286WAT     H1 1850   7.418   7.657   2.299
  286WAT     H2 1851   7.361   7.667   2.175
  286WAT    EPW 1852   7.418   7.685   2.225
  287WAT      O 1853   7.225   7.153   1.959
  287WAT     H1 1854   7.263   7.108   1.894
  287WAT     H2 1855   7.228   7.097   2.026
  287WAT    EPW 1856   7.231   7.138   1.959
  288WAT      O 1857   7.107   7.285   2.293
  288WAT     H1 1858   7.189   7.307   2.276
  288WAT     H2 1859   7.061   7.337   2.241
  288WAT    EPW 1860   7.112   7.296   2.283
  289WAT      O 1861   7.672   7.407   2.984
  289WAT     H1 1862   7.613   7.468   3.004
  289WAT     H2 1863   7.696   7.427   2.903
  289WAT    EPW 1864   7.667   7.419   2.975
  290WAT      O 1865   7.029   7.722   1.638
  290WAT     H1 1866   6.998   7.641   1.630
  290WAT     H2 1867   7.084   7.730   1.571
  290WAT    EPW 1868   7.032   7.712   1.627
  291WAT      O 1869   7.633   7.247   1.448
  291WAT     H1 1870   7.640   7.218   1.366
  291WAT     H2 1871   7.582   7.317   1.440
  291WAT    EPW 1872   7.626   7.253   1.434
  292WAT      O 1873   7.241   7.499   2.921
  292WAT     H1 1874   7.195   7.442   2.968
  292WAT     H2 1875   7.249   7.461   2.843
  292WAT    EPW 1876   7.236   7.485   2.916
  293WAT      O 1877   7.210   7.431   1.422
  293WAT     H1 1878   7.210   7.365   1.479
  293WAT     H2 1879   7.177   7.395   1.349
  293WAT    EPW 1880   7.205   7.416   1.419
  294WAT      O 1881   7.159   7.633   2.123
  294WAT     H1 1882   7.161   7.669   2.044
  294WAT     H2 1883   7.102   7.567   2.114
  294WAT    EPW 1884   7.151   7.628   2.110
  295WAT      O 1885   7.333   7.571   2.465
  295WAT     H1 1886   7.335   7.509   2.404
  295WAT     H2 1887   7.264   7.619   2.442
  295WAT    EPW 1888   7.323   7.569   2.453
  296WAT      O 1889   7.091   7.732   2.893
  296WAT     H1 1890   7.077   7.732   2.807
  296WAT     H2 1891   7.138   7.659   2.905
  296WAT    EPW 1892   7.096   7.721   2.882
  297WAT      O 1893   7.750   7.294   2.168
  297WAT     H1 1894   7.725   7.377   2.178
  297WAT     H2 1895   7.835   7.295   2.191
  297WAT    EPW 1896   7.759   7.306   2.173
  298WAT      O 1897   7.421   6.838   1.407
  298WAT     H1 1898   7.462   6.870   1.477
  298WAT     H2 1899   7.384   6.908   1.371
  298WAT    EPW 1900   7.422   6.853   1.412
  299WAT      O 1901   7.219   7.716   1.429
  299WAT     H1 1902   7.211   7.629   1.426
  299WAT     H2 1903   7.299   7.727   1.462
  299WAT    EPW 1904   7.230   7.705   1.434
  300WAT      O 1905   6.896   6.827   1.595
  300WAT     H1 1906   6.893   6.774   1.526
  300WAT     H2 1907   6.869   6.777   1.661
  300WAT    EPW 1908   6.891   6.812   1.594
  301WAT      O 1909   7.653   7.614   1.705
  301WAT     H1 1910   7.601   7.607   1.775
  301WAT     H2 1911   7.687   7.534   1.699
  301WAT    EPW 1912   7.650   7.601   1.715
  302WAT      O 1913   7.334   7.081   1.310
  302WAT     H1 1914   7.274   7.074   1.247
  302WAT     H2 1915   7.401   7.120   1.271
  302WAT    EPW 1916   7.335   7.086   1.295
  303WAT      O 1917   7.679   7.556   2.213
  303WAT     H1 1918   7.606   7.603   2.198
  303WAT     H2 1919   7.705   7.582   2.292
  303WAT    EPW 1920   7.672   7.567   2.223
  304WAT      O 1921   7.159   7.768   2.365
  304WAT     H1 1922   7.222   7.825   2.347
  304WAT     H2 1923   7.143   7.729   2.288
  304WAT    EPW 1924   7.166   7.770   2.351
  305WAT      O 1925   7.423   7.339   1.999
  305WAT     H1 1926   7.496   7.299   1.972
  305WAT     H2 1927   7.362   7.278   1.989
  305WAT    EPW 1928   7.425   7.324   1.994
  306WAT      O 1929   6.940   7.451   1.624
  306WAT     H1 1930   6.972   7.412   1.695
  306WAT     H2 1931   6.953   7.393   1.560
  306WAT    EPW 1932   6.946   7.437   1.625
  307WAT      O 1933   7.471   7.590   1.152
  307WAT     H1 1934   7.467   7.551   1.230
  307WAT     H2 1935   7.394   7.574   1.116
  307WAT    EPW 1936   7.459   7.582   1.158
  308WAT      O 1937   7.478   7.470   1.401
  308WAT     H1 1938   7.488   7.545   1.445
  308WAT     H2 1939   7.393   7.451   1.413
  308WAT    EPW 1940   7.467   7.479   1.409
  309WAT      O 1941   6.926   7.067   2.133
  309WAT     H1 1942   6.913   7.087   2.049
  309WAT     H2 1943   7.011   7.082   2.145
  309WAT    EPW 1944   6.936   7.072   2.123
  310WAT      O 1945   7.739   7.631   2.476
  310WAT     H1 1946   7.680   7.683   2.513
  310WAT     H2 1947   7.755   7.571   2.537
  310WAT    EPW 1948   7.732   7.630   2.490
  311WAT      O 1949   7.527   7.272   2.659
  311WAT     H1 1950   7.544   7.198   2.701
  311WAT     H2 1951   7.543   7.253   2.575
  311WAT    EPW 1952   7.532   7.258   2.653
  312WAT      O 1953   7.652   6.855   2.600
  312WAT     H1 1954   7.676   6.845   2.517
  312WAT     H2 1955   7.684   6.785   2.640
  312WAT    EPW 1956   7.660   6.844   2.594
  313WAT      O 1957   7.632   7.788   1.273
  313WAT     H1 1958   7.577   7.740   1.224
  313WAT     H2 1959   7.711   7.763   1.244
  313WAT    EPW 1960   7.636   7.777   1.261
  314WAT      O 1961   7.365   7.381   2.268
  314WAT     H1 1962   7.387   7.382   2.184
  314WAT     H2 1963   7.429   7.334   2.305
  314WAT    EPW 1964   7.378   7.374   2.261
  315WAT      O 1965   7.675   6.809   2.323
  315WAT     H1 1966   7.591   6.805   2.300
  315WAT     H2 1967   7.716   6.832   2.249
  315WAT    EPW 1968   7.669   6.812   2.308
  316WAT      O 1969   6.876   6.946   2.897
  316WAT     H1 1970   6.874   7.018   2.848
  316WAT     H2 1971   6.791   6.928   2.910
  316WAT    EPW 1972   6.863   6.954   2.891
  317WAT      O 1973   7.230   7.184   1.554
  317WAT     H1 1974   7.250   7.146   1.478
  317WAT     H2 1975   7.150   7.154   1.572
  317WAT    EPW 1976   7.221   7.174   1.545
  318WAT      O 1977   7.273   7.384   2.667
  318WAT     H1 1978   7.286   7.449   2.610
  318WAT     H2 1979   7.350   7.344   2.669
  318WAT    EPW 1980   7.286   7.388   2.659
  319WAT      O 1981   7.063   7.239   2.559
  319WAT     H1 1982   7.076   7.245   2.473
  319WAT     H2 1983   7.132   7.281   2.593
  319WAT    EPW 1984   7.075   7.246   2.552
  320WAT      O 1985   7.314   6.934   2.821
  320WAT     H1 1986   7.340   6.851   2.816
  320WAT     H2 1987   7.275   6.949   2.744
  320WAT    EPW 1988   7.312   6.924   2.809
  321WAT      O 1989   7.049   7.690   2.615
  321WAT     H1 1990   7.071   7.729   2.540
  321WAT     H2 1991   6.996   7.625   2.590
  321WAT    EPW 1992   7.044   7.686   2.600
  322WAT      O 1993   7.103   7.322   1.186
  322WAT     H1 1994   7.028   7.317   1.231
  322WAT     H2 1995   7.115   7.240   1.157
  322WAT    EPW 1996   7.094   7.309   1.188
  323WAT      O 1997   7.509   7.684   2.654
  323WAT     H1 1998   7.459   7.724   2.712
  323WAT     H2 1999   7.452   7.650   2.597
  323WAT    EPW 2000   7.493   7.685   2.654
  324WAT      O 2001   7.444   7.006   2.472
  324WAT     H1 2002   7.361   6.995   2.498
  324WAT     H2 2003   7.487   6.942   2.513
  324WAT    EPW 2004   7.438   6.995   2.482
  325WAT      O 2005   7.695   7.483   2.716
  325WAT     H1 2006   7.648   7.413   2.695
  325WAT     H2 2007   7.638   7.549   2.711
  325WAT    EPW 2008   7.680   7.482   2.712
  326WAT      O 2009   7.700   6.846   1.340
  326WAT     H1 2010   7.722   6.858   1.257
  326WAT     H2 2011   7.614   6.831   1.336
  326WAT    EPW 2012   7.690   6.845   1.327
  327WAT      O 2013   7.188   6.990   2.583
  327WAT     H1 2014   7.134   6.926   2.559
  327WAT     H2 2015   7.141   7.062   2.570
  327WAT    EPW 2016   7.173   6.991   2.578
  328WAT      O 2017   7.058   7.366   1.870
  328WAT     H1 2018   7.008   7.385   1.939
  328WAT     H2 2019   7.096   7.291   1.893
  328WAT    EPW 2020   7.056   7.357   1.884
  329WAT      O 2021   7.493   7.725   1.507
  329WAT     H1 2022   7.545   7.759   1.445
  329WAT     H2 2023   7.548   7.704   1.571
  329WAT    EPW 2024   7.509   7.727   1.507
  330WAT      O 2025   7.572   7.030   2.802
  330WAT     H1 2026   7.602   6.985   2.734
  330WAT     H2 2027   7.489   7.004   2.809
  330WAT    EPW 2028   7.564   7.020   2.793
  331WAT      O 2029   7.570   7.209   0.494
  331WAT     H1 2030   7.642   7.174   0.458
  331WAT     H2 2031   7.522   7.140   0.515
  331WAT    EPW 2032   7.574   7.194   0.492
  332WAT      O 2033   6.959   7.498   0.354
  332WAT     H1 2034   6.907   7.557   0.317
  332WAT     H2 2035   6.903   7.440   0.387
  332WAT    EPW 2036   6.943   7.498   0.353
  333WAT      O 2037   7.176   6.949   0.395
  333WAT     H1 2038   7.198   7.030   0.371
  333WAT     H2 2039   7.248   6.902   0.380
  333WAT    EPW 2040   7.190   6.954   0.389
  334WAT      O 2041   7.571   7.176   1.172
  334WAT     H1 2042   7.582   7.125   1.102
  334WAT     H2 2043   7.602   7.253   1.146
  334WAT    EPW 2044   7.577   7.180   1.158
  335WAT      O 2045   7.149   7.053   1.106
  335WAT     H1 2046   7.073   7.013   1.092
  335WAT     H2 2047   7.204   7.017   1.049
  335WAT    EPW 2048   7.146   7.042   1.096
  336WAT      O 2049   7.746   6.863   1.068
  336WAT     H1 2050   7.766   6.799   1.012
  336WAT     H2 2051   7.699   6.919   1.020
  336WAT    EPW 2052   7.742   6.862   1.053
  337WAT      O 2053   6.882   7.183   0.879
  337WAT     H1 2054   6.866   7.259   0.917
  337WAT     H2 2055   6.942   7.202   0.818
  337WAT    EPW 2056   6.888   7.197   0.875
  338WAT      O 2057   7.357   7.781   0.395
  338WAT     H1 2058   7.371   7.755   0.477
  338WAT     H2 2059   7.428   7.754   0.352
  338WAT    EPW 2060   7.370   7.773   0.401
  339WAT      O 2061   7.165   7.309   0.420
  339WAT     H1 2062   7.243   7.345   0.404
  339WAT     H2 2063   7.109   7.364   0.381
  339WAT    EPW 2064   7.168   7.323   0.412
  340WAT      O 2065   7.674   7.416   1.081
  340WAT     H1 2066   7.612   7.475   1.099
  340WAT     H2 2067   7.701   7.438   1.001
  340WAT    EPW 2068   7.669   7.428   1.072
  341WAT      O 2069   7.228   7.518   1.033
  341WAT     H1 2070   7.185   7.460   1.081
  341WAT     H2 2071   7.249   7.473   0.961
  341WAT    EPW 2072   7.225   7.503   1.029
  342WAT      O 2073   7.327   7.589   0.616
  342WAT     H1 2074   7.359   7.540   0.550
  342WAT     H2 2075   7.249   7.615   0.586
  342WAT    EPW 2076   7.320   7.585   0.602
  343WAT      O 2077   7.078   7.753   1.013
  343WAT     H1 2078   7.052   7.755   0.930
  343WAT     H2 2079   7.126   7.681   1.018
  343WAT    EPW 2080   7.081   7.743   1.002
  344WAT      O 2081   7.798   7.081   0.381
  344WAT     H1 2082   7.817   7.099   0.298
  344WAT     H2 2083   7.873   7.095   0.423
  344WAT    EPW 2084   7.812   7.086   0.375
  345WAT      O 2085   7.604   7.661   0.327
  345WAT     H1 2086   7.657   7.702   0.271
  345WAT     H2 2087   7.647   7.666   0.403
  345WAT    EPW 2088   7.618   7.668   0.330
  346WAT      O 2089   7.103   7.695   0.494
  346WAT     H1 2090   7.154   7.732   0.434
  346WAT     H2 2091   7.057   7.636   0.449
  346WAT    EPW 2092   7.104   7.692   0.479
  347WAT      O 2093   7.720   7.673   0.579
  347WAT     H1 2094   7.754   7.607   0.625
  347WAT     H2 2095   7.665   7.711   0.635
  347WAT    EPW 2096   7.717   7.669   0.594
  348WAT      O 2097   7.547   7.276   0.766
  348WAT     H1 2098   7.561   7.203   0.812
  348WAT     H2 2099   7.558   7.250   0.683
  348WAT    EPW 2100   7.551   7.261   0.760
  349WAT      O 2101   7.671   6.858   0.723
  349WAT     H1 2102   7.681   6.846   0.637
  349WAT     H2 2103   7.709   6.788   0.758
  349WAT    EPW 2104   7.678   6.846   0.715
  350WAT      O 2105   7.424   7.433   0.409
  350WAT     H1 2106   7.476   7.485   0.361
  350WAT     H2 2107   7.476   7.366   0.428
  350WAT    EPW 2108   7.440   7.431   0.404
  351WAT      O 2109   7.678   6.829   0.446
  351WAT     H1 2110   7.598   6.828   0.410
  351WAT     H2 2111   7.713   6.903   0.415
  351WAT    EPW 2112   7.671   6.840   0.436
  352WAT      O 2113   6.901   6.945   1.021
  352WAT     H1 2114   6.897   7.019   0.974
  352WAT     H2 2115   6.825   6.905   1.003
  352WAT    EPW 2116   6.889   6.950   1.012
  353WAT      O 2117   7.293   7.384   0.798
  353WAT     H1 2118   7.302   7.450   0.741
  353WAT     H2 2119   7.371   7.344   0.795
  353WAT    EPW 2120   7.306   7.388   0.789
  354WAT      O 2121   7.083   7.251   0.679
  354WAT     H1 2122   7.104   7.261   0.595
  354WAT     H2 2123   7.151   7.285   0.721
  354WAT    EPW 2124   7.096   7.257   0.673
  355WAT      O 2125   7.326   6.931   0.931
  355WAT     H1 2126   7.354   6.848   0.924
  355WAT     H2 2127   7.279   6.943   0.858
  355WAT    EPW 2128   7.323   6.920   0.919
  356WAT      O 2129   6.975   7.722   0.745
  356WAT     H1 2130   7.016   7.742   0.671
  356WAT     H2 2131   6.951   7.639   0.734
  356WAT    EPW 2132   6.978   7.713   0.733
  357WAT      O 2133   7.520   7.703   0.783
  357WAT     H1 2134   7.482   7.748   0.847
  357WAT     H2 2135   7.453   7.672   0.737
  357WAT    EPW 2136   7.504   7.705   0.785
  358WAT      O 2137   7.429   7.000   0.600
  358WAT     H1 2138   7.345   6.994   0.619
  358WAT     H2 2139   7.462   6.924   0.627
  358WAT    EPW 2140   7.422   6.988   0.607
  359WAT      O 2141   7.708   7.496   0.814
  359WAT     H1 2142   7.661   7.425   0.794
  359WAT     H2 2143   7.648   7.560   0.815
  359WAT    EPW 2144   7.692   7.495   0.811
  360WAT      O 2145   7.173   6.985   0.708
  360WAT     H1 2146   7.128   6.927   0.661
  360WAT     H2 2147   7.133   7.061   0.690
  360WAT    EPW 2148   7.160   6.988   0.699
  361WAT      O 2149   7.581   7.036   0.914
  361WAT     H1 2150   7.612   6.990   0.847
  361WAT     H2 2151   7.498   7.009   0.919
  361WAT    EPW 2152   7.573   7.025   0.905
  362WAT      O 2153   6.932   6.102   7.407
  362WAT     H1 2154   6.854   6.099   7.445
  362WAT     H2 2155   6.938   6.025   7.366
  362WAT    EPW 2156   6.921   6.090   7.407
  363WAT      O 2157   6.914   5.453   7.055
  363WAT     H1 2158   6.848   5.500   7.022
  363WAT     H2 2159   6.885   5.371   7.050
  363WAT    EPW 2160   6.900   5.448   7.049
  364WAT      O 2161   7.209   6.055   7.002
  364WAT     H1 2162   7.185   6.010   6.931
  364WAT     H2 2163   7.226   5.994   7.061
  364WAT    EPW 2164   7.208   6.039   7.000
  365WAT      O 2165   7.193   6.209   7.411
  365WAT     H1 2166   7.244   6.173   7.471
  365WAT     H2 2167   7.116   6.170   7.423
  365WAT    EPW 2168   7.189   6.198   7.421
  366WAT      O 2169   7.573   5.073   7.285
  366WAT     H1 2170   7.612   5.124   7.226
  366WAT     H2 2171   7.622   5.001   7.285
  366WAT    EPW 2172   7.586   5.070   7.276
  367WAT      O 2173   7.042   6.476   6.977
  367WAT     H1 2174   7.096   6.489   6.910
  367WAT     H2 2175   7.087   6.424   7.030
  367WAT    EPW 2176   7.057   6.470   6.975
  368WAT      O 2177   7.131   5.833   7.529
  368WAT     H1 2178   7.081   5.847   7.458
  368WAT     H2 2179   7.185   5.769   7.503
  368WAT    EPW 2180   7.131   5.825   7.515
  369WAT      O 2181   7.296   5.629   7.430
  369WAT     H1 2182   7.352   5.617   7.496
  369WAT     H2 2183   7.229   5.577   7.452
  369WAT    EPW 2184   7.294   5.619   7.443
  370WAT      O 2185   7.672   6.213   7.684
  370WAT     H1 2186   7.656   6.156   7.748
  370WAT     H2 2187   7.733   6.266   7.718
  370WAT    EPW 2188   7.679   6.212   7.698
  371WAT      O 2189   7.682   6.127   7.418
  371WAT     H1 2190   7.683   6.147   7.503
  371WAT     H2 2191   7.763   6.099   7.403
  371WAT    EPW 2192   7.695   6.126   7.428
  372WAT      O 2193   7.356   5.184   7.431
  372WAT     H1 2194   7.315   5.234   7.371
  372WAT     H2 2195   7.427   5.156   7.389
  372WAT    EPW 2196   7.360   5.187   7.416
  373WAT      O 2197   7.724   5.180   7.500
  373WAT     H1 2198   7.712   5.266   7.509
  373WAT     H2 2199   7.674   5.159   7.432
  373WAT    EPW 2200   7.715   5.190   7.491
  374WAT      O 2201   6.947   5.594   7.747
  374WAT     H1 2202   6.950   5.680   7.759
  374WAT     H2 2203   6.953   5.562   7.828
  374WAT    EPW 2204   6.949   5.602   7.761
  375WAT      O 2205   6.959   6.555   7.634
  375WAT     H1 2206   6.896   6.606   7.603
  375WAT     H2 2207   7.000   6.526   7.563
  375WAT    EPW 2208   6.956   6.559   7.619
  376WAT      O 2209   7.539   6.353   7.337
  376WAT     H1 2210   7.495   6.356   7.412
  376WAT     H2 2211   7.591   6.284   7.347
  376WAT    EPW 2212   7.540   6.343   7.349
  377WAT      O 2213   7.097   6.471   7.403
  377WAT     H1 2214   7.140   6.398   7.422
  377WAT     H2 2215   7.158   6.523   7.369
  377WAT    EPW 2216   7.113   6.468   7.401
  378WAT      O 2217   7.277   6.233   7.779
  378WAT     H1 2218   7.318   6.290   7.726
  378WAT     H2 2219   7.304   6.155   7.751
  378WAT    EPW 2220   7.287   6.230   7.767
  379WAT      O 2221   7.526   6.617   7.655
  379WAT     H1 2222   7.599   6.654   7.623
  379WAT     H2 2223   7.463   6.673   7.633
  379WAT    EPW 2224   7.528   6.631   7.647
  380WAT      O 2225   7.830   6.434   6.894
  380WAT     H1 2226   7.813   6.492   6.957
  380WAT     H2 2227   7.865   6.367   6.937
  380WAT    EPW 2228   7.832   6.433   6.910
  381WAT      O 2229   6.984   5.247   7.326
  381WAT     H1 2230   6.965   5.163   7.315
  381WAT     H2 2231   6.938   5.269   7.397
  381WAT    EPW 2232   6.974   5.238   7.335
  382WAT      O 2233   7.821   5.496   7.074
  382WAT     H1 2234   7.779   5.420   7.088
  382WAT     H2 2235   7.784   5.528   7.002
  382WAT    EPW 2236   7.810   5.489   7.066
  383WAT      O 2237   7.669   5.459   7.488
  383WAT     H1 2238   7.613   5.458   7.421
  383WAT     H2 2239   7.737   5.504   7.457
  383WAT    EPW 2240   7.671   5.465   7.473
  384WAT      O 2241   7.296   4.933   7.545
  384WAT     H1 2242   7.305   5.015   7.518
  384WAT     H2 2243   7.295   4.887   7.471
  384WAT    EPW 2244   7.297   4.938   7.530
  385WAT      O 2245   7.288   5.342   7.652
  385WAT     H1 2246   7.318   5.288   7.590
  385WAT     H2 2247   7.223   5.297   7.689
  385WAT    EPW 2248   7.283   5.328   7.648
  386WAT      O 2249   7.328   6.007   7.607
  386WAT     H1 2250   7.381   5.991   7.539
  386WAT     H2 2251   7.258   5.958   7.590
  386WAT    EPW 2252   7.326   5.997   7.594
  387WAT      O 2253   7.184   6.635   7.779
  387WAT     H1 2254   7.110   6.618   7.736
  387WAT     H2 2255   7.230   6.683   7.722
  387WAT    EPW 2256   7.180   6.640   7.764
  388WAT      O 2257   7.469   5.947   7.378
  388WAT     H1 2258   7.531   6.008   7.378
  388WAT     H2 2259   7.512   5.874   7.356
  388WAT    EPW 2260   7.484   5.945   7.374
  389WAT      O 2261   7.014   6.141   7.815
  389WAT     H1 2262   6.971   6.215   7.834
  389WAT     H2 2263   7.096   6.168   7.802
  389WAT    EPW 2264   7.020   6.156   7.816
  390WAT      O 2265   6.993   5.858   7.290
  390WAT     H1 2266   6.975   5.773   7.287
  390WAT     H2 2267   7.071   5.863   7.251
  390WAT    EPW 2268   7.002   5.846   7.284
  391WAT      O 2269   6.911   6.326   7.250
  391WAT     H1 2270   6.969   6.379   7.288
  391WAT     H2 2271   6.909   6.257   7.303
  391WAT    EPW 2272   6.920   6.324   7.263
  392WAT      O 2273   6.925   6.148   7.026
  392WAT     H1 2274   7.004   6.110   7.023
  392WAT     H2 2275   6.934   6.208   7.089
  392WAT    EPW 2276   6.938   6.151   7.035
  393WAT      O 2277   6.967   5.876   7.749
  393WAT     H1 2278   7.019   5.864   7.680
  393WAT     H2 2279   6.988   5.956   7.777
  393WAT    EPW 2280   6.978   5.886   7.743
  394WAT      O 2281   7.639   5.288   7.121
  394WAT     H1 2282   7.609   5.286   7.039
  394WAT     H2 2283   7.589   5.348   7.160
  394WAT    EPW 2284   7.627   5.297   7.114
  395WAT      O 2285   7.448   6.360   7.600
  395WAT     H1 2286   7.468   6.442   7.622
  395WAT     H2 2287   7.515   6.314   7.632
  395WAT    EPW 2288   7.461   6.366   7.608
  396WAT      O 2289   7.244   5.595   7.096
  396WAT     H1 2290   7.239   5.532   7.157
  396WAT     H2 2291   7.202   5.561   7.028
  396WAT    EPW 2292   7.237   5.581   7.095
  397WAT      O 2293   7.471   5.829   7.783
  397WAT     H1 2294   7.422   5.878   7.729
  397WAT     H2 2295   7.469   5.750   7.746
  397WAT    EPW 2296   7.463   5.825   7.769
  398WAT      O 2297   7.583   6.622   7.292
  398WAT     H1 2298   7.579   6.539   7.320
  398WAT     H2 2299   7.641   6.620   7.228
  398WAT    EPW 2300   7.591   6.609   7.287
  399WAT      O 2301   7.401   4.968   7.094
  399WAT     H1 2302   7.451   4.998   7.159
  399WAT     H2 2303   7.361   5.039   7.064
  399WAT    EPW 2304   7.403   4.983   7.099
  400WAT      O 2305   7.791   6.616   7.107
  400WAT     H1 2306   7.857   6.640   7.159
  400WAT     H2 2307   7.762   6.693   7.075
  400WAT    EPW 2308   7.796   6.631   7.110
  401WAT      O 2309   7.254   5.867   7.198
  401WAT     H1 2310   7.264   5.782   7.183
  401WAT     H2 2311   7.318   5.886   7.255
  401WAT    EPW 2312   7.265   5.857   7.204
  402WAT      O 2313   6.902   4.977   7.288
  402WAT     H1 2314   6.902   4.924   7.218
  402WAT     H2 2315   6.870   4.927   7.352
  402WAT    EPW 2316   6.898   4.962   7.287
  403WAT      O 2317   7.853   5.610   7.323
  403WAT     H1 2318   7.936   5.637   7.329
  403WAT     H2 2319   7.850   5.571   7.245
  403WAT    EPW 2320   7.865   5.608   7.312
  404WAT      O 2321   7.304   5.214   7.005
  404WAT     H1 2322   7.241   5.208   6.945
  404WAT     H2 2323   7.370   5.253   6.962
  404WAT    EPW 2324   7.305   5.219   6.990
  405WAT      O 2325   7.629   6.037   7.892
  405WAT     H1 2326   7.584   5.965   7.871
  405WAT     H2 2327   7.626   6.038   7.979
  405WAT    EPW 2328   7.622   6.026   7.902
  406WAT      O 2329   7.417   6.621   6.897
  406WAT     H1 2330   7.440   6.551   6.944
  406WAT     H2 2331   7.405   6.683   6.957
  406WAT    EPW 2332   7.419   6.619   6.913
  407WAT      O 2333   7.460   5.572   7.646
  407WAT     H1 2334   7.534   5.539   7.613
  407WAT     H2 2335   7.414   5.502   7.668
  407WAT    EPW 2336   7.464   5.557   7.645
  408WAT      O 2337   6.951   5.583   7.301
  408WAT     H1 2338   6.986   5.540   7.368
  408WAT     H2 2339   6.958   5.527   7.235
  408WAT    EPW 2340   6.957   5.568   7.301
  409WAT      O 2341   7.431   5.712   6.926
  409WAT     H1 2342   7.379   5.675   6.986
  409WAT     H2 2343   7.384   5.706   6.852
  409WAT    EPW 2344   7.416   5.706   6.924
  410WAT      O 2345   7.503   5.484   7.268
  410WAT     H1 2346   7.529   5.567   7.257
  410WAT     H2 2347   7.421   5.491   7.296
  410WAT    EPW 2348   7.495   5.497   7.270
  411WAT      O 2349   7.045   5.216   7.711
  411WAT     H1 2350   6.972   5.237   7.668
  411WAT     H2 2351   7.034   5.131   7.728
  411WAT    EPW 2352   7.033   5.206   7.707
  412WAT      O 2353   7.731   6.734   7.507
  412WAT     H1 2354   7.734   6.821   7.508
  412WAT     H2 2355   7.684   6.715   7.436
  412WAT    EPW 2356   7.724   6.744   7.497
  413WAT      O 2357   7.601   5.902   7.040
  413WAT     H1 2358   7.549   5.849   6.994
  413WAT     H2 2359   7.575   5.982   7.016
  413WAT    EPW 2360   7.589   5.906   7.030
  414WAT      O 2361   7.228   5.349   7.242
  414WAT     H1 2362   7.244   5.306   7.168
  414WAT     H2 2363   7.149   5.322   7.265
  414WAT    EPW 2364   7.219   5.338   7.235
  415WAT      O 2365   7.119   5.473   6.873
  415WAT     H1 2366   7.047   5.469   6.922
  415WAT     H2 2367   7.125   5.393   6.838
  415WAT    EPW 2368   7.109   5.461   6.875
  416WAT      O 2369   7.452   6.394   7.068
  416WAT     H1 2370   7.493   6.387   7.144
  416WAT     H2 2371   7.369   6.374   7.087
  416WAT    EPW 2372   7.446   6.390   7.082
  417WAT      O 2373   7.203   6.298   7.134
  417WAT     H1 2374   7.204   6.276   7.218
  417WAT     H2 2375   7.204   6.222   7.092
  417WAT    EPW 2376   7.203   6.284   7.140
  418WAT      O 2377   7.478   6.140   6.945
  418WAT     H1 2378   7.396   6.114   6.955
  418WAT     H2 2379   7.479   6.220   6.981
  418WAT    EPW 2380   7.466   6.148   6.952
  419WAT      O 2381   7.681   4.968   7.000
  419WAT     H1 2382   7.697   4.986   6.917
  419WAT     H2 2383   7.594   4.961   7.003
  419WAT    EPW 2384   7.671   4.969   6.988
  420WAT      O 2385   7.080   5.487   7.529
  420WAT     H1 2386   7.035   5.520   7.595
  420WAT     H2 2387   7.134   5.429   7.567
  420WAT    EPW 2388   7.082   5.484   7.544
  421WAT      O 2389   7.300   6.639   7.301
  421WAT     H1 2390   7.282   6.691   7.233
  421WAT     H2 2391   7.386   6.628   7.296
  421WAT    EPW 2392   7.310   6.645   7.290
  422WAT      O 2393   7.611   5.739   7.264
  422WAT     H1 2394   7.620   5.788   7.193
  422WAT     H2 2395   7.693   5.715   7.282
  422WAT    EPW 2396   7.624   5.743   7.256
  423WAT      O 2397   7.202   6.436   7.980
  423WAT     H1 2398   7.232   6.370   7.932
  423WAT     H2 2399   7.210   6.505   7.928
  423WAT    EPW 2400   7.207   6.437   7.965
  424WAT      O 2401   6.920   6.111   5.518
  424WAT     H1 2402   6.854   6.104   5.574
  424WAT     H2 2403   6.934   6.029   5.492
  424WAT    EPW 2404   6.913   6.098   5.522
  425WAT      O 2405   6.910   5.458   5.190
  425WAT     H1 2406   6.845   5.505   5.155
  425WAT     H2 2407   6.880   5.376   5.187
  425WAT    EPW 2408   6.896   5.453   5.184
  426WAT      O 2409   7.198   6.054   5.112
  426WAT     H1 2410   7.173   6.010   5.041
  426WAT     H2 2411   7.215   5.992   5.171
  426WAT    EPW 2412   7.197   6.039   5.110
  427WAT      O 2413   7.179   6.215   5.496
  427WAT     H1 2414   7.233   6.178   5.553
  427WAT     H2 2415   7.102   6.178   5.513
  427WAT    EPW 2416   7.176   6.204   5.507
  428WAT      O 2417   7.587   5.070   5.395
  428WAT     H1 2418   7.625   5.129   5.343
  428WAT     H2 2419   7.633   4.997   5.380
  428WAT    EPW 2420   7.599   5.068   5.385
  429WAT      O 2421   7.039   6.487   5.073
  429WAT     H1 2422   7.093   6.500   5.006
  429WAT     H2 2423   7.083   6.433   5.125
  429WAT    EPW 2424   7.053   6.481   5.071
  430WAT      O 2425   6.938   6.319   6.207
  430WAT     H1 2426   6.965   6.296   6.287
  430WAT     H2 2427   6.869   6.267   6.194
  430WAT    EPW 2428   6.931   6.308   6.217
  431WAT      O 2429   7.575   6.161   6.680
  431WAT     H1 2430   7.551   6.148   6.763
  431WAT     H2 2431   7.506   6.132   6.635
  431WAT    EPW 2432   7.561   6.155   6.686
  432WAT      O 2433   7.127   5.869   5.696
  432WAT     H1 2434   7.085   5.869   5.620
  432WAT     H2 2435   7.183   5.802   5.689
  432WAT    EPW 2436   7.129   5.859   5.684
  433WAT      O 2437   7.565   5.396   6.198
  433WAT     H1 2438   7.634   5.375   6.149
  433WAT     H2 2439   7.524   5.320   6.208
  433WAT    EPW 2440   7.569   5.382   6.192
  434WAT      O 2441   7.535   6.466   6.441
  434WAT     H1 2442   7.575   6.502   6.373
  434WAT     H2 2443   7.600   6.433   6.489
  434WAT    EPW 2444   7.550   6.466   6.438
  435WAT      O 2445   7.294   5.649   5.678
  435WAT     H1 2446   7.358   5.591   5.695
  435WAT     H2 2447   7.222   5.600   5.676
  435WAT    EPW 2448   7.293   5.633   5.680
  436WAT      O 2449   7.685   6.300   5.772
  436WAT     H1 2450   7.732   6.247   5.823
  436WAT     H2 2451   7.738   6.367   5.758
  436WAT    EPW 2452   7.699   6.302   5.778
  437WAT      O 2453   7.669   6.132   5.543
  437WAT     H1 2454   7.674   6.173   5.619
  437WAT     H2 2455   7.744   6.087   5.539
  437WAT    EPW 2456   7.681   6.131   5.553
  438WAT      O 2457   7.359   5.174   5.535
  438WAT     H1 2458   7.318   5.228   5.481
  438WAT     H2 2459   7.433   5.155   5.494
  438WAT    EPW 2460   7.364   5.179   5.521
  439WAT      O 2461   7.697   5.066   5.662
  439WAT     H1 2462   7.697   5.145   5.699
  439WAT     H2 2463   7.661   5.080   5.584
  439WAT    EPW 2464   7.692   5.080   5.656
  440WAT      O 2465   6.951   5.599   5.934
  440WAT     H1 2466   6.943   5.686   5.943
  440WAT     H2 2467   6.883   5.568   5.979
  440WAT    EPW 2468   6.940   5.608   5.942
  441WAT      O 2469   6.944   6.539   5.737
  441WAT     H1 2470   6.878   6.584   5.700
  441WAT     H2 2471   6.991   6.513   5.668
  441WAT    EPW 2472   6.941   6.542   5.721
  442WAT      O 2473   7.522   6.335   5.422
  442WAT     H1 2474   7.468   6.342   5.490
  442WAT     H2 2475   7.574   6.268   5.444
  442WAT    EPW 2476   7.522   6.326   5.435
  443WAT      O 2477   7.215   5.112   5.966
  443WAT     H1 2478   7.174   5.042   5.934
  443WAT     H2 2479   7.278   5.078   6.015
  443WAT    EPW 2480   7.218   5.097   5.969
  444WAT      O 2481   7.531   5.316   6.862
  444WAT     H1 2482   7.550   5.278   6.786
  444WAT     H2 2483   7.564   5.396   6.855
  444WAT    EPW 2484   7.538   5.322   6.850
  445WAT      O 2485   7.104   6.482   5.508
  445WAT     H1 2486   7.144   6.405   5.522
  445WAT     H2 2487   7.165   6.530   5.469
  445WAT    EPW 2488   7.119   6.477   5.504
  446WAT      O 2489   7.127   5.202   6.790
  446WAT     H1 2490   7.050   5.171   6.764
  446WAT     H2 2491   7.184   5.166   6.734
  446WAT    EPW 2492   7.124   5.192   6.778
  447WAT      O 2493   7.193   6.308   5.864
  447WAT     H1 2494   7.248   6.309   5.795
  447WAT     H2 2495   7.229   6.249   5.917
  447WAT    EPW 2496   7.207   6.299   5.861
  448WAT      O 2497   7.481   6.604   5.795
  448WAT     H1 2498   7.558   6.626   5.761
  448WAT     H2 2499   7.426   6.662   5.760
  448WAT    EPW 2500   7.484   6.616   5.785
  449WAT      O 2501   7.724   5.009   6.732
  449WAT     H1 2502   7.744   4.950   6.671
  449WAT     H2 2503   7.680   5.070   6.689
  449WAT    EPW 2504   7.721   5.010   6.717
  450WAT      O 2505   7.327   6.700   6.341
  450WAT     H1 2506   7.353   6.686   6.423
  450WAT     H2 2507   7.263   6.642   6.329
  450WAT    EPW 2508   7.321   6.690   6.351
  451WAT      O 2509   6.856   5.333   6.527
  451WAT     H1 2510   6.849   5.407   6.572
  451WAT     H2 2511   6.918   5.350   6.468
  451WAT    EPW 2512   6.864   5.346   6.525
  452WAT      O 2513   7.814   6.417   5.033
  452WAT     H1 2514   7.814   6.478   5.095
  452WAT     H2 2515   7.858   6.351   5.069
  452WAT    EPW 2516   7.820   6.417   5.047
  453WAT      O 2517   6.974   5.244   5.452
  453WAT     H1 2518   6.954   5.161   5.434
  453WAT     H2 2519   6.928   5.261   5.524
  453WAT    EPW 2520   6.964   5.234   5.460
  454WAT      O 2521   7.106   6.549   6.240
  454WAT     H1 2522   7.052   6.480   6.237
  454WAT     H2 2523   7.144   6.549   6.162
  454WAT    EPW 2524   7.104   6.538   6.228
  455WAT      O 2525   7.842   5.481   5.142
  455WAT     H1 2526   7.799   5.410   5.169
  455WAT     H2 2527   7.790   5.513   5.079
  455WAT    EPW 2528   7.828   5.476   5.137
  456WAT      O 2529   7.703   5.329   5.769
  456WAT     H1 2530   7.753   5.380   5.719
  456WAT     H2 2531   7.734   5.343   5.849
  456WAT    EPW 2532   7.715   5.338   5.773
  457WAT      O 2533   7.286   6.373   6.537
  457WAT     H1 2534   7.356   6.414   6.506
  457WAT     H2 2535   7.264   6.419   6.608
  457WAT    EPW 2536   7.293   6.385   6.543
  458WAT      O 2537   7.318   4.917   5.638
  458WAT     H1 2538   7.329   5.000   5.614
  458WAT     H2 2539   7.314   4.874   5.562
  458WAT    EPW 2540   7.319   4.923   5.623
  459WAT      O 2541   7.551   6.018   5.963
  459WAT     H1 2542   7.561   6.003   6.048
  459WAT     H2 2543   7.513   5.945   5.934
  459WAT    EPW 2544   7.547   6.005   5.971
  460WAT      O 2545   7.590   6.021   6.235
  460WAT     H1 2546   7.551   6.098   6.249
  460WAT     H2 2547   7.562   5.971   6.301
  460WAT    EPW 2548   7.580   6.025   6.247
  461WAT      O 2549   6.850   6.342   6.824
  461WAT     H1 2550   6.907   6.389   6.870
  461WAT     H2 2551   6.859   6.262   6.858
  461WAT    EPW 2552   6.860   6.337   6.836
  462WAT      O 2553   7.234   5.291   5.759
  462WAT     H1 2554   7.265   5.243   5.693
  462WAT     H2 2555   7.231   5.234   5.825
  462WAT    EPW 2556   7.238   5.275   5.759
  463WAT      O 2557   7.324   6.067   5.681
  463WAT     H1 2558   7.373   6.018   5.628
  463WAT     H2 2559   7.259   6.013   5.704
  463WAT    EPW 2560   7.321   6.052   5.677
  464WAT      O 2561   7.110   6.737   5.823
  464WAT     H1 2562   7.050   6.682   5.793
  464WAT     H2 2563   7.166   6.744   5.757
  464WAT    EPW 2564   7.109   6.730   5.809
  465WAT      O 2565   7.132   5.450   6.089
  465WAT     H1 2566   7.211   5.480   6.069
  465WAT     H2 2567   7.079   5.496   6.037
  465WAT    EPW 2568   7.136   5.461   6.078
  466WAT      O 2569   7.470   5.938   5.480
  466WAT     H1 2570   7.527   6.004   5.489
  466WAT     H2 2571   7.520   5.870   5.459
  466WAT    EPW 2572   7.486   5.938   5.478
  467WAT      O 2573   6.944   6.173   5.872
  467WAT     H1 2574   6.888   6.236   5.895
  467WAT     H2 2575   7.019   6.216   5.861
  467WAT    EPW 2576   6.947   6.189   5.874
  468WAT      O 2577   7.653   5.566   6.853
  468WAT     H1 2578   7.588   5.615   6.884
  468WAT     H2 2579   7.665   5.598   6.772
  468WAT    EPW 2580   7.645   5.578   6.845
  469WAT      O 2581   7.009   5.857   5.446
  469WAT     H1 2582   6.987   5.773   5.442
  469WAT     H2 2583   7.082   5.861   5.398
  469WAT    EPW 2584   7.017   5.845   5.438
  470WAT      O 2585   6.907   6.337   5.362
  470WAT     H1 2586   6.968   6.388   5.399
  470WAT     H2 2587   6.903   6.268   5.415
  470WAT    EPW 2588   6.916   6.334   5.375
  471WAT      O 2589   7.307   6.130   6.044
  471WAT     H1 2590   7.341   6.176   6.110
  471WAT     H2 2591   7.376   6.096   6.004
  471WAT    EPW 2592   7.322   6.132   6.048
  472WAT      O 2593   6.916   6.157   5.139
  472WAT     H1 2594   6.993   6.117   5.135
  472WAT     H2 2595   6.927   6.217   5.201
  472WAT    EPW 2596   6.929   6.160   5.147
  473WAT      O 2597   6.965   5.902   5.915
  473WAT     H1 2598   7.015   5.885   5.846
  473WAT     H2 2599   6.955   5.989   5.912
  473WAT    EPW 2600   6.971   5.912   5.904
  474WAT      O 2601   7.661   5.280   5.229
  474WAT     H1 2602   7.627   5.272   5.149
  474WAT     H2 2603   7.620   5.349   5.262
  474WAT    EPW 2604   7.650   5.289   5.222
  475WAT      O 2605   7.402   6.367   5.674
  475WAT     H1 2606   7.424   6.443   5.711
  475WAT     H2 2607   7.457   6.309   5.711
  475WAT    EPW 2608   7.414   6.369   5.685
  476WAT      O 2609   7.243   5.669   6.720
  476WAT     H1 2610   7.199   5.606   6.760
  476WAT     H2 2611   7.250   5.639   6.638
  476WAT    EPW 2612   7.238   5.655   6.714
  477WAT      O 2613   7.264   5.583   5.233
  477WAT     H1 2614   7.243   5.524   5.293
  477WAT     H2 2615   7.220   5.558   5.162
  477WAT    EPW 2616   7.255   5.571   5.231
  478WAT      O 2617   7.415   5.788   5.897
  478WAT     H1 2618   7.378   5.758   5.824
  478WAT     H2 2619   7.411   5.720   5.952
  478WAT    EPW 2620   7.409   5.774   5.894
  479WAT      O 2621   7.308   5.738   6.254
  479WAT     H1 2622   7.334   5.688   6.188
  479WAT     H2 2623   7.253   5.795   6.217
  479WAT    EPW 2624   7.304   5.739   6.239
  480WAT      O 2625   7.664   6.552   6.215
  480WAT     H1 2626   7.643   6.504   6.145
  480WAT     H2 2627   7.662   6.634   6.184
  480WAT    EPW 2628   7.661   6.557   6.200
  481WAT      O 2629   7.121   5.907   6.789
  481WAT     H1 2630   7.106   5.949   6.714
  481WAT     H2 2631   7.166   5.836   6.764
  481WAT    EPW 2632   7.126   5.903   6.774
  482WAT      O 2633   7.720   6.392   6.644
  482WAT     H1 2634   7.756   6.408   6.722
  482WAT     H2 2635   7.670   6.322   6.659
  482WAT    EPW 2636   7.718   6.384   6.658
  483WAT      O 2637   7.799   5.387   6.029
  483WAT     H1 2638   7.820   5.471   6.042
  483WAT     H2 2639   7.870   5.344   6.055
  483WAT    EPW 2640   7.812   5.393   6.035
  484WAT      O 2641   7.608   6.594   5.413
  484WAT     H1 2642   7.594   6.508   5.419
  484WAT     H2 2643   7.675   6.599   5.357
  484WAT    EPW 2644   7.616   6.582   5.406
  485WAT      O 2645   7.413   4.981   5.191
  485WAT     H1 2646   7.461   5.010   5.257
  485WAT     H2 2647   7.368   5.052   5.166
  485WAT    EPW 2648   7.413   4.996   5.197
  486WAT      O 2649   7.820   6.614   5.232
  486WAT     H1 2650   7.901   6.638   5.254
  486WAT     H2 2651   7.786   6.686   5.197
  486WAT    EPW 2652   7.827   6.628   5.230
  487WAT      O 2653   7.251   5.864   5.310
  487WAT     H1 2654   7.263   5.779   5.295
  487WAT     H2 2655   7.318   5.886   5.360
  487WAT    EPW 2656   7.262   5.855   5.315
  488WAT      O 2657   6.891   4.976   5.400
  488WAT     H1 2658   6.888   4.924   5.330
  488WAT     H2 2659   6.862   4.926   5.465
  488WAT    EPW 2660   6.887   4.961   5.399
  489WAT      O 2661   7.898   5.647   5.356
  489WAT     H1 2662   7.985   5.656   5.357
  489WAT     H2 2663   7.884   5.594   5.288
  489WAT    EPW 2664   7.909   5.640   5.346
  490WAT      O 2665   7.291   5.219   5.119
  490WAT     H1 2666   7.229   5.219   5.057
  490WAT     H2 2667   7.358   5.259   5.080
  490WAT    EPW 2668   7.292   5.225   5.104
  491WAT      O 2669   7.810   6.116   5.930
  491WAT     H1 2670   7.734   6.073   5.937
  491WAT     H2 2671   7.839   6.119   6.012
  491WAT    EPW 2672   7.803   6.110   5.943
  492WAT      O 2673   7.414   6.632   5.002
  492WAT     H1 2674   7.434   6.560   5.047
  492WAT     H2 2675   7.405   6.693   5.064
  492WAT    EPW 2676   7.416   6.630   5.018
  493WAT      O 2677   7.139   5.924   6.132
  493WAT     H1 2678   7.189   5.992   6.109
  493WAT     H2 2679   7.088   5.912   6.062
  493WAT    EPW 2680   7.139   5.932   6.118
  494WAT      O 2681   7.452   5.451   5.799
  494WAT     H1 2682   7.525   5.407   5.782
  494WAT     H2 2683   7.389   5.392   5.786
  494WAT    EPW 2684   7.454   5.436   5.795
  495WAT      O 2685   6.949   5.585   5.445
  495WAT     H1 2686   6.979   5.545   5.517
  495WAT     H2 2687   6.955   5.523   5.383
  495WAT    EPW 2688   6.954   5.570   5.446
  496WAT      O 2689   7.429   5.717   5.039
  496WAT     H1 2690   7.381   5.679   5.101
  496WAT     H2 2691   7.378   5.712   4.968
  496WAT    EPW 2692   7.414   5.711   5.037
  497WAT      O 2693   7.074   6.031   6.548
  497WAT     H1 2694   7.038   5.982   6.486
  497WAT     H2 2695   7.047   6.111   6.530
  497WAT    EPW 2696   7.065   6.035   6.536
  498WAT      O 2697   7.529   5.505   5.311
  498WAT     H1 2698   7.565   5.581   5.332
  498WAT     H2 2699   7.447   5.527   5.290
  498WAT    EPW 2700   7.522   5.520   5.311
  499WAT      O 2701   6.919   5.229   5.943
  499WAT     H1 2702   6.904   5.244   5.858
  499WAT     H2 2703   7.006   5.227   5.948
  499WAT    EPW 2704   6.930   5.231   5.931
  500WAT      O 2705   7.467   6.274   6.228
  500WAT     H1 2706   7.477   6.330   6.294
  500WAT     H2 2707   7.493   6.320   6.158
  500WAT    EPW 2708   7.472   6.289   6.227
  501WAT      O 2709   7.343   6.097   6.531
  501WAT     H1 2710   7.262   6.065   6.538
  501WAT     H2 2711   7.331   6.183   6.525
  501WAT    EPW 2712   7.330   6.105   6.531
  502WAT      O 2713   7.854   6.103   6.211
  502WAT     H1 2714   7.870   6.137   6.290
  502WAT     H2 2715   7.774   6.068   6.220
  502WAT    EPW 2716   7.845   6.103   6.224
  503WAT      O 2717   7.516   5.448   6.468
  503WAT     H1 2718   7.532   5.372   6.508
  503WAT     H2 2719   7.540   5.434   6.386
  503WAT    EPW 2720   7.522   5.435   6.462
  504WAT      O 2721   7.712   6.666   5.662
  504WAT     H1 2722   7.717   6.753   5.661
  504WAT     H2 2723   7.684   6.646   5.582
  504WAT    EPW 2724   7.709   6.676   5.650
  505WAT      O 2725   7.644   5.024   6.390
  505WAT     H1 2726   7.667   5.013   6.307
  505WAT     H2 2727   7.671   4.951   6.429
  505WAT    EPW 2728   7.651   5.012   6.383
  506WAT      O 2729   7.550   6.414   5.998
  506WAT     H1 2730   7.511   6.478   5.953
  506WAT     H2 2731   7.592   6.369   5.936
  506WAT    EPW 2732   7.551   6.417   5.982
  507WAT      O 2733   7.597   5.914   5.143
  507WAT     H1 2734   7.548   5.857   5.099
  507WAT     H2 2735   7.568   5.992   5.115
  507WAT    EPW 2736   7.586   5.917   5.132
  508WAT      O 2737   7.393   5.551   6.049
  508WAT     H1 2738   7.410   5.518   5.970
  508WAT     H2 2739   7.446   5.506   6.102
  508WAT    EPW 2740   7.403   5.540   6.045
  509WAT      O 2741   7.782   6.660   6.562
  509WAT     H1 2742   7.867   6.658   6.541
  509WAT     H2 2743   7.765   6.577   6.585
  509WAT    EPW 2744   7.792   6.647   6.562
  510WAT      O 2745   7.667   4.968   6.114
  510WAT     H1 2746   7.582   4.960   6.096
  510WAT     H2 2747   7.703   4.981   6.035
  510WAT    EPW 2748   7.660   4.969   6.100
  511WAT      O 2749   7.835   6.178   6.489
  511WAT     H1 2750   7.783   6.122   6.529
  511WAT     H2 2751   7.823   6.253   6.531
  511WAT    EPW 2752   7.826   6.181   6.501
  512WAT      O 2753   6.874   5.108   6.691
  512WAT     H1 2754   6.874   5.177   6.638
  512WAT     H2 2755   6.789   5.088   6.698
  512WAT    EPW 2756   6.861   5.115   6.684
  513WAT      O 2757   7.367   6.787   6.078
  513WAT     H1 2758   7.353   6.773   6.163
  513WAT     H2 2759   7.341   6.712   6.040
  513WAT    EPW 2760   7.361   6.774   6.085
  514WAT      O 2761   7.218   5.339   5.363
  514WAT     H1 2762   7.231   5.299   5.286
  514WAT     H2 2763   7.138   5.312   5.387
  514WAT    EPW 2764   7.208   5.329   5.355
  515WAT      O 2765   7.017   6.708   6.625
  515WAT     H1 2766   6.959   6.644   6.614
  515WAT     H2 2767   6.970   6.774   6.657
  515WAT    EPW 2768   7.002   6.708   6.628
  516WAT      O 2769   7.262   5.559   6.462
  516WAT     H1 2770   7.271   5.619   6.400
  516WAT     H2 2771   7.340   5.521   6.467
  516WAT    EPW 2772   7.275   5.562   6.454
  517WAT      O 2773   7.066   5.399   6.349
  517WAT     H1 2774   7.086   5.405   6.264
  517WAT     H2 2775   7.129   5.445   6.388
  517WAT    EPW 2776   7.078   5.407   6.342
  518WAT      O 2777   7.313   5.087   6.616
  518WAT     H1 2778   7.339   5.004   6.611
  518WAT     H2 2779   7.270   5.100   6.541
  518WAT    EPW 2780   7.310   5.077   6.604
  519WAT      O 2781   6.955   5.893   6.340
  519WAT     H1 2782   7.009   5.911   6.273
  519WAT     H2 2783   6.938   5.808   6.331
  519WAT    EPW 2784   6.961   5.883   6.329
  520WAT      O 2785   7.117   5.492   5.010
  520WAT     H1 2786   7.047   5.487   5.062
  520WAT     H2 2787   7.119   5.414   4.970
  520WAT    EPW 2788   7.107   5.480   5.012
  521WAT      O 2789   7.441   6.397   5.159
  521WAT     H1 2790   7.483   6.383   5.234
  521WAT     H2 2791   7.358   6.381   5.178
  521WAT    EPW 2792   7.435   6.393   5.173
  522WAT      O 2793   7.481   5.867   6.438
  522WAT     H1 2794   7.434   5.933   6.471
  522WAT     H2 2795   7.425   5.828   6.383
  522WAT    EPW 2796   7.465   5.871   6.434
  523WAT      O 2797   7.192   6.305   5.226
  523WAT     H1 2798   7.191   6.285   5.311
  523WAT     H2 2799   7.194   6.228   5.186
  523WAT    EPW 2800   7.192   6.291   5.233
  524WAT      O 2801   7.465   6.143   5.042
  524WAT     H1 2802   7.384   6.115   5.057
  524WAT     H2 2803   7.465   6.223   5.077
  524WAT    EPW 2804   7.453   6.151   5.050
  525WAT      O 2805   7.429   5.169   6.269
  525WAT     H1 2806   7.347   5.157   6.296
  525WAT     H2 2807   7.474   5.106   6.309
  525WAT    EPW 2808   7.424   5.158   6.279
  526WAT      O 2809   7.629   5.671   6.592
  526WAT     H1 2810   7.597   5.602   6.550
  526WAT     H2 2811   7.591   5.739   6.552
  526WAT    EPW 2812   7.619   5.671   6.580
  527WAT      O 2813   7.696   4.963   5.100
  527WAT     H1 2814   7.720   4.971   5.016
  527WAT     H2 2815   7.609   4.968   5.096
  527WAT    EPW 2816   7.686   4.965   5.087
  528WAT      O 2817   7.436   6.674   6.611
  528WAT     H1 2818   7.454   6.660   6.696
  528WAT     H2 2819   7.488   6.618   6.570
  528WAT    EPW 2820   7.447   6.664   6.618
  529WAT      O 2821   7.177   5.145   6.384
  529WAT     H1 2822   7.121   5.083   6.358
  529WAT     H2 2823   7.133   5.219   6.369
  529WAT    EPW 2824   7.162   5.147   6.378
  530WAT      O 2825   7.195   6.528   6.754
  530WAT     H1 2826   7.263   6.567   6.791
  530WAT     H2 2827   7.152   6.593   6.715
  530WAT    EPW 2828   7.199   6.543   6.754
  531WAT      O 2829   7.060   5.502   5.691
  531WAT     H1 2830   7.018   5.526   5.763
  531WAT     H2 2831   7.098   5.427   5.712
  531WAT    EPW 2832   7.060   5.495   5.705
  532WAT      O 2833   7.026   6.294   6.468
  532WAT     H1 2834   6.975   6.354   6.503
  532WAT     H2 2835   7.107   6.326   6.480
  532WAT    EPW 2836   7.031   6.307   6.475
  533WAT      O 2837   7.325   6.632   5.395
  533WAT     H1 2838   7.319   6.691   5.331
  533WAT     H2 2839   7.410   6.615   5.399
  533WAT    EPW 2840   7.337   6.638   5.386
  534WAT      O 2841   7.642   5.754   5.365
  534WAT     H1 2842   7.640   5.805   5.294
  534WAT     H2 2843   7.726   5.728   5.369
  534WAT    EPW 2844   7.654   5.758   5.355
  535WAT      O 2845   7.563   5.198   6.594
  535WAT     H1 2846   7.594   5.157   6.523
  535WAT     H2 2847   7.481   5.167   6.601
  535WAT    EPW 2848   7.555   5.188   6.584
  536WAT      O 2849   7.226   6.553   5.992
  536WAT     H1 2850   7.218   6.476   5.953
  536WAT     H2 2851   7.184   6.608   5.938
  536WAT    EPW 2852   7.218   6.550   5.978
  537WAT      O 2853   7.006   6.781   6.357
  537WAT     H1 2854   7.015   6.758   6.440
  537WAT     H2 2855   7.034   6.711   6.312
  537WAT    EPW 2856   7.011   6.768   6.362
  538WAT      O 2857   6.940   6.118   3.630
  538WAT     H1 2858   6.895   6.117   3.705
  538WAT     H2 2859   6.942   6.034   3.606
  538WAT    EPW 2860   6.934   6.105   3.638
  539WAT      O 2861   6.918   5.452   3.287
  539WAT     H1 2862   6.852   5.498   3.252
  539WAT     H2 2863   6.890   5.370   3.283
  539WAT    EPW 2864   6.904   5.447   3.281
  540WAT      O 2865   7.194   6.051   3.207
  540WAT     H1 2866   7.170   6.004   3.138
  540WAT     H2 2867   7.211   5.991   3.268
  540WAT    EPW 2868   7.193   6.035   3.206
  541WAT      O 2869   7.195   6.216   3.588
  541WAT     H1 2870   7.248   6.179   3.646
  541WAT     H2 2871   7.117   6.181   3.606
  541WAT    EPW 2872   7.191   6.206   3.599
  542WAT      O 2873   7.584   5.064   3.500
  542WAT     H1 2874   7.623   5.122   3.448
  542WAT     H2 2875   7.628   4.990   3.486
  542WAT    EPW 2876   7.596   5.062   3.490
  543WAT      O 2877   7.029   6.483   3.172
  543WAT     H1 2878   7.083   6.498   3.105
  543WAT     H2 2879   7.074   6.429   3.224
  543WAT    EPW 2880   7.043   6.477   3.170
  544WAT      O 2881   6.913   6.328   4.303
  544WAT     H1 2882   6.946   6.302   4.379
  544WAT     H2 2883   6.844   6.276   4.292
  544WAT    EPW 2884   6.907   6.316   4.313
  545WAT      O 2885   7.554   6.188   4.780
  545WAT     H1 2886   7.536   6.167   4.862
  545WAT     H2 2887   7.487   6.156   4.734
  545WAT    EPW 2888   7.542   6.180   4.785
  546WAT      O 2889   7.135   5.868   3.795
  546WAT     H1 2890   7.092   5.868   3.719
  546WAT     H2 2891   7.189   5.800   3.789
  546WAT    EPW 2892   7.137   5.858   3.783
  547WAT      O 2893   7.563   5.383   4.310
  547WAT     H1 2894   7.632   5.358   4.262
  547WAT     H2 2895   7.526   5.308   4.333
  547WAT    EPW 2896   7.568   5.368   4.306
  548WAT      O 2897   7.540   6.413   4.506
  548WAT     H1 2898   7.576   6.470   4.451
  548WAT     H2 2899   7.607   6.359   4.525
  548WAT    EPW 2900   7.555   6.413   4.501
  549WAT      O 2901   7.295   5.643   3.780
  549WAT     H1 2902   7.358   5.585   3.798
  549WAT     H2 2903   7.222   5.594   3.779
  549WAT    EPW 2904   7.293   5.627   3.783
  550WAT      O 2905   7.692   6.308   3.856
  550WAT     H1 2906   7.739   6.257   3.908
  550WAT     H2 2907   7.746   6.375   3.839
  550WAT    EPW 2908   7.707   6.310   3.861
  551WAT      O 2909   7.669   6.135   3.629
  551WAT     H1 2910   7.677   6.177   3.706
  551WAT     H2 2911   7.744   6.093   3.621
  551WAT    EPW 2912   7.681   6.135   3.639
  552WAT      O 2913   7.353   5.172   3.633
  552WAT     H1 2914   7.315   5.228   3.578
  552WAT     H2 2915   7.430   5.155   3.595
  552WAT    EPW 2916   7.359   5.178   3.619
  553WAT      O 2917   7.685   5.055   3.770
  553WAT     H1 2918   7.689   5.134   3.806
  553WAT     H2 2919   7.653   5.070   3.690
  553WAT    EPW 2920   7.681   5.069   3.763
  554WAT      O 2921   6.949   5.596   4.034
  554WAT     H1 2922   6.939   5.683   4.042
  554WAT     H2 2923   6.883   5.564   4.081
  554WAT    EPW 2924   6.938   5.604   4.042
  555WAT      O 2925   6.964   6.542   3.829
  555WAT     H1 2926   6.897   6.584   3.793
  555WAT     H2 2927   7.011   6.514   3.761
  555WAT    EPW 2928   6.961   6.544   3.814
  556WAT      O 2929   7.518   6.339   3.516
  556WAT     H1 2930   7.466   6.348   3.586
  556WAT     H2 2931   7.569   6.271   3.537
  556WAT    EPW 2932   7.518   6.330   3.530
  557WAT      O 2933   7.164   5.108   4.055
  557WAT     H1 2934   7.143   5.032   4.018
  557WAT     H2 2935   7.218   5.085   4.120
  557WAT    EPW 2936   7.169   5.093   4.059
  558WAT      O 2937   7.520   5.314   4.986
  558WAT     H1 2938   7.517   5.281   4.905
  558WAT     H2 2939   7.556   5.393   4.974
  558WAT    EPW 2940   7.525   5.321   4.972
  559WAT      O 2941   7.111   6.480   3.595
  559WAT     H1 2942   7.153   6.404   3.609
  559WAT     H2 2943   7.171   6.530   3.557
  559WAT    EPW 2944   7.126   6.476   3.592
  560WAT      O 2945   7.109   5.230   4.907
  560WAT     H1 2946   7.027   5.204   4.892
  560WAT     H2 2947   7.153   5.196   4.840
  560WAT    EPW 2948   7.103   5.221   4.895
  561WAT      O 2949   7.196   6.306   3.956
  561WAT     H1 2950   7.252   6.315   3.889
  561WAT     H2 2951   7.230   6.241   4.003
  561WAT    EPW 2952   7.209   6.297   3.953
  562WAT      O 2953   7.492   6.618   3.893
  562WAT     H1 2954   7.568   6.632   3.851
  562WAT     H2 2955   7.437   6.672   3.853
  562WAT    EPW 2956   7.495   6.628   3.881
  563WAT      O 2957   7.771   4.962   4.832
  563WAT     H1 2958   7.818   4.904   4.788
  563WAT     H2 2959   7.715   4.993   4.772
  563WAT    EPW 2960   7.769   4.958   4.817
  564WAT      O 2961   7.301   6.681   4.514
  564WAT     H1 2962   7.358   6.642   4.568
  564WAT     H2 2963   7.246   6.617   4.492
  564WAT    EPW 2964   7.302   6.666   4.519
  565WAT      O 2965   6.855   5.338   4.633
  565WAT     H1 2966   6.847   5.413   4.676
  565WAT     H2 2967   6.917   5.354   4.574
  565WAT    EPW 2968   6.863   5.351   4.630
  566WAT      O 2969   7.839   6.430   3.086
  566WAT     H1 2970   7.825   6.485   3.152
  566WAT     H2 2971   7.897   6.373   3.118
  566WAT    EPW 2972   7.845   6.430   3.100
  567WAT      O 2973   6.976   5.241   3.557
  567WAT     H1 2974   6.957   5.157   3.543
  567WAT     H2 2975   6.928   5.262   3.626
  567WAT    EPW 2976   6.966   5.232   3.565
  568WAT      O 2977   7.092   6.549   4.348
  568WAT     H1 2978   7.031   6.487   4.341
  568WAT     H2 2979   7.135   6.544   4.272
  568WAT    EPW 2980   7.090   6.539   4.336
  569WAT      O 2981   7.844   5.474   3.243
  569WAT     H1 2982   7.802   5.404   3.273
  569WAT     H2 2983   7.791   5.505   3.181
  569WAT    EPW 2984   7.830   5.468   3.238
  570WAT      O 2985   7.696   5.310   3.888
  570WAT     H1 2986   7.761   5.362   3.862
  570WAT     H2 2987   7.716   5.292   3.971
  570WAT    EPW 2988   7.709   5.315   3.896
  571WAT      O 2989   7.284   6.384   4.619
  571WAT     H1 2990   7.364   6.406   4.594
  571WAT     H2 2991   7.273   6.427   4.694
  571WAT    EPW 2992   7.294   6.393   4.627
  572WAT      O 2993   7.310   4.914   3.726
  572WAT     H1 2994   7.319   4.997   3.701
  572WAT     H2 2995   7.306   4.870   3.651
  572WAT    EPW 2996   7.311   4.919   3.712
  573WAT      O 2997   7.565   6.007   4.047
  573WAT     H1 2998   7.573   5.994   4.133
  573WAT     H2 2999   7.525   5.935   4.019
  573WAT    EPW 3000   7.560   5.994   4.055
  574WAT      O 3001   7.592   6.011   4.321
  574WAT     H1 3002   7.548   6.086   4.325
  574WAT     H2 3003   7.563   5.966   4.390
  574WAT    EPW 3004   7.581   6.015   4.332
  575WAT      O 3005   6.845   6.349   4.930
  575WAT     H1 3006   6.904   6.396   4.973
  575WAT     H2 3007   6.852   6.270   4.967
  575WAT    EPW 3008   6.855   6.344   4.942
  576WAT      O 3009   7.235   5.290   3.859
  576WAT     H1 3010   7.265   5.242   3.794
  576WAT     H2 3011   7.216   5.232   3.921
  576WAT    EPW 3012   7.237   5.275   3.859
  577WAT      O 3013   7.332   6.067   3.779
  577WAT     H1 3014   7.382   6.018   3.726
  577WAT     H2 3015   7.267   6.014   3.802
  577WAT    EPW 3016   7.330   6.052   3.774
  578WAT      O 3017   7.131   6.733   3.928
  578WAT     H1 3018   7.070   6.679   3.896
  578WAT     H2 3019   7.186   6.744   3.861
  578WAT    EPW 3020   7.130   6.726   3.914
  579WAT      O 3021   7.138   5.472   4.204
  579WAT     H1 3022   7.218   5.497   4.178
  579WAT     H2 3023   7.086   5.508   4.144
  579WAT    EPW 3024   7.142   5.481   4.191
  580WAT      O 3025   7.471   5.939   3.573
  580WAT     H1 3026   7.528   6.004   3.579
  580WAT     H2 3027   7.521   5.870   3.553
  580WAT    EPW 3028   7.487   5.938   3.571
  581WAT      O 3029   6.946   6.171   3.933
  581WAT     H1 3030   6.892   6.233   3.962
  581WAT     H2 3031   7.024   6.212   3.932
  581WAT    EPW 3032   6.950   6.186   3.937
  582WAT      O 3033   7.643   5.563   4.954
  582WAT     H1 3034   7.583   5.615   4.991
  582WAT     H2 3035   7.652   5.596   4.874
  582WAT    EPW 3036   7.635   5.576   4.948
  583WAT      O 3037   7.009   5.857   3.549
  583WAT     H1 3038   6.989   5.773   3.545
  583WAT     H2 3039   7.081   5.864   3.500
  583WAT    EPW 3040   7.017   5.846   3.541
  584WAT      O 3041   6.908   6.331   3.460
  584WAT     H1 3042   6.968   6.385   3.492
  584WAT     H2 3043   6.906   6.265   3.517
  584WAT    EPW 3044   6.917   6.329   3.473
  585WAT      O 3045   7.305   6.109   4.117
  585WAT     H1 3046   7.343   6.157   4.179
  585WAT     H2 3047   7.371   6.073   4.074
  585WAT    EPW 3048   7.320   6.111   4.120
  586WAT      O 3049   6.914   6.153   3.235
  586WAT     H1 3050   6.991   6.113   3.231
  586WAT     H2 3051   6.925   6.212   3.299
  586WAT    EPW 3052   6.927   6.156   3.244
  587WAT      O 3053   6.962   5.903   4.005
  587WAT     H1 3054   7.016   5.882   3.940
  587WAT     H2 3055   6.952   5.989   3.996
  587WAT    EPW 3056   6.969   5.912   3.994
  588WAT      O 3057   7.659   5.274   3.330
  588WAT     H1 3058   7.629   5.264   3.249
  588WAT     H2 3059   7.618   5.345   3.359
  588WAT    EPW 3060   7.649   5.283   3.322
  589WAT      O 3061   7.408   6.377   3.774
  589WAT     H1 3062   7.430   6.453   3.810
  589WAT     H2 3063   7.465   6.321   3.808
  589WAT    EPW 3064   7.419   6.380   3.785
  590WAT      O 3065   7.234   5.679   4.839
  590WAT     H1 3066   7.189   5.618   4.882
  590WAT     H2 3067   7.239   5.648   4.758
  590WAT    EPW 3068   7.228   5.666   4.833
  591WAT      O 3069   7.263   5.585   3.329
  591WAT     H1 3070   7.242   5.527   3.390
  591WAT     H2 3071   7.222   5.557   3.258
  591WAT    EPW 3072   7.254   5.572   3.328
  592WAT      O 3073   7.408   5.787   3.997
  592WAT     H1 3074   7.374   5.751   3.926
  592WAT     H2 3075   7.412   5.722   4.054
  592WAT    EPW 3076   7.404   5.772   3.995
  593WAT      O 3077   7.302   5.742   4.360
  593WAT     H1 3078   7.334   5.691   4.297
  593WAT     H2 3079   7.246   5.795   4.318
  593WAT    EPW 3080   7.298   5.743   4.345
  594WAT      O 3081   7.661   6.558   4.308
  594WAT     H1 3082   7.648   6.508   4.237
  594WAT     H2 3083   7.650   6.639   4.278
  594WAT    EPW 3084   7.658   6.563   4.293
  595WAT      O 3085   7.106   5.917   4.893
  595WAT     H1 3086   7.094   5.959   4.818
  595WAT     H2 3087   7.152   5.846   4.870
  595WAT    EPW 3088   7.111   5.913   4.879
  596WAT      O 3089   7.697   6.431   4.784
  596WAT     H1 3090   7.733   6.431   4.864
  596WAT     H2 3091   7.646   6.361   4.784
  596WAT    EPW 3092   7.695   6.421   4.796
  597WAT      O 3093   7.749   5.236   4.152
  597WAT     H1 3094   7.829   5.221   4.183
  597WAT     H2 3095   7.709   5.159   4.161
  597WAT    EPW 3096   7.755   5.223   4.158
  598WAT      O 3097   7.609   6.594   3.494
  598WAT     H1 3098   7.593   6.509   3.504
  598WAT     H2 3099   7.673   6.596   3.434
  598WAT    EPW 3100   7.616   6.582   3.487
  599WAT      O 3101   7.409   4.974   3.298
  599WAT     H1 3102   7.456   5.003   3.366
  599WAT     H2 3103   7.366   5.045   3.271
  599WAT    EPW 3104   7.409   4.989   3.304
  600WAT      O 3105   7.814   6.607   3.303
  600WAT     H1 3106   7.894   6.629   3.332
  600WAT     H2 3107   7.782   6.683   3.273
  600WAT    EPW 3108   7.821   6.622   3.303
  601WAT      O 3109   7.248   5.865   3.408
  601WAT     H1 3110   7.260   5.780   3.394
  601WAT     H2 3111   7.316   5.888   3.457
  601WAT    EPW 3112   7.260   5.856   3.413
  602WAT      O 3113   6.890   4.974   3.517
  602WAT     H1 3114   6.888   4.919   3.449
  602WAT     H2 3115   6.854   4.927   3.581
  602WAT    EPW 3116   6.885   4.959   3.516
  603WAT      O 3117   7.900   5.649   3.450
  603WAT     H1 3118   7.986   5.647   3.462
  603WAT     H2 3119   7.887   5.594   3.384
  603WAT    EPW 3120   7.911   5.640   3.442
  604WAT      O 3121   7.294   5.213   3.216
  604WAT     H1 3122   7.233   5.211   3.154
  604WAT     H2 3123   7.363   5.250   3.177
  604WAT    EPW 3124   7.295   5.218   3.201
  605WAT      O 3125   7.813   6.134   4.027
  605WAT     H1 3126   7.742   6.083   4.030
  605WAT     H2 3127   7.835   6.144   4.110
  605WAT    EPW 3128   7.806   6.128   4.040
  606WAT      O 3129   7.415   6.629   3.091
  606WAT     H1 3130   7.436   6.557   3.136
  606WAT     H2 3131   7.410   6.691   3.152
  606WAT    EPW 3132   7.418   6.627   3.107
  607WAT      O 3133   7.131   5.920   4.226
  607WAT     H1 3134   7.186   5.982   4.198
  607WAT     H2 3135   7.079   5.907   4.158
  607WAT    EPW 3136   7.132   5.927   4.212
  608WAT      O 3137   7.453   5.450   3.909
  608WAT     H1 3138   7.527   5.405   3.895
  608WAT     H2 3139   7.390   5.391   3.895
  608WAT    EPW 3140   7.455   5.434   3.905
  609WAT      O 3141   6.958   5.582   3.542
  609WAT     H1 3142   6.984   5.544   3.616
  609WAT     H2 3143   6.965   5.519   3.482
  609WAT    EPW 3144   6.963   5.567   3.544
  610WAT      O 3145   7.432   5.716   3.136
  610WAT     H1 3146   7.383   5.680   3.199
  610WAT     H2 3147   7.383   5.708   3.064
  610WAT    EPW 3148   7.418   5.709   3.135
  611WAT      O 3149   7.068   6.039   4.649
  611WAT     H1 3150   7.033   5.990   4.586
  611WAT     H2 3151   7.041   6.120   4.629
  611WAT    EPW 3152   7.059   6.044   4.636
  612WAT      O 3153   7.529   5.506   3.397
  612WAT     H1 3154   7.567   5.581   3.422
  612WAT     H2 3155   7.447   5.528   3.381
  612WAT    EPW 3156   7.523   5.520   3.398
  613WAT      O 3157   6.906   5.239   4.043
  613WAT     H1 3158   6.889   5.245   3.958
  613WAT     H2 3159   6.986   5.205   4.045
  613WAT    EPW 3160   6.915   5.235   4.031
  614WAT      O 3161   7.462   6.257   4.291
  614WAT     H1 3162   7.473   6.307   4.361
  614WAT     H2 3163   7.493   6.306   4.225
  614WAT    EPW 3164   7.468   6.271   4.291
  615WAT      O 3165   7.336   6.107   4.621
  615WAT     H1 3166   7.256   6.075   4.633
  615WAT     H2 3167   7.322   6.193   4.610
  615WAT    EPW 3168   7.322   6.115   4.622
  616WAT      O 3169   7.838   6.138   4.311
  616WAT     H1 3170   7.835   6.184   4.385
  616WAT     H2 3171   7.769   6.085   4.316
  616WAT    EPW 3172   7.828   6.137   4.322
  617WAT      O 3173   7.497   5.455   4.574
  617WAT     H1 3174   7.499   5.380   4.618
  617WAT     H2 3175   7.529   5.434   4.496
  617WAT    EPW 3176   7.502   5.441   4.569
  618WAT      O 3177   7.716   6.662   3.743
  618WAT     H1 3178   7.720   6.749   3.745
  618WAT     H2 3179   7.687   6.645   3.663
  618WAT    EPW 3180   7.712   6.672   3.732
  619WAT      O 3181   7.603   4.994   4.604
  619WAT     H1 3182   7.671   4.949   4.575
  619WAT     H2 3183   7.550   4.933   4.638
  619WAT    EPW 3184   7.605   4.978   4.605
  620WAT      O 3185   7.561   6.416   4.084
  620WAT     H1 3186   7.524   6.484   4.044
  620WAT     H2 3187   7.605   6.376   4.020
  620WAT    EPW 3188   7.562   6.420   4.069
  621WAT      O 3189   7.601   5.913   3.238
  621WAT     H1 3190   7.552   5.856   3.195
  621WAT     H2 3191   7.570   5.991   3.211
  621WAT    EPW 3192   7.589   5.916   3.227
  622WAT      O 3193   7.404   5.554   4.159
  622WAT     H1 3194   7.420   5.520   4.080
  622WAT     H2 3195   7.454   5.507   4.213
  622WAT    EPW 3196   7.414   5.542   4.155
  623WAT      O 3197   7.828   6.664   4.681
  623WAT     H1 3198   7.905   6.640   4.649
  623WAT     H2 3199   7.793   6.589   4.709
  623WAT    EPW 3200   7.834   6.649   4.681
  624WAT      O 3201   7.622   4.984   4.159
  624WAT     H1 3202   7.538   4.988   4.185
  624WAT     H2 3203   7.617   4.953   4.078
  624WAT    EPW 3204   7.608   4.980   4.151
  625WAT      O 3205   7.755   6.244   4.571
  625WAT     H1 3206   7.712   6.185   4.620
  625WAT     H2 3207   7.784   6.302   4.629
  625WAT    EPW 3208   7.753   6.244   4.587
  626WAT      O 3209   6.871   5.113   4.797
  626WAT     H1 3210   6.870   5.182   4.743
  626WAT     H2 3211   6.786   5.095   4.808
  626WAT    EPW 3212   6.859   5.121   4.791
  627WAT      O 3213   7.324   6.773   4.242
  627WAT     H1 3214   7.320   6.752   4.327
  627WAT     H2 3215   7.305   6.698   4.202
  627WAT    EPW 3216   7.320   6.759   4.248
  628WAT      O 3217   7.216   5.339   3.458
  628WAT     H1 3218   7.229   5.297   3.383
  628WAT     H2 3219   7.138   5.310   3.484
  628WAT    EPW 3220   7.206   5.329   3.451
  629WAT      O 3221   7.022   6.717   4.722
  629WAT     H1 3222   6.964   6.652   4.711
  629WAT     H2 3223   6.974   6.782   4.754
  629WAT    EPW 3224   7.006   6.717   4.725
  630WAT      O 3225   7.249   5.575   4.578
  630WAT     H1 3226   7.257   5.633   4.514
  630WAT     H2 3227   7.327   5.535   4.580
  630WAT    EPW 3228   7.262   5.578   4.569
  631WAT      O 3229   7.066   5.407   4.456
  631WAT     H1 3230   7.087   5.421   4.372
  631WAT     H2 3231   7.125   5.454   4.500
  631WAT    EPW 3232   7.078   5.416   4.450
  632WAT      O 3233   7.237   5.093   4.702
  632WAT     H1 3234   7.201   5.014   4.709
  632WAT     H2 3235   7.223   5.115   4.619
  632WAT    EPW 3236   7.230   5.085   4.691
  633WAT      O 3237   6.951   5.899   4.440
  633WAT     H1 3238   7.004   5.914   4.372
  633WAT     H2 3239   6.934   5.814   4.434
  633WAT    EPW 3240   6.956   5.889   4.429
  634WAT      O 3241   7.123   5.484   3.105
  634WAT     H1 3242   7.054   5.479   3.158
  634WAT     H2 3243   7.125   5.406   3.066
  634WAT    EPW 3244   7.113   5.472   3.107
  635WAT      O 3245   7.441   6.395   3.249
  635WAT     H1 3246   7.481   6.382   3.326
  635WAT     H2 3247   7.357   6.379   3.267
  635WAT    EPW 3248   7.434   6.391   3.263
  636WAT      O 3249   7.477   5.877   4.535
  636WAT     H1 3250   7.431   5.944   4.565
  636WAT     H2 3251   7.420   5.835   4.483
  636WAT    EPW 3252   7.462   5.881   4.532
  637WAT      O 3253   7.191   6.304   3.318
  637WAT     H1 3254   7.196   6.284   3.403
  637WAT     H2 3255   7.191   6.226   3.278
  637WAT    EPW 3256   7.192   6.290   3.324
  638WAT      O 3257   7.462   6.138   3.138
  638WAT     H1 3258   7.381   6.111   3.154
  638WAT     H2 3259   7.463   6.219   3.171
  638WAT    EPW 3260   7.450   6.146   3.145
  639WAT      O 3261   7.464   5.148   4.404
  639WAT     H1 3262   7.378   5.138   4.411
  639WAT     H2 3263   7.496   5.088   4.459
  639WAT    EPW 3264   7.456   5.137   4.413
  640WAT      O 3265   7.613   5.677   4.698
  640WAT     H1 3266   7.581   5.609   4.654
  640WAT     H2 3267   7.580   5.746   4.655
  640WAT    EPW 3268   7.603   5.677   4.685
  641WAT      O 3269   7.690   4.957   3.215
  641WAT     H1 3270   7.708   4.979   3.132
  641WAT     H2 3271   7.603   4.959   3.218
  641WAT    EPW 3272   7.679   4.961   3.203
  642WAT      O 3273   7.488   6.624   4.726
  642WAT     H1 3274   7.476   6.640   4.811
  642WAT     H2 3275   7.547   6.560   4.724
  642WAT    EPW 3276   7.495   6.617   4.738
  643WAT      O 3277   7.185   5.152   4.440
  643WAT     H1 3278   7.123   5.092   4.424
  643WAT     H2 3279   7.141   5.228   4.436
  643WAT    EPW 3280   7.169   5.154   4.437
  644WAT      O 3281   7.199   6.535   4.849
  644WAT     H1 3282   7.264   6.575   4.890
  644WAT     H2 3283   7.154   6.600   4.812
  644WAT    EPW 3284   7.202   6.550   4.849
  645WAT      O 3285   7.058   5.498   3.792
  645WAT     H1 3286   7.016   5.521   3.865
  645WAT     H2 3287   7.097   5.424   3.813
  645WAT    EPW 3288   7.058   5.491   3.806
  646WAT      O 3289   7.020   6.301   4.559
  646WAT     H1 3290   6.970   6.360   4.598
  646WAT     H2 3291   7.101   6.334   4.566
  646WAT    EPW 3292   7.025   6.314   4.566
  647WAT      O 3293   7.327   6.637   3.486
  647WAT     H1 3294   7.320   6.695   3.421
  647WAT     H2 3295   7.412   6.618   3.487
  647WAT    EPW 3296   7.338   6.643   3.477
  648WAT      O 3297   7.643   5.753   3.459
  648WAT     H1 3298   7.642   5.804   3.389
  648WAT     H2 3299   7.726   5.728   3.465
  648WAT    EPW 3300   7.655   5.757   3.450
  649WAT      O 3301   7.487   5.218   4.726
  649WAT     H1 3302   7.537   5.160   4.685
  649WAT     H2 3303   7.407   5.182   4.723
  649WAT    EPW 3304   7.482   5.204   4.720
  650WAT      O 3305   7.226   6.543   4.105
  650WAT     H1 3306   7.220   6.466   4.063
  650WAT     H2 3307   7.195   6.600   4.046
  650WAT    EPW 3308   7.221   6.540   4.090
  651WAT      O 3309   7.014   6.796   4.452
  651WAT     H1 3310   7.024   6.774   4.536
  651WAT     H2 3311   7.037   6.723   4.409
  651WAT    EPW 3312   7.019   6.782   4.458
  652WAT      O 3313   6.931   6.105   1.717
  652WAT     H1 3314   6.864   6.100   1.772
  652WAT     H2 3315   6.942   6.022   1.690
  652WAT    EPW 3316   6.923   6.092   1.721
  653WAT      O 3317   6.916   5.440   1.370
  653WAT     H1 3318   6.851   5.490   1.340
  653WAT     H2 3319   6.887   5.359   1.357
  653WAT    EPW 3320   6.902   5.435   1.364
  654WAT      O 3321   7.202   6.054   1.327
  654WAT     H1 3322   7.178   6.009   1.256
  654WAT     H2 3323   7.220   5.993   1.386
  654WAT    EPW 3324   7.201   6.039   1.325
  655WAT      O 3325   7.188   6.216   1.700
  655WAT     H1 3326   7.242   6.178   1.757
  655WAT     H2 3327   7.112   6.177   1.715
  655WAT    EPW 3328   7.185   6.204   1.711
  656WAT      O 3329   7.606   5.063   1.612
  656WAT     H1 3330   7.648   5.118   1.559
  656WAT     H2 3331   7.651   4.988   1.605
  656WAT    EPW 3332   7.619   5.060   1.603
  657WAT      O 3333   7.043   6.491   1.287
  657WAT     H1 3334   7.098   6.505   1.221
  657WAT     H2 3335   7.088   6.437   1.340
  657WAT    EPW 3336   7.058   6.485   1.285
  658WAT      O 3337   6.933   6.333   2.408
  658WAT     H1 3338   6.960   6.308   2.487
  658WAT     H2 3339   6.861   6.284   2.395
  658WAT    EPW 3340   6.926   6.322   2.418
  659WAT      O 3341   7.566   6.159   2.877
  659WAT     H1 3342   7.542   6.145   2.960
  659WAT     H2 3343   7.497   6.130   2.831
  659WAT    EPW 3344   7.552   6.152   2.883
  660WAT      O 3345   7.132   5.864   1.891
  660WAT     H1 3346   7.089   5.861   1.815
  660WAT     H2 3347   7.188   5.798   1.886
  660WAT    EPW 3348   7.134   5.854   1.879
  661WAT      O 3349   7.583   5.403   2.410
  661WAT     H1 3350   7.654   5.387   2.362
  661WAT     H2 3351   7.549   5.323   2.423
  661WAT    EPW 3352   7.588   5.389   2.405
  662WAT      O 3353   7.528   6.466   2.642
  662WAT     H1 3354   7.573   6.502   2.576
  662WAT     H2 3355   7.591   6.431   2.693
  662WAT    EPW 3356   7.544   6.466   2.640
  663WAT      O 3357   7.301   5.645   1.882
  663WAT     H1 3358   7.364   5.588   1.902
  663WAT     H2 3359   7.229   5.595   1.876
  663WAT    EPW 3360   7.299   5.630   1.884
  664WAT      O 3361   7.686   6.294   1.972
  664WAT     H1 3362   7.731   6.239   2.022
  664WAT     H2 3363   7.741   6.360   1.957
  664WAT    EPW 3364   7.700   6.296   1.977
  665WAT      O 3365   7.673   6.128   1.739
  665WAT     H1 3366   7.678   6.167   1.816
  665WAT     H2 3367   7.751   6.090   1.730
  665WAT    EPW 3368   7.685   6.128   1.749
  666WAT      O 3369   7.370   5.171   1.739
  666WAT     H1 3370   7.331   5.227   1.684
  666WAT     H2 3371   7.448   5.159   1.702
  666WAT    EPW 3372   7.376   5.178   1.725
  667WAT      O 3373   7.695   5.052   1.887
  667WAT     H1 3374   7.695   5.131   1.923
  667WAT     H2 3375   7.667   5.066   1.805
  667WAT    EPW 3376   7.691   5.066   1.880
  668WAT      O 3377   6.961   5.605   2.123
  668WAT     H1 3378   6.956   5.692   2.130
  668WAT     H2 3379   6.890   5.577   2.165
  668WAT    EPW 3380   6.950   5.614   2.130
  669WAT      O 3381   6.955   6.551   1.942
  669WAT     H1 3382   6.893   6.597   1.902
  669WAT     H2 3383   7.005   6.522   1.876
  669WAT    EPW 3384   6.953   6.553   1.926
  670WAT      O 3385   7.530   6.337   1.625
  670WAT     H1 3386   7.477   6.345   1.694
  670WAT     H2 3387   7.580   6.269   1.644
  670WAT    EPW 3388   7.529   6.328   1.638
  671WAT      O 3389   7.154   5.114   2.158
  671WAT     H1 3390   7.144   5.039   2.114
  671WAT     H2 3391   7.201   5.091   2.227
  671WAT    EPW 3392   7.159   5.099   2.161
  672WAT      O 3393   7.526   5.302   3.079
  672WAT     H1 3394   7.538   5.266   3.001
  672WAT     H2 3395   7.559   5.382   3.071
  672WAT    EPW 3396   7.532   5.308   3.066
  673WAT      O 3397   7.116   6.484   1.716
  673WAT     H1 3398   7.156   6.408   1.730
  673WAT     H2 3399   7.177   6.533   1.678
  673WAT    EPW 3400   7.131   6.480   1.713
  674WAT      O 3401   7.114   5.221   3.001
  674WAT     H1 3402   7.034   5.192   2.984
  674WAT     H2 3403   7.163   5.186   2.937
  674WAT    EPW 3404   7.110   5.212   2.989
  675WAT      O 3405   7.199   6.305   2.061
  675WAT     H1 3406   7.256   6.307   1.994
  675WAT     H2 3407   7.233   6.247   2.116
  675WAT    EPW 3408   7.212   6.297   2.059
  676WAT      O 3409   7.489   6.604   1.994
  676WAT     H1 3410   7.566   6.627   1.960
  676WAT     H2 3411   7.434   6.665   1.963
  676WAT    EPW 3412   7.492   6.617   1.984
  677WAT      O 3413   7.731   5.010   2.948
  677WAT     H1 3414   7.760   4.954   2.888
  677WAT     H2 3415   7.678   5.062   2.903
  677WAT    EPW 3416   7.728   5.009   2.932
  678WAT      O 3417   7.330   6.705   2.537
  678WAT     H1 3418   7.353   6.692   2.620
  678WAT     H2 3419   7.265   6.648   2.525
  678WAT    EPW 3420   7.323   6.695   2.548
  679WAT      O 3421   6.831   5.321   2.706
  679WAT     H1 3422   6.823   5.389   2.761
  679WAT     H2 3423   6.899   5.342   2.656
  679WAT    EPW 3424   6.840   5.334   2.707
  680WAT      O 3425   7.869   6.449   1.208
  680WAT     H1 3426   7.851   6.500   1.277
  680WAT     H2 3427   7.934   6.399   1.236
  680WAT    EPW 3428   7.876   6.449   1.222
  681WAT      O 3429   6.986   5.241   1.649
  681WAT     H1 3430   6.964   5.158   1.630
  681WAT     H2 3431   6.936   5.260   1.717
  681WAT    EPW 3432   6.975   5.231   1.656
  682WAT      O 3433   7.113   6.550   2.437
  682WAT     H1 3434   7.055   6.485   2.432
  682WAT     H2 3435   7.154   6.547   2.360
  682WAT    EPW 3436   7.110   6.540   2.425
  683WAT      O 3437   7.857   5.476   1.355
  683WAT     H1 3438   7.815   5.403   1.381
  683WAT     H2 3439   7.805   5.508   1.293
  683WAT    EPW 3440   7.843   5.470   1.350
  684WAT      O 3441   7.701   5.319   1.983
  684WAT     H1 3442   7.758   5.368   1.938
  684WAT     H2 3443   7.732   5.322   2.065
  684WAT    EPW 3444   7.714   5.327   1.988
  685WAT      O 3445   7.277   6.373   2.738
  685WAT     H1 3446   7.347   6.414   2.705
  685WAT     H2 3447   7.257   6.420   2.809
  685WAT    EPW 3448   7.285   6.386   2.743
  686WAT      O 3449   7.338   4.908   1.819
  686WAT     H1 3450   7.346   4.992   1.795
  686WAT     H2 3451   7.329   4.866   1.743
  686WAT    EPW 3452   7.338   4.914   1.804
  687WAT      O 3453   7.549   6.013   2.165
  687WAT     H1 3454   7.559   5.999   2.250
  687WAT     H2 3455   7.508   5.941   2.138
  687WAT    EPW 3456   7.544   6.000   2.173
  688WAT      O 3457   7.586   6.019   2.438
  688WAT     H1 3458   7.548   6.097   2.452
  688WAT     H2 3459   7.559   5.971   2.505
  688WAT    EPW 3460   7.576   6.024   2.450
  689WAT      O 3461   6.835   6.344   3.029
  689WAT     H1 3462   6.894   6.393   3.070
  689WAT     H2 3463   6.843   6.265   3.065
  689WAT    EPW 3464   6.845   6.340   3.040
  690WAT      O 3465   7.239   5.290   1.960
  690WAT     H1 3466   7.272   5.239   1.897
  690WAT     H2 3467   7.217   5.233   2.023
  690WAT    EPW 3468   7.240   5.274   1.960
  691WAT      O 3469   7.329   6.062   1.883
  691WAT     H1 3470   7.381   6.014   1.831
  691WAT     H2 3471   7.264   6.008   1.903
  691WAT    EPW 3472   7.327   6.047   1.878
  692WAT      O 3473   7.126   6.740   2.041
  692WAT     H1 3474   7.062   6.690   2.010
  692WAT     H2 3475   7.179   6.751   1.973
  692WAT    EPW 3476   7.125   6.734   2.027
  693WAT      O 3477   7.134   5.474   2.303
  693WAT     H1 3478   7.217   5.495   2.282
  693WAT     H2 3479   7.087   5.513   2.241
  693WAT    EPW 3480   7.140   5.483   2.291
  694WAT      O 3481   7.476   5.931   1.685
  694WAT     H1 3482   7.535   5.995   1.690
  694WAT     H2 3483   7.525   5.860   1.666
  694WAT    EPW 3484   7.492   5.930   1.683
  695WAT      O 3485   6.947   6.178   2.071
  695WAT     H1 3486   6.892   6.242   2.093
  695WAT     H2 3487   7.023   6.219   2.059
  695WAT    EPW 3488   6.950   6.194   2.073
  696WAT      O 3489   7.643   5.553   3.056
  696WAT     H1 3490   7.585   5.606   3.095
  696WAT     H2 3491   7.652   5.587   2.976
  696WAT    EPW 3492   7.636   5.566   3.050
  697WAT      O 3493   7.010   5.845   1.643
  697WAT     H1 3494   6.990   5.761   1.636
  697WAT     H2 3495   7.085   5.853   1.598
  697WAT    EPW 3496   7.018   5.834   1.635
  698WAT      O 3497   6.918   6.339   1.572
  698WAT     H1 3498   6.978   6.389   1.610
  698WAT     H2 3499   6.914   6.269   1.625
  698WAT    EPW 3500   6.926   6.336   1.586
  699WAT      O 3501   7.308   6.131   2.246
  699WAT     H1 3502   7.344   6.178   2.311
  699WAT     H2 3503   7.377   6.095   2.207
  699WAT    EPW 3504   7.324   6.133   2.250
  700WAT      O 3505   6.923   6.152   1.354
  700WAT     H1 3506   7.001   6.114   1.350
  700WAT     H2 3507   6.933   6.214   1.416
  700WAT    EPW 3508   6.936   6.156   1.363
  701WAT      O 3509   6.975   5.907   2.112
  701WAT     H1 3510   7.025   5.889   2.042
  701WAT     H2 3511   6.966   5.994   2.109
  701WAT    EPW 3512   6.981   5.917   2.101
  702WAT      O 3513   7.679   5.266   1.432
  702WAT     H1 3514   7.655   5.255   1.349
  702WAT     H2 3515   7.633   5.335   1.458
  702WAT    EPW 3516   7.669   5.274   1.424
  703WAT      O 3517   7.411   6.366   1.877
  703WAT     H1 3518   7.430   6.444   1.912
  703WAT     H2 3519   7.470   6.312   1.913
  703WAT    EPW 3520   7.422   6.369   1.888
  704WAT      O 3521   7.239   5.672   2.935
  704WAT     H1 3522   7.196   5.610   2.979
  704WAT     H2 3523   7.245   5.639   2.854
  704WAT    EPW 3524   7.234   5.658   2.930
  705WAT      O 3525   7.271   5.581   1.432
  705WAT     H1 3526   7.250   5.523   1.493
  705WAT     H2 3527   7.231   5.552   1.361
  705WAT    EPW 3528   7.262   5.568   1.430
  706WAT      O 3529   7.399   5.789   2.109
  706WAT     H1 3530   7.370   5.755   2.034
  706WAT     H2 3531   7.406   5.720   2.161
  706WAT    EPW 3532   7.396   5.774   2.105
  707WAT      O 3533   7.304   5.736   2.465
  707WAT     H1 3534   7.336   5.687   2.401
  707WAT     H2 3535   7.253   5.793   2.423
  707WAT    EPW 3536   7.301   5.737   2.449
  708WAT      O 3537   7.673   6.549   2.423
  708WAT     H1 3538   7.652   6.502   2.352
  708WAT     H2 3539   7.681   6.630   2.393
  708WAT    EPW 3540   7.671   6.554   2.408
  709WAT      O 3541   7.106   5.906   2.991
  709WAT     H1 3542   7.095   5.949   2.916
  709WAT     H2 3543   7.156   5.837   2.968
  709WAT    EPW 3544   7.112   5.902   2.977
  710WAT      O 3545   7.712   6.389   2.845
  710WAT     H1 3546   7.752   6.403   2.921
  710WAT     H2 3547   7.662   6.319   2.861
  710WAT    EPW 3548   7.710   6.381   2.858
  711WAT      O 3549   7.801   5.317   2.246
  711WAT     H1 3550   7.881   5.346   2.264
  711WAT     H2 3551   7.805   5.232   2.266
  711WAT    EPW 3552   7.813   5.308   2.252
  712WAT      O 3553   7.615   6.596   1.611
  712WAT     H1 3554   7.601   6.511   1.618
  712WAT     H2 3555   7.681   6.601   1.553
  712WAT    EPW 3556   7.623   6.584   1.603
  713WAT      O 3557   7.442   4.974   1.404
  713WAT     H1 3558   7.488   5.000   1.473
  713WAT     H2 3559   7.400   5.046   1.378
  713WAT    EPW 3560   7.442   4.988   1.410
  714WAT      O 3561   7.827   6.619   1.428
  714WAT     H1 3562   7.904   6.644   1.461
  714WAT     H2 3563   7.794   6.692   1.395
  714WAT    EPW 3564   7.834   6.633   1.428
  715WAT      O 3565   7.256   5.859   1.517
  715WAT     H1 3566   7.270   5.775   1.498
  715WAT     H2 3567   7.324   5.880   1.567
  715WAT    EPW 3568   7.268   5.850   1.522
  716WAT      O 3569   6.897   4.977   1.593
  716WAT     H1 3570   6.896   4.923   1.525
  716WAT     H2 3571   6.862   4.929   1.658
  716WAT    EPW 3572   6.892   4.962   1.593
  717WAT      O 3573   7.900   5.639   1.574
  717WAT     H1 3574   7.986   5.651   1.580
  717WAT     H2 3575   7.891   5.587   1.505
  717WAT    EPW 3576   7.911   5.633   1.565
  718WAT      O 3577   7.330   5.213   1.324
  718WAT     H1 3578   7.270   5.207   1.261
  718WAT     H2 3579   7.397   5.252   1.284
  718WAT    EPW 3580   7.331   5.218   1.309
  719WAT      O 3581   7.808   6.109   2.130
  719WAT     H1 3582   7.733   6.066   2.137
  719WAT     H2 3583   7.837   6.115   2.212
  719WAT    EPW 3584   7.801   6.104   2.143
  720WAT      O 3585   7.433   6.634   1.203
  720WAT     H1 3586   7.452   6.561   1.248
  720WAT     H2 3587   7.423   6.695   1.264
  720WAT    EPW 3588   7.435   6.632   1.218
  721WAT      O 3589   7.143   5.925   2.335
  721WAT     H1 3590   7.194   5.992   2.314
  721WAT     H2 3591   7.095   5.911   2.263
  721WAT    EPW 3592   7.143   5.933   2.321
  722WAT      O 3593   7.455   5.450   2.011
  722WAT     H1 3594   7.529   5.406   1.997
  722WAT     H2 3595   7.393   5.391   1.997
  722WAT    EPW 3596   7.457   5.435   2.007
  723WAT      O 3597   6.961   5.569   1.631
  723WAT     H1 3598   6.990   5.533   1.705
  723WAT     H2 3599   6.967   5.504   1.573
  723WAT    EPW 3600   6.966   5.554   1.634
  724WAT      O 3601   7.444   5.714   1.246
  724WAT     H1 3602   7.397   5.676   1.308
  724WAT     H2 3603   7.393   5.709   1.175
  724WAT    EPW 3604   7.430   5.707   1.244
  725WAT      O 3605   7.066   6.030   2.748
  725WAT     H1 3606   7.033   5.983   2.683
  725WAT     H2 3607   7.039   6.111   2.730
  725WAT    EPW 3608   7.057   6.035   2.736
  726WAT      O 3609   7.536   5.491   1.493
  726WAT     H1 3610   7.571   5.566   1.522
  726WAT     H2 3611   7.453   5.512   1.478
  726WAT    EPW 3612   7.529   5.505   1.495
  727WAT      O 3613   6.891   5.228   2.131
  727WAT     H1 3614   6.880   5.239   2.045
  727WAT     H2 3615   6.974   5.200   2.137
  727WAT    EPW 3616   6.902   5.226   2.119
  728WAT      O 3617   7.468   6.276   2.428
  728WAT     H1 3618   7.476   6.331   2.495
  728WAT     H2 3619   7.497   6.322   2.360
  728WAT    EPW 3620   7.473   6.291   2.428
  729WAT      O 3621   7.335   6.097   2.728
  729WAT     H1 3622   7.254   6.066   2.736
  729WAT     H2 3623   7.323   6.184   2.723
  729WAT    EPW 3624   7.321   6.106   2.728
  730WAT      O 3625   7.848   6.104   2.411
  730WAT     H1 3626   7.865   6.138   2.490
  730WAT     H2 3627   7.770   6.068   2.420
  730WAT    EPW 3628   7.839   6.104   2.424
  731WAT      O 3629   7.500   5.439   2.679
  731WAT     H1 3630   7.513   5.362   2.717
  731WAT     H2 3631   7.534   5.429   2.599
  731WAT    EPW 3632   7.507   5.426   2.672
  732WAT      O 3633   7.718   6.671   1.860
  732WAT     H1 3634   7.718   6.758   1.859
  732WAT     H2 3635   7.690   6.650   1.780
  732WAT    EPW 3636   7.714   6.681   1.848
  733WAT      O 3637   7.600   4.973   2.652
  733WAT     H1 3638   7.677   4.932   2.651
  733WAT     H2 3639   7.548   4.920   2.697
  733WAT    EPW 3640   7.604   4.959   2.658
  734WAT      O 3641   7.560   6.416   2.201
  734WAT     H1 3642   7.521   6.479   2.156
  734WAT     H2 3643   7.600   6.368   2.139
  734WAT    EPW 3644   7.560   6.418   2.185
  735WAT      O 3645   7.609   5.909   1.357
  735WAT     H1 3646   7.561   5.853   1.310
  735WAT     H2 3647   7.578   5.987   1.334
  735WAT    EPW 3648   7.597   5.912   1.347
  736WAT      O 3649   7.403   5.551   2.262
  736WAT     H1 3650   7.419   5.517   2.183
  736WAT     H2 3651   7.460   5.510   2.314
  736WAT    EPW 3652   7.414   5.540   2.258
  737WAT      O 3653   7.779   6.654   2.757
  737WAT     H1 3654   7.857   6.643   2.721
  737WAT     H2 3655   7.758   6.574   2.785
  737WAT    EPW 3656   7.787   6.640   2.756
  738WAT      O 3657   7.583   4.948   2.240
  738WAT     H1 3658   7.505   4.966   2.273
  738WAT     H2 3659   7.565   4.913   2.162
  738WAT    EPW 3660   7.569   4.945   2.233
  739WAT      O 3661   7.829   6.178   2.688
  739WAT     H1 3662   7.778   6.120   2.729
  739WAT     H2 3663   7.814   6.252   2.731
  739WAT    EPW 3664   7.819   6.180   2.701
  740WAT      O 3665   6.870   5.110   2.893
  740WAT     H1 3666   6.866   5.179   2.840
  740WAT     H2 3667   6.787   5.088   2.904
  740WAT    EPW 3668   6.857   5.117   2.887
  741WAT      O 3669   7.406   6.766   2.275
  741WAT     H1 3670   7.383   6.758   2.359
  741WAT     H2 3671   7.374   6.694   2.238
  741WAT    EPW 3672   7.398   6.754   2.282
  742WAT      O 3673   7.232   5.335   1.562
  742WAT     H1 3674   7.250   5.294   1.487
  742WAT     H2 3675   7.153   5.305   1.583
  742WAT    EPW 3676   7.223   5.325   1.554
  743WAT      O 3677   7.012   6.706   2.820
  743WAT     H1 3678   6.952   6.644   2.811
  743WAT     H2 3679   6.967   6.774   2.850
  743WAT    EPW 3680   6.997   6.707   2.823
  744WAT      O 3681   7.250   5.560   2.676
  744WAT     H1 3682   7.262   5.620   2.614
  744WAT     H2 3683   7.327   5.519   2.679
  744WAT    EPW 3684   7.263   5.563   2.668
  745WAT      O 3685   7.056   5.406   2.553
  745WAT     H1 3686   7.080   5.420   2.471
  745WAT     H2 3687   7.116   5.450   2.599
  745WAT    EPW 3688   7.068   5.415   2.548
  746WAT      O 3689   7.265   5.095   2.804
  746WAT     H1 3690   7.249   5.009   2.799
  746WAT     H2 3691   7.247   5.124   2.723
  746WAT    EPW 3692   7.260   5.087   2.791
  747WAT      O 3693   6.951   5.896   2.534
  747WAT     H1 3694   7.008   5.912   2.470
  747WAT     H2 3695   6.933   5.811   2.525
  747WAT    EPW 3696   6.957   5.886   2.524
  748WAT      O 3697   7.137   5.472   1.208
  748WAT     H1 3698   7.063   5.465   1.254
  748WAT     H2 3699   7.145   5.394   1.171
  748WAT    EPW 3700   7.127   5.460   1.209
  749WAT      O 3701   7.450   6.401   1.362
  749WAT     H1 3702   7.490   6.387   1.438
  749WAT     H2 3703   7.366   6.385   1.381
  749WAT    EPW 3704   7.443   6.396   1.376
  750WAT      O 3705   7.477   5.867   2.643
  750WAT     H1 3706   7.430   5.934   2.675
  750WAT     H2 3707   7.421   5.827   2.589
  750WAT    EPW 3708   7.462   5.871   2.640
  751WAT      O 3709   7.200   6.309   1.433
  751WAT     H1 3710   7.201   6.289   1.518
  751WAT     H2 3711   7.200   6.231   1.394
  751WAT    EPW 3712   7.200   6.295   1.440
  752WAT      O 3713   7.471   6.138   1.265
  752WAT     H1 3714   7.389   6.111   1.278
  752WAT     H2 3715   7.470   6.221   1.295
  752WAT    EPW 3716   7.459   6.147   1.272
  753WAT      O 3717   7.476   5.165   2.488
  753WAT     H1 3718   7.389   5.154   2.496
  753WAT     H2 3719   7.509   5.093   2.522
  753WAT    EPW 3720   7.468   5.153   2.494
  754WAT      O 3721   7.613   5.665   2.800
  754WAT     H1 3722   7.580   5.596   2.757
  754WAT     H2 3723   7.579   5.733   2.758
  754WAT    EPW 3724   7.603   5.665   2.788
  755WAT      O 3725   7.715   4.962   1.297
  755WAT     H1 3726   7.722   4.982   1.213
  755WAT     H2 3727   7.630   4.967   1.313
  755WAT    EPW 3728   7.704   4.965   1.287
  756WAT      O 3729   7.432   6.678   2.808
  756WAT     H1 3730   7.448   6.663   2.893
  756WAT     H2 3731   7.482   6.619   2.767
  756WAT    EPW 3732   7.442   6.667   2.815
  757WAT      O 3733   7.197   5.164   2.546
  757WAT     H1 3734   7.139   5.100   2.535
  757WAT     H2 3735   7.149   5.236   2.542
  757WAT    EPW 3736   7.182   5.165   2.544
  758WAT      O 3737   7.189   6.532   2.953
  758WAT     H1 3738   7.257   6.573   2.990
  758WAT     H2 3739   7.147   6.596   2.912
  758WAT    EPW 3740   7.193   6.548   2.953
  759WAT      O 3741   7.066   5.497   1.883
  759WAT     H1 3742   7.026   5.524   1.955
  759WAT     H2 3743   7.106   5.423   1.907
  759WAT    EPW 3744   7.066   5.490   1.897
  760WAT      O 3745   7.018   6.294   2.668
  760WAT     H1 3746   6.966   6.354   2.703
  760WAT     H2 3747   7.098   6.326   2.680
  760WAT    EPW 3748   7.022   6.307   2.675
  761WAT      O 3749   7.333   6.640   1.602
  761WAT     H1 3750   7.325   6.696   1.536
  761WAT     H2 3751   7.418   6.622   1.604
  761WAT    EPW 3752   7.344   6.645   1.592
  762WAT      O 3753   7.641   5.738   1.572
  762WAT     H1 3754   7.643   5.792   1.504
  762WAT     H2 3755   7.725   5.714   1.581
  762WAT    EPW 3756   7.654   5.742   1.563
  763WAT      O 3757   7.528   5.187   2.816
  763WAT     H1 3758   7.560   5.139   2.750
  763WAT     H2 3759   7.445   5.161   2.822
  763WAT    EPW 3760   7.521   5.176   2.807
  764WAT      O 3761   7.243   6.545   2.195
  764WAT     H1 3762   7.230   6.470   2.153
  764WAT     H2 3763   7.201   6.604   2.145
  764WAT    EPW 3764   7.235   6.543   2.181
  765WAT      O 3765   7.006   6.780   2.553
  765WAT     H1 3766   7.014   6.754   2.635
  765WAT     H2 3767   7.035   6.712   2.507
  765WAT    EPW 3768   7.012   6.766   2.558
  766WAT      O 3769   6.987   6.333   0.529
  766WAT     H1 3770   7.004   6.322   0.614
  766WAT     H2 3771   6.932   6.268   0.510
  766WAT    EPW 3772   6.981   6.322   0.538
  767WAT      O 3773   7.585   6.171   1.012
  767WAT     H1 3774   7.558   6.154   1.093
  767WAT     H2 3775   7.519   6.145   0.961
  767WAT    EPW 3776   7.572   6.165   1.016
  768WAT      O 3777   7.530   5.456   0.497
  768WAT     H1 3778   7.613   5.449   0.471
  768WAT     H2 3779   7.502   5.373   0.497
  768WAT    EPW 3780   7.538   5.443   0.493
  769WAT      O 3781   7.559   6.464   0.750
  769WAT     H1 3782   7.599   6.502   0.682
  769WAT     H2 3783   7.625   6.436   0.800
  769WAT    EPW 3784   7.574   6.466   0.747
  770WAT      O 3785   6.933   5.653   0.325
  770WAT     H1 3786   6.892   5.730   0.335
  770WAT     H2 3787   6.874   5.595   0.352
  770WAT    EPW 3788   6.918   5.656   0.330
  771WAT      O 3789   7.188   5.070   0.379
  771WAT     H1 3790   7.231   5.145   0.368
  771WAT     H2 3791   7.250   5.009   0.372
  771WAT    EPW 3792   7.203   5.072   0.377
  772WAT      O 3793   7.556   5.304   1.175
  772WAT     H1 3794   7.568   5.276   1.093
  772WAT     H2 3795   7.585   5.386   1.173
  772WAT    EPW 3796   7.562   5.312   1.162
  773WAT      O 3797   7.155   5.206   1.108
  773WAT     H1 3798   7.079   5.170   1.088
  773WAT     H2 3799   7.210   5.175   1.048
  773WAT    EPW 3800   7.152   5.196   1.096
  774WAT      O 3801   7.728   5.016   1.025
  774WAT     H1 3802   7.746   4.962   0.959
  774WAT     H2 3803   7.689   5.084   0.986
  774WAT    EPW 3804   7.725   5.018   1.010
  775WAT      O 3805   7.361   6.699   0.634
  775WAT     H1 3806   7.374   6.683   0.719
  775WAT     H2 3807   7.300   6.641   0.612
  775WAT    EPW 3808   7.354   6.688   0.643
  776WAT      O 3809   6.890   5.335   0.864
  776WAT     H1 3810   6.874   5.411   0.903
  776WAT     H2 3811   6.948   5.355   0.802
  776WAT    EPW 3812   6.896   5.349   0.861
  777WAT      O 3813   7.170   6.542   0.495
  777WAT     H1 3814   7.116   6.475   0.509
  777WAT     H2 3815   7.204   6.525   0.417
  777WAT    EPW 3816   7.167   6.530   0.485
  778WAT      O 3817   7.304   6.386   0.850
  778WAT     H1 3818   7.377   6.424   0.819
  778WAT     H2 3819   7.286   6.432   0.922
  778WAT    EPW 3820   7.312   6.399   0.856
  779WAT      O 3821   7.440   5.941   0.317
  779WAT     H1 3822   7.496   5.954   0.383
  779WAT     H2 3823   7.424   5.856   0.321
  779WAT    EPW 3824   7.446   5.931   0.327
  780WAT      O 3825   7.613   6.006   0.525
  780WAT     H1 3826   7.587   6.088   0.541
  780WAT     H2 3827   7.594   5.964   0.600
  780WAT    EPW 3828   7.606   6.012   0.539
  781WAT      O 3829   6.854   6.344   1.150
  781WAT     H1 3830   6.911   6.394   1.193
  781WAT     H2 3831   6.863   6.266   1.189
  781WAT    EPW 3832   6.863   6.340   1.162
  782WAT      O 3833   7.150   5.506   0.418
  782WAT     H1 3834   7.222   5.549   0.394
  782WAT     H2 3835   7.086   5.553   0.382
  782WAT    EPW 3836   7.151   5.519   0.409
  783WAT      O 3837   7.662   5.561   1.164
  783WAT     H1 3838   7.600   5.610   1.201
  783WAT     H2 3839   7.672   5.597   1.085
  783WAT    EPW 3840   7.654   5.573   1.158
  784WAT      O 3841   7.291   6.174   0.378
  784WAT     H1 3842   7.341   6.201   0.444
  784WAT     H2 3843   7.335   6.107   0.344
  784WAT    EPW 3844   7.305   6.168   0.383
  785WAT      O 3845   7.245   5.676   1.052
  785WAT     H1 3846   7.204   5.610   1.091
  785WAT     H2 3847   7.250   5.651   0.969
  785WAT    EPW 3848   7.240   5.662   1.046
  786WAT      O 3849   7.301   5.782   0.588
  786WAT     H1 3850   7.329   5.740   0.517
  786WAT     H2 3851   7.244   5.840   0.557
  786WAT    EPW 3852   7.297   5.784   0.573
  787WAT      O 3853   7.680   6.556   0.519
  787WAT     H1 3854   7.660   6.513   0.446
  787WAT     H2 3855   7.690   6.638   0.491
  787WAT    EPW 3856   7.679   6.562   0.504
  788WAT      O 3857   7.114   5.910   1.112
  788WAT     H1 3858   7.109   5.955   1.037
  788WAT     H2 3859   7.162   5.840   1.090
  788WAT    EPW 3860   7.121   5.906   1.097
  789WAT      O 3861   7.728   6.405   0.976
  789WAT     H1 3862   7.770   6.418   1.051
  789WAT     H2 3863   7.677   6.337   0.993
  789WAT    EPW 3864   7.727   6.397   0.989
  790WAT      O 3865   7.795   5.467   0.408
  790WAT     H1 3866   7.819   5.542   0.370
  790WAT     H2 3867   7.870   5.426   0.424
  790WAT    EPW 3868   7.809   5.472   0.405
  791WAT      O 3869   7.623   6.046   0.124
  791WAT     H1 3870   7.555   6.013   0.168
  791WAT     H2 3871   7.692   6.021   0.172
  791WAT    EPW 3872   7.623   6.038   0.138
  792WAT      O 3873   7.120   5.962   0.463
  792WAT     H1 3874   7.160   6.037   0.445
  792WAT     H2 3875   7.081   5.941   0.387
  792WAT    EPW 3876   7.120   5.970   0.449
  793WAT      O 3877   7.101   6.039   0.870
  793WAT     H1 3878   7.063   5.986   0.812
  793WAT     H2 3879   7.069   6.118   0.850
  793WAT    EPW 3880   7.091   6.043   0.859
  794WAT      O 3881   7.503   6.262   0.546
  794WAT     H1 3882   7.515   6.317   0.613
  794WAT     H2 3883   7.532   6.307   0.477
  794WAT    EPW 3884   7.509   6.277   0.546
  795WAT      O 3885   7.367   6.112   0.848
  795WAT     H1 3886   7.288   6.078   0.858
  795WAT     H2 3887   7.352   6.198   0.840
  795WAT    EPW 3888   7.353   6.120   0.848
  796WAT      O 3889   7.806   5.966   0.327
  796WAT     H1 3890   7.880   6.005   0.352
  796WAT     H2 3891   7.753   5.975   0.396
  796WAT    EPW 3892   7.809   5.973   0.340
  797WAT      O 3893   7.507   5.470   0.775
  797WAT     H1 3894   7.531   5.393   0.808
  797WAT     H2 3895   7.523   5.462   0.690
  797WAT    EPW 3896   7.513   5.457   0.768
  798WAT      O 3897   7.648   5.057   0.675
  798WAT     H1 3898   7.667   5.038   0.592
  798WAT     H2 3899   7.665   4.982   0.718
  798WAT    EPW 3900   7.653   5.043   0.669
  799WAT      O 3901   7.568   6.395   0.310
  799WAT     H1 3902   7.488   6.414   0.281
  799WAT     H2 3903   7.603   6.347   0.246
  799WAT    EPW 3904   7.561   6.391   0.296
  800WAT      O 3905   7.391   5.648   0.353
  800WAT     H1 3906   7.399   5.625   0.269
  800WAT     H2 3907   7.441   5.590   0.395
  800WAT    EPW 3908   7.400   5.636   0.347
  801WAT      O 3909   7.802   6.659   0.877
  801WAT     H1 3910   7.882   6.645   0.847
  801WAT     H2 3911   7.779   6.582   0.911
  801WAT    EPW 3912   7.810   6.645   0.877
  802WAT      O 3913   7.659   4.964   0.412
  802WAT     H1 3914   7.577   4.948   0.390
  802WAT     H2 3915   7.695   4.992   0.338
  802WAT    EPW 3916   7.653   4.966   0.398
  803WAT      O 3917   7.859   6.173   0.869
  803WAT     H1 3918   7.796   6.123   0.903
  803WAT     H2 3919   7.839   6.253   0.897
  803WAT    EPW 3920   7.847   6.178   0.879
  804WAT      O 3921   6.904   5.101   1.013
  804WAT     H1 3922   6.901   5.174   0.966
  804WAT     H2 3923   6.828   5.062   0.995
  804WAT    EPW 3924   6.893   5.106   1.003
  805WAT      O 3925   7.411   6.775   0.370
  805WAT     H1 3926   7.395   6.749   0.452
  805WAT     H2 3927   7.393   6.704   0.322
  805WAT    EPW 3928   7.406   6.760   0.375
  806WAT      O 3929   7.045   6.706   0.917
  806WAT     H1 3930   6.982   6.646   0.918
  806WAT     H2 3931   7.006   6.778   0.949
  806WAT    EPW 3932   7.030   6.708   0.922
  807WAT      O 3933   7.258   5.588   0.788
  807WAT     H1 3934   7.265   5.652   0.730
  807WAT     H2 3935   7.337   5.551   0.787
  807WAT    EPW 3936   7.271   5.592   0.780
  808WAT      O 3937   7.086   5.410   0.668
  808WAT     H1 3938   7.105   5.427   0.584
  808WAT     H2 3939   7.143   5.459   0.712
  808WAT    EPW 3940   7.097   5.420   0.662
  809WAT      O 3941   7.329   5.097   0.920
  809WAT     H1 3942   7.357   5.015   0.917
  809WAT     H2 3943   7.286   5.108   0.845
  809WAT    EPW 3944   7.327   5.087   0.908
  810WAT      O 3945   6.973   5.878   0.684
  810WAT     H1 3946   7.010   5.904   0.610
  810WAT     H2 3947   6.952   5.795   0.669
  810WAT    EPW 3948   6.975   5.870   0.671
  811WAT      O 3949   7.505   5.884   0.752
  811WAT     H1 3950   7.468   5.955   0.786
  811WAT     H2 3951   7.440   5.849   0.704
  811WAT    EPW 3952   7.490   5.890   0.750
  812WAT      O 3953   7.435   5.199   0.544
  812WAT     H1 3954   7.359   5.180   0.581
  812WAT     H2 3955   7.491   5.145   0.584
  812WAT    EPW 3956   7.432   5.188   0.556
  813WAT      O 3957   7.635   5.679   0.909
  813WAT     H1 3958   7.599   5.613   0.863
  813WAT     H2 3959   7.605   5.750   0.869
  813WAT    EPW 3960   7.625   5.680   0.896
  814WAT      O 3961   7.448   6.675   0.917
  814WAT     H1 3962   7.464   6.662   1.002
  814WAT     H2 3963   7.507   6.623   0.877
  814WAT    EPW 3964   7.459   6.665   0.923
  815WAT      O 3965   7.199   5.151   0.684
  815WAT     H1 3966   7.149   5.091   0.644
  815WAT     H2 3967   7.153   5.225   0.675
  815WAT    EPW 3968   7.185   5.153   0.677
  816WAT      O 3969   7.208   6.535   1.069
  816WAT     H1 3970   7.276   6.576   1.106
  816WAT     H2 3971   7.169   6.598   1.024
  816WAT    EPW 3972   7.212   6.551   1.068
  817WAT      O 3973   7.044   6.303   0.795
  817WAT     H1 3974   6.990   6.361   0.832
  817WAT     H2 3975   7.123   6.336   0.810
  817WAT    EPW 3976   7.048   6.317   0.803
  818WAT      O 3977   7.574   5.218   0.892
  818WAT     H1 3978   7.604   5.181   0.818
  818WAT     H2 3979   7.494   5.184   0.900
  818WAT    EPW 3980   7.567   5.207   0.882
  819WAT      O 3981   7.293   6.435   0.251
  819WAT     H1 3982   7.276   6.353   0.276
  819WAT     H2 3983   7.266   6.438   0.168
  819WAT    EPW 3984   7.287   6.423   0.242
  820WAT      O 3985   7.019   6.755   0.640
  820WAT     H1 3986   7.043   6.728   0.719
  820WAT     H2 3987   7.058   6.699   0.585
  820WAT    EPW 3988   7.028   6.743   0.643
  821WAT      O 3989   6.930   4.260   7.404
  821WAT     H1 3990   6.851   4.257   7.442
  821WAT     H2 3991   6.937   4.183   7.365
  821WAT    EPW 3992   6.919   4.248   7.404
  822WAT      O 3993   6.910   3.610   7.052
  822WAT     H1 3994   6.844   3.657   7.020
  822WAT     H2 3995   6.881   3.528   7.047
  822WAT    EPW 3996   6.896   3.605   7.047
  823WAT      O 3997   7.209   4.213   7.000
  823WAT     H1 3998   7.185   4.168   6.929
  823WAT     H2 3999   7.226   4.151   7.059
  823WAT    EPW 4000   7.208   4.197   6.998
  824WAT      O 4001   7.190   4.367   7.407
  824WAT     H1 4002   7.241   4.329   7.467
  824WAT     H2 4003   7.113   4.328   7.418
  824WAT    EPW 4004   7.186   4.356   7.418
  825WAT      O 4005   7.572   3.230   7.284
  825WAT     H1 4006   7.610   3.282   7.225
  825WAT     H2 4007   7.622   3.158   7.282
  825WAT    EPW 4008   7.585   3.227   7.275
  826WAT      O 4009   7.041   4.633   6.975
  826WAT     H1 4010   7.094   4.645   6.907
  826WAT     H2 4011   7.087   4.581   7.028
  826WAT    EPW 4012   7.056   4.627   6.973
  827WAT      O 4013   7.134   3.987   7.528
  827WAT     H1 4014   7.084   4.001   7.458
  827WAT     H2 4015   7.186   3.922   7.503
  827WAT    EPW 4016   7.134   3.979   7.514
  828WAT      O 4017   7.296   3.780   7.432
  828WAT     H1 4018   7.351   3.769   7.499
  828WAT     H2 4019   7.229   3.729   7.451
  828WAT    EPW 4020   7.294   3.771   7.445
  829WAT      O 4021   7.664   4.380   7.673
  829WAT     H1 4022   7.645   4.323   7.737
  829WAT     H2 4023   7.731   4.425   7.705
  829WAT    EPW 4024   7.671   4.378   7.687
  830WAT      O 4025   7.662   4.323   7.396
  830WAT     H1 4026   7.665   4.333   7.483
  830WAT     H2 4027   7.742   4.294   7.377
  830WAT    EPW 4028   7.674   4.320   7.406
  831WAT      O 4029   7.356   3.342   7.428
  831WAT     H1 4030   7.315   3.391   7.369
  831WAT     H2 4031   7.427   3.313   7.386
  831WAT    EPW 4032   7.360   3.345   7.413
  832WAT      O 4033   7.722   3.336   7.500
  832WAT     H1 4034   7.710   3.422   7.509
  832WAT     H2 4035   7.672   3.314   7.432
  832WAT    EPW 4036   7.713   3.345   7.491
  833WAT      O 4037   6.948   3.746   7.748
  833WAT     H1 4038   6.951   3.833   7.759
  833WAT     H2 4039   6.956   3.714   7.828
  833WAT    EPW 4040   6.949   3.754   7.761
  834WAT      O 4041   6.947   4.707   7.622
  834WAT     H1 4042   6.884   4.757   7.589
  834WAT     H2 4043   6.992   4.681   7.552
  834WAT    EPW 4044   6.944   4.711   7.607
  835WAT      O 4045   7.541   4.573   7.336
  835WAT     H1 4046   7.501   4.571   7.413
  835WAT     H2 4047   7.588   4.499   7.335
  835WAT    EPW 4048   7.542   4.562   7.347
  836WAT      O 4049   7.096   4.630   7.397
  836WAT     H1 4050   7.140   4.557   7.418
  836WAT     H2 4051   7.158   4.682   7.365
  836WAT    EPW 4052   7.112   4.627   7.396
  837WAT      O 4053   7.267   4.403   7.755
  837WAT     H1 4054   7.313   4.458   7.705
  837WAT     H2 4055   7.297   4.324   7.731
  837WAT    EPW 4056   7.279   4.399   7.744
  838WAT      O 4057   7.506   4.795   7.671
  838WAT     H1 4058   7.582   4.833   7.651
  838WAT     H2 4059   7.446   4.850   7.641
  838WAT    EPW 4060   7.508   4.809   7.664
  839WAT      O 4061   7.857   4.583   6.877
  839WAT     H1 4062   7.850   4.641   6.942
  839WAT     H2 4063   7.923   4.532   6.902
  839WAT    EPW 4064   7.866   4.584   6.890
  840WAT      O 4065   6.983   3.400   7.325
  840WAT     H1 4066   6.965   3.316   7.313
  840WAT     H2 4067   6.939   3.420   7.398
  840WAT    EPW 4068   6.974   3.391   7.334
  841WAT      O 4069   7.818   3.654   7.076
  841WAT     H1 4070   7.774   3.579   7.090
  841WAT     H2 4071   7.783   3.685   7.003
  841WAT    EPW 4072   7.806   3.647   7.067
  842WAT      O 4073   7.667   3.615   7.489
  842WAT     H1 4074   7.612   3.617   7.421
  842WAT     H2 4075   7.736   3.660   7.460
  842WAT    EPW 4076   7.669   3.622   7.474
  843WAT      O 4077   7.294   3.090   7.540
  843WAT     H1 4078   7.303   3.173   7.513
  843WAT     H2 4079   7.294   3.045   7.465
  843WAT    EPW 4080   7.295   3.096   7.525
  844WAT      O 4081   7.286   3.495   7.652
  844WAT     H1 4082   7.317   3.443   7.589
  844WAT     H2 4083   7.223   3.447   7.689
  844WAT    EPW 4084   7.282   3.480   7.648
  845WAT      O 4085   7.327   4.168   7.599
  845WAT     H1 4086   7.380   4.153   7.532
  845WAT     H2 4087   7.258   4.116   7.584
  845WAT    EPW 4088   7.324   4.158   7.587
  846WAT      O 4089   7.150   4.829   7.767
  846WAT     H1 4090   7.082   4.796   7.723
  846WAT     H2 4091   7.200   4.865   7.705
  846WAT    EPW 4092   7.147   4.830   7.751
  847WAT      O 4093   7.468   4.116   7.369
  847WAT     H1 4094   7.524   4.182   7.363
  847WAT     H2 4095   7.516   4.046   7.351
  847WAT    EPW 4096   7.483   4.116   7.365
  848WAT      O 4097   7.010   4.297   7.807
  848WAT     H1 4098   6.964   4.369   7.824
  848WAT     H2 4099   7.090   4.328   7.791
  848WAT    EPW 4100   7.015   4.312   7.807
  849WAT      O 4101   6.995   4.015   7.291
  849WAT     H1 4102   6.976   3.929   7.287
  849WAT     H2 4103   7.072   4.020   7.251
  849WAT    EPW 4104   7.004   4.003   7.284
  850WAT      O 4105   6.913   4.483   7.244
  850WAT     H1 4106   6.970   4.536   7.283
  850WAT     H2 4107   6.909   4.415   7.298
  850WAT    EPW 4108   6.921   4.481   7.258
  851WAT      O 4109   6.925   4.306   7.021
  851WAT     H1 4110   7.004   4.268   7.018
  851WAT     H2 4111   6.934   4.366   7.084
  851WAT    EPW 4112   6.938   4.309   7.030
  852WAT      O 4113   6.968   4.029   7.748
  852WAT     H1 4114   7.021   4.016   7.679
  852WAT     H2 4115   6.988   4.109   7.774
  852WAT    EPW 4116   6.979   4.039   7.741
  853WAT      O 4117   7.632   3.450   7.123
  853WAT     H1 4118   7.603   3.448   7.041
  853WAT     H2 4119   7.583   3.511   7.161
  853WAT    EPW 4120   7.620   3.459   7.117
  854WAT      O 4121   7.447   4.541   7.594
  854WAT     H1 4122   7.463   4.620   7.627
  854WAT     H2 4123   7.513   4.492   7.625
  854WAT    EPW 4124   7.459   4.545   7.604
  855WAT      O 4125   7.244   3.751   7.095
  855WAT     H1 4126   7.242   3.687   7.155
  855WAT     H2 4127   7.201   3.717   7.027
  855WAT    EPW 4128   7.237   3.736   7.094
  856WAT      O 4129   7.471   3.990   7.777
  856WAT     H1 4130   7.422   4.038   7.722
  856WAT     H2 4131   7.468   3.910   7.742
  856WAT    EPW 4132   7.463   3.986   7.764
  857WAT      O 4133   7.690   4.814   7.308
  857WAT     H1 4134   7.650   4.738   7.323
  857WAT     H2 4135   7.747   4.795   7.245
  857WAT    EPW 4136   7.692   4.800   7.301
  858WAT      O 4137   7.402   3.123   7.092
  858WAT     H1 4138   7.451   3.154   7.157
  858WAT     H2 4139   7.361   3.194   7.062
  858WAT    EPW 4140   7.404   3.138   7.097
  859WAT      O 4141   7.853   4.773   7.084
  859WAT     H1 4142   7.933   4.808   7.088
  859WAT     H2 4143   7.804   4.836   7.051
  859WAT    EPW 4144   7.858   4.787   7.080
  860WAT      O 4145   7.254   4.024   7.195
  860WAT     H1 4146   7.264   3.939   7.179
  860WAT     H2 4147   7.319   4.043   7.250
  860WAT    EPW 4148   7.265   4.014   7.201
  861WAT      O 4149   6.903   3.131   7.284
  861WAT     H1 4150   6.902   3.078   7.214
  861WAT     H2 4151   6.869   3.081   7.347
  861WAT    EPW 4152   6.898   3.115   7.283
  862WAT      O 4153   7.854   3.766   7.325
  862WAT     H1 4154   7.937   3.792   7.331
  862WAT     H2 4155   7.850   3.728   7.247
  862WAT    EPW 4156   7.866   3.764   7.314
  863WAT      O 4157   7.304   3.368   7.002
  863WAT     H1 4158   7.240   3.363   6.943
  863WAT     H2 4159   7.368   3.407   6.960
  863WAT    EPW 4160   7.304   3.373   6.987
  864WAT      O 4161   7.616   4.207   7.886
  864WAT     H1 4162   7.576   4.132   7.864
  864WAT     H2 4163   7.617   4.205   7.973
  864WAT    EPW 4164   7.610   4.195   7.896
  865WAT      O 4165   7.415   4.775   6.886
  865WAT     H1 4166   7.439   4.705   6.931
  865WAT     H2 4167   7.402   4.836   6.947
  865WAT    EPW 4168   7.416   4.774   6.902
  866WAT      O 4169   7.458   3.727   7.650
  866WAT     H1 4170   7.532   3.694   7.616
  866WAT     H2 4171   7.412   3.656   7.671
  866WAT    EPW 4172   7.462   3.711   7.648
  867WAT      O 4173   6.954   3.739   7.299
  867WAT     H1 4174   6.987   3.694   7.366
  867WAT     H2 4175   6.958   3.683   7.232
  867WAT    EPW 4176   6.960   3.724   7.299
  868WAT      O 4177   7.431   3.868   6.925
  868WAT     H1 4178   7.380   3.830   6.985
  868WAT     H2 4179   7.384   3.862   6.851
  868WAT    EPW 4180   7.416   3.861   6.923
  869WAT      O 4181   7.503   3.653   7.270
  869WAT     H1 4182   7.534   3.734   7.259
  869WAT     H2 4183   7.423   3.666   7.303
  869WAT    EPW 4184   7.496   3.667   7.273
  870WAT      O 4185   7.050   3.356   7.711
  870WAT     H1 4186   6.976   3.375   7.669
  870WAT     H2 4187   7.043   3.271   7.729
  870WAT    EPW 4188   7.038   3.347   7.708
  871WAT      O 4189   7.739   4.908   7.572
  871WAT     H1 4190   7.744   4.995   7.564
  871WAT     H2 4191   7.738   4.880   7.490
  871WAT    EPW 4192   7.739   4.917   7.559
  872WAT      O 4193   7.601   4.058   7.039
  872WAT     H1 4194   7.550   4.004   6.994
  872WAT     H2 4195   7.576   4.137   7.014
  872WAT    EPW 4196   7.590   4.061   7.029
  873WAT      O 4197   7.227   3.503   7.239
  873WAT     H1 4198   7.243   3.460   7.165
  873WAT     H2 4199   7.147   3.475   7.262
  873WAT    EPW 4200   7.217   3.492   7.231
  874WAT      O 4201   7.117   3.629   6.872
  874WAT     H1 4202   7.045   3.625   6.921
  874WAT     H2 4203   7.123   3.550   6.837
  874WAT    EPW 4204   7.107   3.617   6.875
  875WAT      O 4205   7.452   4.556   7.063
  875WAT     H1 4206   7.494   4.562   7.140
  875WAT     H2 4207   7.371   4.533   7.085
  875WAT    EPW 4208   7.447   4.553   7.078
  876WAT      O 4209   7.207   4.456   7.132
  876WAT     H1 4210   7.203   4.432   7.216
  876WAT     H2 4211   7.206   4.380   7.089
  876WAT    EPW 4212   7.206   4.441   7.138
  877WAT      O 4213   7.479   4.297   6.946
  877WAT     H1 4214   7.396   4.272   6.957
  877WAT     H2 4215   7.481   4.377   6.981
  877WAT    EPW 4216   7.467   4.305   6.953
  878WAT      O 4217   7.682   3.125   6.999
  878WAT     H1 4218   7.698   3.141   6.914
  878WAT     H2 4219   7.595   3.119   7.002
  878WAT    EPW 4220   7.671   3.126   6.987
  879WAT      O 4221   7.079   3.639   7.528
  879WAT     H1 4222   7.034   3.672   7.595
  879WAT     H2 4223   7.132   3.581   7.566
  879WAT    EPW 4224   7.080   3.636   7.543
  880WAT      O 4225   7.315   4.784   7.303
  880WAT     H1 4226   7.323   4.836   7.234
  880WAT     H2 4227   7.387   4.733   7.298
  880WAT    EPW 4228   7.327   4.784   7.292
  881WAT      O 4229   7.618   3.906   7.270
  881WAT     H1 4230   7.626   3.950   7.195
  881WAT     H2 4231   7.699   3.878   7.286
  881WAT    EPW 4232   7.631   3.909   7.261
  882WAT      O 4233   7.175   4.609   7.946
  882WAT     H1 4234   7.212   4.548   7.896
  882WAT     H2 4235   7.182   4.681   7.898
  882WAT    EPW 4236   7.182   4.610   7.932
  883WAT      O 4237   6.920   4.260   5.507
  883WAT     H1 4238   6.854   4.254   5.564
  883WAT     H2 4239   6.934   4.178   5.483
  883WAT    EPW 4240   6.912   4.247   5.512
  884WAT      O 4241   6.909   3.595   5.175
  884WAT     H1 4242   6.844   3.646   5.145
  884WAT     H2 4243   6.878   3.514   5.163
  884WAT    EPW 4244   6.895   3.590   5.169
  885WAT      O 4245   7.196   4.208   5.112
  885WAT     H1 4246   7.173   4.161   5.042
  885WAT     H2 4247   7.215   4.149   5.172
  885WAT    EPW 4248   7.196   4.193   5.110
  886WAT      O 4249   7.177   4.370   5.489
  886WAT     H1 4250   7.231   4.333   5.547
  886WAT     H2 4251   7.101   4.331   5.505
  886WAT    EPW 4252   7.174   4.359   5.500
  887WAT      O 4253   7.595   3.217   5.403
  887WAT     H1 4254   7.634   3.273   5.350
  887WAT     H2 4255   7.638   3.143   5.390
  887WAT    EPW 4256   7.607   3.214   5.393
  888WAT      O 4257   7.033   4.647   5.074
  888WAT     H1 4258   7.087   4.659   5.007
  888WAT     H2 4259   7.077   4.592   5.126
  888WAT    EPW 4260   7.048   4.641   5.072
  889WAT      O 4261   6.935   4.474   6.207
  889WAT     H1 4262   6.961   4.451   6.287
  889WAT     H2 4263   6.867   4.422   6.192
  889WAT    EPW 4264   6.929   4.463   6.216
  890WAT      O 4265   7.570   4.318   6.681
  890WAT     H1 4266   7.549   4.304   6.764
  890WAT     H2 4267   7.502   4.287   6.637
  890WAT    EPW 4268   7.557   4.311   6.687
  891WAT      O 4269   7.129   4.025   5.693
  891WAT     H1 4270   7.086   4.022   5.617
  891WAT     H2 4271   7.185   3.958   5.688
  891WAT    EPW 4272   7.131   4.015   5.681
  892WAT      O 4273   7.561   3.549   6.198
  892WAT     H1 4274   7.631   3.528   6.150
  892WAT     H2 4275   7.520   3.473   6.208
  892WAT    EPW 4276   7.565   3.535   6.192
  893WAT      O 4277   7.530   4.617   6.437
  893WAT     H1 4278   7.574   4.656   6.373
  893WAT     H2 4279   7.592   4.584   6.488
  893WAT    EPW 4280   7.545   4.618   6.435
  894WAT      O 4281   7.295   3.804   5.679
  894WAT     H1 4282   7.358   3.746   5.696
  894WAT     H2 4283   7.223   3.756   5.676
  894WAT    EPW 4284   7.294   3.788   5.681
  895WAT      O 4285   7.687   4.467   5.764
  895WAT     H1 4286   7.738   4.416   5.814
  895WAT     H2 4287   7.736   4.538   5.751
  895WAT    EPW 4288   7.702   4.470   5.769
  896WAT      O 4289   7.667   4.302   5.533
  896WAT     H1 4290   7.673   4.343   5.610
  896WAT     H2 4291   7.745   4.263   5.525
  896WAT    EPW 4292   7.680   4.303   5.543
  897WAT      O 4293   7.366   3.325   5.539
  897WAT     H1 4294   7.327   3.381   5.484
  897WAT     H2 4295   7.441   3.306   5.499
  897WAT    EPW 4296   7.371   3.330   5.525
  898WAT      O 4297   7.702   3.217   5.671
  898WAT     H1 4298   7.700   3.297   5.706
  898WAT     H2 4299   7.668   3.229   5.592
  898WAT    EPW 4300   7.697   3.231   5.665
  899WAT      O 4301   6.950   3.755   5.930
  899WAT     H1 4302   6.944   3.841   5.939
  899WAT     H2 4303   6.883   3.724   5.976
  899WAT    EPW 4304   6.939   3.763   5.938
  900WAT      O 4305   6.948   4.703   5.738
  900WAT     H1 4306   6.884   4.749   5.702
  900WAT     H2 4307   6.995   4.675   5.670
  900WAT    EPW 4308   6.945   4.706   5.723
  901WAT      O 4309   7.527   4.518   5.425
  901WAT     H1 4310   7.471   4.521   5.492
  901WAT     H2 4311   7.576   4.448   5.443
  901WAT    EPW 4312   7.526   4.508   5.437
  902WAT      O 4313   7.224   3.267   5.969
  902WAT     H1 4314   7.180   3.199   5.937
  902WAT     H2 4315   7.287   3.230   6.017
  902WAT    EPW 4316   7.227   3.252   5.971
  903WAT      O 4317   7.530   3.473   6.862
  903WAT     H1 4318   7.549   3.434   6.786
  903WAT     H2 4319   7.564   3.552   6.853
  903WAT    EPW 4320   7.538   3.479   6.849
  904WAT      O 4321   7.105   4.638   5.507
  904WAT     H1 4322   7.145   4.562   5.521
  904WAT     H2 4323   7.166   4.687   5.469
  904WAT    EPW 4324   7.120   4.634   5.504
  905WAT      O 4325   7.125   3.358   6.788
  905WAT     H1 4326   7.048   3.327   6.763
  905WAT     H2 4327   7.182   3.322   6.732
  905WAT    EPW 4328   7.122   3.348   6.776
  906WAT      O 4329   7.190   4.458   5.865
  906WAT     H1 4330   7.241   4.462   5.794
  906WAT     H2 4331   7.228   4.399   5.915
  906WAT    EPW 4332   7.203   4.450   5.862
  907WAT      O 4333   7.484   4.751   5.795
  907WAT     H1 4334   7.562   4.765   5.759
  907WAT     H2 4335   7.433   4.812   5.759
  907WAT    EPW 4336   7.488   4.762   5.784
  908WAT      O 4337   7.724   3.161   6.729
  908WAT     H1 4338   7.745   3.103   6.667
  908WAT     H2 4339   7.680   3.222   6.687
  908WAT    EPW 4340   7.721   3.161   6.714
  909WAT      O 4341   7.320   4.857   6.343
  909WAT     H1 4342   7.344   4.842   6.425
  909WAT     H2 4343   7.254   4.801   6.330
  909WAT    EPW 4344   7.314   4.847   6.353
  910WAT      O 4345   6.854   3.489   6.527
  910WAT     H1 4346   6.847   3.564   6.571
  910WAT     H2 4347   6.916   3.505   6.468
  910WAT    EPW 4348   6.862   3.502   6.525
  911WAT      O 4349   7.842   4.571   5.008
  911WAT     H1 4350   7.841   4.630   5.073
  911WAT     H2 4351   7.891   4.507   5.040
  911WAT    EPW 4352   7.849   4.571   5.023
  912WAT      O 4353   6.988   3.398   5.457
  912WAT     H1 4354   6.966   3.315   5.438
  912WAT     H2 4355   6.939   3.416   5.527
  912WAT    EPW 4356   6.977   3.388   5.464
  913WAT      O 4357   7.103   4.703   6.240
  913WAT     H1 4358   7.049   4.634   6.236
  913WAT     H2 4359   7.145   4.699   6.164
  913WAT    EPW 4360   7.101   4.692   6.228
  914WAT      O 4361   7.846   3.636   5.142
  914WAT     H1 4362   7.805   3.565   5.171
  914WAT     H2 4363   7.793   3.666   5.080
  914WAT    EPW 4364   7.832   3.630   5.137
  915WAT      O 4365   7.702   3.481   5.773
  915WAT     H1 4366   7.753   3.532   5.723
  915WAT     H2 4367   7.732   3.496   5.853
  915WAT    EPW 4368   7.714   3.491   5.777
  916WAT      O 4369   7.280   4.525   6.534
  916WAT     H1 4370   7.350   4.567   6.502
  916WAT     H2 4371   7.259   4.572   6.605
  916WAT    EPW 4372   7.287   4.538   6.540
  917WAT      O 4373   7.322   3.067   5.639
  917WAT     H1 4374   7.333   3.150   5.615
  917WAT     H2 4375   7.315   3.024   5.564
  917WAT    EPW 4376   7.322   3.073   5.625
  918WAT      O 4377   7.555   4.172   5.961
  918WAT     H1 4378   7.567   4.157   6.046
  918WAT     H2 4379   7.518   4.099   5.932
  918WAT    EPW 4380   7.552   4.159   5.969
  919WAT      O 4381   7.593   4.175   6.234
  919WAT     H1 4382   7.553   4.251   6.247
  919WAT     H2 4383   7.564   4.125   6.300
  919WAT    EPW 4384   7.583   4.179   6.246
  920WAT      O 4385   6.842   4.504   6.825
  920WAT     H1 4386   6.901   4.550   6.870
  920WAT     H2 4387   6.851   4.423   6.855
  920WAT    EPW 4388   6.852   4.499   6.836
  921WAT      O 4389   7.232   3.443   5.758
  921WAT     H1 4390   7.264   3.395   5.693
  921WAT     H2 4391   7.231   3.388   5.826
  921WAT    EPW 4392   7.237   3.428   5.758
  922WAT      O 4393   7.324   4.225   5.677
  922WAT     H1 4394   7.375   4.178   5.624
  922WAT     H2 4395   7.260   4.170   5.699
  922WAT    EPW 4396   7.322   4.210   5.672
  923WAT      O 4397   7.127   4.886   5.835
  923WAT     H1 4398   7.061   4.837   5.804
  923WAT     H2 4399   7.180   4.895   5.766
  923WAT    EPW 4400   7.125   4.880   5.820
  924WAT      O 4401   7.128   3.603   6.086
  924WAT     H1 4402   7.208   3.631   6.066
  924WAT     H2 4403   7.076   3.651   6.035
  924WAT    EPW 4404   7.132   3.614   6.075
  925WAT      O 4405   7.474   4.100   5.477
  925WAT     H1 4406   7.531   4.165   5.484
  925WAT     H2 4407   7.524   4.031   5.457
  925WAT    EPW 4408   7.490   4.099   5.475
  926WAT      O 4409   6.940   4.329   5.871
  926WAT     H1 4410   6.884   4.392   5.893
  926WAT     H2 4411   7.016   4.371   5.862
  926WAT    EPW 4412   6.943   4.344   5.873
  927WAT      O 4413   7.653   3.723   6.851
  927WAT     H1 4414   7.587   3.771   6.883
  927WAT     H2 4415   7.665   3.754   6.771
  927WAT    EPW 4416   7.645   3.734   6.844
  928WAT      O 4417   7.011   4.003   5.442
  928WAT     H1 4418   6.990   3.919   5.436
  928WAT     H2 4419   7.084   4.010   5.396
  928WAT    EPW 4420   7.019   3.992   5.435
  929WAT      O 4421   6.907   4.495   5.361
  929WAT     H1 4422   6.967   4.544   5.400
  929WAT     H2 4423   6.902   4.424   5.412
  929WAT    EPW 4424   6.915   4.492   5.374
  930WAT      O 4425   7.310   4.282   6.042
  930WAT     H1 4426   7.344   4.329   6.107
  930WAT     H2 4427   7.380   4.247   6.003
  930WAT    EPW 4428   7.325   4.284   6.046
  931WAT      O 4429   6.917   4.318   5.133
  931WAT     H1 4430   6.992   4.275   5.131
  931WAT     H2 4431   6.928   4.377   5.197
  931WAT    EPW 4432   6.929   4.321   5.142
  932WAT      O 4433   6.967   4.057   5.912
  932WAT     H1 4434   7.017   4.041   5.842
  932WAT     H2 4435   6.955   4.144   5.909
  932WAT    EPW 4436   6.972   4.068   5.901
  933WAT      O 4437   7.670   3.428   5.232
  933WAT     H1 4438   7.644   3.416   5.150
  933WAT     H2 4439   7.626   3.498   5.258
  933WAT    EPW 4440   7.660   3.437   5.224
  934WAT      O 4441   7.392   4.522   5.670
  934WAT     H1 4442   7.420   4.592   5.713
  934WAT     H2 4443   7.440   4.457   5.703
  934WAT    EPW 4444   7.403   4.523   5.681
  935WAT      O 4445   7.242   3.825   6.719
  935WAT     H1 4446   7.197   3.762   6.760
  935WAT     H2 4447   7.249   3.795   6.637
  935WAT    EPW 4448   7.236   3.811   6.713
  936WAT      O 4449   7.266   3.739   5.230
  936WAT     H1 4450   7.246   3.682   5.292
  936WAT     H2 4451   7.221   3.710   5.160
  936WAT    EPW 4452   7.256   3.727   5.229
  937WAT      O 4453   7.418   3.942   5.897
  937WAT     H1 4454   7.381   3.913   5.824
  937WAT     H2 4455   7.413   3.874   5.952
  937WAT    EPW 4456   7.411   3.928   5.895
  938WAT      O 4457   7.307   3.892   6.253
  938WAT     H1 4458   7.332   3.840   6.187
  938WAT     H2 4459   7.252   3.948   6.215
  938WAT    EPW 4460   7.303   3.892   6.237
  939WAT      O 4461   7.678   4.711   6.223
  939WAT     H1 4462   7.658   4.661   6.154
  939WAT     H2 4463   7.680   4.792   6.189
  939WAT    EPW 4464   7.676   4.716   6.208
  940WAT      O 4465   7.119   4.062   6.789
  940WAT     H1 4466   7.103   4.104   6.714
  940WAT     H2 4467   7.163   3.991   6.764
  940WAT    EPW 4468   7.123   4.058   6.774
  941WAT      O 4469   7.714   4.549   6.643
  941WAT     H1 4470   7.760   4.562   6.717
  941WAT     H2 4471   7.665   4.479   6.662
  941WAT    EPW 4472   7.714   4.541   6.657
  942WAT      O 4473   7.797   3.538   6.034
  942WAT     H1 4474   7.821   3.621   6.046
  942WAT     H2 4475   7.867   3.493   6.060
  942WAT    EPW 4476   7.811   3.544   6.039
  943WAT      O 4477   7.641   4.766   5.400
  943WAT     H1 4478   7.615   4.683   5.408
  943WAT     H2 4479   7.707   4.761   5.343
  943WAT    EPW 4480   7.647   4.753   5.393
  944WAT      O 4481   7.418   3.125   5.204
  944WAT     H1 4482   7.465   3.152   5.272
  944WAT     H2 4483   7.378   3.198   5.177
  944WAT    EPW 4484   7.419   3.140   5.210
  945WAT      O 4485   7.846   4.765   5.211
  945WAT     H1 4486   7.928   4.795   5.222
  945WAT     H2 4487   7.805   4.830   5.171
  945WAT    EPW 4488   7.852   4.779   5.207
  946WAT      O 4489   7.253   4.020   5.309
  946WAT     H1 4490   7.267   3.935   5.293
  946WAT     H2 4491   7.321   4.042   5.359
  946WAT    EPW 4492   7.265   4.011   5.314
  947WAT      O 4493   6.899   3.133   5.402
  947WAT     H1 4494   6.897   3.078   5.335
  947WAT     H2 4495   6.865   3.086   5.468
  947WAT    EPW 4496   6.894   3.118   5.402
  948WAT      O 4497   7.896   3.805   5.355
  948WAT     H1 4498   7.983   3.812   5.360
  948WAT     H2 4499   7.884   3.751   5.287
  948WAT    EPW 4500   7.907   3.798   5.345
  949WAT      O 4501   7.321   3.372   5.126
  949WAT     H1 4502   7.260   3.369   5.064
  949WAT     H2 4503   7.389   3.408   5.086
  949WAT    EPW 4504   7.322   3.377   5.111
  950WAT      O 4505   7.809   4.286   5.929
  950WAT     H1 4506   7.735   4.240   5.934
  950WAT     H2 4507   7.838   4.288   6.011
  950WAT    EPW 4508   7.802   4.280   5.942
  951WAT      O 4509   7.414   4.777   4.995
  951WAT     H1 4510   7.435   4.706   5.042
  951WAT     H2 4511   7.409   4.840   5.055
  951WAT    EPW 4512   7.417   4.776   5.011
  952WAT      O 4513   7.139   4.078   6.130
  952WAT     H1 4514   7.190   4.145   6.107
  952WAT     H2 4515   7.088   4.066   6.060
  952WAT    EPW 4516   7.139   4.086   6.116
  953WAT      O 4517   7.451   3.604   5.798
  953WAT     H1 4518   7.524   3.559   5.783
  953WAT     H2 4519   7.388   3.545   5.784
  953WAT    EPW 4520   7.452   3.589   5.794
  954WAT      O 4521   6.957   3.727   5.433
  954WAT     H1 4522   6.984   3.692   5.508
  954WAT     H2 4523   6.960   3.661   5.376
  954WAT    EPW 4524   6.961   3.712   5.435
  955WAT      O 4525   7.429   3.866   5.029
  955WAT     H1 4526   7.381   3.829   5.092
  955WAT     H2 4527   7.379   3.857   4.958
  955WAT    EPW 4528   7.414   3.859   5.028
  956WAT      O 4529   7.071   4.185   6.548
  956WAT     H1 4530   7.036   4.136   6.485
  956WAT     H2 4531   7.043   4.265   6.530
  956WAT    EPW 4532   7.061   4.190   6.536
  957WAT      O 4533   7.534   3.659   5.290
  957WAT     H1 4534   7.568   3.735   5.317
  957WAT     H2 4535   7.450   3.678   5.276
  957WAT    EPW 4536   7.526   3.673   5.292
  958WAT      O 4537   6.918   3.384   5.942
  958WAT     H1 4538   6.903   3.398   5.857
  958WAT     H2 4539   7.005   3.392   5.948
  958WAT    EPW 4540   6.929   3.388   5.930
  959WAT      O 4541   7.469   4.427   6.225
  959WAT     H1 4542   7.476   4.482   6.292
  959WAT     H2 4543   7.498   4.474   6.157
  959WAT    EPW 4544   7.474   4.442   6.225
  960WAT      O 4545   7.340   4.250   6.531
  960WAT     H1 4546   7.259   4.218   6.538
  960WAT     H2 4547   7.328   4.336   6.524
  960WAT    EPW 4548   7.326   4.258   6.531
  961WAT      O 4549   7.854   4.266   6.209
  961WAT     H1 4550   7.869   4.300   6.289
  961WAT     H2 4551   7.776   4.227   6.218
  961WAT    EPW 4552   7.845   4.265   6.222
  962WAT      O 4553   7.515   3.602   6.469
  962WAT     H1 4554   7.530   3.526   6.509
  962WAT     H2 4555   7.537   3.587   6.386
  962WAT    EPW 4556   7.520   3.589   6.462
  963WAT      O 4557   7.725   4.787   5.668
  963WAT     H1 4558   7.731   4.873   5.678
  963WAT     H2 4559   7.706   4.778   5.583
  963WAT    EPW 4560   7.723   4.798   5.657
  964WAT      O 4561   7.643   3.180   6.390
  964WAT     H1 4562   7.667   3.169   6.307
  964WAT     H2 4563   7.670   3.106   6.429
  964WAT    EPW 4564   7.651   3.167   6.384
  965WAT      O 4565   7.563   4.572   6.004
  965WAT     H1 4566   7.520   4.633   5.960
  965WAT     H2 4567   7.603   4.526   5.941
  965WAT    EPW 4568   7.563   4.574   5.988
  966WAT      O 4569   7.595   4.063   5.136
  966WAT     H1 4570   7.547   4.007   5.092
  966WAT     H2 4571   7.566   4.141   5.110
  966WAT    EPW 4572   7.584   4.066   5.126
  967WAT      O 4573   7.390   3.704   6.048
  967WAT     H1 4574   7.407   3.671   5.969
  967WAT     H2 4575   7.443   3.659   6.101
  967WAT    EPW 4576   7.400   3.692   6.044
  968WAT      O 4577   7.767   4.808   6.531
  968WAT     H1 4578   7.826   4.787   6.472
  968WAT     H2 4579   7.752   4.733   6.574
  968WAT    EPW 4580   7.773   4.794   6.529
  969WAT      O 4581   7.670   3.121   6.115
  969WAT     H1 4582   7.585   3.112   6.097
  969WAT     H2 4583   7.705   3.134   6.036
  969WAT    EPW 4584   7.663   3.122   6.100
  970WAT      O 4585   7.832   4.339   6.486
  970WAT     H1 4586   7.782   4.280   6.526
  970WAT     H2 4587   7.815   4.413   6.531
  970WAT    EPW 4588   7.822   4.341   6.499
  971WAT      O 4589   6.870   3.263   6.692
  971WAT     H1 4590   6.871   3.333   6.638
  971WAT     H2 4591   6.785   3.244   6.698
  971WAT    EPW 4592   6.858   3.271   6.685
  972WAT      O 4593   7.399   4.915   6.083
  972WAT     H1 4594   7.375   4.906   6.166
  972WAT     H2 4595   7.366   4.844   6.045
  972WAT    EPW 4596   7.390   4.903   6.089
  973WAT      O 4597   7.231   3.495   5.365
  973WAT     H1 4598   7.247   3.454   5.290
  973WAT     H2 4599   7.152   3.466   5.388
  973WAT    EPW 4600   7.221   3.485   5.358
  974WAT      O 4601   7.014   4.866   6.620
  974WAT     H1 4602   6.954   4.803   6.611
  974WAT     H2 4603   6.967   4.934   6.648
  974WAT    EPW 4604   6.998   4.866   6.623
  975WAT      O 4605   7.260   3.713   6.462
  975WAT     H1 4606   7.270   3.773   6.399
  975WAT     H2 4607   7.338   3.675   6.466
  975WAT    EPW 4608   7.273   3.716   6.453
  976WAT      O 4609   7.064   3.553   6.347
  976WAT     H1 4610   7.084   3.559   6.263
  976WAT     H2 4611   7.128   3.598   6.386
  976WAT    EPW 4612   7.077   3.561   6.341
  977WAT      O 4613   7.312   3.241   6.616
  977WAT     H1 4614   7.338   3.158   6.610
  977WAT     H2 4615   7.269   3.253   6.541
  977WAT    EPW 4616   7.309   3.231   6.604
  978WAT      O 4617   6.955   4.048   6.338
  978WAT     H1 4618   7.008   4.065   6.271
  978WAT     H2 4619   6.938   3.963   6.330
  978WAT    EPW 4620   6.960   4.038   6.327
  979WAT      O 4621   7.126   3.634   5.009
  979WAT     H1 4622   7.053   3.626   5.056
  979WAT     H2 4623   7.136   3.555   4.972
  979WAT    EPW 4624   7.117   3.621   5.010
  980WAT      O 4625   7.441   4.549   5.159
  980WAT     H1 4626   7.481   4.540   5.236
  980WAT     H2 4627   7.358   4.533   5.177
  980WAT    EPW 4628   7.435   4.546   5.173
  981WAT      O 4629   7.480   4.022   6.435
  981WAT     H1 4630   7.433   4.087   6.469
  981WAT     H2 4631   7.424   3.982   6.381
  981WAT    EPW 4632   7.465   4.025   6.432
  982WAT      O 4633   7.189   4.462   5.222
  982WAT     H1 4634   7.187   4.441   5.307
  982WAT     H2 4635   7.191   4.384   5.182
  982WAT    EPW 4636   7.189   4.447   5.228
  983WAT      O 4637   7.464   4.295   5.042
  983WAT     H1 4638   7.383   4.267   5.057
  983WAT     H2 4639   7.465   4.375   5.078
  983WAT    EPW 4640   7.452   4.303   5.049
  984WAT      O 4641   7.427   3.322   6.269
  984WAT     H1 4642   7.344   3.310   6.296
  984WAT     H2 4643   7.471   3.259   6.310
  984WAT    EPW 4644   7.421   3.311   6.279
  985WAT      O 4645   7.628   3.826   6.590
  985WAT     H1 4646   7.596   3.757   6.548
  985WAT     H2 4647   7.590   3.894   6.550
  985WAT    EPW 4648   7.618   3.826   6.578
  986WAT      O 4649   7.690   3.113   5.110
  986WAT     H1 4650   7.700   3.129   5.024
  986WAT     H2 4651   7.603   3.115   5.121
  986WAT    EPW 4652   7.678   3.116   5.099
  987WAT      O 4653   7.434   4.830   6.605
  987WAT     H1 4654   7.449   4.814   6.690
  987WAT     H2 4655   7.485   4.772   6.564
  987WAT    EPW 4656   7.444   4.819   6.611
  988WAT      O 4657   7.174   3.299   6.384
  988WAT     H1 4658   7.118   3.236   6.360
  988WAT     H2 4659   7.130   3.373   6.368
  988WAT    EPW 4660   7.159   3.301   6.378
  989WAT      O 4661   7.190   4.684   6.748
  989WAT     H1 4662   7.258   4.723   6.784
  989WAT     H2 4663   7.146   4.749   6.710
  989WAT    EPW 4664   7.193   4.699   6.748
  990WAT      O 4665   7.061   3.657   5.687
  990WAT     H1 4666   7.018   3.681   5.759
  990WAT     H2 4667   7.098   3.581   5.708
  990WAT    EPW 4668   7.060   3.650   5.701
  991WAT      O 4669   7.020   4.448   6.468
  991WAT     H1 4670   6.969   4.510   6.502
  991WAT     H2 4671   7.101   4.479   6.480
  991WAT    EPW 4672   7.024   4.462   6.475
  992WAT      O 4673   7.330   4.789   5.392
  992WAT     H1 4674   7.323   4.845   5.326
  992WAT     H2 4675   7.414   4.766   5.392
  992WAT    EPW 4676   7.341   4.794   5.382
  993WAT      O 4677   7.639   3.908   5.362
  993WAT     H1 4678   7.637   3.957   5.290
  993WAT     H2 4679   7.722   3.884   5.367
  993WAT    EPW 4680   7.651   3.912   5.352
  994WAT      O 4681   7.562   3.353   6.594
  994WAT     H1 4682   7.593   3.312   6.524
  994WAT     H2 4683   7.480   3.322   6.602
  994WAT    EPW 4684   7.554   3.342   6.585
  995WAT      O 4685   7.237   4.697   5.999
  995WAT     H1 4686   7.224   4.620   5.959
  995WAT     H2 4687   7.198   4.754   5.946
  995WAT    EPW 4688   7.229   4.694   5.985
  996WAT      O 4689   6.995   4.935   6.351
  996WAT     H1 4690   7.006   4.911   6.434
  996WAT     H2 4691   7.023   4.866   6.306
  996WAT    EPW 4692   7.000   4.921   6.357
  997WAT      O 4693   6.898   4.264   3.617
  997WAT     H1 4694   6.828   4.258   3.670
  997WAT     H2 4695   6.913   4.182   3.593
  997WAT    EPW 4696   6.890   4.251   3.621
  998WAT      O 4697   6.906   3.615   3.264
  998WAT     H1 4698   6.844   3.669   3.235
  998WAT     H2 4699   6.873   3.536   3.252
  998WAT    EPW 4700   6.892   3.611   3.258
  999WAT      O 4701   7.193   4.211   3.217
  999WAT     H1 4702   7.170   4.168   3.145
  999WAT     H2 4703   7.209   4.148   3.275
  999WAT    EPW 4704   7.192   4.196   3.215
 1000WAT      O 4705   7.159   4.373   3.604
 1000WAT     H1 4706   7.213   4.333   3.660
 1000WAT     H2 4707   7.082   4.334   3.620
 1000WAT    EPW 4708   7.156   4.361   3.615
 1001WAT      O 4709   7.599   3.228   3.497
 1001WAT     H1 4710   7.634   3.290   3.446
 1001WAT     H2 4711   7.647   3.157   3.478
 1001WAT    EPW 4712   7.611   3.227   3.486
 1002WAT      O 4713   7.041   4.647   3.185
 1002WAT     H1 4714   7.093   4.656   3.116
 1002WAT     H2 4715   7.084   4.592   3.236
 1002WAT    EPW 4716   7.055   4.641   3.182
 1003WAT      O 4717   6.952   4.474   4.320
 1003WAT     H1 4718   6.981   4.456   4.400
 1003WAT     H2 4719   6.885   4.419   4.310
 1003WAT    EPW 4720   6.947   4.464   4.330
 1004WAT      O 4721   7.560   4.342   4.781
 1004WAT     H1 4722   7.540   4.322   4.863
 1004WAT     H2 4723   7.495   4.307   4.734
 1004WAT    EPW 4724   7.547   4.334   4.786
 1005WAT      O 4725   7.119   4.019   3.793
 1005WAT     H1 4726   7.076   4.019   3.717
 1005WAT     H2 4727   7.176   3.954   3.785
 1005WAT    EPW 4728   7.121   4.010   3.781
 1006WAT      O 4729   7.548   3.545   4.302
 1006WAT     H1 4730   7.619   3.521   4.257
 1006WAT     H2 4731   7.508   3.469   4.318
 1006WAT    EPW 4732   7.553   3.530   4.298
 1007WAT      O 4733   7.540   4.579   4.500
 1007WAT     H1 4734   7.571   4.641   4.447
 1007WAT     H2 4735   7.608   4.527   4.513
 1007WAT    EPW 4736   7.555   4.581   4.494
 1008WAT      O 4737   7.294   3.805   3.771
 1008WAT     H1 4738   7.356   3.747   3.790
 1008WAT     H2 4739   7.222   3.756   3.765
 1008WAT    EPW 4740   7.292   3.789   3.773
 1009WAT      O 4741   7.674   4.480   3.865
 1009WAT     H1 4742   7.726   4.428   3.911
 1009WAT     H2 4743   7.725   4.548   3.846
 1009WAT    EPW 4744   7.689   4.482   3.869
 1010WAT      O 4745   7.658   4.303   3.636
 1010WAT     H1 4746   7.664   4.343   3.714
 1010WAT     H2 4747   7.733   4.258   3.631
 1010WAT    EPW 4748   7.670   4.302   3.647
 1011WAT      O 4749   7.365   3.331   3.634
 1011WAT     H1 4750   7.325   3.386   3.579
 1011WAT     H2 4751   7.442   3.315   3.595
 1011WAT    EPW 4752   7.370   3.337   3.620
 1012WAT      O 4753   7.693   3.212   3.768
 1012WAT     H1 4754   7.691   3.291   3.807
 1012WAT     H2 4755   7.663   3.228   3.688
 1012WAT    EPW 4756   7.688   3.226   3.762
 1013WAT      O 4757   6.940   3.756   4.013
 1013WAT     H1 4758   6.932   3.843   4.021
 1013WAT     H2 4759   6.870   3.725   4.054
 1013WAT    EPW 4760   6.929   3.764   4.020
 1014WAT      O 4761   6.929   4.699   3.842
 1014WAT     H1 4762   6.864   4.747   3.809
 1014WAT     H2 4763   6.972   4.671   3.772
 1014WAT    EPW 4764   6.925   4.702   3.827
 1015WAT      O 4765   7.522   4.525   3.533
 1015WAT     H1 4766   7.471   4.530   3.603
 1015WAT     H2 4767   7.570   4.454   3.547
 1015WAT    EPW 4768   7.522   4.516   3.545
 1016WAT      O 4769   7.235   3.264   4.060
 1016WAT     H1 4770   7.177   3.205   4.034
 1016WAT     H2 4771   7.290   3.219   4.111
 1016WAT    EPW 4772   7.235   3.249   4.064
 1017WAT      O 4773   7.548   3.458   4.976
 1017WAT     H1 4774   7.561   3.425   4.897
 1017WAT     H2 4775   7.576   3.540   4.969
 1017WAT    EPW 4776   7.554   3.465   4.964
 1018WAT      O 4777   7.084   4.639   3.611
 1018WAT     H1 4778   7.124   4.563   3.626
 1018WAT     H2 4779   7.144   4.686   3.569
 1018WAT    EPW 4780   7.099   4.635   3.607
 1019WAT      O 4781   7.147   3.371   4.911
 1019WAT     H1 4782   7.068   3.337   4.894
 1019WAT     H2 4783   7.198   3.336   4.850
 1019WAT    EPW 4784   7.143   3.360   4.900
 1020WAT      O 4785   7.198   4.453   3.974
 1020WAT     H1 4786   7.249   4.457   3.903
 1020WAT     H2 4787   7.231   4.386   4.019
 1020WAT    EPW 4788   7.210   4.444   3.970
 1021WAT      O 4789   7.483   4.781   3.903
 1021WAT     H1 4790   7.559   4.782   3.860
 1021WAT     H2 4791   7.432   4.835   3.857
 1021WAT    EPW 4792   7.487   4.789   3.890
 1022WAT      O 4793   7.709   3.148   4.838
 1022WAT     H1 4794   7.740   3.096   4.776
 1022WAT     H2 4795   7.671   3.213   4.793
 1022WAT    EPW 4796   7.708   3.150   4.822
 1023WAT      O 4797   7.321   4.846   4.480
 1023WAT     H1 4798   7.359   4.810   4.550
 1023WAT     H2 4799   7.259   4.789   4.459
 1023WAT    EPW 4800   7.318   4.832   4.487
 1024WAT      O 4801   6.865   3.477   4.643
 1024WAT     H1 4802   6.858   3.554   4.683
 1024WAT     H2 4803   6.921   3.492   4.577
 1024WAT    EPW 4804   6.872   3.490   4.639
 1025WAT      O 4805   7.826   4.555   3.128
 1025WAT     H1 4806   7.835   4.619   3.187
 1025WAT     H2 4807   7.873   4.489   3.161
 1025WAT    EPW 4808   7.834   4.555   3.142
 1026WAT      O 4809   6.983   3.393   3.554
 1026WAT     H1 4810   6.953   3.312   3.541
 1026WAT     H2 4811   6.940   3.420   3.625
 1026WAT    EPW 4812   6.972   3.385   3.562
 1027WAT      O 4813   7.107   4.710   4.345
 1027WAT     H1 4814   7.055   4.640   4.343
 1027WAT     H2 4815   7.150   4.705   4.270
 1027WAT    EPW 4816   7.106   4.699   4.334
 1028WAT      O 4817   7.850   3.645   3.245
 1028WAT     H1 4818   7.809   3.574   3.274
 1028WAT     H2 4819   7.798   3.676   3.183
 1028WAT    EPW 4820   7.836   3.639   3.240
 1029WAT      O 4821   7.688   3.467   3.888
 1029WAT     H1 4822   7.751   3.521   3.862
 1029WAT     H2 4823   7.707   3.452   3.972
 1029WAT    EPW 4824   7.700   3.473   3.897
 1030WAT      O 4825   7.292   4.535   4.630
 1030WAT     H1 4826   7.368   4.565   4.599
 1030WAT     H2 4827   7.279   4.582   4.702
 1030WAT    EPW 4828   7.302   4.546   4.636
 1031WAT      O 4829   7.320   3.075   3.735
 1031WAT     H1 4830   7.332   3.158   3.712
 1031WAT     H2 4831   7.317   3.032   3.659
 1031WAT    EPW 4832   7.322   3.081   3.721
 1032WAT      O 4833   7.560   4.153   4.052
 1032WAT     H1 4834   7.573   4.141   4.138
 1032WAT     H2 4835   7.520   4.080   4.027
 1032WAT    EPW 4836   7.556   4.141   4.061
 1033WAT      O 4837   7.602   4.166   4.326
 1033WAT     H1 4838   7.555   4.240   4.329
 1033WAT     H2 4839   7.567   4.117   4.389
 1033WAT    EPW 4840   7.590   4.170   4.336
 1034WAT      O 4841   6.842   4.513   4.925
 1034WAT     H1 4842   6.899   4.559   4.971
 1034WAT     H2 4843   6.849   4.432   4.958
 1034WAT    EPW 4844   6.851   4.508   4.937
 1035WAT      O 4845   7.224   3.444   3.852
 1035WAT     H1 4846   7.259   3.398   3.787
 1035WAT     H2 4847   7.224   3.389   3.919
 1035WAT    EPW 4848   7.229   3.429   3.852
 1036WAT      O 4849   7.309   4.223   3.781
 1036WAT     H1 4850   7.362   4.178   3.729
 1036WAT     H2 4851   7.247   4.166   3.802
 1036WAT    EPW 4852   7.308   4.208   3.777
 1037WAT      O 4853   7.125   4.869   3.927
 1037WAT     H1 4854   7.057   4.822   3.899
 1037WAT     H2 4855   7.174   4.879   3.856
 1037WAT    EPW 4856   7.122   4.863   3.913
 1038WAT      O 4857   7.101   3.593   4.174
 1038WAT     H1 4858   7.185   3.615   4.163
 1038WAT     H2 4859   7.057   3.651   4.126
 1038WAT    EPW 4860   7.107   3.605   4.165
 1039WAT      O 4861   7.463   4.103   3.580
 1039WAT     H1 4862   7.519   4.169   3.587
 1039WAT     H2 4863   7.513   4.034   3.560
 1039WAT    EPW 4864   7.478   4.102   3.578
 1040WAT      O 4865   6.945   4.326   3.978
 1040WAT     H1 4866   6.890   4.389   4.001
 1040WAT     H2 4867   7.022   4.366   3.969
 1040WAT    EPW 4868   6.948   4.341   3.980
 1041WAT      O 4869   7.649   3.716   4.950
 1041WAT     H1 4870   7.587   3.764   4.987
 1041WAT     H2 4871   7.656   3.749   4.869
 1041WAT    EPW 4872   7.641   3.728   4.943
 1042WAT      O 4873   6.997   4.011   3.544
 1042WAT     H1 4874   6.973   3.928   3.535
 1042WAT     H2 4875   7.070   4.017   3.498
 1042WAT    EPW 4876   7.004   4.000   3.536
 1043WAT      O 4877   6.892   4.493   3.463
 1043WAT     H1 4878   6.950   4.544   3.504
 1043WAT     H2 4879   6.884   4.425   3.517
 1043WAT    EPW 4880   6.899   4.491   3.477
 1044WAT      O 4881   7.304   4.253   4.132
 1044WAT     H1 4882   7.343   4.303   4.192
 1044WAT     H2 4883   7.370   4.218   4.088
 1044WAT    EPW 4884   7.319   4.255   4.135
 1045WAT      O 4885   6.913   4.310   3.246
 1045WAT     H1 4886   6.991   4.272   3.244
 1045WAT     H2 4887   6.921   4.370   3.309
 1045WAT    EPW 4888   6.926   4.313   3.255
 1046WAT      O 4889   6.948   4.053   4.006
 1046WAT     H1 4890   7.001   4.036   3.938
 1046WAT     H2 4891   6.941   4.139   4.007
 1046WAT    EPW 4892   6.955   4.063   3.996
 1047WAT      O 4893   7.672   3.438   3.330
 1047WAT     H1 4894   7.647   3.427   3.247
 1047WAT     H2 4895   7.627   3.508   3.355
 1047WAT    EPW 4896   7.662   3.447   3.321
 1048WAT      O 4897   7.400   4.540   3.784
 1048WAT     H1 4898   7.412   4.618   3.822
 1048WAT     H2 4899   7.466   4.492   3.816
 1048WAT    EPW 4900   7.412   4.544   3.794
 1049WAT      O 4901   7.233   3.820   4.830
 1049WAT     H1 4902   7.191   3.758   4.875
 1049WAT     H2 4903   7.233   3.790   4.749
 1049WAT    EPW 4904   7.227   3.807   4.825
 1050WAT      O 4905   7.263   3.742   3.330
 1050WAT     H1 4906   7.243   3.682   3.390
 1050WAT     H2 4907   7.221   3.714   3.259
 1050WAT    EPW 4908   7.254   3.729   3.328
 1051WAT      O 4909   7.402   3.934   4.001
 1051WAT     H1 4910   7.369   3.905   3.926
 1051WAT     H2 4911   7.396   3.865   4.054
 1051WAT    EPW 4912   7.396   3.920   3.998
 1052WAT      O 4913   7.293   3.886   4.354
 1052WAT     H1 4914   7.317   3.832   4.290
 1052WAT     H2 4915   7.236   3.940   4.315
 1052WAT    EPW 4916   7.288   3.886   4.339
 1053WAT      O 4917   7.672   4.748   4.317
 1053WAT     H1 4918   7.655   4.693   4.251
 1053WAT     H2 4919   7.663   4.827   4.282
 1053WAT    EPW 4920   7.669   4.751   4.302
 1054WAT      O 4921   7.112   4.058   4.898
 1054WAT     H1 4922   7.100   4.102   4.823
 1054WAT     H2 4923   7.157   3.988   4.873
 1054WAT    EPW 4924   7.117   4.055   4.883
 1055WAT      O 4925   7.705   4.582   4.767
 1055WAT     H1 4926   7.749   4.585   4.842
 1055WAT     H2 4927   7.653   4.512   4.776
 1055WAT    EPW 4928   7.704   4.572   4.779
 1056WAT      O 4929   7.746   3.404   4.154
 1056WAT     H1 4930   7.827   3.396   4.184
 1056WAT     H2 4931   7.712   3.324   4.162
 1056WAT    EPW 4932   7.753   3.391   4.159
 1057WAT      O 4933   7.650   4.769   3.503
 1057WAT     H1 4934   7.617   4.688   3.509
 1057WAT     H2 4935   7.716   4.760   3.447
 1057WAT    EPW 4936   7.655   4.756   3.496
 1058WAT      O 4937   7.424   3.138   3.295
 1058WAT     H1 4938   7.470   3.165   3.364
 1058WAT     H2 4939   7.384   3.210   3.268
 1058WAT    EPW 4940   7.425   3.152   3.302
 1059WAT      O 4941   7.853   4.761   3.313
 1059WAT     H1 4942   7.934   4.793   3.322
 1059WAT     H2 4943   7.809   4.827   3.275
 1059WAT    EPW 4944   7.858   4.776   3.309
 1060WAT      O 4945   7.242   4.019   3.413
 1060WAT     H1 4946   7.256   3.935   3.397
 1060WAT     H2 4947   7.309   4.042   3.464
 1060WAT    EPW 4948   7.254   4.010   3.418
 1061WAT      O 4949   6.853   3.140   3.526
 1061WAT     H1 4950   6.859   3.084   3.459
 1061WAT     H2 4951   6.820   3.092   3.590
 1061WAT    EPW 4952   6.849   3.124   3.525
 1062WAT      O 4953   7.892   3.815   3.459
 1062WAT     H1 4954   7.977   3.811   3.478
 1062WAT     H2 4955   7.883   3.762   3.390
 1062WAT    EPW 4956   7.903   3.807   3.452
 1063WAT      O 4957   7.324   3.382   3.219
 1063WAT     H1 4958   7.264   3.378   3.155
 1063WAT     H2 4959   7.393   3.417   3.179
 1063WAT    EPW 4960   7.325   3.387   3.204
 1064WAT      O 4961   7.801   4.292   4.014
 1064WAT     H1 4962   7.732   4.239   4.020
 1064WAT     H2 4963   7.830   4.297   4.096
 1064WAT    EPW 4964   7.795   4.285   4.027
 1065WAT      O 4965   7.416   4.775   3.095
 1065WAT     H1 4966   7.436   4.704   3.142
 1065WAT     H2 4967   7.409   4.838   3.155
 1065WAT    EPW 4968   7.418   4.774   3.111
 1066WAT      O 4969   7.119   4.066   4.228
 1066WAT     H1 4970   7.175   4.128   4.202
 1066WAT     H2 4971   7.066   4.056   4.160
 1066WAT    EPW 4972   7.120   4.074   4.214
 1067WAT      O 4973   7.442   3.604   3.899
 1067WAT     H1 4974   7.516   3.558   3.889
 1067WAT     H2 4975   7.380   3.545   3.883
 1067WAT    EPW 4976   7.444   3.589   3.895
 1068WAT      O 4977   6.939   3.737   3.528
 1068WAT     H1 4978   6.972   3.698   3.598
 1068WAT     H2 4979   6.948   3.677   3.465
 1068WAT    EPW 4980   6.945   3.723   3.529
 1069WAT      O 4981   7.432   3.872   3.135
 1069WAT     H1 4982   7.384   3.835   3.198
 1069WAT     H2 4983   7.381   3.866   3.064
 1069WAT    EPW 4984   7.417   3.866   3.134
 1070WAT      O 4985   7.079   4.187   4.657
 1070WAT     H1 4986   7.043   4.136   4.595
 1070WAT     H2 4987   7.049   4.266   4.638
 1070WAT    EPW 4988   7.069   4.191   4.645
 1071WAT      O 4989   7.531   3.666   3.389
 1071WAT     H1 4990   7.565   3.741   3.418
 1071WAT     H2 4991   7.447   3.684   3.376
 1071WAT    EPW 4992   7.524   3.680   3.392
 1072WAT      O 4993   6.928   3.384   4.047
 1072WAT     H1 4994   6.915   3.417   3.967
 1072WAT     H2 4995   6.998   3.428   4.076
 1072WAT    EPW 4996   6.937   3.395   4.039
 1073WAT      O 4997   7.465   4.410   4.293
 1073WAT     H1 4998   7.470   4.461   4.364
 1073WAT     H2 4999   7.495   4.461   4.230
 1073WAT    EPW 5000   7.470   4.425   4.294
 1074WAT      O 5001   7.344   4.258   4.620
 1074WAT     H1 5002   7.265   4.225   4.635
 1074WAT     H2 5003   7.330   4.344   4.613
 1074WAT    EPW 5004   7.331   4.266   4.621
 1075WAT      O 5005   7.848   4.291   4.294
 1075WAT     H1 5006   7.846   4.343   4.364
 1075WAT     H2 5007   7.780   4.238   4.305
 1075WAT    EPW 5008   7.838   4.290   4.306
 1076WAT      O 5009   7.493   3.601   4.571
 1076WAT     H1 5010   7.515   3.527   4.612
 1076WAT     H2 5011   7.520   3.587   4.489
 1076WAT    EPW 5012   7.500   3.588   4.565
 1077WAT      O 5013   7.724   4.777   3.771
 1077WAT     H1 5014   7.735   4.862   3.783
 1077WAT     H2 5015   7.708   4.770   3.685
 1077WAT    EPW 5016   7.723   4.788   3.760
 1078WAT      O 5017   7.596   3.138   4.536
 1078WAT     H1 5018   7.666   3.086   4.536
 1078WAT     H2 5019   7.538   3.094   4.584
 1078WAT    EPW 5020   7.598   3.124   4.543
 1079WAT      O 5021   7.565   4.591   4.105
 1079WAT     H1 5022   7.514   4.651   4.066
 1079WAT     H2 5023   7.603   4.551   4.038
 1079WAT    EPW 5024   7.563   4.594   4.089
 1080WAT      O 5025   7.596   4.072   3.240
 1080WAT     H1 5026   7.548   4.013   3.196
 1080WAT     H2 5027   7.564   4.149   3.213
 1080WAT    EPW 5028   7.584   4.075   3.230
 1081WAT      O 5029   7.370   3.692   4.150
 1081WAT     H1 5030   7.390   3.662   4.071
 1081WAT     H2 5031   7.425   3.650   4.203
 1081WAT    EPW 5032   7.381   3.681   4.146
 1082WAT      O 5033   7.793   4.787   4.584
 1082WAT     H1 5034   7.784   4.760   4.502
 1082WAT     H2 5035   7.773   4.717   4.631
 1082WAT    EPW 5036   7.789   4.773   4.579
 1083WAT      O 5037   7.649   3.140   4.155
 1083WAT     H1 5038   7.564   3.130   4.168
 1083WAT     H2 5039   7.661   3.109   4.074
 1083WAT    EPW 5040   7.638   3.134   4.145
 1084WAT      O 5041   7.756   4.406   4.547
 1084WAT     H1 5042   7.720   4.335   4.582
 1084WAT     H2 5043   7.780   4.453   4.617
 1084WAT    EPW 5044   7.754   4.402   4.562
 1085WAT      O 5045   6.904   3.264   4.820
 1085WAT     H1 5046   6.894   3.332   4.767
 1085WAT     H2 5047   6.829   3.219   4.810
 1085WAT    EPW 5048   6.891   3.267   4.811
 1086WAT      O 5049   7.350   4.936   4.211
 1086WAT     H1 5050   7.345   4.920   4.297
 1086WAT     H2 5051   7.330   4.859   4.175
 1086WAT    EPW 5052   7.346   4.922   4.218
 1087WAT      O 5053   7.225   3.496   3.460
 1087WAT     H1 5054   7.243   3.456   3.384
 1087WAT     H2 5055   7.146   3.464   3.481
 1087WAT    EPW 5056   7.216   3.485   3.452
 1088WAT      O 5057   7.023   4.884   4.720
 1088WAT     H1 5058   6.967   4.818   4.709
 1088WAT     H2 5059   6.972   4.948   4.750
 1088WAT    EPW 5060   7.007   4.884   4.723
 1089WAT      O 5061   7.238   3.715   4.568
 1089WAT     H1 5062   7.248   3.775   4.506
 1089WAT     H2 5063   7.316   3.675   4.571
 1089WAT    EPW 5064   7.251   3.718   4.560
 1090WAT      O 5065   7.056   3.539   4.446
 1090WAT     H1 5066   7.064   3.555   4.361
 1090WAT     H2 5067   7.109   3.598   4.484
 1090WAT    EPW 5068   7.065   3.550   4.439
 1091WAT      O 5069   7.304   3.244   4.721
 1091WAT     H1 5070   7.320   3.159   4.719
 1091WAT     H2 5071   7.263   3.259   4.645
 1091WAT    EPW 5072   7.300   3.234   4.709
 1092WAT      O 5073   6.961   4.033   4.458
 1092WAT     H1 5074   7.005   4.052   4.385
 1092WAT     H2 5075   6.929   3.954   4.442
 1092WAT    EPW 5076   6.963   4.024   4.444
 1093WAT      O 5077   7.129   3.643   3.102
 1093WAT     H1 5078   7.054   3.636   3.147
 1093WAT     H2 5079   7.139   3.564   3.066
 1093WAT    EPW 5080   7.120   3.630   3.103
 1094WAT      O 5081   7.437   4.551   3.267
 1094WAT     H1 5082   7.480   4.539   3.342
 1094WAT     H2 5083   7.354   4.533   3.287
 1094WAT    EPW 5084   7.431   4.546   3.281
 1095WAT      O 5085   7.474   4.022   4.525
 1095WAT     H1 5086   7.429   4.090   4.558
 1095WAT     H2 5087   7.415   3.981   4.475
 1095WAT    EPW 5088   7.458   4.026   4.522
 1096WAT      O 5089   7.188   4.460   3.336
 1096WAT     H1 5090   7.181   4.438   3.421
 1096WAT     H2 5091   7.189   4.383   3.296
 1096WAT    EPW 5092   7.187   4.445   3.343
 1097WAT      O 5093   7.458   4.299   3.144
 1097WAT     H1 5094   7.378   4.270   3.161
 1097WAT     H2 5095   7.460   4.378   3.180
 1097WAT    EPW 5096   7.446   4.306   3.152
 1098WAT      O 5097   7.441   3.307   4.374
 1098WAT     H1 5098   7.358   3.295   4.399
 1098WAT     H2 5099   7.484   3.242   4.413
 1098WAT    EPW 5100   7.435   3.296   4.383
 1099WAT      O 5101   7.609   3.824   4.691
 1099WAT     H1 5102   7.575   3.755   4.650
 1099WAT     H2 5103   7.576   3.892   4.648
 1099WAT    EPW 5104   7.599   3.824   4.679
 1100WAT      O 5105   7.697   3.122   3.208
 1100WAT     H1 5106   7.713   3.139   3.124
 1100WAT     H2 5107   7.610   3.126   3.214
 1100WAT    EPW 5108   7.687   3.125   3.196
 1101WAT      O 5109   7.476   4.777   4.720
 1101WAT     H1 5110   7.468   4.783   4.807
 1101WAT     H2 5111   7.538   4.716   4.710
 1101WAT    EPW 5112   7.484   4.769   4.732
 1102WAT      O 5113   7.183   3.295   4.479
 1102WAT     H1 5114   7.125   3.234   4.458
 1102WAT     H2 5115   7.140   3.370   4.465
 1102WAT    EPW 5116   7.168   3.297   4.474
 1103WAT      O 5117   7.192   4.691   4.850
 1103WAT     H1 5118   7.259   4.728   4.891
 1103WAT     H2 5119   7.151   4.759   4.813
 1103WAT    EPW 5120   7.196   4.707   4.851
 1104WAT      O 5121   7.059   3.659   3.772
 1104WAT     H1 5122   7.014   3.684   3.843
 1104WAT     H2 5123   7.094   3.583   3.796
 1104WAT    EPW 5124   7.058   3.652   3.786
 1105WAT      O 5125   7.031   4.453   4.583
 1105WAT     H1 5126   6.980   4.516   4.614
 1105WAT     H2 5127   7.112   4.485   4.593
 1105WAT    EPW 5128   7.035   4.467   4.589
 1106WAT      O 5129   7.307   4.777   3.485
 1106WAT     H1 5130   7.313   4.837   3.422
 1106WAT     H2 5131   7.381   4.732   3.477
 1106WAT    EPW 5132   7.319   4.779   3.474
 1107WAT      O 5133   7.633   3.915   3.465
 1107WAT     H1 5134   7.633   3.965   3.394
 1107WAT     H2 5135   7.717   3.891   3.473
 1107WAT    EPW 5136   7.646   3.919   3.456
 1108WAT      O 5137   7.554   3.357   4.705
 1108WAT     H1 5138   7.583   3.311   4.636
 1108WAT     H2 5139   7.472   3.329   4.715
 1108WAT    EPW 5140   7.546   3.346   4.696
 1109WAT      O 5141   7.242   4.695   4.104
 1109WAT     H1 5142   7.231   4.615   4.071
 1109WAT     H2 5143   7.204   4.747   4.046
 1109WAT    EPW 5144   7.235   4.691   4.091
 1110WAT      O 5145   6.994   4.945   4.445
 1110WAT     H1 5146   7.006   4.926   4.529
 1110WAT     H2 5147   7.024   4.874   4.404
 1110WAT    EPW 5148   7.000   4.932   4.451
 1111WAT      O 5149   6.929   4.260   1.716
 1111WAT     H1 5150   6.860   4.257   1.769
 1111WAT     H2 5151   6.941   4.177   1.693
 1111WAT    EPW 5152   6.921   4.247   1.720
 1112WAT      O 5153   6.913   3.590   1.371
 1112WAT     H1 5154   6.849   3.642   1.342
 1112WAT     H2 5155   6.881   3.509   1.359
 1112WAT    EPW 5156   6.899   3.585   1.365
 1113WAT      O 5157   7.210   4.207   1.322
 1113WAT     H1 5158   7.184   4.159   1.253
 1113WAT     H2 5159   7.228   4.147   1.383
 1113WAT    EPW 5160   7.209   4.191   1.321
 1114WAT      O 5161   7.184   4.377   1.698
 1114WAT     H1 5162   7.239   4.341   1.755
 1114WAT     H2 5163   7.109   4.335   1.714
 1114WAT    EPW 5164   7.181   4.365   1.709
 1115WAT      O 5165   7.605   3.219   1.612
 1115WAT     H1 5166   7.646   3.273   1.558
 1115WAT     H2 5167   7.650   3.144   1.603
 1115WAT    EPW 5168   7.618   3.216   1.602
 1116WAT      O 5169   7.042   4.639   1.283
 1116WAT     H1 5170   7.096   4.654   1.216
 1116WAT     H2 5171   7.089   4.586   1.335
 1116WAT    EPW 5172   7.057   4.633   1.281
 1117WAT      O 5173   6.904   4.512   2.410
 1117WAT     H1 5174   6.936   4.479   2.484
 1117WAT     H2 5175   6.833   4.463   2.394
 1117WAT    EPW 5176   6.898   4.500   2.418
 1118WAT      O 5177   7.544   4.349   2.881
 1118WAT     H1 5178   7.526   4.326   2.963
 1118WAT     H2 5179   7.478   4.315   2.835
 1118WAT    EPW 5180   7.532   4.340   2.886
 1119WAT      O 5181   7.143   4.037   1.897
 1119WAT     H1 5182   7.099   4.032   1.823
 1119WAT     H2 5183   7.197   3.969   1.895
 1119WAT    EPW 5184   7.144   4.026   1.886
 1120WAT      O 5185   7.575   3.559   2.404
 1120WAT     H1 5186   7.644   3.537   2.356
 1120WAT     H2 5187   7.534   3.483   2.417
 1120WAT    EPW 5188   7.579   3.544   2.399
 1121WAT      O 5189   7.541   4.583   2.608
 1121WAT     H1 5190   7.574   4.639   2.551
 1121WAT     H2 5191   7.607   4.529   2.625
 1121WAT    EPW 5192   7.555   4.583   2.602
 1122WAT      O 5193   7.298   3.808   1.883
 1122WAT     H1 5194   7.360   3.749   1.900
 1122WAT     H2 5195   7.224   3.761   1.882
 1122WAT    EPW 5196   7.296   3.792   1.886
 1123WAT      O 5197   7.694   4.489   1.943
 1123WAT     H1 5198   7.745   4.441   1.995
 1123WAT     H2 5199   7.738   4.564   1.935
 1123WAT    EPW 5200   7.708   4.493   1.950
 1124WAT      O 5201   7.665   4.337   1.705
 1124WAT     H1 5202   7.676   4.372   1.784
 1124WAT     H2 5203   7.744   4.306   1.685
 1124WAT    EPW 5204   7.678   4.338   1.713
 1125WAT      O 5205   7.370   3.322   1.738
 1125WAT     H1 5206   7.333   3.379   1.683
 1125WAT     H2 5207   7.447   3.306   1.701
 1125WAT    EPW 5208   7.376   3.328   1.725
 1126WAT      O 5209   7.703   3.227   1.884
 1126WAT     H1 5210   7.703   3.309   1.915
 1126WAT     H2 5211   7.672   3.236   1.803
 1126WAT    EPW 5212   7.699   3.240   1.876
 1127WAT      O 5213   6.955   3.761   2.141
 1127WAT     H1 5214   6.948   3.847   2.145
 1127WAT     H2 5215   6.888   3.732   2.190
 1127WAT    EPW 5216   6.944   3.769   2.149
 1128WAT      O 5217   6.953   4.717   1.916
 1128WAT     H1 5218   6.886   4.762   1.884
 1128WAT     H2 5219   6.994   4.687   1.846
 1128WAT    EPW 5220   6.949   4.719   1.901
 1129WAT      O 5221   7.528   4.569   1.628
 1129WAT     H1 5222   7.480   4.570   1.700
 1129WAT     H2 5223   7.576   4.496   1.636
 1129WAT    EPW 5224   7.528   4.558   1.640
 1130WAT      O 5225   7.173   3.272   2.155
 1130WAT     H1 5226   7.149   3.199   2.114
 1130WAT     H2 5227   7.237   3.245   2.208
 1130WAT    EPW 5228   7.179   3.257   2.157
 1131WAT      O 5229   7.555   3.462   3.072
 1131WAT     H1 5230   7.572   3.428   2.993
 1131WAT     H2 5231   7.582   3.545   3.064
 1131WAT    EPW 5232   7.561   3.469   3.059
 1132WAT      O 5233   7.098   4.641   1.691
 1132WAT     H1 5234   7.142   4.568   1.712
 1132WAT     H2 5235   7.157   4.689   1.650
 1132WAT    EPW 5236   7.113   4.637   1.688
 1133WAT      O 5237   7.153   3.378   3.003
 1133WAT     H1 5238   7.075   3.344   2.985
 1133WAT     H2 5239   7.206   3.340   2.944
 1133WAT    EPW 5240   7.149   3.368   2.991
 1134WAT      O 5241   7.194   4.467   2.066
 1134WAT     H1 5242   7.244   4.476   1.995
 1134WAT     H2 5243   7.233   4.401   2.109
 1134WAT    EPW 5244   7.207   4.458   2.062
 1135WAT      O 5245   7.503   4.781   2.004
 1135WAT     H1 5246   7.581   4.781   1.965
 1135WAT     H2 5247   7.454   4.832   1.953
 1135WAT    EPW 5248   7.507   4.788   1.991
 1136WAT      O 5249   7.731   3.161   2.937
 1136WAT     H1 5250   7.749   3.102   2.876
 1136WAT     H2 5251   7.689   3.224   2.893
 1136WAT    EPW 5252   7.728   3.162   2.922
 1137WAT      O 5253   7.293   4.850   2.603
 1137WAT     H1 5254   7.343   4.811   2.663
 1137WAT     H2 5255   7.236   4.788   2.580
 1137WAT    EPW 5256   7.292   4.835   2.608
 1138WAT      O 5257   6.859   3.499   2.756
 1138WAT     H1 5258   6.854   3.578   2.794
 1138WAT     H2 5259   6.920   3.510   2.694
 1138WAT    EPW 5260   6.867   3.512   2.753
 1139WAT      O 5261   7.876   4.589   1.190
 1139WAT     H1 5262   7.876   4.644   1.257
 1139WAT     H2 5263   7.943   4.536   1.206
 1139WAT    EPW 5264   7.886   4.590   1.202
 1140WAT      O 5265   6.990   3.405   1.657
 1140WAT     H1 5266   6.969   3.323   1.635
 1140WAT     H2 5267   6.944   3.419   1.729
 1140WAT    EPW 5268   6.980   3.395   1.664
 1141WAT      O 5269   7.085   4.723   2.445
 1141WAT     H1 5270   7.025   4.660   2.440
 1141WAT     H2 5271   7.129   4.715   2.370
 1141WAT    EPW 5272   7.083   4.713   2.433
 1142WAT      O 5273   7.855   3.635   1.357
 1142WAT     H1 5274   7.813   3.562   1.382
 1142WAT     H2 5275   7.803   3.667   1.294
 1142WAT    EPW 5276   7.841   3.629   1.351
 1143WAT      O 5277   7.707   3.494   1.977
 1143WAT     H1 5278   7.758   3.544   1.927
 1143WAT     H2 5279   7.739   3.505   2.057
 1143WAT    EPW 5280   7.719   3.503   1.982
 1144WAT      O 5281   7.280   4.542   2.716
 1144WAT     H1 5282   7.359   4.568   2.692
 1144WAT     H2 5283   7.268   4.582   2.793
 1144WAT    EPW 5284   7.290   4.552   2.724
 1145WAT      O 5285   7.333   3.061   1.829
 1145WAT     H1 5286   7.342   3.144   1.805
 1145WAT     H2 5287   7.329   3.018   1.753
 1145WAT    EPW 5288   7.333   3.067   1.814
 1146WAT      O 5289   7.570   4.171   2.152
 1146WAT     H1 5290   7.579   4.157   2.237
 1146WAT     H2 5291   7.532   4.098   2.123
 1146WAT    EPW 5292   7.566   4.158   2.160
 1147WAT      O 5293   7.598   4.172   2.427
 1147WAT     H1 5294   7.552   4.246   2.432
 1147WAT     H2 5295   7.568   4.125   2.494
 1147WAT    EPW 5296   7.587   4.176   2.438
 1148WAT      O 5297   6.845   4.508   3.049
 1148WAT     H1 5298   6.904   4.556   3.092
 1148WAT     H2 5299   6.852   4.429   3.086
 1148WAT    EPW 5300   6.855   4.503   3.061
 1149WAT      O 5301   7.238   3.449   1.954
 1149WAT     H1 5302   7.270   3.398   1.891
 1149WAT     H2 5303   7.219   3.393   2.018
 1149WAT    EPW 5304   7.240   3.433   1.954
 1150WAT      O 5305   7.338   4.241   1.884
 1150WAT     H1 5306   7.390   4.195   1.832
 1150WAT     H2 5307   7.275   4.185   1.907
 1150WAT    EPW 5308   7.336   4.226   1.880
 1151WAT      O 5309   7.145   4.882   2.013
 1151WAT     H1 5310   7.079   4.836   1.980
 1151WAT     H2 5311   7.201   4.888   1.946
 1151WAT    EPW 5312   7.144   4.876   1.998
 1152WAT      O 5313   7.136   3.630   2.316
 1152WAT     H1 5314   7.217   3.651   2.289
 1152WAT     H2 5315   7.084   3.666   2.256
 1152WAT    EPW 5316   7.141   3.639   2.303
 1153WAT      O 5317   7.482   4.114   1.682
 1153WAT     H1 5318   7.538   4.181   1.676
 1153WAT     H2 5319   7.533   4.044   1.668
 1153WAT    EPW 5320   7.498   4.113   1.679
 1154WAT      O 5321   6.945   4.335   2.078
 1154WAT     H1 5322   6.888   4.400   2.093
 1154WAT     H2 5323   7.021   4.377   2.068
 1154WAT    EPW 5324   6.947   4.351   2.079
 1155WAT      O 5325   7.652   3.722   3.053
 1155WAT     H1 5326   7.589   3.770   3.091
 1155WAT     H2 5327   7.661   3.759   2.974
 1155WAT    EPW 5328   7.644   3.735   3.047
 1156WAT      O 5329   7.020   4.003   1.651
 1156WAT     H1 5330   7.000   3.918   1.644
 1156WAT     H2 5331   7.094   4.010   1.605
 1156WAT    EPW 5332   7.028   3.991   1.643
 1157WAT      O 5333   6.913   4.481   1.553
 1157WAT     H1 5334   6.972   4.534   1.589
 1157WAT     H2 5335   6.910   4.414   1.609
 1157WAT    EPW 5336   6.921   4.479   1.567
 1158WAT      O 5337   7.310   4.269   2.222
 1158WAT     H1 5338   7.346   4.316   2.286
 1158WAT     H2 5339   7.379   4.235   2.180
 1158WAT    EPW 5340   7.326   4.271   2.225
 1159WAT      O 5341   6.925   4.298   1.338
 1159WAT     H1 5342   7.004   4.259   1.337
 1159WAT     H2 5343   6.934   4.359   1.400
 1159WAT    EPW 5344   6.938   4.301   1.347
 1160WAT      O 5345   6.970   4.062   2.111
 1160WAT     H1 5346   7.023   4.047   2.043
 1160WAT     H2 5347   6.961   4.149   2.111
 1160WAT    EPW 5348   6.976   4.073   2.101
 1161WAT      O 5349   7.677   3.426   1.435
 1161WAT     H1 5350   7.652   3.415   1.352
 1161WAT     H2 5351   7.632   3.496   1.461
 1161WAT    EPW 5352   7.667   3.435   1.426
 1162WAT      O 5353   7.397   4.551   1.875
 1162WAT     H1 5354   7.427   4.619   1.921
 1162WAT     H2 5355   7.446   4.484   1.903
 1162WAT    EPW 5356   7.409   4.551   1.886
 1163WAT      O 5357   7.238   3.837   2.934
 1163WAT     H1 5358   7.196   3.774   2.978
 1163WAT     H2 5359   7.250   3.803   2.855
 1163WAT    EPW 5360   7.234   3.822   2.929
 1164WAT      O 5361   7.272   3.739   1.434
 1164WAT     H1 5362   7.251   3.681   1.496
 1164WAT     H2 5363   7.230   3.709   1.364
 1164WAT    EPW 5364   7.263   3.726   1.433
 1165WAT      O 5365   7.420   3.947   2.098
 1165WAT     H1 5366   7.384   3.912   2.027
 1165WAT     H2 5367   7.418   3.882   2.156
 1165WAT    EPW 5368   7.415   3.932   2.096
 1166WAT      O 5369   7.310   3.893   2.464
 1166WAT     H1 5370   7.338   3.842   2.400
 1166WAT     H2 5371   7.253   3.947   2.424
 1166WAT    EPW 5372   7.305   3.894   2.449
 1167WAT      O 5373   7.653   4.729   2.403
 1167WAT     H1 5374   7.644   4.673   2.337
 1167WAT     H2 5375   7.640   4.807   2.366
 1167WAT    EPW 5376   7.650   4.732   2.388
 1168WAT      O 5377   7.114   4.076   2.992
 1168WAT     H1 5378   7.098   4.118   2.916
 1168WAT     H2 5379   7.159   4.006   2.967
 1168WAT    EPW 5380   7.118   4.072   2.977
 1169WAT      O 5381   7.699   4.583   2.885
 1169WAT     H1 5382   7.739   4.579   2.962
 1169WAT     H2 5383   7.643   4.515   2.888
 1169WAT    EPW 5384   7.696   4.572   2.897
 1170WAT      O 5385   7.810   3.534   2.238
 1170WAT     H1 5386   7.845   3.612   2.253
 1170WAT     H2 5387   7.872   3.478   2.262
 1170WAT    EPW 5388   7.824   3.537   2.244
 1171WAT      O 5389   7.700   4.793   1.610
 1171WAT     H1 5390   7.650   4.722   1.607
 1171WAT     H2 5391   7.762   4.777   1.550
 1171WAT    EPW 5392   7.702   4.780   1.600
 1172WAT      O 5393   7.437   3.126   1.406
 1172WAT     H1 5394   7.484   3.152   1.475
 1172WAT     H2 5395   7.396   3.198   1.380
 1172WAT    EPW 5396   7.438   3.140   1.413
 1173WAT      O 5397   7.886   4.772   1.401
 1173WAT     H1 5398   7.967   4.804   1.407
 1173WAT     H2 5399   7.841   4.837   1.364
 1173WAT    EPW 5400   7.891   4.787   1.396
 1174WAT      O 5401   7.263   4.020   1.520
 1174WAT     H1 5402   7.278   3.935   1.503
 1174WAT     H2 5403   7.331   4.043   1.569
 1174WAT    EPW 5404   7.275   4.011   1.525
 1175WAT      O 5405   6.911   3.141   1.590
 1175WAT     H1 5406   6.908   3.088   1.521
 1175WAT     H2 5407   6.883   3.090   1.655
 1175WAT    EPW 5408   6.906   3.126   1.589
 1176WAT      O 5409   7.893   3.795   1.579
 1176WAT     H1 5410   7.979   3.808   1.584
 1176WAT     H2 5411   7.884   3.744   1.508
 1176WAT    EPW 5412   7.904   3.790   1.569
 1177WAT      O 5413   7.331   3.368   1.326
 1177WAT     H1 5414   7.270   3.362   1.264
 1177WAT     H2 5415   7.398   3.406   1.286
 1177WAT    EPW 5416   7.332   3.373   1.311
 1178WAT      O 5417   7.807   4.318   2.124
 1178WAT     H1 5418   7.738   4.264   2.127
 1178WAT     H2 5419   7.832   4.323   2.208
 1178WAT    EPW 5420   7.800   4.311   2.137
 1179WAT      O 5421   7.430   4.785   1.191
 1179WAT     H1 5422   7.450   4.712   1.234
 1179WAT     H2 5423   7.430   4.846   1.253
 1179WAT    EPW 5424   7.433   4.783   1.207
 1180WAT      O 5425   7.143   4.073   2.329
 1180WAT     H1 5426   7.197   4.136   2.301
 1180WAT     H2 5427   7.090   4.060   2.261
 1180WAT    EPW 5428   7.143   4.080   2.315
 1181WAT      O 5429   7.453   3.610   2.006
 1181WAT     H1 5430   7.528   3.568   1.990
 1181WAT     H2 5431   7.392   3.550   1.991
 1181WAT    EPW 5432   7.455   3.595   2.002
 1182WAT      O 5433   6.967   3.725   1.638
 1182WAT     H1 5434   6.991   3.694   1.716
 1182WAT     H2 5435   6.969   3.654   1.587
 1182WAT    EPW 5436   6.970   3.710   1.642
 1183WAT      O 5437   7.442   3.870   1.245
 1183WAT     H1 5438   7.395   3.831   1.308
 1183WAT     H2 5439   7.392   3.863   1.174
 1183WAT    EPW 5440   7.428   3.863   1.244
 1184WAT      O 5441   7.064   4.200   2.749
 1184WAT     H1 5442   7.029   4.152   2.684
 1184WAT     H2 5443   7.036   4.281   2.731
 1184WAT    EPW 5444   7.055   4.205   2.737
 1185WAT      O 5445   7.539   3.656   1.496
 1185WAT     H1 5446   7.571   3.731   1.527
 1185WAT     H2 5447   7.455   3.674   1.483
 1185WAT    EPW 5448   7.531   3.670   1.499
 1186WAT      O 5449   6.911   3.396   2.155
 1186WAT     H1 5450   6.894   3.402   2.070
 1186WAT     H2 5451   6.992   3.364   2.158
 1186WAT    EPW 5452   6.921   3.392   2.143
 1187WAT      O 5453   7.464   4.416   2.399
 1187WAT     H1 5454   7.474   4.469   2.467
 1187WAT     H2 5455   7.496   4.462   2.332
 1187WAT    EPW 5456   7.471   4.430   2.399
 1188WAT      O 5457   7.332   4.264   2.716
 1188WAT     H1 5458   7.252   4.233   2.730
 1188WAT     H2 5459   7.319   4.350   2.704
 1188WAT    EPW 5460   7.318   4.272   2.717
 1189WAT      O 5461   7.841   4.307   2.407
 1189WAT     H1 5462   7.837   4.353   2.480
 1189WAT     H2 5463   7.774   4.251   2.414
 1189WAT    EPW 5464   7.830   4.305   2.419
 1190WAT      O 5465   7.523   3.608   2.676
 1190WAT     H1 5466   7.542   3.532   2.715
 1190WAT     H2 5467   7.547   3.595   2.593
 1190WAT    EPW 5468   7.529   3.595   2.669
 1191WAT      O 5469   7.751   4.774   1.884
 1191WAT     H1 5470   7.760   4.859   1.904
 1191WAT     H2 5471   7.745   4.775   1.797
 1191WAT    EPW 5472   7.752   4.787   1.874
 1192WAT      O 5473   7.653   3.180   2.589
 1192WAT     H1 5474   7.669   3.167   2.504
 1192WAT     H2 5475   7.680   3.106   2.627
 1192WAT    EPW 5476   7.659   3.167   2.582
 1193WAT      O 5477   7.561   4.569   2.187
 1193WAT     H1 5478   7.524   4.638   2.148
 1193WAT     H2 5479   7.607   4.531   2.123
 1193WAT    EPW 5480   7.563   4.574   2.172
 1194WAT      O 5481   7.609   4.065   1.355
 1194WAT     H1 5482   7.561   4.008   1.309
 1194WAT     H2 5483   7.580   4.143   1.328
 1194WAT    EPW 5484   7.597   4.068   1.344
 1195WAT      O 5485   7.401   3.713   2.257
 1195WAT     H1 5486   7.414   3.678   2.178
 1195WAT     H2 5487   7.456   3.669   2.308
 1195WAT    EPW 5488   7.411   3.701   2.253
 1196WAT      O 5489   7.809   4.810   2.757
 1196WAT     H1 5490   7.881   4.782   2.715
 1196WAT     H2 5491   7.779   4.739   2.796
 1196WAT    EPW 5492   7.815   4.796   2.756
 1197WAT      O 5493   7.651   3.129   2.308
 1197WAT     H1 5494   7.565   3.129   2.293
 1197WAT     H2 5495   7.686   3.139   2.229
 1197WAT    EPW 5496   7.643   3.131   2.294
 1198WAT      O 5497   7.752   4.407   2.667
 1198WAT     H1 5498   7.711   4.340   2.706
 1198WAT     H2 5499   7.774   4.459   2.733
 1198WAT    EPW 5500   7.749   4.405   2.683
 1199WAT      O 5501   6.896   3.288   2.934
 1199WAT     H1 5502   6.883   3.356   2.881
 1199WAT     H2 5503   6.829   3.235   2.916
 1199WAT    EPW 5504   6.884   3.290   2.924
 1200WAT      O 5505   7.318   4.940   2.334
 1200WAT     H1 5506   7.316   4.922   2.419
 1200WAT     H2 5507   7.301   4.863   2.297
 1200WAT    EPW 5508   7.315   4.926   2.341
 1201WAT      O 5509   7.237   3.492   1.565
 1201WAT     H1 5510   7.253   3.451   1.490
 1201WAT     H2 5511   7.157   3.465   1.587
 1201WAT    EPW 5512   7.228   3.482   1.557
 1202WAT      O 5513   7.028   4.881   2.826
 1202WAT     H1 5514   6.973   4.814   2.820
 1202WAT     H2 5515   6.979   4.946   2.857
 1202WAT    EPW 5516   7.013   4.880   2.830
 1203WAT      O 5517   7.268   3.720   2.681
 1203WAT     H1 5518   7.276   3.778   2.616
 1203WAT     H2 5519   7.346   3.681   2.683
 1203WAT    EPW 5520   7.281   3.723   2.671
 1204WAT      O 5521   7.067   3.565   2.572
 1204WAT     H1 5522   7.086   3.574   2.487
 1204WAT     H2 5523   7.131   3.607   2.612
 1204WAT    EPW 5524   7.079   3.572   2.565
 1205WAT      O 5525   7.325   3.251   2.823
 1205WAT     H1 5526   7.348   3.167   2.817
 1205WAT     H2 5527   7.280   3.264   2.749
 1205WAT    EPW 5528   7.322   3.240   2.811
 1206WAT      O 5529   6.953   4.066   2.534
 1206WAT     H1 5530   7.010   4.075   2.469
 1206WAT     H2 5531   6.937   3.980   2.535
 1206WAT    EPW 5532   6.959   4.054   2.524
 1207WAT      O 5533   7.135   3.627   1.212
 1207WAT     H1 5534   7.062   3.618   1.258
 1207WAT     H2 5535   7.146   3.548   1.174
 1207WAT    EPW 5536   7.126   3.614   1.213
 1208WAT      O 5537   7.451   4.557   1.357
 1208WAT     H1 5538   7.492   4.554   1.433
 1208WAT     H2 5539   7.369   4.536   1.377
 1208WAT    EPW 5540   7.445   4.554   1.371
 1209WAT      O 5541   7.480   4.034   2.637
 1209WAT     H1 5542   7.432   4.101   2.667
 1209WAT     H2 5543   7.425   3.990   2.585
 1209WAT    EPW 5544   7.465   4.038   2.634
 1210WAT      O 5545   7.205   4.460   1.430
 1210WAT     H1 5546   7.200   4.439   1.514
 1210WAT     H2 5547   7.204   4.382   1.390
 1210WAT    EPW 5548   7.204   4.445   1.436
 1211WAT      O 5549   7.477   4.295   1.258
 1211WAT     H1 5550   7.395   4.267   1.271
 1211WAT     H2 5551   7.475   4.377   1.286
 1211WAT    EPW 5552   7.465   4.303   1.264
 1212WAT      O 5553   7.438   3.336   2.483
 1212WAT     H1 5554   7.356   3.324   2.509
 1212WAT     H2 5555   7.481   3.269   2.518
 1212WAT    EPW 5556   7.432   3.324   2.492
 1213WAT      O 5557   7.625   3.838   2.797
 1213WAT     H1 5558   7.596   3.768   2.754
 1213WAT     H2 5559   7.587   3.905   2.756
 1213WAT    EPW 5560   7.615   3.838   2.785
 1214WAT      O 5561   7.712   3.120   1.302
 1214WAT     H1 5562   7.721   3.139   1.217
 1214WAT     H2 5563   7.626   3.121   1.315
 1214WAT    EPW 5564   7.701   3.123   1.291
 1215WAT      O 5565   7.472   4.783   2.815
 1215WAT     H1 5566   7.472   4.788   2.902
 1215WAT     H2 5567   7.528   4.718   2.799
 1215WAT    EPW 5568   7.481   4.774   2.826
 1216WAT      O 5569   7.184   3.312   2.594
 1216WAT     H1 5570   7.127   3.249   2.572
 1216WAT     H2 5571   7.137   3.385   2.583
 1216WAT    EPW 5572   7.168   3.314   2.589
 1217WAT      O 5573   7.194   4.685   2.952
 1217WAT     H1 5574   7.264   4.721   2.991
 1217WAT     H2 5575   7.153   4.753   2.917
 1217WAT    EPW 5576   7.198   4.700   2.953
 1218WAT      O 5577   7.063   3.663   1.896
 1218WAT     H1 5578   7.021   3.683   1.970
 1218WAT     H2 5579   7.100   3.586   1.914
 1218WAT    EPW 5580   7.062   3.655   1.910
 1219WAT      O 5581   7.015   4.463   2.662
 1219WAT     H1 5582   6.968   4.520   2.707
 1219WAT     H2 5583   7.097   4.494   2.668
 1219WAT    EPW 5584   7.020   4.476   2.669
 1220WAT      O 5585   7.320   4.776   1.574
 1220WAT     H1 5586   7.341   4.836   1.514
 1220WAT     H2 5587   7.384   4.716   1.565
 1220WAT    EPW 5588   7.333   4.776   1.564
 1221WAT      O 5589   7.638   3.906   1.579
 1221WAT     H1 5590   7.640   3.955   1.507
 1221WAT     H2 5591   7.721   3.879   1.588
 1221WAT    EPW 5592   7.651   3.909   1.570
 1222WAT      O 5593   7.577   3.356   2.797
 1222WAT     H1 5594   7.607   3.315   2.726
 1222WAT     H2 5595   7.496   3.326   2.805
 1222WAT    EPW 5596   7.570   3.345   2.787
 1223WAT      O 5597   7.226   4.705   2.206
 1223WAT     H1 5598   7.221   4.626   2.171
 1223WAT     H2 5599   7.200   4.758   2.142
 1223WAT    EPW 5600   7.222   4.701   2.192
 1224WAT      O 5601   7.000   4.963   2.558
 1224WAT     H1 5602   7.014   4.938   2.640
 1224WAT     H2 5603   7.023   4.893   2.511
 1224WAT    EPW 5604   7.006   4.949   2.563
 1225WAT      O 5605   6.966   4.485   0.528
 1225WAT     H1 5606   6.983   4.470   0.612
 1225WAT     H2 5607   6.910   4.421   0.507
 1225WAT    EPW 5608   6.960   4.473   0.537
 1226WAT      O 5609   7.581   4.332   1.000
 1226WAT     H1 5610   7.557   4.312   1.082
 1226WAT     H2 5611   7.514   4.305   0.952
 1226WAT    EPW 5612   7.567   4.325   1.005
 1227WAT      O 5613   7.532   3.607   0.496
 1227WAT     H1 5614   7.615   3.602   0.470
 1227WAT     H2 5615   7.506   3.524   0.499
 1227WAT    EPW 5616   7.540   3.594   0.493
 1228WAT      O 5617   7.538   4.568   0.738
 1228WAT     H1 5618   7.567   4.629   0.683
 1228WAT     H2 5619   7.602   4.563   0.797
 1228WAT    EPW 5620   7.552   4.576   0.738
 1229WAT      O 5621   6.941   3.781   0.316
 1229WAT     H1 5622   6.917   3.863   0.332
 1229WAT     H2 5623   6.876   3.733   0.350
 1229WAT    EPW 5624   6.928   3.786   0.323
 1230WAT      O 5625   7.187   3.235   0.380
 1230WAT     H1 5626   7.226   3.311   0.363
 1230WAT     H2 5627   7.251   3.176   0.371
 1230WAT    EPW 5628   7.202   3.237   0.376
 1231WAT      O 5629   7.556   3.460   1.176
 1231WAT     H1 5630   7.568   3.430   1.095
 1231WAT     H2 5631   7.585   3.542   1.173
 1231WAT    EPW 5632   7.562   3.468   1.164
 1232WAT      O 5633   7.158   3.361   1.110
 1232WAT     H1 5634   7.082   3.324   1.092
 1232WAT     H2 5635   7.212   3.328   1.050
 1232WAT    EPW 5636   7.155   3.351   1.099
 1233WAT      O 5637   7.730   3.170   1.030
 1233WAT     H1 5638   7.749   3.115   0.965
 1233WAT     H2 5639   7.690   3.236   0.989
 1233WAT    EPW 5640   7.727   3.172   1.014
 1234WAT      O 5641   7.366   4.815   0.644
 1234WAT     H1 5642   7.374   4.817   0.731
 1234WAT     H2 5643   7.294   4.767   0.632
 1234WAT    EPW 5644   7.357   4.808   0.655
 1235WAT      O 5645   6.905   3.482   0.859
 1235WAT     H1 5646   6.887   3.559   0.895
 1235WAT     H2 5647   6.962   3.501   0.796
 1235WAT    EPW 5648   6.911   3.496   0.855
 1236WAT      O 5649   7.149   4.693   0.508
 1236WAT     H1 5650   7.094   4.626   0.518
 1236WAT     H2 5651   7.192   4.674   0.434
 1236WAT    EPW 5652   7.147   4.680   0.498
 1237WAT      O 5653   7.283   4.540   0.842
 1237WAT     H1 5654   7.361   4.566   0.812
 1237WAT     H2 5655   7.272   4.586   0.915
 1237WAT    EPW 5656   7.293   4.550   0.848
 1238WAT      O 5657   7.434   4.087   0.309
 1238WAT     H1 5658   7.491   4.095   0.376
 1238WAT     H2 5659   7.415   4.002   0.309
 1238WAT    EPW 5660   7.439   4.076   0.319
 1239WAT      O 5661   7.613   4.128   0.520
 1239WAT     H1 5662   7.587   4.211   0.532
 1239WAT     H2 5663   7.593   4.089   0.595
 1239WAT    EPW 5664   7.606   4.135   0.533
 1240WAT      O 5665   6.851   4.496   1.142
 1240WAT     H1 5666   6.909   4.545   1.186
 1240WAT     H2 5667   6.861   4.417   1.176
 1240WAT    EPW 5668   6.861   4.492   1.153
 1241WAT      O 5669   7.160   3.637   0.406
 1241WAT     H1 5670   7.229   3.685   0.386
 1241WAT     H2 5671   7.093   3.680   0.369
 1241WAT    EPW 5672   7.160   3.650   0.398
 1242WAT      O 5673   7.660   3.717   1.164
 1242WAT     H1 5674   7.598   3.766   1.201
 1242WAT     H2 5675   7.669   3.753   1.085
 1242WAT    EPW 5676   7.652   3.730   1.158
 1243WAT      O 5677   7.283   4.320   0.375
 1243WAT     H1 5678   7.338   4.338   0.441
 1243WAT     H2 5679   7.322   4.254   0.334
 1243WAT    EPW 5680   7.297   4.313   0.379
 1244WAT      O 5681   7.244   3.827   1.051
 1244WAT     H1 5682   7.203   3.761   1.091
 1244WAT     H2 5683   7.250   3.800   0.968
 1244WAT    EPW 5684   7.239   3.813   1.045
 1245WAT      O 5685   7.293   3.929   0.581
 1245WAT     H1 5686   7.323   3.889   0.510
 1245WAT     H2 5687   7.235   3.987   0.550
 1245WAT    EPW 5688   7.289   3.932   0.566
 1246WAT      O 5689   7.687   4.719   0.545
 1246WAT     H1 5690   7.677   4.659   0.483
 1246WAT     H2 5691   7.684   4.795   0.502
 1246WAT    EPW 5692   7.685   4.721   0.529
 1247WAT      O 5693   7.113   4.059   1.114
 1247WAT     H1 5694   7.105   4.105   1.040
 1247WAT     H2 5695   7.160   3.990   1.091
 1247WAT    EPW 5696   7.119   4.056   1.100
 1248WAT      O 5697   7.720   4.569   0.963
 1248WAT     H1 5698   7.769   4.582   1.034
 1248WAT     H2 5699   7.671   4.500   0.985
 1248WAT    EPW 5700   7.720   4.561   0.977
 1249WAT      O 5701   7.796   3.622   0.406
 1249WAT     H1 5702   7.819   3.696   0.366
 1249WAT     H2 5703   7.872   3.583   0.423
 1249WAT    EPW 5704   7.810   3.628   0.403
 1250WAT      O 5705   7.618   4.203   0.122
 1250WAT     H1 5706   7.550   4.167   0.163
 1250WAT     H2 5707   7.687   4.174   0.166
 1250WAT    EPW 5708   7.618   4.194   0.134
 1251WAT      O 5709   7.107   4.113   0.469
 1251WAT     H1 5710   7.147   4.186   0.444
 1251WAT     H2 5711   7.044   4.103   0.409
 1251WAT    EPW 5712   7.104   4.122   0.456
 1252WAT      O 5713   7.089   4.194   0.877
 1252WAT     H1 5714   7.051   4.140   0.820
 1252WAT     H2 5715   7.056   4.272   0.856
 1252WAT    EPW 5716   7.079   4.197   0.865
 1253WAT      O 5717   7.503   4.380   0.537
 1253WAT     H1 5718   7.511   4.429   0.609
 1253WAT     H2 5719   7.538   4.430   0.474
 1253WAT    EPW 5720   7.509   4.395   0.538
 1254WAT      O 5721   7.356   4.266   0.846
 1254WAT     H1 5722   7.277   4.231   0.859
 1254WAT     H2 5723   7.339   4.352   0.836
 1254WAT    EPW 5724   7.342   4.274   0.846
 1255WAT      O 5725   7.803   4.108   0.316
 1255WAT     H1 5726   7.878   4.143   0.345
 1255WAT     H2 5727   7.751   4.109   0.386
 1255WAT    EPW 5728   7.806   4.113   0.331
 1256WAT      O 5729   7.509   3.620   0.775
 1256WAT     H1 5730   7.532   3.543   0.808
 1256WAT     H2 5731   7.525   3.612   0.690
 1256WAT    EPW 5732   7.515   3.608   0.768
 1257WAT      O 5733   7.651   3.203   0.682
 1257WAT     H1 5734   7.669   3.183   0.599
 1257WAT     H2 5735   7.671   3.129   0.725
 1257WAT    EPW 5736   7.657   3.189   0.676
 1258WAT      O 5737   7.589   4.544   0.332
 1258WAT     H1 5738   7.509   4.567   0.304
 1258WAT     H2 5739   7.623   4.501   0.265
 1258WAT    EPW 5740   7.582   4.541   0.318
 1259WAT      O 5741   7.390   3.794   0.348
 1259WAT     H1 5742   7.400   3.770   0.265
 1259WAT     H2 5743   7.442   3.739   0.392
 1259WAT    EPW 5744   7.399   3.782   0.342
 1260WAT      O 5745   7.719   4.812   0.815
 1260WAT     H1 5746   7.732   4.780   0.735
 1260WAT     H2 5747   7.735   4.744   0.867
 1260WAT    EPW 5748   7.723   4.798   0.811
 1261WAT      O 5749   7.663   3.116   0.417
 1261WAT     H1 5750   7.580   3.102   0.395
 1261WAT     H2 5751   7.699   3.149   0.344
 1261WAT    EPW 5752   7.656   3.119   0.403
 1262WAT      O 5753   7.846   4.335   0.853
 1262WAT     H1 5754   7.781   4.290   0.890
 1262WAT     H2 5755   7.832   4.417   0.879
 1262WAT    EPW 5756   7.834   4.341   0.863
 1263WAT      O 5757   6.910   3.254   1.017
 1263WAT     H1 5758   6.911   3.325   0.966
 1263WAT     H2 5759   6.834   3.215   0.998
 1263WAT    EPW 5760   6.899   3.258   1.006
 1264WAT      O 5761   7.398   4.876   0.377
 1264WAT     H1 5762   7.389   4.858   0.462
 1264WAT     H2 5763   7.377   4.800   0.338
 1264WAT    EPW 5764   7.394   4.862   0.383
 1265WAT      O 5765   7.040   4.863   0.916
 1265WAT     H1 5766   6.976   4.804   0.914
 1265WAT     H2 5767   7.002   4.935   0.947
 1265WAT    EPW 5768   7.025   4.865   0.920
 1266WAT      O 5769   7.260   3.739   0.787
 1266WAT     H1 5770   7.267   3.802   0.727
 1266WAT     H2 5771   7.340   3.702   0.786
 1266WAT    EPW 5772   7.273   3.743   0.778
 1267WAT      O 5773   7.092   3.562   0.661
 1267WAT     H1 5774   7.113   3.575   0.578
 1267WAT     H2 5775   7.149   3.611   0.705
 1267WAT    EPW 5776   7.104   3.571   0.655
 1268WAT      O 5777   7.330   3.247   0.922
 1268WAT     H1 5778   7.358   3.164   0.917
 1268WAT     H2 5779   7.287   3.258   0.847
 1268WAT    EPW 5780   7.328   3.236   0.910
 1269WAT      O 5781   6.965   4.029   0.692
 1269WAT     H1 5782   7.007   4.055   0.620
 1269WAT     H2 5783   6.948   3.945   0.677
 1269WAT    EPW 5784   6.969   4.021   0.679
 1270WAT      O 5785   7.490   4.033   0.752
 1270WAT     H1 5786   7.456   4.107   0.784
 1270WAT     H2 5787   7.426   4.000   0.703
 1270WAT    EPW 5788   7.476   4.039   0.750
 1271WAT      O 5789   7.443   3.351   0.553
 1271WAT     H1 5790   7.364   3.330   0.585
 1271WAT     H2 5791   7.496   3.294   0.592
 1271WAT    EPW 5792   7.439   3.339   0.563
 1272WAT      O 5793   7.629   3.833   0.909
 1272WAT     H1 5794   7.597   3.766   0.863
 1272WAT     H2 5795   7.595   3.903   0.870
 1272WAT    EPW 5796   7.619   3.834   0.896
 1273WAT      O 5797   7.452   4.844   0.916
 1273WAT     H1 5798   7.457   4.825   1.001
 1273WAT     H2 5799   7.533   4.832   0.887
 1273WAT    EPW 5800   7.465   4.840   0.924
 1274WAT      O 5801   7.202   3.303   0.686
 1274WAT     H1 5802   7.153   3.244   0.645
 1274WAT     H2 5803   7.158   3.378   0.673
 1274WAT    EPW 5804   7.188   3.305   0.678
 1275WAT      O 5805   7.202   4.691   1.064
 1275WAT     H1 5806   7.270   4.731   1.101
 1275WAT     H2 5807   7.162   4.754   1.020
 1275WAT    EPW 5808   7.206   4.706   1.063
 1276WAT      O 5809   7.025   4.453   0.793
 1276WAT     H1 5810   6.973   4.513   0.828
 1276WAT     H2 5811   7.105   4.486   0.805
 1276WAT    EPW 5812   7.029   4.467   0.800
 1277WAT      O 5813   7.574   3.368   0.894
 1277WAT     H1 5814   7.605   3.330   0.822
 1277WAT     H2 5815   7.494   3.334   0.903
 1277WAT    EPW 5816   7.567   3.358   0.885
 1278WAT      O 5817   7.308   4.594   0.281
 1278WAT     H1 5818   7.290   4.511   0.303
 1278WAT     H2 5819   7.278   4.601   0.199
 1278WAT    EPW 5820   7.301   4.583   0.272
 1279WAT      O 5821   7.028   4.924   0.642
 1279WAT     H1 5822   7.045   4.895   0.722
 1279WAT     H2 5823   7.060   4.862   0.590
 1279WAT    EPW 5824   7.035   4.911   0.646
 1280WAT      O 5825   6.932   2.413   7.402
 1280WAT     H1 5826   6.854   2.410   7.440
 1280WAT     H2 5827   6.939   2.336   7.362
 1280WAT    EPW 5828   6.922   2.401   7.402
 1281WAT      O 5829   6.911   1.762   7.052
 1281WAT     H1 5830   6.844   1.809   7.021
 1281WAT     H2 5831   6.883   1.680   7.046
 1281WAT    EPW 5832   6.897   1.757   7.047
 1282WAT      O 5833   7.211   2.364   7.001
 1282WAT     H1 5834   7.187   2.319   6.930
 1282WAT     H2 5835   7.228   2.302   7.060
 1282WAT    EPW 5836   7.210   2.349   6.999
 1283WAT      O 5837   7.191   2.524   7.407
 1283WAT     H1 5838   7.242   2.489   7.470
 1283WAT     H2 5839   7.115   2.484   7.418
 1283WAT    EPW 5840   7.187   2.513   7.418
 1284WAT      O 5841   7.608   1.400   7.199
 1284WAT     H1 5842   7.608   1.482   7.168
 1284WAT     H2 5843   7.644   1.354   7.135
 1284WAT    EPW 5844   7.613   1.405   7.185
 1285WAT      O 5845   7.042   2.784   6.974
 1285WAT     H1 5846   7.095   2.797   6.906
 1285WAT     H2 5847   7.089   2.733   7.027
 1285WAT    EPW 5848   7.057   2.779   6.972
 1286WAT      O 5849   7.128   2.149   7.534
 1286WAT     H1 5850   7.080   2.160   7.461
 1286WAT     H2 5851   7.181   2.083   7.513
 1286WAT    EPW 5852   7.128   2.141   7.520
 1287WAT      O 5853   7.295   1.943   7.452
 1287WAT     H1 5854   7.348   1.927   7.519
 1287WAT     H2 5855   7.227   1.889   7.467
 1287WAT    EPW 5856   7.293   1.932   7.464
 1288WAT      O 5857   7.666   2.536   7.673
 1288WAT     H1 5858   7.648   2.479   7.736
 1288WAT     H2 5859   7.734   2.581   7.705
 1288WAT    EPW 5860   7.674   2.535   7.687
 1289WAT      O 5861   7.661   2.481   7.396
 1289WAT     H1 5862   7.665   2.491   7.483
 1289WAT     H2 5863   7.738   2.447   7.376
 1289WAT    EPW 5864   7.673   2.477   7.406
 1290WAT      O 5865   7.371   1.496   7.448
 1290WAT     H1 5866   7.347   1.540   7.376
 1290WAT     H2 5867   7.457   1.490   7.441
 1290WAT    EPW 5868   7.380   1.502   7.436
 1291WAT      O 5869   7.652   1.463   7.466
 1291WAT     H1 5870   7.673   1.548   7.473
 1291WAT     H2 5871   7.657   1.449   7.380
 1291WAT    EPW 5872   7.656   1.474   7.454
 1292WAT      O 5873   6.950   1.905   7.750
 1292WAT     H1 5874   6.951   1.991   7.763
 1292WAT     H2 5875   6.947   1.872   7.830
 1292WAT    EPW 5876   6.950   1.913   7.764
 1293WAT      O 5877   6.944   2.866   7.615
 1293WAT     H1 5878   6.880   2.914   7.581
 1293WAT     H2 5879   6.990   2.839   7.546
 1293WAT    EPW 5880   6.941   2.869   7.600
 1294WAT      O 5881   7.540   2.730   7.334
 1294WAT     H1 5882   7.501   2.728   7.412
 1294WAT     H2 5883   7.588   2.657   7.333
 1294WAT    EPW 5884   7.542   2.719   7.345
 1295WAT      O 5885   7.096   2.786   7.394
 1295WAT     H1 5886   7.139   2.713   7.415
 1295WAT     H2 5887   7.158   2.838   7.361
 1295WAT    EPW 5888   7.111   2.783   7.392
 1296WAT      O 5889   7.266   2.561   7.750
 1296WAT     H1 5890   7.315   2.614   7.701
 1296WAT     H2 5891   7.296   2.481   7.731
 1296WAT    EPW 5892   7.278   2.557   7.740
 1297WAT      O 5893   7.501   2.951   7.671
 1297WAT     H1 5894   7.577   2.990   7.651
 1297WAT     H2 5895   7.441   3.007   7.639
 1297WAT    EPW 5896   7.503   2.965   7.663
 1298WAT      O 5897   7.855   2.736   6.877
 1298WAT     H1 5898   7.848   2.794   6.942
 1298WAT     H2 5899   7.921   2.685   6.903
 1298WAT    EPW 5900   7.864   2.737   6.890
 1299WAT      O 5901   6.992   1.551   7.327
 1299WAT     H1 5902   6.972   1.467   7.313
 1299WAT     H2 5903   6.947   1.572   7.398
 1299WAT    EPW 5904   6.982   1.542   7.335
 1300WAT      O 5905   7.819   1.829   7.070
 1300WAT     H1 5906   7.762   1.764   7.083
 1300WAT     H2 5907   7.793   1.864   6.994
 1300WAT    EPW 5908   7.807   1.825   7.061
 1301WAT      O 5909   7.668   1.749   7.478
 1301WAT     H1 5910   7.609   1.770   7.418
 1301WAT     H2 5911   7.739   1.794   7.453
 1301WAT    EPW 5912   7.670   1.759   7.465
 1302WAT      O 5913   7.292   1.247   7.546
 1302WAT     H1 5914   7.310   1.329   7.525
 1302WAT     H2 5915   7.293   1.205   7.470
 1302WAT    EPW 5916   7.295   1.253   7.532
 1303WAT      O 5917   7.282   1.649   7.658
 1303WAT     H1 5918   7.313   1.598   7.595
 1303WAT     H2 5919   7.219   1.600   7.694
 1303WAT    EPW 5920   7.277   1.634   7.654
 1304WAT      O 5921   7.329   2.320   7.607
 1304WAT     H1 5922   7.380   2.306   7.537
 1304WAT     H2 5923   7.259   2.272   7.591
 1304WAT    EPW 5924   7.326   2.311   7.594
 1305WAT      O 5925   7.136   3.005   7.759
 1305WAT     H1 5926   7.072   2.966   7.715
 1305WAT     H2 5927   7.190   3.033   7.697
 1305WAT    EPW 5928   7.135   3.003   7.744
 1306WAT      O 5929   7.465   2.276   7.371
 1306WAT     H1 5930   7.517   2.346   7.366
 1306WAT     H2 5931   7.519   2.209   7.357
 1306WAT    EPW 5932   7.481   2.276   7.368
 1307WAT      O 5933   7.009   2.456   7.809
 1307WAT     H1 5934   6.962   2.528   7.824
 1307WAT     H2 5935   7.089   2.487   7.792
 1307WAT    EPW 5936   7.014   2.471   7.809
 1308WAT      O 5937   6.996   2.166   7.291
 1308WAT     H1 5938   6.977   2.081   7.288
 1308WAT     H2 5939   7.074   2.171   7.252
 1308WAT    EPW 5940   7.005   2.154   7.285
 1309WAT      O 5941   6.913   2.636   7.242
 1309WAT     H1 5942   6.971   2.690   7.280
 1309WAT     H2 5943   6.910   2.568   7.297
 1309WAT    EPW 5944   6.921   2.634   7.256
 1310WAT      O 5945   6.927   2.457   7.021
 1310WAT     H1 5946   7.006   2.419   7.018
 1310WAT     H2 5947   6.935   2.517   7.084
 1310WAT    EPW 5948   6.940   2.460   7.030
 1311WAT      O 5949   6.963   2.188   7.753
 1311WAT     H1 5950   7.014   2.177   7.683
 1311WAT     H2 5951   6.982   2.269   7.780
 1311WAT    EPW 5952   6.973   2.198   7.746
 1312WAT      O 5953   7.606   1.656   7.110
 1312WAT     H1 5954   7.573   1.659   7.030
 1312WAT     H2 5955   7.557   1.713   7.155
 1312WAT    EPW 5956   7.594   1.665   7.105
 1313WAT      O 5957   7.449   2.696   7.593
 1313WAT     H1 5958   7.464   2.776   7.626
 1313WAT     H2 5959   7.515   2.649   7.625
 1313WAT    EPW 5960   7.461   2.701   7.603
 1314WAT      O 5961   7.250   1.898   7.096
 1314WAT     H1 5962   7.254   1.832   7.153
 1314WAT     H2 5963   7.204   1.865   7.030
 1314WAT    EPW 5964   7.244   1.883   7.094
 1315WAT      O 5965   7.477   2.141   7.781
 1315WAT     H1 5966   7.426   2.187   7.727
 1315WAT     H2 5967   7.474   2.060   7.747
 1315WAT    EPW 5968   7.469   2.136   7.768
 1316WAT      O 5969   7.690   2.971   7.306
 1316WAT     H1 5970   7.649   2.895   7.321
 1316WAT     H2 5971   7.747   2.952   7.243
 1316WAT    EPW 5972   7.692   2.957   7.299
 1317WAT      O 5973   7.369   1.296   7.097
 1317WAT     H1 5974   7.440   1.325   7.139
 1317WAT     H2 5975   7.335   1.368   7.063
 1317WAT    EPW 5976   7.375   1.311   7.098
 1318WAT      O 5977   7.852   2.928   7.082
 1318WAT     H1 5978   7.932   2.963   7.086
 1318WAT     H2 5979   7.803   2.992   7.049
 1318WAT    EPW 5980   7.857   2.943   7.078
 1319WAT      O 5981   7.255   2.173   7.195
 1319WAT     H1 5982   7.267   2.088   7.179
 1319WAT     H2 5983   7.320   2.193   7.250
 1319WAT    EPW 5984   7.267   2.164   7.201
 1320WAT      O 5985   6.899   1.283   7.281
 1320WAT     H1 5986   6.897   1.230   7.212
 1320WAT     H2 5987   6.862   1.237   7.344
 1320WAT    EPW 5988   6.893   1.269   7.280
 1321WAT      O 5989   7.860   1.911   7.329
 1321WAT     H1 5990   7.944   1.935   7.338
 1321WAT     H2 5991   7.856   1.883   7.247
 1321WAT    EPW 5992   7.872   1.911   7.318
 1322WAT      O 5993   7.296   1.539   6.988
 1322WAT     H1 5994   7.232   1.532   6.930
 1322WAT     H2 5995   7.359   1.580   6.944
 1322WAT    EPW 5996   7.296   1.544   6.973
 1323WAT      O 5997   7.620   2.362   7.886
 1323WAT     H1 5998   7.581   2.287   7.866
 1323WAT     H2 5999   7.619   2.363   7.973
 1323WAT    EPW 6000   7.614   2.351   7.896
 1324WAT      O 6001   7.416   2.929   6.885
 1324WAT     H1 6002   7.439   2.858   6.930
 1324WAT     H2 6003   7.404   2.990   6.947
 1324WAT    EPW 6004   7.417   2.927   6.901
 1325WAT      O 6005   7.466   1.870   7.656
 1325WAT     H1 6006   7.538   1.834   7.622
 1325WAT     H2 6007   7.417   1.801   7.678
 1325WAT    EPW 6008   7.469   1.855   7.654
 1326WAT      O 6009   6.954   1.891   7.300
 1326WAT     H1 6010   6.987   1.847   7.367
 1326WAT     H2 6011   6.960   1.835   7.233
 1326WAT    EPW 6012   6.960   1.876   7.300
 1327WAT      O 6013   7.431   2.022   6.924
 1327WAT     H1 6014   7.382   1.982   6.983
 1327WAT     H2 6015   7.384   2.017   6.851
 1327WAT    EPW 6016   7.417   2.016   6.922
 1328WAT      O 6017   7.495   1.843   7.285
 1328WAT     H1 6018   7.536   1.920   7.279
 1328WAT     H2 6019   7.420   1.862   7.326
 1328WAT    EPW 6020   7.490   1.857   7.290
 1329WAT      O 6021   7.050   1.502   7.714
 1329WAT     H1 6022   6.976   1.519   7.671
 1329WAT     H2 6023   7.045   1.417   7.730
 1329WAT    EPW 6024   7.039   1.492   7.710
 1330WAT      O 6025   7.734   3.063   7.572
 1330WAT     H1 6026   7.740   3.150   7.564
 1330WAT     H2 6027   7.734   3.036   7.489
 1330WAT    EPW 6028   7.735   3.072   7.558
 1331WAT      O 6029   7.603   2.209   7.044
 1331WAT     H1 6030   7.550   2.156   7.000
 1331WAT     H2 6031   7.579   2.289   7.018
 1331WAT    EPW 6032   7.591   2.213   7.033
 1332WAT      O 6033   7.242   1.648   7.242
 1332WAT     H1 6034   7.251   1.610   7.164
 1332WAT     H2 6035   7.163   1.622   7.268
 1332WAT    EPW 6036   7.231   1.639   7.234
 1333WAT      O 6037   7.114   1.789   6.870
 1333WAT     H1 6038   7.043   1.783   6.921
 1333WAT     H2 6039   7.117   1.710   6.831
 1333WAT    EPW 6040   7.104   1.776   6.872
 1334WAT      O 6041   7.454   2.709   7.061
 1334WAT     H1 6042   7.495   2.716   7.138
 1334WAT     H2 6043   7.373   2.686   7.084
 1334WAT    EPW 6044   7.448   2.706   7.076
 1335WAT      O 6045   7.208   2.609   7.131
 1335WAT     H1 6046   7.205   2.586   7.215
 1335WAT     H2 6047   7.207   2.532   7.089
 1335WAT    EPW 6048   7.208   2.594   7.138
 1336WAT      O 6049   7.482   2.448   6.948
 1336WAT     H1 6050   7.399   2.423   6.958
 1336WAT     H2 6051   7.483   2.529   6.981
 1336WAT    EPW 6052   7.470   2.456   6.954
 1337WAT      O 6053   7.676   1.242   6.980
 1337WAT     H1 6054   7.707   1.277   6.906
 1337WAT     H2 6055   7.604   1.200   6.955
 1337WAT    EPW 6056   7.670   1.241   6.966
 1338WAT      O 6057   7.077   1.793   7.530
 1338WAT     H1 6058   7.033   1.827   7.598
 1338WAT     H2 6059   7.129   1.734   7.567
 1338WAT    EPW 6060   7.078   1.789   7.546
 1339WAT      O 6061   7.315   2.939   7.299
 1339WAT     H1 6062   7.323   2.992   7.230
 1339WAT     H2 6063   7.386   2.889   7.295
 1339WAT    EPW 6064   7.327   2.939   7.289
 1340WAT      O 6065   7.637   2.078   7.285
 1340WAT     H1 6066   7.643   2.116   7.207
 1340WAT     H2 6067   7.716   2.042   7.297
 1340WAT    EPW 6068   7.650   2.078   7.275
 1341WAT      O 6069   7.169   2.777   7.934
 1341WAT     H1 6070   7.208   2.717   7.884
 1341WAT     H2 6071   7.175   2.850   7.888
 1341WAT    EPW 6072   7.176   2.779   7.920
 1342WAT      O 6073   6.922   2.413   5.520
 1342WAT     H1 6074   6.853   2.407   5.575
 1342WAT     H2 6075   6.934   2.331   5.494
 1342WAT    EPW 6076   6.913   2.400   5.525
 1343WAT      O 6077   6.918   1.762   5.182
 1343WAT     H1 6078   6.854   1.811   5.150
 1343WAT     H2 6079   6.887   1.680   5.176
 1343WAT    EPW 6080   6.904   1.757   5.176
 1344WAT      O 6081   7.196   2.358   5.109
 1344WAT     H1 6082   7.172   2.313   5.038
 1344WAT     H2 6083   7.213   2.297   5.168
 1344WAT    EPW 6084   7.195   2.343   5.107
 1345WAT      O 6085   7.179   2.519   5.495
 1345WAT     H1 6086   7.234   2.484   5.553
 1345WAT     H2 6087   7.103   2.482   5.513
 1345WAT    EPW 6088   7.176   2.509   5.506
 1346WAT      O 6089   7.614   1.405   5.368
 1346WAT     H1 6090   7.631   1.479   5.325
 1346WAT     H2 6091   7.664   1.346   5.327
 1346WAT    EPW 6092   7.624   1.407   5.356
 1347WAT      O 6093   7.041   2.790   5.078
 1347WAT     H1 6094   7.094   2.801   5.010
 1347WAT     H2 6095   7.085   2.736   5.130
 1347WAT    EPW 6096   7.055   2.783   5.076
 1348WAT      O 6097   6.936   2.627   6.208
 1348WAT     H1 6098   6.961   2.604   6.288
 1348WAT     H2 6099   6.867   2.576   6.193
 1348WAT    EPW 6100   6.930   2.616   6.217
 1349WAT      O 6101   7.569   2.469   6.681
 1349WAT     H1 6102   7.549   2.455   6.764
 1349WAT     H2 6103   7.500   2.438   6.637
 1349WAT    EPW 6104   7.556   2.462   6.687
 1350WAT      O 6105   7.133   2.181   5.696
 1350WAT     H1 6106   7.089   2.179   5.620
 1350WAT     H2 6107   7.189   2.115   5.689
 1350WAT    EPW 6108   7.135   2.171   5.684
 1351WAT      O 6109   7.562   1.706   6.194
 1351WAT     H1 6110   7.631   1.686   6.143
 1351WAT     H2 6111   7.524   1.629   6.208
 1351WAT    EPW 6112   7.567   1.691   6.188
 1352WAT      O 6113   7.528   2.770   6.436
 1352WAT     H1 6114   7.574   2.810   6.373
 1352WAT     H2 6115   7.590   2.737   6.488
 1352WAT    EPW 6116   7.544   2.771   6.434
 1353WAT      O 6117   7.302   1.962   5.676
 1353WAT     H1 6118   7.365   1.903   5.690
 1353WAT     H2 6119   7.229   1.914   5.673
 1353WAT    EPW 6120   7.300   1.946   5.678
 1354WAT      O 6121   7.691   2.621   5.764
 1354WAT     H1 6122   7.741   2.570   5.813
 1354WAT     H2 6123   7.739   2.693   5.753
 1354WAT    EPW 6124   7.705   2.624   5.770
 1355WAT      O 6125   7.661   2.466   5.528
 1355WAT     H1 6126   7.669   2.505   5.606
 1355WAT     H2 6127   7.736   2.422   5.520
 1355WAT    EPW 6128   7.673   2.465   5.538
 1356WAT      O 6129   7.378   1.490   5.531
 1356WAT     H1 6130   7.333   1.541   5.476
 1356WAT     H2 6131   7.455   1.479   5.493
 1356WAT    EPW 6132   7.382   1.496   5.517
 1357WAT      O 6133   7.712   1.372   5.633
 1357WAT     H1 6134   7.706   1.448   5.676
 1357WAT     H2 6135   7.685   1.392   5.552
 1357WAT    EPW 6136   7.707   1.387   5.628
 1358WAT      O 6137   6.948   1.917   5.927
 1358WAT     H1 6138   6.943   2.004   5.933
 1358WAT     H2 6139   6.879   1.889   5.973
 1358WAT    EPW 6140   6.937   1.926   5.935
 1359WAT      O 6141   6.946   2.862   5.743
 1359WAT     H1 6142   6.882   2.909   5.706
 1359WAT     H2 6143   6.991   2.831   5.675
 1359WAT    EPW 6144   6.943   2.865   5.727
 1360WAT      O 6145   7.525   2.691   5.428
 1360WAT     H1 6146   7.472   2.689   5.497
 1360WAT     H2 6147   7.576   2.621   5.440
 1360WAT    EPW 6148   7.525   2.680   5.440
 1361WAT      O 6149   7.265   1.439   5.971
 1361WAT     H1 6150   7.207   1.378   5.946
 1361WAT     H2 6151   7.324   1.394   6.017
 1361WAT    EPW 6152   7.265   1.423   5.974
 1362WAT      O 6153   7.516   1.658   6.847
 1362WAT     H1 6154   7.539   1.610   6.777
 1362WAT     H2 6155   7.557   1.734   6.834
 1362WAT    EPW 6156   7.526   1.662   6.834
 1363WAT      O 6157   7.098   2.786   5.514
 1363WAT     H1 6158   7.142   2.712   5.528
 1363WAT     H2 6159   7.157   2.837   5.474
 1363WAT    EPW 6160   7.113   2.783   5.510
 1364WAT      O 6161   7.118   1.520   6.776
 1364WAT     H1 6162   7.041   1.486   6.751
 1364WAT     H2 6163   7.176   1.481   6.724
 1364WAT    EPW 6164   7.115   1.509   6.765
 1365WAT      O 6165   7.188   2.614   5.866
 1365WAT     H1 6166   7.239   2.619   5.796
 1365WAT     H2 6167   7.227   2.553   5.916
 1365WAT    EPW 6168   7.201   2.606   5.863
 1366WAT      O 6169   7.488   2.901   5.796
 1366WAT     H1 6170   7.566   2.916   5.761
 1366WAT     H2 6171   7.437   2.962   5.760
 1366WAT    EPW 6172   7.492   2.912   5.786
 1367WAT      O 6173   7.746   1.329   6.731
 1367WAT     H1 6174   7.760   1.270   6.669
 1367WAT     H2 6175   7.695   1.388   6.693
 1367WAT    EPW 6176   7.740   1.329   6.716
 1368WAT      O 6177   7.320   3.012   6.343
 1368WAT     H1 6178   7.344   2.996   6.426
 1368WAT     H2 6179   7.254   2.956   6.331
 1368WAT    EPW 6180   7.314   3.001   6.354
 1369WAT      O 6181   6.851   1.643   6.520
 1369WAT     H1 6182   6.847   1.717   6.565
 1369WAT     H2 6183   6.913   1.659   6.461
 1369WAT    EPW 6184   6.860   1.657   6.518
 1370WAT      O 6185   7.844   2.718   4.981
 1370WAT     H1 6186   7.840   2.777   5.045
 1370WAT     H2 6187   7.897   2.657   5.013
 1370WAT    EPW 6188   7.851   2.718   4.995
 1371WAT      O 6189   6.985   1.551   5.453
 1371WAT     H1 6190   6.961   1.469   5.434
 1371WAT     H2 6191   6.939   1.570   5.524
 1371WAT    EPW 6192   6.974   1.541   5.461
 1372WAT      O 6193   7.103   2.856   6.242
 1372WAT     H1 6194   7.049   2.788   6.238
 1372WAT     H2 6195   7.145   2.854   6.166
 1372WAT    EPW 6196   7.101   2.846   6.230
 1373WAT      O 6197   7.849   1.815   5.124
 1373WAT     H1 6198   7.806   1.744   5.152
 1373WAT     H2 6199   7.798   1.846   5.061
 1373WAT    EPW 6200   7.835   1.809   5.119
 1374WAT      O 6201   7.704   1.629   5.758
 1374WAT     H1 6202   7.756   1.681   5.711
 1374WAT     H2 6203   7.732   1.642   5.840
 1374WAT    EPW 6204   7.716   1.639   5.763
 1375WAT      O 6205   7.280   2.679   6.535
 1375WAT     H1 6206   7.349   2.720   6.501
 1375WAT     H2 6207   7.259   2.727   6.604
 1375WAT    EPW 6208   7.287   2.692   6.540
 1376WAT      O 6209   7.336   1.238   5.646
 1376WAT     H1 6210   7.350   1.320   5.618
 1376WAT     H2 6211   7.332   1.192   5.572
 1376WAT    EPW 6212   7.338   1.243   5.631
 1377WAT      O 6213   7.557   2.323   5.962
 1377WAT     H1 6214   7.568   2.310   6.047
 1377WAT     H2 6215   7.521   2.249   5.934
 1377WAT    EPW 6216   7.554   2.310   5.970
 1378WAT      O 6217   7.595   2.329   6.234
 1378WAT     H1 6218   7.555   2.406   6.246
 1378WAT     H2 6219   7.563   2.279   6.298
 1378WAT    EPW 6220   7.585   2.333   6.245
 1379WAT      O 6221   6.843   2.655   6.825
 1379WAT     H1 6222   6.902   2.701   6.871
 1379WAT     H2 6223   6.852   2.574   6.856
 1379WAT    EPW 6224   6.853   2.650   6.837
 1380WAT      O 6225   7.236   1.603   5.752
 1380WAT     H1 6226   7.268   1.555   5.687
 1380WAT     H2 6227   7.241   1.550   5.821
 1380WAT    EPW 6228   7.241   1.588   5.753
 1381WAT      O 6229   7.330   2.380   5.684
 1381WAT     H1 6230   7.378   2.333   5.629
 1381WAT     H2 6231   7.265   2.326   5.706
 1381WAT    EPW 6232   7.328   2.366   5.679
 1382WAT      O 6233   7.129   3.043   5.837
 1382WAT     H1 6234   7.062   2.995   5.807
 1382WAT     H2 6235   7.182   3.050   5.768
 1382WAT    EPW 6236   7.127   3.037   5.823
 1383WAT      O 6237   7.115   1.744   6.068
 1383WAT     H1 6238   7.198   1.766   6.054
 1383WAT     H2 6239   7.070   1.806   6.027
 1383WAT    EPW 6240   7.121   1.756   6.060
 1384WAT      O 6241   7.469   2.261   5.474
 1384WAT     H1 6242   7.523   2.329   5.478
 1384WAT     H2 6243   7.522   2.194   5.455
 1384WAT    EPW 6244   7.485   2.261   5.472
 1385WAT      O 6245   6.937   2.485   5.872
 1385WAT     H1 6246   6.881   2.547   5.895
 1385WAT     H2 6247   7.013   2.527   5.864
 1385WAT    EPW 6248   6.940   2.500   5.874
 1386WAT      O 6249   7.660   1.896   6.838
 1386WAT     H1 6250   7.595   1.942   6.872
 1386WAT     H2 6251   7.668   1.926   6.757
 1386WAT    EPW 6252   7.652   1.907   6.831
 1387WAT      O 6253   7.010   2.159   5.448
 1387WAT     H1 6254   6.986   2.076   5.442
 1387WAT     H2 6255   7.082   2.164   5.398
 1387WAT    EPW 6256   7.017   2.148   5.439
 1388WAT      O 6257   6.912   2.638   5.363
 1388WAT     H1 6258   6.969   2.691   5.403
 1388WAT     H2 6259   6.905   2.570   5.417
 1388WAT    EPW 6260   6.919   2.636   5.377
 1389WAT      O 6261   7.311   2.436   6.040
 1389WAT     H1 6262   7.346   2.482   6.105
 1389WAT     H2 6263   7.381   2.401   6.001
 1389WAT    EPW 6264   7.327   2.437   6.043
 1390WAT      O 6265   6.917   2.459   5.140
 1390WAT     H1 6266   6.995   2.420   5.136
 1390WAT     H2 6267   6.928   2.519   5.203
 1390WAT    EPW 6268   6.930   2.462   5.149
 1391WAT      O 6269   6.964   2.214   5.910
 1391WAT     H1 6270   7.016   2.199   5.842
 1391WAT     H2 6271   6.952   2.300   5.908
 1391WAT    EPW 6272   6.970   2.224   5.900
 1392WAT      O 6273   7.665   1.620   5.209
 1392WAT     H1 6274   7.627   1.612   5.130
 1392WAT     H2 6275   7.622   1.688   5.244
 1392WAT    EPW 6276   7.653   1.629   5.202
 1393WAT      O 6277   7.389   2.675   5.671
 1393WAT     H1 6278   7.421   2.742   5.716
 1393WAT     H2 6279   7.432   2.606   5.703
 1393WAT    EPW 6280   7.400   2.675   5.682
 1394WAT      O 6281   7.244   1.979   6.715
 1394WAT     H1 6282   7.199   1.918   6.758
 1394WAT     H2 6283   7.249   1.948   6.634
 1394WAT    EPW 6284   7.238   1.965   6.710
 1395WAT      O 6285   7.262   1.887   5.222
 1395WAT     H1 6286   7.244   1.827   5.282
 1395WAT     H2 6287   7.219   1.860   5.151
 1395WAT    EPW 6288   7.253   1.874   5.220
 1396WAT      O 6289   7.421   2.091   5.901
 1396WAT     H1 6290   7.385   2.064   5.826
 1396WAT     H2 6291   7.413   2.022   5.953
 1396WAT    EPW 6292   7.415   2.077   5.897
 1397WAT      O 6293   7.302   2.042   6.247
 1397WAT     H1 6294   7.325   1.990   6.181
 1397WAT     H2 6295   7.248   2.100   6.209
 1397WAT    EPW 6296   7.297   2.043   6.231
 1398WAT      O 6297   7.685   2.866   6.227
 1398WAT     H1 6298   7.665   2.814   6.160
 1398WAT     H2 6299   7.684   2.946   6.192
 1398WAT    EPW 6300   7.682   2.870   6.212
 1399WAT      O 6301   7.121   2.214   6.790
 1399WAT     H1 6302   7.103   2.257   6.716
 1399WAT     H2 6303   7.165   2.144   6.763
 1399WAT    EPW 6304   7.125   2.210   6.775
 1400WAT      O 6305   7.713   2.701   6.643
 1400WAT     H1 6306   7.758   2.715   6.717
 1400WAT     H2 6307   7.664   2.631   6.661
 1400WAT    EPW 6308   7.712   2.693   6.657
 1401WAT      O 6309   7.793   1.694   6.021
 1401WAT     H1 6310   7.812   1.779   6.030
 1401WAT     H2 6311   7.865   1.654   6.050
 1401WAT    EPW 6312   7.806   1.701   6.027
 1402WAT      O 6313   7.668   2.928   5.401
 1402WAT     H1 6314   7.628   2.851   5.409
 1402WAT     H2 6315   7.728   2.914   5.339
 1402WAT    EPW 6316   7.671   2.915   5.393
 1403WAT      O 6317   7.413   1.290   5.205
 1403WAT     H1 6318   7.464   1.327   5.266
 1403WAT     H2 6319   7.369   1.358   5.171
 1403WAT    EPW 6320   7.414   1.305   5.209
 1404WAT      O 6321   7.849   2.906   5.190
 1404WAT     H1 6322   7.930   2.937   5.199
 1404WAT     H2 6323   7.804   2.974   5.158
 1404WAT    EPW 6324   7.854   2.921   5.186
 1405WAT      O 6325   7.249   2.170   5.307
 1405WAT     H1 6326   7.263   2.085   5.292
 1405WAT     H2 6327   7.317   2.193   5.357
 1405WAT    EPW 6328   7.261   2.160   5.312
 1406WAT      O 6329   6.895   1.286   5.392
 1406WAT     H1 6330   6.889   1.236   5.320
 1406WAT     H2 6331   6.863   1.234   5.455
 1406WAT    EPW 6332   6.889   1.271   5.391
 1407WAT      O 6333   7.899   1.969   5.348
 1407WAT     H1 6334   7.985   1.972   5.357
 1407WAT     H2 6335   7.887   1.921   5.276
 1407WAT    EPW 6336   7.910   1.962   5.338
 1408WAT      O 6337   7.303   1.524   5.108
 1408WAT     H1 6338   7.240   1.518   5.048
 1408WAT     H2 6339   7.368   1.565   5.065
 1408WAT    EPW 6340   7.304   1.529   5.093
 1409WAT      O 6341   7.811   2.439   5.929
 1409WAT     H1 6342   7.737   2.392   5.934
 1409WAT     H2 6343   7.840   2.440   6.012
 1409WAT    EPW 6344   7.804   2.432   5.942
 1410WAT      O 6345   7.417   2.931   4.989
 1410WAT     H1 6346   7.439   2.859   5.034
 1410WAT     H2 6347   7.410   2.992   5.050
 1410WAT    EPW 6348   7.419   2.929   5.005
 1411WAT      O 6349   7.138   2.234   6.128
 1411WAT     H1 6350   7.189   2.300   6.105
 1411WAT     H2 6351   7.085   2.224   6.059
 1411WAT    EPW 6352   7.138   2.242   6.114
 1412WAT      O 6353   7.457   1.759   5.792
 1412WAT     H1 6354   7.529   1.714   5.775
 1412WAT     H2 6355   7.393   1.702   5.777
 1412WAT    EPW 6356   7.458   1.744   5.788
 1413WAT      O 6357   6.947   1.888   5.439
 1413WAT     H1 6358   6.980   1.850   5.511
 1413WAT     H2 6359   6.957   1.827   5.378
 1413WAT    EPW 6360   6.953   1.873   5.441
 1414WAT      O 6361   7.421   2.022   5.023
 1414WAT     H1 6362   7.375   1.982   5.086
 1414WAT     H2 6363   7.370   2.014   4.953
 1414WAT    EPW 6364   7.407   2.015   5.022
 1415WAT      O 6365   7.068   2.340   6.552
 1415WAT     H1 6366   7.034   2.292   6.487
 1415WAT     H2 6367   7.041   2.420   6.534
 1415WAT    EPW 6368   7.059   2.345   6.539
 1416WAT      O 6369   7.526   1.829   5.314
 1416WAT     H1 6370   7.562   1.906   5.335
 1416WAT     H2 6371   7.445   1.849   5.289
 1416WAT    EPW 6372   7.520   1.843   5.314
 1417WAT      O 6373   6.938   1.536   5.939
 1417WAT     H1 6374   6.920   1.561   5.858
 1417WAT     H2 6375   7.007   1.585   5.961
 1417WAT    EPW 6376   6.946   1.547   5.930
 1418WAT      O 6377   7.469   2.580   6.224
 1418WAT     H1 6378   7.475   2.635   6.292
 1418WAT     H2 6379   7.500   2.627   6.157
 1418WAT    EPW 6380   7.475   2.595   6.224
 1419WAT      O 6381   7.338   2.403   6.531
 1419WAT     H1 6382   7.257   2.372   6.540
 1419WAT     H2 6383   7.326   2.489   6.524
 1419WAT    EPW 6384   7.324   2.411   6.532
 1420WAT      O 6385   7.856   2.419   6.210
 1420WAT     H1 6386   7.871   2.453   6.289
 1420WAT     H2 6387   7.779   2.381   6.218
 1420WAT    EPW 6388   7.847   2.418   6.223
 1421WAT      O 6389   7.513   1.757   6.466
 1421WAT     H1 6390   7.529   1.681   6.506
 1421WAT     H2 6391   7.537   1.742   6.383
 1421WAT    EPW 6392   7.519   1.744   6.460
 1422WAT      O 6393   7.732   2.938   5.674
 1422WAT     H1 6394   7.737   3.024   5.687
 1422WAT     H2 6395   7.720   2.931   5.588
 1422WAT    EPW 6396   7.731   2.949   5.663
 1423WAT      O 6397   7.650   1.335   6.402
 1423WAT     H1 6398   7.678   1.326   6.320
 1423WAT     H2 6399   7.674   1.261   6.440
 1423WAT    EPW 6400   7.657   1.323   6.395
 1424WAT      O 6401   7.570   2.725   6.006
 1424WAT     H1 6402   7.526   2.787   5.962
 1424WAT     H2 6403   7.608   2.678   5.944
 1424WAT    EPW 6404   7.569   2.728   5.991
 1425WAT      O 6405   7.589   2.217   5.133
 1425WAT     H1 6406   7.538   2.161   5.089
 1425WAT     H2 6407   7.562   2.295   5.105
 1425WAT    EPW 6408   7.577   2.220   5.122
 1426WAT      O 6409   7.381   1.848   6.043
 1426WAT     H1 6410   7.402   1.818   5.964
 1426WAT     H2 6411   7.436   1.806   6.096
 1426WAT    EPW 6412   7.392   1.838   6.039
 1427WAT      O 6413   7.764   2.959   6.525
 1427WAT     H1 6414   7.810   2.932   6.456
 1427WAT     H2 6415   7.753   2.886   6.572
 1427WAT    EPW 6416   7.769   2.944   6.522
 1428WAT      O 6417   7.693   1.278   6.129
 1428WAT     H1 6418   7.608   1.271   6.108
 1428WAT     H2 6419   7.733   1.286   6.052
 1428WAT    EPW 6420   7.686   1.278   6.114
 1429WAT      O 6421   7.833   2.493   6.487
 1429WAT     H1 6422   7.783   2.432   6.526
 1429WAT     H2 6423   7.816   2.566   6.532
 1429WAT    EPW 6424   7.823   2.495   6.499
 1430WAT      O 6425   6.866   1.418   6.682
 1430WAT     H1 6426   6.865   1.489   6.631
 1430WAT     H2 6427   6.781   1.397   6.689
 1430WAT    EPW 6428   6.853   1.426   6.676
 1431WAT      O 6429   7.403   3.066   6.084
 1431WAT     H1 6430   7.377   3.058   6.167
 1431WAT     H2 6431   7.368   2.996   6.046
 1431WAT    EPW 6432   7.394   3.054   6.091
 1432WAT      O 6433   7.227   1.642   5.354
 1432WAT     H1 6434   7.239   1.602   5.278
 1432WAT     H2 6435   7.148   1.615   5.380
 1432WAT    EPW 6436   7.217   1.632   5.347
 1433WAT      O 6437   7.011   3.021   6.624
 1433WAT     H1 6438   6.952   2.957   6.614
 1433WAT     H2 6439   6.964   3.089   6.651
 1433WAT    EPW 6440   6.996   3.021   6.626
 1434WAT      O 6441   7.257   1.865   6.457
 1434WAT     H1 6442   7.268   1.926   6.395
 1434WAT     H2 6443   7.336   1.827   6.463
 1434WAT    EPW 6444   7.270   1.868   6.449
 1435WAT      O 6445   7.061   1.708   6.338
 1435WAT     H1 6446   7.080   1.712   6.252
 1435WAT     H2 6447   7.126   1.753   6.375
 1435WAT    EPW 6448   7.074   1.715   6.330
 1436WAT      O 6449   7.312   1.396   6.617
 1436WAT     H1 6450   7.340   1.314   6.611
 1436WAT     H2 6451   7.272   1.410   6.541
 1436WAT    EPW 6452   7.310   1.386   6.605
 1437WAT      O 6453   6.956   2.204   6.339
 1437WAT     H1 6454   7.008   2.222   6.272
 1437WAT     H2 6455   6.938   2.119   6.330
 1437WAT    EPW 6456   6.961   2.194   6.328
 1438WAT      O 6457   7.122   1.785   4.997
 1438WAT     H1 6458   7.052   1.780   5.048
 1438WAT     H2 6459   7.124   1.706   4.958
 1438WAT    EPW 6460   7.112   1.773   4.999
 1439WAT      O 6461   7.444   2.704   5.158
 1439WAT     H1 6462   7.486   2.696   5.234
 1439WAT     H2 6463   7.361   2.684   5.178
 1439WAT    EPW 6464   7.438   2.700   5.172
 1440WAT      O 6465   7.473   2.176   6.428
 1440WAT     H1 6466   7.426   2.241   6.463
 1440WAT     H2 6467   7.417   2.137   6.374
 1440WAT    EPW 6468   7.458   2.180   6.425
 1441WAT      O 6469   7.197   2.608   5.227
 1441WAT     H1 6470   7.192   2.587   5.312
 1441WAT     H2 6471   7.196   2.530   5.187
 1441WAT    EPW 6472   7.196   2.593   5.234
 1442WAT      O 6473   7.461   2.449   5.036
 1442WAT     H1 6474   7.380   2.422   5.052
 1442WAT     H2 6475   7.463   2.529   5.071
 1442WAT    EPW 6476   7.449   2.457   5.043
 1443WAT      O 6477   7.436   1.480   6.280
 1443WAT     H1 6478   7.352   1.467   6.302
 1443WAT     H2 6479   7.478   1.415   6.319
 1443WAT    EPW 6480   7.430   1.469   6.289
 1444WAT      O 6481   7.629   1.986   6.576
 1444WAT     H1 6482   7.596   1.915   6.538
 1444WAT     H2 6483   7.587   2.052   6.537
 1444WAT    EPW 6484   7.618   1.985   6.565
 1445WAT      O 6485   7.689   1.254   5.127
 1445WAT     H1 6486   7.710   1.278   5.046
 1445WAT     H2 6487   7.601   1.253   5.125
 1445WAT    EPW 6488   7.679   1.258   5.115
 1446WAT      O 6489   7.435   2.984   6.605
 1446WAT     H1 6490   7.449   2.969   6.690
 1446WAT     H2 6491   7.486   2.927   6.564
 1446WAT    EPW 6492   7.445   2.974   6.611
 1447WAT      O 6493   7.178   1.458   6.384
 1447WAT     H1 6494   7.125   1.394   6.358
 1447WAT     H2 6495   7.133   1.531   6.366
 1447WAT    EPW 6496   7.164   1.459   6.377
 1448WAT      O 6497   7.190   2.838   6.747
 1448WAT     H1 6498   7.258   2.878   6.784
 1448WAT     H2 6499   7.146   2.904   6.710
 1448WAT    EPW 6500   7.193   2.854   6.747
 1449WAT      O 6501   7.066   1.818   5.686
 1449WAT     H1 6502   7.022   1.842   5.757
 1449WAT     H2 6503   7.101   1.742   5.707
 1449WAT    EPW 6504   7.065   1.810   5.699
 1450WAT      O 6505   7.019   2.602   6.470
 1450WAT     H1 6506   6.968   2.664   6.504
 1450WAT     H2 6507   7.100   2.634   6.481
 1450WAT    EPW 6508   7.023   2.616   6.477
 1451WAT      O 6509   7.315   2.932   5.394
 1451WAT     H1 6510   7.322   2.991   5.330
 1451WAT     H2 6511   7.386   2.882   5.383
 1451WAT    EPW 6512   7.327   2.933   5.383
 1452WAT      O 6513   7.643   2.076   5.364
 1452WAT     H1 6514   7.638   2.121   5.290
 1452WAT     H2 6515   7.726   2.049   5.366
 1452WAT    EPW 6516   7.655   2.078   5.353
 1453WAT      O 6517   7.563   1.510   6.600
 1453WAT     H1 6518   7.595   1.469   6.531
 1453WAT     H2 6519   7.482   1.478   6.607
 1453WAT    EPW 6520   7.555   1.499   6.591
 1454WAT      O 6521   7.236   2.851   6.001
 1454WAT     H1 6522   7.222   2.775   5.961
 1454WAT     H2 6523   7.197   2.909   5.948
 1454WAT    EPW 6524   7.228   2.849   5.987
 1455WAT      O 6525   6.993   3.088   6.354
 1455WAT     H1 6526   7.004   3.064   6.437
 1455WAT     H2 6527   7.021   3.018   6.309
 1455WAT    EPW 6528   6.998   3.074   6.360
 1456WAT      O 6529   6.943   2.422   3.630
 1456WAT     H1 6530   6.894   2.421   3.702
 1456WAT     H2 6531   6.944   2.338   3.605
 1456WAT    EPW 6532   6.936   2.409   3.637
 1457WAT      O 6533   6.909   1.761   3.276
 1457WAT     H1 6534   6.845   1.810   3.244
 1457WAT     H2 6535   6.880   1.680   3.268
 1457WAT    EPW 6536   6.896   1.756   3.270
 1458WAT      O 6537   7.194   2.357   3.205
 1458WAT     H1 6538   7.170   2.308   3.137
 1458WAT     H2 6539   7.211   2.298   3.267
 1458WAT    EPW 6540   7.193   2.341   3.204
 1459WAT      O 6541   7.196   2.527   3.587
 1459WAT     H1 6542   7.250   2.492   3.646
 1459WAT     H2 6543   7.119   2.489   3.605
 1459WAT    EPW 6544   7.192   2.516   3.598
 1460WAT      O 6545   7.615   1.404   3.471
 1460WAT     H1 6546   7.632   1.477   3.427
 1460WAT     H2 6547   7.666   1.344   3.431
 1460WAT    EPW 6548   7.625   1.406   3.458
 1461WAT      O 6549   7.028   2.798   3.182
 1461WAT     H1 6550   7.081   2.814   3.114
 1461WAT     H2 6551   7.073   2.742   3.231
 1461WAT    EPW 6552   7.043   2.792   3.179
 1462WAT      O 6553   6.912   2.637   4.295
 1462WAT     H1 6554   6.942   2.612   4.373
 1462WAT     H2 6555   6.842   2.586   4.283
 1462WAT    EPW 6556   6.906   2.626   4.305
 1463WAT      O 6557   7.554   2.479   4.772
 1463WAT     H1 6558   7.531   2.464   4.855
 1463WAT     H2 6559   7.488   2.446   4.726
 1463WAT    EPW 6560   7.541   2.472   4.777
 1464WAT      O 6561   7.138   2.176   3.794
 1464WAT     H1 6562   7.092   2.174   3.719
 1464WAT     H2 6563   7.193   2.110   3.786
 1464WAT    EPW 6564   7.139   2.166   3.782
 1465WAT      O 6565   7.557   1.702   4.299
 1465WAT     H1 6566   7.626   1.682   4.249
 1465WAT     H2 6567   7.519   1.625   4.314
 1465WAT    EPW 6568   7.562   1.688   4.294
 1466WAT      O 6569   7.530   2.777   4.536
 1466WAT     H1 6570   7.568   2.823   4.472
 1466WAT     H2 6571   7.598   2.745   4.581
 1466WAT    EPW 6572   7.546   2.779   4.533
 1467WAT      O 6573   7.303   1.956   3.775
 1467WAT     H1 6574   7.365   1.897   3.791
 1467WAT     H2 6575   7.230   1.909   3.772
 1467WAT    EPW 6576   7.301   1.940   3.777
 1468WAT      O 6577   7.681   2.622   3.862
 1468WAT     H1 6578   7.730   2.569   3.911
 1468WAT     H2 6579   7.732   2.690   3.847
 1468WAT    EPW 6580   7.695   2.624   3.867
 1469WAT      O 6581   7.663   2.458   3.627
 1469WAT     H1 6582   7.669   2.495   3.705
 1469WAT     H2 6583   7.738   2.415   3.618
 1469WAT    EPW 6584   7.675   2.457   3.637
 1470WAT      O 6585   7.378   1.491   3.631
 1470WAT     H1 6586   7.334   1.542   3.576
 1470WAT     H2 6587   7.455   1.480   3.592
 1470WAT    EPW 6588   7.383   1.497   3.617
 1471WAT      O 6589   7.713   1.371   3.735
 1471WAT     H1 6590   7.707   1.446   3.779
 1471WAT     H2 6591   7.685   1.392   3.655
 1471WAT    EPW 6592   7.708   1.385   3.730
 1472WAT      O 6593   6.944   1.913   4.028
 1472WAT     H1 6594   6.940   2.000   4.034
 1472WAT     H2 6595   6.875   1.887   4.074
 1472WAT    EPW 6596   6.933   1.922   4.035
 1473WAT      O 6597   6.955   2.857   3.816
 1473WAT     H1 6598   6.883   2.895   3.783
 1473WAT     H2 6599   6.999   2.833   3.744
 1473WAT    EPW 6600   6.951   2.859   3.800
 1474WAT      O 6601   7.523   2.674   3.520
 1474WAT     H1 6602   7.469   2.678   3.589
 1474WAT     H2 6603   7.572   2.603   3.537
 1474WAT    EPW 6604   7.522   2.664   3.533
 1475WAT      O 6605   7.262   1.440   4.071
 1475WAT     H1 6606   7.205   1.379   4.046
 1475WAT     H2 6607   7.322   1.395   4.117
 1475WAT    EPW 6608   7.263   1.424   4.074
 1476WAT      O 6609   7.527   1.630   4.964
 1476WAT     H1 6610   7.544   1.590   4.889
 1476WAT     H2 6611   7.558   1.711   4.952
 1476WAT    EPW 6612   7.534   1.636   4.951
 1477WAT      O 6613   7.110   2.791   3.589
 1477WAT     H1 6614   7.152   2.716   3.607
 1477WAT     H2 6615   7.171   2.841   3.553
 1477WAT    EPW 6616   7.125   2.787   3.586
 1478WAT      O 6617   7.120   1.517   4.898
 1478WAT     H1 6618   7.041   1.489   4.873
 1478WAT     H2 6619   7.173   1.481   4.840
 1478WAT    EPW 6620   7.116   1.508   4.886
 1479WAT      O 6621   7.195   2.607   3.959
 1479WAT     H1 6622   7.251   2.611   3.892
 1479WAT     H2 6623   7.232   2.550   4.013
 1479WAT    EPW 6624   7.209   2.599   3.957
 1480WAT      O 6625   7.487   2.919   3.899
 1480WAT     H1 6626   7.563   2.926   3.857
 1480WAT     H2 6627   7.436   2.979   3.860
 1480WAT    EPW 6628   7.491   2.929   3.887
 1481WAT      O 6629   7.719   1.312   4.857
 1481WAT     H1 6630   7.739   1.254   4.795
 1481WAT     H2 6631   7.674   1.373   4.814
 1481WAT    EPW 6632   7.715   1.313   4.841
 1482WAT      O 6633   7.300   2.993   4.448
 1482WAT     H1 6634   7.310   2.977   4.533
 1482WAT     H2 6635   7.231   2.945   4.426
 1482WAT    EPW 6636   7.291   2.983   4.458
 1483WAT      O 6637   6.846   1.648   4.628
 1483WAT     H1 6638   6.840   1.723   4.672
 1483WAT     H2 6639   6.907   1.665   4.568
 1483WAT    EPW 6640   6.854   1.662   4.626
 1484WAT      O 6641   7.853   2.732   3.078
 1484WAT     H1 6642   7.844   2.786   3.145
 1484WAT     H2 6643   7.911   2.674   3.105
 1484WAT    EPW 6644   7.860   2.731   3.092
 1485WAT      O 6645   6.985   1.549   3.556
 1485WAT     H1 6646   6.963   1.467   3.538
 1485WAT     H2 6647   6.936   1.568   3.626
 1485WAT    EPW 6648   6.974   1.540   3.564
 1486WAT      O 6649   7.079   2.865   4.329
 1486WAT     H1 6650   7.023   2.798   4.324
 1486WAT     H2 6651   7.123   2.859   4.254
 1486WAT    EPW 6652   7.077   2.854   4.317
 1487WAT      O 6653   7.852   1.812   3.227
 1487WAT     H1 6654   7.809   1.742   3.256
 1487WAT     H2 6655   7.800   1.844   3.165
 1487WAT    EPW 6656   7.838   1.806   3.222
 1488WAT      O 6657   7.704   1.626   3.864
 1488WAT     H1 6658   7.756   1.679   3.818
 1488WAT     H2 6659   7.731   1.638   3.946
 1488WAT    EPW 6660   7.716   1.636   3.869
 1489WAT      O 6661   7.275   2.682   4.620
 1489WAT     H1 6662   7.348   2.720   4.592
 1489WAT     H2 6663   7.258   2.722   4.696
 1489WAT    EPW 6664   7.283   2.694   4.627
 1490WAT      O 6665   7.336   1.239   3.745
 1490WAT     H1 6666   7.350   1.320   3.717
 1490WAT     H2 6667   7.332   1.193   3.671
 1490WAT    EPW 6668   7.337   1.244   3.730
 1491WAT      O 6669   7.554   2.316   4.062
 1491WAT     H1 6670   7.567   2.303   4.147
 1491WAT     H2 6671   7.516   2.242   4.035
 1491WAT    EPW 6672   7.551   2.303   4.070
 1492WAT      O 6673   7.597   2.327   4.334
 1492WAT     H1 6674   7.559   2.405   4.345
 1492WAT     H2 6675   7.563   2.278   4.397
 1492WAT    EPW 6676   7.586   2.331   4.345
 1493WAT      O 6677   6.851   2.651   4.932
 1493WAT     H1 6678   6.907   2.699   4.977
 1493WAT     H2 6679   6.857   2.572   4.970
 1493WAT    EPW 6680   6.860   2.646   4.944
 1494WAT      O 6681   7.233   1.602   3.851
 1494WAT     H1 6682   7.266   1.553   3.786
 1494WAT     H2 6683   7.238   1.550   3.920
 1494WAT    EPW 6684   7.239   1.587   3.851
 1495WAT      O 6685   7.332   2.378   3.780
 1495WAT     H1 6686   7.381   2.330   3.725
 1495WAT     H2 6687   7.266   2.324   3.800
 1495WAT    EPW 6688   7.329   2.363   3.775
 1496WAT      O 6689   7.123   3.041   3.928
 1496WAT     H1 6690   7.062   2.991   3.891
 1496WAT     H2 6691   7.180   3.054   3.863
 1496WAT    EPW 6692   7.123   3.036   3.913
 1497WAT      O 6693   7.108   1.740   4.171
 1497WAT     H1 6694   7.192   1.761   4.156
 1497WAT     H2 6695   7.064   1.802   4.128
 1497WAT    EPW 6696   7.114   1.752   4.163
 1498WAT      O 6697   7.469   2.257   3.569
 1498WAT     H1 6698   7.523   2.324   3.574
 1498WAT     H2 6699   7.521   2.189   3.551
 1498WAT    EPW 6700   7.485   2.257   3.567
 1499WAT      O 6701   6.946   2.476   3.934
 1499WAT     H1 6702   6.891   2.539   3.960
 1499WAT     H2 6703   7.024   2.516   3.934
 1499WAT    EPW 6704   6.950   2.491   3.938
 1500WAT      O 6705   7.644   1.882   4.938
 1500WAT     H1 6706   7.581   1.931   4.974
 1500WAT     H2 6707   7.652   1.914   4.857
 1500WAT    EPW 6708   7.636   1.894   4.931
 1501WAT      O 6709   7.007   2.160   3.550
 1501WAT     H1 6710   6.983   2.077   3.543
 1501WAT     H2 6711   7.077   2.166   3.500
 1501WAT    EPW 6712   7.014   2.149   3.542
 1502WAT      O 6713   6.912   2.633   3.458
 1502WAT     H1 6714   6.973   2.687   3.489
 1502WAT     H2 6715   6.911   2.568   3.516
 1502WAT    EPW 6716   6.921   2.631   3.471
 1503WAT      O 6717   7.314   2.436   4.143
 1503WAT     H1 6718   7.350   2.483   4.207
 1503WAT     H2 6719   7.382   2.399   4.103
 1503WAT    EPW 6720   7.329   2.437   4.147
 1504WAT      O 6721   6.912   2.459   3.231
 1504WAT     H1 6722   6.989   2.418   3.226
 1504WAT     H2 6723   6.924   2.516   3.297
 1504WAT    EPW 6724   6.925   2.462   3.240
 1505WAT      O 6725   6.968   2.211   4.006
 1505WAT     H1 6726   7.021   2.191   3.940
 1505WAT     H2 6727   6.955   2.297   3.997
 1505WAT    EPW 6728   6.974   2.220   3.995
 1506WAT      O 6729   7.666   1.619   3.312
 1506WAT     H1 6730   7.629   1.610   3.233
 1506WAT     H2 6731   7.622   1.686   3.347
 1506WAT    EPW 6732   7.654   1.628   3.305
 1507WAT      O 6733   7.404   2.685   3.776
 1507WAT     H1 6734   7.420   2.761   3.815
 1507WAT     H2 6735   7.465   2.632   3.808
 1507WAT    EPW 6736   7.415   2.688   3.786
 1508WAT      O 6737   7.229   1.975   4.822
 1508WAT     H1 6738   7.187   1.913   4.866
 1508WAT     H2 6739   7.235   1.942   4.741
 1508WAT    EPW 6740   7.224   1.961   4.816
 1509WAT      O 6741   7.261   1.890   3.324
 1509WAT     H1 6742   7.242   1.830   3.385
 1509WAT     H2 6743   7.218   1.861   3.254
 1509WAT    EPW 6744   7.252   1.877   3.323
 1510WAT      O 6745   7.415   2.085   4.004
 1510WAT     H1 6746   7.382   2.058   3.928
 1510WAT     H2 6747   7.408   2.015   4.056
 1510WAT    EPW 6748   7.409   2.071   4.000
 1511WAT      O 6749   7.296   2.037   4.348
 1511WAT     H1 6750   7.319   1.984   4.283
 1511WAT     H2 6751   7.244   2.096   4.310
 1511WAT    EPW 6752   7.292   2.038   4.333
 1512WAT      O 6753   7.662   2.899   4.320
 1512WAT     H1 6754   7.645   2.846   4.253
 1512WAT     H2 6755   7.662   2.978   4.285
 1512WAT    EPW 6756   7.659   2.903   4.305
 1513WAT      O 6757   7.112   2.216   4.888
 1513WAT     H1 6758   7.096   2.261   4.815
 1513WAT     H2 6759   7.155   2.146   4.861
 1513WAT    EPW 6760   7.116   2.213   4.873
 1514WAT      O 6761   7.718   2.697   4.736
 1514WAT     H1 6762   7.759   2.707   4.813
 1514WAT     H2 6763   7.663   2.631   4.752
 1514WAT    EPW 6764   7.716   2.689   4.750
 1515WAT      O 6765   7.789   1.688   4.128
 1515WAT     H1 6766   7.811   1.772   4.138
 1515WAT     H2 6767   7.859   1.646   4.160
 1515WAT    EPW 6768   7.803   1.694   4.134
 1516WAT      O 6769   7.648   2.915   3.494
 1516WAT     H1 6770   7.619   2.834   3.502
 1516WAT     H2 6771   7.712   2.909   3.434
 1516WAT    EPW 6772   7.653   2.902   3.486
 1517WAT      O 6773   7.416   1.289   3.306
 1517WAT     H1 6774   7.467   1.325   3.367
 1517WAT     H2 6775   7.372   1.357   3.273
 1517WAT    EPW 6776   7.417   1.304   3.310
 1518WAT      O 6777   7.845   2.910   3.295
 1518WAT     H1 6778   7.927   2.938   3.308
 1518WAT     H2 6779   7.805   2.979   3.260
 1518WAT    EPW 6780   7.851   2.924   3.292
 1519WAT      O 6781   7.245   2.172   3.407
 1519WAT     H1 6782   7.258   2.087   3.392
 1519WAT     H2 6783   7.313   2.195   3.456
 1519WAT    EPW 6784   7.257   2.163   3.412
 1520WAT      O 6785   6.896   1.284   3.495
 1520WAT     H1 6786   6.890   1.232   3.424
 1520WAT     H2 6787   6.861   1.235   3.558
 1520WAT    EPW 6788   6.890   1.269   3.494
 1521WAT      O 6789   7.902   1.968   3.450
 1521WAT     H1 6790   7.989   1.972   3.458
 1521WAT     H2 6791   7.891   1.919   3.378
 1521WAT    EPW 6792   7.913   1.961   3.440
 1522WAT      O 6793   7.306   1.524   3.212
 1522WAT     H1 6794   7.242   1.517   3.153
 1522WAT     H2 6795   7.370   1.564   3.170
 1522WAT    EPW 6796   7.306   1.529   3.197
 1523WAT      O 6797   7.803   2.437   4.022
 1523WAT     H1 6798   7.731   2.389   4.029
 1523WAT     H2 6799   7.835   2.438   4.103
 1523WAT    EPW 6800   7.797   2.430   4.035
 1524WAT      O 6801   7.421   2.937   3.089
 1524WAT     H1 6802   7.441   2.865   3.134
 1524WAT     H2 6803   7.417   2.999   3.151
 1524WAT    EPW 6804   7.423   2.936   3.105
 1525WAT      O 6805   7.138   2.233   4.228
 1525WAT     H1 6806   7.191   2.299   4.206
 1525WAT     H2 6807   7.088   2.223   4.157
 1525WAT    EPW 6808   7.138   2.241   4.214
 1526WAT      O 6809   7.456   1.754   3.896
 1526WAT     H1 6810   7.528   1.709   3.879
 1526WAT     H2 6811   7.392   1.697   3.879
 1526WAT    EPW 6812   7.457   1.739   3.891
 1527WAT      O 6813   6.947   1.887   3.536
 1527WAT     H1 6814   6.979   1.850   3.608
 1527WAT     H2 6815   6.955   1.825   3.475
 1527WAT    EPW 6816   6.953   1.872   3.538
 1528WAT      O 6817   7.424   2.022   3.128
 1528WAT     H1 6818   7.378   1.983   3.191
 1528WAT     H2 6819   7.374   2.012   3.057
 1528WAT    EPW 6820   7.410   2.015   3.127
 1529WAT      O 6821   7.061   2.347   4.650
 1529WAT     H1 6822   7.028   2.298   4.586
 1529WAT     H2 6823   7.034   2.427   4.631
 1529WAT    EPW 6824   7.052   2.352   4.638
 1530WAT      O 6825   7.526   1.827   3.414
 1530WAT     H1 6826   7.562   1.904   3.435
 1530WAT     H2 6827   7.444   1.849   3.391
 1530WAT    EPW 6828   7.519   1.842   3.414
 1531WAT      O 6829   6.932   1.533   4.040
 1531WAT     H1 6830   6.914   1.558   3.958
 1531WAT     H2 6831   7.000   1.582   4.062
 1531WAT    EPW 6832   6.939   1.544   4.031
 1532WAT      O 6833   7.479   2.583   4.322
 1532WAT     H1 6834   7.485   2.638   4.390
 1532WAT     H2 6835   7.507   2.631   4.255
 1532WAT    EPW 6836   7.484   2.599   4.322
 1533WAT      O 6837   7.330   2.405   4.616
 1533WAT     H1 6838   7.249   2.376   4.630
 1533WAT     H2 6839   7.319   2.491   4.606
 1533WAT    EPW 6840   7.317   2.413   4.616
 1534WAT      O 6841   7.858   2.415   4.300
 1534WAT     H1 6842   7.874   2.451   4.378
 1534WAT     H2 6843   7.781   2.377   4.311
 1534WAT    EPW 6844   7.849   2.415   4.313
 1535WAT      O 6845   7.505   1.751   4.571
 1535WAT     H1 6846   7.522   1.676   4.612
 1535WAT     H2 6847   7.529   1.735   4.489
 1535WAT    EPW 6848   7.511   1.738   4.565
 1536WAT      O 6849   7.725   2.934   3.763
 1536WAT     H1 6850   7.733   3.020   3.774
 1536WAT     H2 6851   7.709   2.926   3.678
 1536WAT    EPW 6852   7.724   2.946   3.752
 1537WAT      O 6853   7.647   1.331   4.509
 1537WAT     H1 6854   7.675   1.322   4.427
 1537WAT     H2 6855   7.672   1.257   4.547
 1537WAT    EPW 6856   7.655   1.318   4.502
 1538WAT      O 6857   7.568   2.738   4.105
 1538WAT     H1 6858   7.523   2.799   4.060
 1538WAT     H2 6859   7.606   2.691   4.043
 1538WAT    EPW 6860   7.567   2.740   4.089
 1539WAT      O 6861   7.594   2.217   3.233
 1539WAT     H1 6862   7.543   2.161   3.190
 1539WAT     H2 6863   7.565   2.295   3.207
 1539WAT    EPW 6864   7.582   2.220   3.223
 1540WAT      O 6865   7.376   1.842   4.146
 1540WAT     H1 6866   7.398   1.812   4.067
 1540WAT     H2 6867   7.431   1.801   4.200
 1540WAT    EPW 6868   7.387   1.832   4.142
 1541WAT      O 6869   7.794   2.958   4.639
 1541WAT     H1 6870   7.863   2.941   4.588
 1541WAT     H2 6871   7.775   2.880   4.674
 1541WAT    EPW 6872   7.801   2.944   4.637
 1542WAT      O 6873   7.691   1.279   4.234
 1542WAT     H1 6874   7.607   1.273   4.212
 1542WAT     H2 6875   7.732   1.286   4.157
 1542WAT    EPW 6876   7.685   1.280   4.219
 1543WAT      O 6877   7.837   2.492   4.576
 1543WAT     H1 6878   7.790   2.428   4.612
 1543WAT     H2 6879   7.817   2.562   4.625
 1543WAT    EPW 6880   7.827   2.493   4.589
 1544WAT      O 6881   6.866   1.425   4.794
 1544WAT     H1 6882   6.864   1.495   4.743
 1544WAT     H2 6883   6.782   1.404   4.802
 1544WAT    EPW 6884   6.853   1.432   4.788
 1545WAT      O 6885   7.387   3.059   4.191
 1545WAT     H1 6886   7.367   3.049   4.275
 1545WAT     H2 6887   7.351   2.989   4.153
 1545WAT    EPW 6888   7.379   3.047   4.198
 1546WAT      O 6889   7.226   1.644   3.457
 1546WAT     H1 6890   7.238   1.604   3.380
 1546WAT     H2 6891   7.148   1.616   3.482
 1546WAT    EPW 6892   7.216   1.634   3.449
 1547WAT      O 6893   7.030   3.017   4.724
 1547WAT     H1 6894   6.965   2.959   4.718
 1547WAT     H2 6895   6.992   3.087   4.759
 1547WAT    EPW 6896   7.015   3.019   4.728
 1548WAT      O 6897   7.250   1.864   4.563
 1548WAT     H1 6898   7.262   1.924   4.501
 1548WAT     H2 6899   7.328   1.824   4.568
 1548WAT    EPW 6900   7.264   1.867   4.554
 1549WAT      O 6901   7.052   1.713   4.441
 1549WAT     H1 6902   7.070   1.715   4.356
 1549WAT     H2 6903   7.118   1.756   4.478
 1549WAT    EPW 6904   7.064   1.720   4.434
 1550WAT      O 6905   7.303   1.400   4.721
 1550WAT     H1 6906   7.328   1.316   4.715
 1550WAT     H2 6907   7.261   1.414   4.646
 1550WAT    EPW 6908   7.300   1.389   4.709
 1551WAT      O 6909   6.952   2.210   4.436
 1551WAT     H1 6910   7.007   2.224   4.369
 1551WAT     H2 6911   6.934   2.125   4.430
 1551WAT    EPW 6912   6.957   2.199   4.425
 1552WAT      O 6913   7.122   1.781   3.101
 1552WAT     H1 6914   7.050   1.778   3.150
 1552WAT     H2 6915   7.124   1.702   3.064
 1552WAT    EPW 6916   7.111   1.769   3.103
 1553WAT      O 6917   7.442   2.705   3.251
 1553WAT     H1 6918   7.481   2.696   3.329
 1553WAT     H2 6919   7.358   2.687   3.267
 1553WAT    EPW 6920   7.435   2.701   3.265
 1554WAT      O 6921   7.468   2.174   4.525
 1554WAT     H1 6922   7.421   2.241   4.557
 1554WAT     H2 6923   7.413   2.134   4.471
 1554WAT    EPW 6924   7.453   2.178   4.522
 1555WAT      O 6925   7.193   2.610   3.316
 1555WAT     H1 6926   7.197   2.589   3.401
 1555WAT     H2 6927   7.191   2.533   3.276
 1555WAT    EPW 6928   7.193   2.596   3.322
 1556WAT      O 6929   7.464   2.448   3.137
 1556WAT     H1 6930   7.382   2.421   3.150
 1556WAT     H2 6931   7.464   2.528   3.170
 1556WAT    EPW 6932   7.452   2.456   3.144
 1557WAT      O 6933   7.431   1.478   4.388
 1557WAT     H1 6934   7.347   1.467   4.408
 1557WAT     H2 6935   7.471   1.411   4.426
 1557WAT    EPW 6936   7.424   1.467   4.396
 1558WAT      O 6937   7.618   1.982   4.679
 1558WAT     H1 6938   7.585   1.911   4.640
 1558WAT     H2 6939   7.578   2.048   4.638
 1558WAT    EPW 6940   7.607   1.981   4.667
 1559WAT      O 6941   7.691   1.255   3.226
 1559WAT     H1 6942   7.713   1.277   3.145
 1559WAT     H2 6943   7.604   1.255   3.225
 1559WAT    EPW 6944   7.681   1.258   3.214
 1560WAT      O 6945   7.434   2.982   4.706
 1560WAT     H1 6946   7.452   2.971   4.791
 1560WAT     H2 6947   7.472   2.913   4.668
 1560WAT    EPW 6948   7.443   2.970   4.713
 1561WAT      O 6949   7.170   1.463   4.487
 1561WAT     H1 6950   7.118   1.399   4.459
 1561WAT     H2 6951   7.125   1.535   4.469
 1561WAT    EPW 6952   7.156   1.464   4.480
 1562WAT      O 6953   7.196   2.829   4.850
 1562WAT     H1 6954   7.263   2.869   4.888
 1562WAT     H2 6955   7.152   2.894   4.813
 1562WAT    EPW 6956   7.199   2.844   4.850
 1563WAT      O 6957   7.063   1.817   3.784
 1563WAT     H1 6958   7.018   1.839   3.856
 1563WAT     H2 6959   7.098   1.740   3.806
 1563WAT    EPW 6960   7.062   1.809   3.798
 1564WAT      O 6961   7.011   2.607   4.555
 1564WAT     H1 6962   6.962   2.667   4.595
 1564WAT     H2 6963   7.092   2.638   4.564
 1564WAT    EPW 6964   7.016   2.621   4.562
 1565WAT      O 6965   7.334   2.945   3.489
 1565WAT     H1 6966   7.332   3.002   3.424
 1565WAT     H2 6967   7.417   2.917   3.489
 1565WAT    EPW 6968   7.346   2.949   3.480
 1566WAT      O 6969   7.646   2.073   3.463
 1566WAT     H1 6970   7.642   2.119   3.389
 1566WAT     H2 6971   7.729   2.047   3.466
 1566WAT    EPW 6972   7.658   2.076   3.453
 1567WAT      O 6973   7.557   1.503   4.708
 1567WAT     H1 6974   7.591   1.461   4.640
 1567WAT     H2 6975   7.475   1.474   4.712
 1567WAT    EPW 6976   7.550   1.493   4.699
 1568WAT      O 6977   7.225   2.849   4.094
 1568WAT     H1 6978   7.216   2.773   4.053
 1568WAT     H2 6979   7.190   2.906   4.039
 1568WAT    EPW 6980   7.218   2.846   4.080
 1569WAT      O 6981   6.989   3.095   4.459
 1569WAT     H1 6982   7.005   3.067   4.540
 1569WAT     H2 6983   7.009   3.027   4.408
 1569WAT    EPW 6984   6.994   3.081   4.463
 1570WAT      O 6985   6.939   2.408   1.709
 1570WAT     H1 6986   6.867   2.404   1.759
 1570WAT     H2 6987   6.950   2.326   1.683
 1570WAT    EPW 6988   6.930   2.396   1.713
 1571WAT      O 6989   6.921   1.746   1.372
 1571WAT     H1 6990   6.856   1.795   1.342
 1571WAT     H2 6991   6.892   1.664   1.362
 1571WAT    EPW 6992   6.907   1.741   1.366
 1572WAT      O 6993   7.214   2.364   1.319
 1572WAT     H1 6994   7.188   2.318   1.249
 1572WAT     H2 6995   7.231   2.303   1.379
 1572WAT    EPW 6996   7.213   2.348   1.317
 1573WAT      O 6997   7.195   2.520   1.694
 1573WAT     H1 6998   7.249   2.486   1.754
 1573WAT     H2 6999   7.119   2.480   1.709
 1573WAT    EPW 7000   7.192   2.509   1.705
 1574WAT      O 7001   7.621   1.399   1.579
 1574WAT     H1 7002   7.641   1.470   1.533
 1574WAT     H2 7003   7.675   1.338   1.548
 1574WAT    EPW 7004   7.632   1.401   1.568
 1575WAT      O 7005   7.053   2.799   1.287
 1575WAT     H1 7006   7.106   2.811   1.219
 1575WAT     H2 7007   7.099   2.745   1.339
 1575WAT    EPW 7008   7.068   2.793   1.285
 1576WAT      O 7009   6.982   2.636   2.419
 1576WAT     H1 7010   7.010   2.614   2.499
 1576WAT     H2 7011   6.905   2.595   2.413
 1576WAT    EPW 7012   6.975   2.626   2.430
 1577WAT      O 7013   7.577   2.467   2.878
 1577WAT     H1 7014   7.551   2.456   2.961
 1577WAT     H2 7015   7.510   2.437   2.831
 1577WAT    EPW 7016   7.563   2.461   2.884
 1578WAT      O 7017   7.147   2.183   1.886
 1578WAT     H1 7018   7.101   2.177   1.812
 1578WAT     H2 7019   7.203   2.116   1.880
 1578WAT    EPW 7020   7.149   2.172   1.874
 1579WAT      O 7021   7.562   1.702   2.402
 1579WAT     H1 7022   7.631   1.682   2.353
 1579WAT     H2 7023   7.523   1.625   2.415
 1579WAT    EPW 7024   7.566   1.687   2.397
 1580WAT      O 7025   7.531   2.778   2.638
 1580WAT     H1 7026   7.573   2.817   2.573
 1580WAT     H2 7027   7.595   2.744   2.687
 1580WAT    EPW 7028   7.546   2.779   2.636
 1581WAT      O 7029   7.312   1.961   1.872
 1581WAT     H1 7030   7.375   1.902   1.889
 1581WAT     H2 7031   7.239   1.913   1.871
 1581WAT    EPW 7032   7.311   1.945   1.874
 1582WAT      O 7033   7.695   2.618   1.962
 1582WAT     H1 7034   7.740   2.563   2.012
 1582WAT     H2 7035   7.746   2.688   1.956
 1582WAT    EPW 7036   7.709   2.620   1.969
 1583WAT      O 7037   7.670   2.478   1.715
 1583WAT     H1 7038   7.678   2.510   1.796
 1583WAT     H2 7039   7.747   2.439   1.700
 1583WAT    EPW 7040   7.683   2.477   1.725
 1584WAT      O 7041   7.386   1.490   1.738
 1584WAT     H1 7042   7.342   1.542   1.683
 1584WAT     H2 7043   7.462   1.477   1.697
 1584WAT    EPW 7044   7.391   1.496   1.724
 1585WAT      O 7045   7.716   1.374   1.847
 1585WAT     H1 7046   7.711   1.450   1.890
 1585WAT     H2 7047   7.688   1.394   1.766
 1585WAT    EPW 7048   7.711   1.388   1.841
 1586WAT      O 7049   6.961   1.920   2.125
 1586WAT     H1 7050   6.959   2.007   2.131
 1586WAT     H2 7051   6.891   1.895   2.171
 1586WAT    EPW 7052   6.950   1.930   2.133
 1587WAT      O 7053   6.955   2.847   1.939
 1587WAT     H1 7054   6.894   2.896   1.900
 1587WAT     H2 7055   7.002   2.816   1.873
 1587WAT    EPW 7056   6.953   2.849   1.924
 1588WAT      O 7057   7.541   2.713   1.629
 1588WAT     H1 7058   7.490   2.710   1.700
 1588WAT     H2 7059   7.590   2.641   1.637
 1588WAT    EPW 7060   7.541   2.702   1.641
 1589WAT      O 7061   7.267   1.436   2.176
 1589WAT     H1 7062   7.213   1.374   2.148
 1589WAT     H2 7063   7.324   1.392   2.226
 1589WAT    EPW 7064   7.268   1.421   2.180
 1590WAT      O 7065   7.529   1.629   3.067
 1590WAT     H1 7066   7.547   1.589   2.992
 1590WAT     H2 7067   7.560   1.709   3.056
 1590WAT    EPW 7068   7.536   1.635   3.054
 1591WAT      O 7069   7.112   2.785   1.713
 1591WAT     H1 7070   7.156   2.711   1.727
 1591WAT     H2 7071   7.170   2.836   1.671
 1591WAT    EPW 7072   7.127   2.782   1.709
 1592WAT      O 7073   7.122   1.513   3.003
 1592WAT     H1 7074   7.044   1.482   2.980
 1592WAT     H2 7075   7.176   1.476   2.945
 1592WAT    EPW 7076   7.118   1.503   2.991
 1593WAT      O 7077   7.204   2.619   2.068
 1593WAT     H1 7078   7.256   2.621   1.998
 1593WAT     H2 7079   7.241   2.559   2.120
 1593WAT    EPW 7080   7.217   2.611   2.066
 1594WAT      O 7081   7.499   2.910   1.998
 1594WAT     H1 7082   7.579   2.925   1.965
 1594WAT     H2 7083   7.449   2.968   1.957
 1594WAT    EPW 7084   7.504   2.920   1.987
 1595WAT      O 7085   7.723   1.309   2.955
 1595WAT     H1 7086   7.744   1.253   2.892
 1595WAT     H2 7087   7.679   1.372   2.914
 1595WAT    EPW 7088   7.720   1.310   2.940
 1596WAT      O 7089   7.333   3.031   2.543
 1596WAT     H1 7090   7.358   3.014   2.625
 1596WAT     H2 7091   7.268   2.976   2.529
 1596WAT    EPW 7092   7.327   3.021   2.553
 1597WAT      O 7093   6.856   1.641   2.738
 1597WAT     H1 7094   6.841   1.719   2.773
 1597WAT     H2 7095   6.916   1.657   2.676
 1597WAT    EPW 7096   6.862   1.655   2.734
 1598WAT      O 7097   7.878   2.743   1.196
 1598WAT     H1 7098   7.877   2.800   1.262
 1598WAT     H2 7099   7.943   2.689   1.216
 1598WAT    EPW 7100   7.887   2.743   1.209
 1599WAT      O 7101   6.989   1.559   1.653
 1599WAT     H1 7102   6.966   1.477   1.635
 1599WAT     H2 7103   6.940   1.579   1.722
 1599WAT    EPW 7104   6.978   1.550   1.661
 1600WAT      O 7105   7.118   2.879   2.439
 1600WAT     H1 7106   7.071   2.806   2.442
 1600WAT     H2 7107   7.158   2.876   2.362
 1600WAT    EPW 7108   7.117   2.868   2.428
 1601WAT      O 7109   7.866   1.808   1.343
 1601WAT     H1 7110   7.823   1.737   1.368
 1601WAT     H2 7111   7.816   1.842   1.280
 1601WAT    EPW 7112   7.852   1.803   1.338
 1602WAT      O 7113   7.711   1.631   1.971
 1602WAT     H1 7114   7.764   1.682   1.925
 1602WAT     H2 7115   7.738   1.642   2.054
 1602WAT    EPW 7116   7.723   1.640   1.977
 1603WAT      O 7117   7.293   2.680   2.757
 1603WAT     H1 7118   7.358   2.725   2.720
 1603WAT     H2 7119   7.271   2.730   2.825
 1603WAT    EPW 7120   7.299   2.694   2.762
 1604WAT      O 7121   7.338   1.238   1.846
 1604WAT     H1 7122   7.354   1.319   1.819
 1604WAT     H2 7123   7.334   1.192   1.772
 1604WAT    EPW 7124   7.340   1.243   1.831
 1605WAT      O 7125   7.557   2.317   2.165
 1605WAT     H1 7126   7.568   2.305   2.250
 1605WAT     H2 7127   7.517   2.244   2.138
 1605WAT    EPW 7128   7.552   2.305   2.173
 1606WAT      O 7129   7.594   2.328   2.437
 1606WAT     H1 7130   7.555   2.405   2.451
 1606WAT     H2 7131   7.564   2.278   2.501
 1606WAT    EPW 7132   7.584   2.332   2.448
 1607WAT      O 7133   6.838   2.659   3.032
 1607WAT     H1 7134   6.894   2.708   3.077
 1607WAT     H2 7135   6.847   2.580   3.067
 1607WAT    EPW 7136   6.847   2.655   3.044
 1608WAT      O 7137   7.244   1.602   1.958
 1608WAT     H1 7138   7.277   1.553   1.894
 1608WAT     H2 7139   7.248   1.550   2.028
 1608WAT    EPW 7140   7.249   1.587   1.959
 1609WAT      O 7141   7.342   2.385   1.887
 1609WAT     H1 7142   7.393   2.339   1.834
 1609WAT     H2 7143   7.277   2.330   1.907
 1609WAT    EPW 7144   7.340   2.370   1.882
 1610WAT      O 7145   7.131   3.040   2.016
 1610WAT     H1 7146   7.068   2.985   1.988
 1610WAT     H2 7147   7.186   3.043   1.949
 1610WAT    EPW 7148   7.130   3.032   2.002
 1611WAT      O 7149   7.118   1.746   2.277
 1611WAT     H1 7150   7.202   1.767   2.262
 1611WAT     H2 7151   7.074   1.807   2.233
 1611WAT    EPW 7152   7.124   1.758   2.268
 1612WAT      O 7153   7.482   2.264   1.680
 1612WAT     H1 7154   7.536   2.332   1.676
 1612WAT     H2 7155   7.534   2.196   1.667
 1612WAT    EPW 7156   7.497   2.264   1.677
 1613WAT      O 7157   6.957   2.485   2.074
 1613WAT     H1 7158   6.902   2.547   2.102
 1613WAT     H2 7159   7.033   2.528   2.065
 1613WAT    EPW 7160   6.960   2.501   2.077
 1614WAT      O 7161   7.646   1.880   3.043
 1614WAT     H1 7162   7.583   1.929   3.078
 1614WAT     H2 7163   7.655   1.912   2.962
 1614WAT    EPW 7164   7.638   1.892   3.036
 1615WAT      O 7165   7.019   2.151   1.640
 1615WAT     H1 7166   7.000   2.066   1.635
 1615WAT     H2 7167   7.093   2.159   1.595
 1615WAT    EPW 7168   7.027   2.140   1.633
 1616WAT      O 7169   6.927   2.639   1.561
 1616WAT     H1 7170   6.984   2.691   1.602
 1616WAT     H2 7171   6.921   2.569   1.614
 1616WAT    EPW 7172   6.935   2.636   1.575
 1617WAT      O 7173   7.316   2.437   2.244
 1617WAT     H1 7174   7.350   2.483   2.310
 1617WAT     H2 7175   7.385   2.401   2.206
 1617WAT    EPW 7176   7.331   2.439   2.248
 1618WAT      O 7177   6.934   2.455   1.343
 1618WAT     H1 7178   7.013   2.418   1.340
 1618WAT     H2 7179   6.942   2.515   1.406
 1618WAT    EPW 7180   6.947   2.459   1.352
 1619WAT      O 7181   6.985   2.214   2.105
 1619WAT     H1 7182   7.037   2.199   2.037
 1619WAT     H2 7183   6.975   2.301   2.105
 1619WAT    EPW 7184   6.991   2.225   2.095
 1620WAT      O 7185   7.679   1.611   1.417
 1620WAT     H1 7186   7.646   1.604   1.337
 1620WAT     H2 7187   7.636   1.679   1.451
 1620WAT    EPW 7188   7.668   1.620   1.410
 1621WAT      O 7189   7.405   2.684   1.870
 1621WAT     H1 7190   7.433   2.753   1.916
 1621WAT     H2 7191   7.452   2.618   1.901
 1621WAT    EPW 7192   7.416   2.684   1.881
 1622WAT      O 7193   7.234   1.968   2.928
 1622WAT     H1 7194   7.192   1.905   2.971
 1622WAT     H2 7195   7.239   1.937   2.846
 1622WAT    EPW 7196   7.228   1.954   2.922
 1623WAT      O 7197   7.275   1.892   1.434
 1623WAT     H1 7198   7.254   1.833   1.495
 1623WAT     H2 7199   7.234   1.864   1.363
 1623WAT    EPW 7200   7.266   1.879   1.433
 1624WAT      O 7201   7.412   2.091   2.105
 1624WAT     H1 7202   7.382   2.060   2.028
 1624WAT     H2 7203   7.407   2.021   2.158
 1624WAT    EPW 7204   7.407   2.076   2.101
 1625WAT      O 7205   7.304   2.037   2.455
 1625WAT     H1 7206   7.328   1.986   2.390
 1625WAT     H2 7207   7.251   2.096   2.418
 1625WAT    EPW 7208   7.300   2.038   2.440
 1626WAT      O 7209   7.670   2.873   2.419
 1626WAT     H1 7210   7.653   2.820   2.351
 1626WAT     H2 7211   7.667   2.953   2.384
 1626WAT    EPW 7212   7.667   2.877   2.404
 1627WAT      O 7213   7.104   2.202   2.996
 1627WAT     H1 7214   7.094   2.247   2.922
 1627WAT     H2 7215   7.150   2.132   2.972
 1627WAT    EPW 7216   7.109   2.198   2.982
 1628WAT      O 7217   7.716   2.702   2.840
 1628WAT     H1 7218   7.760   2.715   2.914
 1628WAT     H2 7219   7.667   2.632   2.857
 1628WAT    EPW 7220   7.715   2.693   2.854
 1629WAT      O 7221   7.796   1.687   2.236
 1629WAT     H1 7222   7.821   1.770   2.248
 1629WAT     H2 7223   7.864   1.642   2.267
 1629WAT    EPW 7224   7.810   1.693   2.243
 1630WAT      O 7225   7.698   2.947   1.610
 1630WAT     H1 7226   7.653   2.873   1.611
 1630WAT     H2 7227   7.760   2.933   1.550
 1630WAT    EPW 7228   7.700   2.934   1.601
 1631WAT      O 7229   7.428   1.288   1.406
 1631WAT     H1 7230   7.478   1.320   1.470
 1631WAT     H2 7231   7.386   1.359   1.376
 1631WAT    EPW 7232   7.429   1.303   1.411
 1632WAT      O 7233   7.884   2.931   1.402
 1632WAT     H1 7234   7.965   2.964   1.408
 1632WAT     H2 7235   7.838   2.996   1.366
 1632WAT    EPW 7236   7.889   2.945   1.398
 1633WAT      O 7237   7.264   2.173   1.514
 1633WAT     H1 7238   7.279   2.088   1.499
 1633WAT     H2 7239   7.331   2.196   1.565
 1633WAT    EPW 7240   7.276   2.164   1.520
 1634WAT      O 7241   6.905   1.293   1.594
 1634WAT     H1 7242   6.902   1.244   1.522
 1634WAT     H2 7243   6.874   1.241   1.657
 1634WAT    EPW 7244   6.900   1.278   1.593
 1635WAT      O 7245   7.907   1.957   1.572
 1635WAT     H1 7246   7.994   1.964   1.582
 1635WAT     H2 7247   7.898   1.911   1.499
 1635WAT    EPW 7248   7.919   1.952   1.563
 1636WAT      O 7249   7.327   1.530   1.321
 1636WAT     H1 7250   7.265   1.523   1.259
 1636WAT     H2 7251   7.393   1.570   1.279
 1636WAT    EPW 7252   7.328   1.535   1.305
 1637WAT      O 7253   7.808   2.434   2.130
 1637WAT     H1 7254   7.735   2.387   2.135
 1637WAT     H2 7255   7.838   2.436   2.212
 1637WAT    EPW 7256   7.802   2.427   2.143
 1638WAT      O 7257   7.435   2.938   1.192
 1638WAT     H1 7258   7.457   2.866   1.235
 1638WAT     H2 7259   7.431   2.999   1.255
 1638WAT    EPW 7260   7.438   2.937   1.208
 1639WAT      O 7261   7.146   2.232   2.333
 1639WAT     H1 7262   7.197   2.300   2.312
 1639WAT     H2 7263   7.097   2.220   2.262
 1639WAT    EPW 7264   7.146   2.240   2.320
 1640WAT      O 7265   7.463   1.760   1.998
 1640WAT     H1 7266   7.536   1.715   1.983
 1640WAT     H2 7267   7.400   1.702   1.983
 1640WAT    EPW 7268   7.464   1.745   1.994
 1641WAT      O 7269   6.969   1.875   1.634
 1641WAT     H1 7270   6.998   1.843   1.709
 1641WAT     H2 7271   6.974   1.808   1.579
 1641WAT    EPW 7272   6.974   1.861   1.637
 1642WAT      O 7273   7.444   2.026   1.245
 1642WAT     H1 7274   7.399   1.986   1.307
 1642WAT     H2 7275   7.393   2.021   1.175
 1642WAT    EPW 7276   7.430   2.020   1.244
 1643WAT      O 7277   7.079   2.334   2.758
 1643WAT     H1 7278   7.043   2.288   2.693
 1643WAT     H2 7279   7.052   2.416   2.742
 1643WAT    EPW 7280   7.070   2.340   2.746
 1644WAT      O 7281   7.540   1.823   1.516
 1644WAT     H1 7282   7.574   1.898   1.543
 1644WAT     H2 7283   7.457   1.843   1.498
 1644WAT    EPW 7284   7.533   1.837   1.518
 1645WAT      O 7285   6.911   1.559   2.138
 1645WAT     H1 7286   6.900   1.576   2.053
 1645WAT     H2 7287   6.989   1.592   2.156
 1645WAT    EPW 7288   6.921   1.566   2.128
 1646WAT      O 7289   7.473   2.583   2.428
 1646WAT     H1 7290   7.478   2.639   2.495
 1646WAT     H2 7291   7.502   2.629   2.360
 1646WAT    EPW 7292   7.478   2.598   2.428
 1647WAT      O 7293   7.345   2.403   2.730
 1647WAT     H1 7294   7.265   2.372   2.741
 1647WAT     H2 7295   7.334   2.490   2.731
 1647WAT    EPW 7296   7.332   2.412   2.732
 1648WAT      O 7297   7.855   2.417   2.410
 1648WAT     H1 7298   7.871   2.450   2.489
 1648WAT     H2 7299   7.777   2.379   2.419
 1648WAT    EPW 7300   7.846   2.416   2.423
 1649WAT      O 7301   7.509   1.750   2.674
 1649WAT     H1 7302   7.527   1.675   2.715
 1649WAT     H2 7303   7.534   1.734   2.592
 1649WAT    EPW 7304   7.516   1.736   2.668
 1650WAT      O 7305   7.747   2.950   1.885
 1650WAT     H1 7306   7.749   3.036   1.899
 1650WAT     H2 7307   7.742   2.943   1.798
 1650WAT    EPW 7308   7.747   2.962   1.874
 1651WAT      O 7309   7.648   1.333   2.608
 1651WAT     H1 7310   7.676   1.324   2.526
 1651WAT     H2 7311   7.673   1.259   2.647
 1651WAT    EPW 7312   7.656   1.321   2.602
 1652WAT      O 7313   7.566   2.723   2.203
 1652WAT     H1 7314   7.527   2.786   2.157
 1652WAT     H2 7315   7.607   2.676   2.141
 1652WAT    EPW 7316   7.567   2.726   2.187
 1653WAT      O 7317   7.613   2.220   1.355
 1653WAT     H1 7318   7.563   2.164   1.311
 1653WAT     H2 7319   7.585   2.298   1.329
 1653WAT    EPW 7320   7.601   2.223   1.345
 1654WAT      O 7321   7.385   1.847   2.249
 1654WAT     H1 7322   7.407   1.818   2.170
 1654WAT     H2 7323   7.438   1.805   2.303
 1654WAT    EPW 7324   7.396   1.837   2.246
 1655WAT      O 7325   7.773   2.964   2.736
 1655WAT     H1 7326   7.842   2.948   2.685
 1655WAT     H2 7327   7.757   2.887   2.774
 1655WAT    EPW 7328   7.781   2.950   2.734
 1656WAT      O 7329   7.689   1.279   2.334
 1656WAT     H1 7330   7.604   1.270   2.314
 1656WAT     H2 7331   7.727   1.285   2.256
 1656WAT    EPW 7332   7.682   1.278   2.319
 1657WAT      O 7333   7.837   2.491   2.687
 1657WAT     H1 7334   7.787   2.432   2.728
 1657WAT     H2 7335   7.820   2.565   2.730
 1657WAT    EPW 7336   7.827   2.493   2.700
 1658WAT      O 7337   6.861   1.419   2.911
 1658WAT     H1 7338   6.860   1.490   2.860
 1658WAT     H2 7339   6.777   1.394   2.912
 1658WAT    EPW 7340   6.848   1.426   2.904
 1659WAT      O 7341   7.378   3.101   2.277
 1659WAT     H1 7342   7.363   3.091   2.362
 1659WAT     H2 7343   7.353   3.024   2.243
 1659WAT    EPW 7344   7.372   3.088   2.285
 1660WAT      O 7345   7.237   1.646   1.564
 1660WAT     H1 7346   7.252   1.607   1.487
 1660WAT     H2 7347   7.157   1.618   1.586
 1660WAT    EPW 7348   7.227   1.636   1.556
 1661WAT      O 7349   7.016   3.016   2.825
 1661WAT     H1 7350   6.957   2.952   2.813
 1661WAT     H2 7351   6.969   3.080   2.863
 1661WAT    EPW 7352   7.000   3.016   2.829
 1662WAT      O 7353   7.255   1.862   2.667
 1662WAT     H1 7354   7.266   1.923   2.606
 1662WAT     H2 7355   7.333   1.823   2.672
 1662WAT    EPW 7356   7.268   1.865   2.659
 1663WAT      O 7357   7.061   1.706   2.545
 1663WAT     H1 7358   7.080   1.710   2.460
 1663WAT     H2 7359   7.126   1.752   2.583
 1663WAT    EPW 7360   7.073   1.713   2.538
 1664WAT      O 7361   7.308   1.397   2.829
 1664WAT     H1 7362   7.334   1.314   2.822
 1664WAT     H2 7363   7.267   1.412   2.753
 1664WAT    EPW 7364   7.306   1.387   2.816
 1665WAT      O 7365   6.963   2.205   2.544
 1665WAT     H1 7366   7.015   2.222   2.476
 1665WAT     H2 7367   6.943   2.121   2.534
 1665WAT    EPW 7368   6.967   2.195   2.532
 1666WAT      O 7369   7.139   1.786   1.209
 1666WAT     H1 7370   7.066   1.777   1.257
 1666WAT     H2 7371   7.147   1.708   1.170
 1666WAT    EPW 7372   7.129   1.773   1.210
 1667WAT      O 7373   7.460   2.712   1.360
 1667WAT     H1 7374   7.502   2.707   1.436
 1667WAT     H2 7375   7.378   2.691   1.380
 1667WAT    EPW 7376   7.454   2.708   1.374
 1668WAT      O 7377   7.477   2.172   2.633
 1668WAT     H1 7378   7.431   2.238   2.667
 1668WAT     H2 7379   7.421   2.132   2.580
 1668WAT    EPW 7380   7.462   2.176   2.630
 1669WAT      O 7381   7.214   2.616   1.430
 1669WAT     H1 7382   7.209   2.593   1.515
 1669WAT     H2 7383   7.212   2.539   1.389
 1669WAT    EPW 7384   7.213   2.601   1.437
 1670WAT      O 7385   7.483   2.450   1.259
 1670WAT     H1 7386   7.401   2.423   1.271
 1670WAT     H2 7387   7.482   2.533   1.289
 1670WAT    EPW 7388   7.471   2.458   1.265
 1671WAT      O 7389   7.433   1.475   2.483
 1671WAT     H1 7390   7.351   1.464   2.508
 1671WAT     H2 7391   7.477   1.412   2.525
 1671WAT    EPW 7392   7.428   1.464   2.493
 1672WAT      O 7393   7.626   1.978   2.783
 1672WAT     H1 7394   7.592   1.908   2.744
 1672WAT     H2 7395   7.586   2.045   2.743
 1672WAT    EPW 7396   7.615   1.978   2.771
 1673WAT      O 7397   7.700   1.264   1.315
 1673WAT     H1 7398   7.719   1.286   1.233
 1673WAT     H2 7399   7.613   1.267   1.318
 1673WAT    EPW 7400   7.690   1.267   1.303
 1674WAT      O 7401   7.437   2.990   2.808
 1674WAT     H1 7402   7.451   2.974   2.893
 1674WAT     H2 7403   7.487   2.931   2.767
 1674WAT    EPW 7404   7.447   2.979   2.814
 1675WAT      O 7405   7.178   1.460   2.594
 1675WAT     H1 7406   7.123   1.397   2.571
 1675WAT     H2 7407   7.135   1.534   2.576
 1675WAT    EPW 7408   7.164   1.462   2.588
 1676WAT      O 7409   7.191   2.844   2.962
 1676WAT     H1 7410   7.259   2.885   2.997
 1676WAT     H2 7411   7.148   2.906   2.919
 1676WAT    EPW 7412   7.194   2.859   2.961
 1677WAT      O 7413   7.077   1.817   1.887
 1677WAT     H1 7414   7.033   1.842   1.958
 1677WAT     H2 7415   7.112   1.741   1.910
 1677WAT    EPW 7416   7.076   1.809   1.901
 1678WAT      O 7417   7.039   2.599   2.685
 1678WAT     H1 7418   6.983   2.659   2.714
 1678WAT     H2 7419   7.117   2.633   2.705
 1678WAT    EPW 7420   7.042   2.613   2.693
 1679WAT      O 7421   7.327   2.926   1.584
 1679WAT     H1 7422   7.341   2.985   1.522
 1679WAT     H2 7423   7.392   2.868   1.573
 1679WAT    EPW 7424   7.339   2.926   1.574
 1680WAT      O 7425   7.653   2.068   1.583
 1680WAT     H1 7426   7.653   2.116   1.509
 1680WAT     H2 7427   7.736   2.040   1.588
 1680WAT    EPW 7428   7.665   2.071   1.573
 1681WAT      O 7429   7.561   1.503   2.811
 1681WAT     H1 7430   7.594   1.461   2.742
 1681WAT     H2 7431   7.480   1.472   2.816
 1681WAT    EPW 7432   7.554   1.492   2.802
 1682WAT      O 7433   7.242   2.865   2.194
 1682WAT     H1 7434   7.233   2.785   2.159
 1682WAT     H2 7435   7.203   2.917   2.136
 1682WAT    EPW 7436   7.235   2.861   2.180
 1683WAT      O 7437   7.003   3.102   2.562
 1683WAT     H1 7438   7.011   3.073   2.644
 1683WAT     H2 7439   7.031   3.036   2.513
 1683WAT    EPW 7440   7.008   3.088   2.567
 1684WAT      O 7441   6.965   2.642   0.525
 1684WAT     H1 7442   6.986   2.628   0.608
 1684WAT     H2 7443   6.908   2.579   0.507
 1684WAT    EPW 7444   6.960   2.631   0.535
 1685WAT      O 7445   7.588   2.485   1.002
 1685WAT     H1 7446   7.564   2.467   1.084
 1685WAT     H2 7447   7.521   2.458   0.954
 1685WAT    EPW 7448   7.575   2.479   1.007
 1686WAT      O 7449   7.537   1.762   0.495
 1686WAT     H1 7450   7.620   1.755   0.471
 1686WAT     H2 7451   7.509   1.679   0.498
 1686WAT    EPW 7452   7.545   1.749   0.492
 1687WAT      O 7453   7.549   2.742   0.741
 1687WAT     H1 7454   7.588   2.794   0.682
 1687WAT     H2 7455   7.611   2.730   0.801
 1687WAT    EPW 7456   7.564   2.748   0.741
 1688WAT      O 7457   6.935   1.980   0.332
 1688WAT     H1 7458   6.889   2.054   0.336
 1688WAT     H2 7459   6.877   1.918   0.356
 1688WAT    EPW 7460   6.919   1.982   0.336
 1689WAT      O 7461   7.201   1.370   0.377
 1689WAT     H1 7462   7.234   1.450   0.367
 1689WAT     H2 7463   7.272   1.318   0.377
 1689WAT    EPW 7464   7.216   1.374   0.376
 1690WAT      O 7465   7.548   1.633   1.169
 1690WAT     H1 7466   7.563   1.599   1.090
 1690WAT     H2 7467   7.580   1.714   1.163
 1690WAT    EPW 7468   7.555   1.640   1.157
 1691WAT      O 7469   7.152   1.522   1.107
 1691WAT     H1 7470   7.076   1.484   1.088
 1691WAT     H2 7471   7.207   1.489   1.047
 1691WAT    EPW 7472   7.149   1.511   1.095
 1692WAT      O 7473   7.729   1.324   1.043
 1692WAT     H1 7474   7.746   1.269   0.977
 1692WAT     H2 7475   7.692   1.392   1.004
 1692WAT    EPW 7476   7.726   1.326   1.028
 1693WAT      O 7477   7.357   2.987   0.643
 1693WAT     H1 7478   7.370   2.980   0.729
 1693WAT     H2 7479   7.288   2.936   0.629
 1693WAT    EPW 7480   7.349   2.979   0.654
 1694WAT      O 7481   6.892   1.645   0.863
 1694WAT     H1 7482   6.876   1.720   0.904
 1694WAT     H2 7483   6.950   1.666   0.802
 1694WAT    EPW 7484   6.898   1.659   0.860
 1695WAT      O 7485   7.149   2.851   0.509
 1695WAT     H1 7486   7.092   2.786   0.516
 1695WAT     H2 7487   7.192   2.833   0.435
 1695WAT    EPW 7488   7.147   2.839   0.499
 1696WAT      O 7489   7.295   2.693   0.842
 1696WAT     H1 7490   7.370   2.726   0.813
 1696WAT     H2 7491   7.280   2.739   0.915
 1696WAT    EPW 7492   7.303   2.705   0.849
 1697WAT      O 7493   7.442   2.249   0.313
 1697WAT     H1 7494   7.499   2.259   0.379
 1697WAT     H2 7495   7.424   2.164   0.314
 1697WAT    EPW 7496   7.448   2.238   0.323
 1698WAT      O 7497   7.619   2.299   0.523
 1698WAT     H1 7498   7.592   2.381   0.537
 1698WAT     H2 7499   7.599   2.258   0.597
 1698WAT    EPW 7500   7.612   2.305   0.536
 1699WAT      O 7501   6.861   2.655   1.150
 1699WAT     H1 7502   6.919   2.704   1.193
 1699WAT     H2 7503   6.871   2.576   1.185
 1699WAT    EPW 7504   6.871   2.651   1.162
 1700WAT      O 7505   7.148   1.821   0.417
 1700WAT     H1 7506   7.222   1.860   0.393
 1700WAT     H2 7507   7.086   1.872   0.385
 1700WAT    EPW 7508   7.150   1.834   0.409
 1701WAT      O 7509   7.665   1.884   1.156
 1701WAT     H1 7510   7.603   1.933   1.193
 1701WAT     H2 7511   7.673   1.918   1.077
 1701WAT    EPW 7512   7.657   1.896   1.150
 1702WAT      O 7513   7.293   2.483   0.379
 1702WAT     H1 7514   7.345   2.502   0.447
 1702WAT     H2 7515   7.334   2.417   0.340
 1702WAT    EPW 7516   7.307   2.476   0.383
 1703WAT      O 7517   7.247   1.986   1.050
 1703WAT     H1 7518   7.206   1.921   1.090
 1703WAT     H2 7519   7.253   1.959   0.967
 1703WAT    EPW 7520   7.242   1.973   1.044
 1704WAT      O 7521   7.303   2.087   0.586
 1704WAT     H1 7522   7.332   2.045   0.515
 1704WAT     H2 7523   7.246   2.145   0.554
 1704WAT    EPW 7524   7.299   2.089   0.571
 1705WAT      O 7525   7.701   2.869   0.540
 1705WAT     H1 7526   7.690   2.811   0.476
 1705WAT     H2 7527   7.694   2.946   0.500
 1705WAT    EPW 7528   7.698   2.871   0.525
 1706WAT      O 7529   7.116   2.219   1.109
 1706WAT     H1 7530   7.109   2.264   1.034
 1706WAT     H2 7531   7.163   2.149   1.087
 1706WAT    EPW 7532   7.122   2.216   1.095
 1707WAT      O 7533   7.726   2.722   0.967
 1707WAT     H1 7534   7.774   2.735   1.039
 1707WAT     H2 7535   7.677   2.653   0.986
 1707WAT    EPW 7536   7.726   2.714   0.981
 1708WAT      O 7537   7.804   1.761   0.411
 1708WAT     H1 7538   7.833   1.830   0.366
 1708WAT     H2 7539   7.876   1.719   0.433
 1708WAT    EPW 7540   7.819   1.765   0.408
 1709WAT      O 7541   7.620   2.371   0.122
 1709WAT     H1 7542   7.554   2.331   0.164
 1709WAT     H2 7543   7.691   2.345   0.166
 1709WAT    EPW 7544   7.621   2.361   0.135
 1710WAT      O 7545   7.124   2.266   0.458
 1710WAT     H1 7546   7.162   2.343   0.441
 1710WAT     H2 7547   7.087   2.245   0.382
 1710WAT    EPW 7548   7.124   2.275   0.445
 1711WAT      O 7549   7.097   2.347   0.867
 1711WAT     H1 7550   7.061   2.294   0.808
 1711WAT     H2 7551   7.065   2.425   0.847
 1711WAT    EPW 7552   7.087   2.351   0.855
 1712WAT      O 7553   7.507   2.550   0.545
 1712WAT     H1 7554   7.515   2.602   0.615
 1712WAT     H2 7555   7.541   2.598   0.480
 1712WAT    EPW 7556   7.513   2.565   0.546
 1713WAT      O 7557   7.364   2.421   0.847
 1713WAT     H1 7558   7.285   2.386   0.857
 1713WAT     H2 7559   7.348   2.506   0.838
 1713WAT    EPW 7560   7.350   2.428   0.847
 1714WAT      O 7561   7.808   2.286   0.317
 1714WAT     H1 7562   7.885   2.314   0.347
 1714WAT     H2 7563   7.757   2.285   0.388
 1714WAT    EPW 7564   7.812   2.290   0.332
 1715WAT      O 7565   7.512   1.777   0.775
 1715WAT     H1 7566   7.536   1.700   0.809
 1715WAT     H2 7567   7.528   1.767   0.690
 1715WAT    EPW 7568   7.518   1.764   0.767
 1716WAT      O 7569   7.653   1.365   0.687
 1716WAT     H1 7570   7.681   1.349   0.606
 1716WAT     H2 7571   7.665   1.289   0.728
 1716WAT    EPW 7572   7.659   1.351   0.681
 1717WAT      O 7573   7.592   2.697   0.327
 1717WAT     H1 7574   7.514   2.723   0.300
 1717WAT     H2 7575   7.621   2.647   0.262
 1717WAT    EPW 7576   7.585   2.693   0.314
 1718WAT      O 7577   7.395   1.952   0.351
 1718WAT     H1 7578   7.403   1.928   0.268
 1718WAT     H2 7579   7.445   1.895   0.394
 1718WAT    EPW 7580   7.403   1.940   0.345
 1719WAT      O 7581   7.741   2.966   0.821
 1719WAT     H1 7582   7.768   2.936   0.744
 1719WAT     H2 7583   7.753   2.899   0.875
 1719WAT    EPW 7584   7.747   2.952   0.818
 1720WAT      O 7585   7.688   1.278   0.425
 1720WAT     H1 7586   7.605   1.263   0.401
 1720WAT     H2 7587   7.727   1.301   0.350
 1720WAT    EPW 7588   7.681   1.279   0.410
 1721WAT      O 7589   7.859   2.491   0.860
 1721WAT     H1 7590   7.794   2.443   0.894
 1721WAT     H2 7591   7.841   2.572   0.887
 1721WAT    EPW 7592   7.847   2.496   0.869
 1722WAT      O 7593   6.905   1.411   1.013
 1722WAT     H1 7594   6.902   1.485   0.967
 1722WAT     H2 7595   6.829   1.373   0.996
 1722WAT    EPW 7596   6.894   1.416   1.003
 1723WAT      O 7597   7.399   3.039   0.376
 1723WAT     H1 7598   7.386   3.025   0.461
 1723WAT     H2 7599   7.377   2.963   0.339
 1723WAT    EPW 7600   7.394   3.026   0.383
 1724WAT      O 7601   7.048   3.017   0.914
 1724WAT     H1 7602   6.985   2.957   0.914
 1724WAT     H2 7603   7.009   3.087   0.948
 1724WAT    EPW 7604   7.033   3.018   0.919
 1725WAT      O 7605   7.263   1.895   0.788
 1725WAT     H1 7606   7.269   1.958   0.728
 1725WAT     H2 7607   7.342   1.857   0.787
 1725WAT    EPW 7608   7.276   1.899   0.779
 1726WAT      O 7609   7.088   1.720   0.667
 1726WAT     H1 7610   7.107   1.738   0.584
 1726WAT     H2 7611   7.145   1.769   0.711
 1726WAT    EPW 7612   7.099   1.730   0.661
 1727WAT      O 7613   7.330   1.412   0.923
 1727WAT     H1 7614   7.355   1.328   0.923
 1727WAT     H2 7615   7.288   1.421   0.847
 1727WAT    EPW 7616   7.327   1.401   0.912
 1728WAT      O 7617   6.972   2.187   0.679
 1728WAT     H1 7618   7.010   2.211   0.604
 1728WAT     H2 7619   6.951   2.104   0.666
 1728WAT    EPW 7620   6.975   2.179   0.666
 1729WAT      O 7621   7.502   2.192   0.751
 1729WAT     H1 7622   7.466   2.264   0.785
 1729WAT     H2 7623   7.438   2.157   0.703
 1729WAT    EPW 7624   7.487   2.197   0.749
 1730WAT      O 7625   7.445   1.507   0.550
 1730WAT     H1 7626   7.367   1.488   0.586
 1730WAT     H2 7627   7.499   1.452   0.591
 1730WAT    EPW 7628   7.441   1.496   0.562
 1731WAT      O 7629   7.641   1.990   0.899
 1731WAT     H1 7630   7.605   1.923   0.856
 1731WAT     H2 7631   7.606   2.060   0.861
 1731WAT    EPW 7632   7.631   1.991   0.887
 1732WAT      O 7633   7.456   2.993   0.914
 1732WAT     H1 7634   7.463   2.977   1.000
 1732WAT     H2 7635   7.533   2.969   0.882
 1732WAT    EPW 7636   7.468   2.987   0.922
 1733WAT      O 7637   7.204   1.463   0.684
 1733WAT     H1 7638   7.152   1.402   0.650
 1733WAT     H2 7639   7.158   1.537   0.675
 1733WAT    EPW 7640   7.190   1.465   0.677
 1734WAT      O 7641   7.209   2.843   1.063
 1734WAT     H1 7642   7.277   2.883   1.099
 1734WAT     H2 7643   7.169   2.906   1.019
 1734WAT    EPW 7644   7.213   2.858   1.062
 1735WAT      O 7645   7.036   2.609   0.788
 1735WAT     H1 7646   6.984   2.667   0.826
 1735WAT     H2 7647   7.116   2.642   0.800
 1735WAT    EPW 7648   7.040   2.623   0.795
 1736WAT      O 7649   7.578   1.527   0.901
 1736WAT     H1 7650   7.610   1.489   0.829
 1736WAT     H2 7651   7.497   1.494   0.907
 1736WAT    EPW 7652   7.570   1.516   0.891
 1737WAT      O 7653   7.311   2.755   0.283
 1737WAT     H1 7654   7.294   2.673   0.306
 1737WAT     H2 7655   7.279   2.762   0.202
 1737WAT    EPW 7656   7.304   2.744   0.274
 1738WAT      O 7657   7.024   3.082   0.641
 1738WAT     H1 7658   7.044   3.052   0.720
 1738WAT     H2 7659   7.054   3.020   0.587
 1738WAT    EPW 7660   7.031   3.068   0.645
 1739WAT      O 7661   6.994   0.582   7.447
 1739WAT     H1 7662   6.983   0.601   7.531
 1739WAT     H2 7663   6.954   0.505   7.437
 1739WAT    EPW 7664   6.987   0.573   7.458
 1740WAT      O 7665   7.190   0.524   7.028
 1740WAT     H1 7666   7.159   0.475   6.962
 1740WAT     H2 7667   7.194   0.468   7.094
 1740WAT    EPW 7668   7.186   0.508   7.028
 1741WAT      O 7669   7.238   0.716   7.402
 1741WAT     H1 7670   7.286   0.723   7.475
 1741WAT     H2 7671   7.174   0.661   7.425
 1741WAT    EPW 7672   7.236   0.709   7.416
 1742WAT      O 7673   7.032   0.940   6.969
 1742WAT     H1 7674   7.086   0.960   6.904
 1742WAT     H2 7675   7.081   0.892   7.023
 1742WAT    EPW 7676   7.047   0.935   6.967
 1743WAT      O 7677   7.100   0.254   7.593
 1743WAT     H1 7678   7.055   0.254   7.518
 1743WAT     H2 7679   7.136   0.175   7.596
 1743WAT    EPW 7680   7.099   0.243   7.582
 1744WAT      O 7681   7.690   0.712   7.688
 1744WAT     H1 7682   7.687   0.674   7.767
 1744WAT     H2 7683   7.746   0.778   7.700
 1744WAT    EPW 7684   7.698   0.716   7.702
 1745WAT      O 7685   7.749   0.646   7.416
 1745WAT     H1 7686   7.741   0.646   7.502
 1745WAT     H2 7687   7.734   0.562   7.394
 1745WAT    EPW 7688   7.746   0.633   7.425
 1746WAT      O 7689   6.941   1.036   7.608
 1746WAT     H1 7690   6.875   1.080   7.572
 1746WAT     H2 7691   6.989   1.012   7.540
 1746WAT    EPW 7692   6.938   1.039   7.593
 1747WAT      O 7693   7.543   0.793   7.314
 1747WAT     H1 7694   7.501   0.798   7.391
 1747WAT     H2 7695   7.616   0.748   7.333
 1747WAT    EPW 7696   7.548   0.787   7.328
 1748WAT      O 7697   7.103   0.958   7.392
 1748WAT     H1 7698   7.151   0.886   7.408
 1748WAT     H2 7699   7.161   1.013   7.358
 1748WAT    EPW 7700   7.119   0.956   7.389
 1749WAT      O 7701   7.267   0.714   7.766
 1749WAT     H1 7702   7.327   0.755   7.719
 1749WAT     H2 7703   7.280   0.630   7.746
 1749WAT    EPW 7704   7.278   0.707   7.756
 1750WAT      O 7705   7.481   1.068   7.646
 1750WAT     H1 7706   7.557   1.105   7.625
 1750WAT     H2 7707   7.422   1.129   7.628
 1750WAT    EPW 7708   7.484   1.082   7.641
 1751WAT      O 7709   7.861   0.878   6.891
 1751WAT     H1 7710   7.841   0.926   6.961
 1751WAT     H2 7711   7.931   0.833   6.915
 1751WAT    EPW 7712   7.868   0.879   6.905
 1752WAT      O 7713   7.281   0.469   7.626
 1752WAT     H1 7714   7.326   0.461   7.553
 1752WAT     H2 7715   7.225   0.402   7.624
 1752WAT    EPW 7716   7.279   0.458   7.615
 1753WAT      O 7717   7.125   1.177   7.760
 1753WAT     H1 7718   7.062   1.137   7.715
 1753WAT     H2 7719   7.182   1.202   7.699
 1753WAT    EPW 7720   7.124   1.175   7.744
 1754WAT      O 7721   7.397   0.462   7.370
 1754WAT     H1 7722   7.395   0.547   7.350
 1754WAT     H2 7723   7.481   0.440   7.359
 1754WAT    EPW 7724   7.409   0.472   7.365
 1755WAT      O 7725   7.000   0.651   7.716
 1755WAT     H1 7726   6.954   0.716   7.752
 1755WAT     H2 7727   7.083   0.672   7.733
 1755WAT    EPW 7728   7.005   0.664   7.724
 1756WAT      O 7729   6.958   0.267   7.346
 1756WAT     H1 7730   6.950   0.182   7.328
 1756WAT     H2 7731   7.029   0.291   7.301
 1756WAT    EPW 7732   6.967   0.258   7.337
 1757WAT      O 7733   6.914   0.788   7.272
 1757WAT     H1 7734   6.970   0.848   7.300
 1757WAT     H2 7735   6.920   0.725   7.332
 1757WAT    EPW 7736   6.923   0.788   7.285
 1758WAT      O 7737   6.919   0.636   7.034
 1758WAT     H1 7738   6.997   0.597   7.034
 1758WAT     H2 7739   6.922   0.688   7.104
 1758WAT    EPW 7740   6.931   0.638   7.044
 1759WAT      O 7741   6.927   0.388   7.772
 1759WAT     H1 7742   6.980   0.337   7.725
 1759WAT     H2 7743   6.962   0.467   7.763
 1759WAT    EPW 7744   6.940   0.392   7.764
 1760WAT      O 7745   7.451   0.805   7.579
 1760WAT     H1 7746   7.458   0.890   7.600
 1760WAT     H2 7747   7.522   0.770   7.614
 1760WAT    EPW 7748   7.462   0.813   7.588
 1761WAT      O 7749   7.218   8.041   7.608
 1761WAT     H1 7750   7.239   8.019   7.690
 1761WAT     H2 7751   7.237   7.970   7.562
 1761WAT    EPW 7752   7.224   8.027   7.614
 1762WAT      O 7753   7.608   1.060   7.298
 1762WAT     H1 7754   7.596   0.975   7.313
 1762WAT     H2 7755   7.674   1.061   7.241
 1762WAT    EPW 7756   7.616   1.047   7.292
 1763WAT      O 7757   7.818   1.049   7.111
 1763WAT     H1 7758   7.894   1.080   7.140
 1763WAT     H2 7759   7.784   1.115   7.065
 1763WAT    EPW 7760   7.824   1.063   7.108
 1764WAT      O 7761   7.203   0.327   7.222
 1764WAT     H1 7762   7.244   0.261   7.181
 1764WAT     H2 7763   7.265   0.359   7.275
 1764WAT    EPW 7764   7.218   0.322   7.224
 1765WAT      O 7765   7.795   0.155   7.362
 1765WAT     H1 7766   7.880   0.139   7.352
 1765WAT     H2 7767   7.758   0.077   7.352
 1765WAT    EPW 7768   7.802   0.141   7.359
 1766WAT      O 7769   7.703   0.603   7.947
 1766WAT     H1 7770   7.741   0.525   7.958
 1766WAT     H2 7771   7.689   0.631   8.028
 1766WAT    EPW 7772   7.707   0.595   7.960
 1767WAT      O 7773   7.435   1.110   6.901
 1767WAT     H1 7774   7.446   1.035   6.944
 1767WAT     H2 7775   7.403   1.164   6.961
 1767WAT    EPW 7776   7.432   1.107   6.916
 1768WAT      O 7777   7.253   0.127   6.888
 1768WAT     H1 7778   7.221   0.046   6.897
 1768WAT     H2 7779   7.335   0.114   6.863
 1768WAT    EPW 7780   7.260   0.113   6.886
 1769WAT      O 7781   7.702   1.189   7.532
 1769WAT     H1 7782   7.691   1.275   7.522
 1769WAT     H2 7783   7.678   1.157   7.455
 1769WAT    EPW 7784   7.697   1.197   7.519
 1770WAT      O 7785   7.643   0.420   7.046
 1770WAT     H1 7786   7.693   0.403   6.976
 1770WAT     H2 7787   7.586   0.479   7.017
 1770WAT    EPW 7788   7.642   0.426   7.032
 1771WAT      O 7789   7.456   0.869   7.049
 1771WAT     H1 7790   7.500   0.856   7.123
 1771WAT     H2 7791   7.373   0.855   7.072
 1771WAT    EPW 7792   7.450   0.865   7.064
 1772WAT      O 7793   7.208   0.783   7.126
 1772WAT     H1 7794   7.215   0.770   7.211
 1772WAT     H2 7795   7.198   0.703   7.093
 1772WAT    EPW 7796   7.207   0.769   7.133
 1773WAT      O 7797   7.460   0.606   6.948
 1773WAT     H1 7798   7.379   0.581   6.965
 1773WAT     H2 7799   7.463   0.689   6.978
 1773WAT    EPW 7800   7.449   0.615   6.955
 1774WAT      O 7801   7.325   1.113   7.304
 1774WAT     H1 7802   7.318   1.171   7.239
 1774WAT     H2 7803   7.410   1.095   7.306
 1774WAT    EPW 7804   7.336   1.119   7.295
 1775WAT      O 7805   7.662   0.398   7.322
 1775WAT     H1 7806   7.663   0.401   7.235
 1775WAT     H2 7807   7.703   0.322   7.340
 1775WAT    EPW 7808   7.669   0.387   7.312
 1776WAT      O 7809   7.150   0.939   7.929
 1776WAT     H1 7810   7.196   0.880   7.884
 1776WAT     H2 7811   7.160   1.013   7.883
 1776WAT    EPW 7812   7.158   0.941   7.915
 1777WAT      O 7813   6.914   0.663   5.568
 1777WAT     H1 7814   6.925   0.685   5.652
 1777WAT     H2 7815   6.832   0.632   5.566
 1777WAT    EPW 7816   6.904   0.661   5.580
 1778WAT      O 7817   7.171   0.529   5.124
 1778WAT     H1 7818   7.138   0.478   5.061
 1778WAT     H2 7819   7.180   0.474   5.191
 1778WAT    EPW 7820   7.167   0.513   5.125
 1779WAT      O 7821   7.178   0.705   5.492
 1779WAT     H1 7822   7.225   0.661   5.550
 1779WAT     H2 7823   7.096   0.678   5.507
 1779WAT    EPW 7824   7.173   0.695   5.503
 1780WAT      O 7825   7.014   0.951   5.069
 1780WAT     H1 7826   7.068   0.968   5.002
 1780WAT     H2 7827   7.063   0.901   5.122
 1780WAT    EPW 7828   7.029   0.946   5.067
 1781WAT      O 7829   6.983   0.773   6.205
 1781WAT     H1 7830   6.997   0.758   6.290
 1781WAT     H2 7831   6.915   0.723   6.186
 1781WAT    EPW 7832   6.975   0.764   6.215
 1782WAT      O 7833   7.571   0.621   6.690
 1782WAT     H1 7834   7.544   0.613   6.773
 1782WAT     H2 7835   7.499   0.605   6.643
 1782WAT    EPW 7836   7.556   0.617   6.695
 1783WAT      O 7837   7.094   0.354   5.704
 1783WAT     H1 7838   7.059   0.314   5.635
 1783WAT     H2 7839   7.144   0.292   5.740
 1783WAT    EPW 7840   7.096   0.339   5.699
 1784WAT      O 7841   7.532   0.920   6.440
 1784WAT     H1 7842   7.578   0.960   6.377
 1784WAT     H2 7843   7.593   0.885   6.491
 1784WAT    EPW 7844   7.548   0.921   6.438
 1785WAT      O 7845   7.699   0.753   5.787
 1785WAT     H1 7846   7.729   0.686   5.834
 1785WAT     H2 7847   7.769   0.803   5.775
 1785WAT    EPW 7848   7.714   0.750   5.792
 1786WAT      O 7849   7.737   0.653   5.513
 1786WAT     H1 7850   7.733   0.653   5.600
 1786WAT     H2 7851   7.738   0.568   5.492
 1786WAT    EPW 7852   7.736   0.641   5.522
 1787WAT      O 7853   6.953   1.050   5.748
 1787WAT     H1 7854   6.885   1.086   5.706
 1787WAT     H2 7855   7.002   1.019   5.683
 1787WAT    EPW 7856   6.950   1.051   5.732
 1788WAT      O 7857   7.508   0.752   5.408
 1788WAT     H1 7858   7.469   0.773   5.483
 1788WAT     H2 7859   7.584   0.718   5.433
 1788WAT    EPW 7860   7.514   0.750   5.422
 1789WAT      O 7861   7.115   0.974   5.525
 1789WAT     H1 7862   7.147   0.893   5.530
 1789WAT     H2 7863   7.179   1.018   5.484
 1789WAT    EPW 7864   7.130   0.969   5.519
 1790WAT      O 7865   7.235   0.796   5.848
 1790WAT     H1 7866   7.294   0.791   5.783
 1790WAT     H2 7867   7.257   0.730   5.901
 1790WAT    EPW 7868   7.247   0.786   5.846
 1791WAT      O 7869   7.501   1.071   5.802
 1791WAT     H1 7870   7.578   1.083   5.763
 1791WAT     H2 7871   7.450   1.133   5.767
 1791WAT    EPW 7872   7.505   1.082   5.791
 1792WAT      O 7873   7.335   1.175   6.348
 1792WAT     H1 7874   7.360   1.156   6.429
 1792WAT     H2 7875   7.270   1.119   6.333
 1792WAT    EPW 7876   7.329   1.164   6.358
 1793WAT      O 7877   7.857   0.871   4.984
 1793WAT     H1 7878   7.835   0.915   5.056
 1793WAT     H2 7879   7.930   0.830   5.007
 1793WAT    EPW 7880   7.865   0.872   4.998
 1794WAT      O 7881   7.123   1.018   6.240
 1794WAT     H1 7882   7.083   0.940   6.241
 1794WAT     H2 7883   7.165   1.019   6.164
 1794WAT    EPW 7884   7.124   1.007   6.229
 1795WAT      O 7885   7.275   0.861   6.541
 1795WAT     H1 7886   7.348   0.895   6.508
 1795WAT     H2 7887   7.259   0.911   6.611
 1795WAT    EPW 7888   7.283   0.874   6.547
 1796WAT      O 7889   7.510   0.423   5.946
 1796WAT     H1 7890   7.515   0.413   6.033
 1796WAT     H2 7891   7.450   0.364   5.922
 1796WAT    EPW 7892   7.502   0.412   5.956
 1797WAT      O 7893   7.533   0.456   6.219
 1797WAT     H1 7894   7.516   0.541   6.227
 1797WAT     H2 7895   7.475   0.418   6.272
 1797WAT    EPW 7896   7.522   0.463   6.228
 1798WAT      O 7897   6.834   0.837   6.787
 1798WAT     H1 7898   6.890   0.844   6.854
 1798WAT     H2 7899   6.838   0.752   6.767
 1798WAT    EPW 7900   6.843   0.826   6.794
 1799WAT      O 7901   7.305   0.537   5.668
 1799WAT     H1 7902   7.349   0.499   5.603
 1799WAT     H2 7903   7.239   0.482   5.684
 1799WAT    EPW 7904   7.302   0.523   5.661
 1800WAT      O 7905   7.144   1.222   5.844
 1800WAT     H1 7906   7.074   1.181   5.812
 1800WAT     H2 7907   7.197   1.228   5.775
 1800WAT    EPW 7908   7.141   1.217   5.829
 1801WAT      O 7909   7.420   0.473   5.419
 1801WAT     H1 7910   7.432   0.557   5.401
 1801WAT     H2 7911   7.501   0.440   5.422
 1801WAT    EPW 7912   7.434   0.480   5.417
 1802WAT      O 7913   6.968   0.729   5.830
 1802WAT     H1 7914   6.924   0.790   5.875
 1802WAT     H2 7915   7.051   0.756   5.834
 1802WAT    EPW 7916   6.974   0.742   5.837
 1803WAT      O 7917   6.977   0.249   5.462
 1803WAT     H1 7918   6.980   0.163   5.450
 1803WAT     H2 7919   7.040   0.279   5.410
 1803WAT    EPW 7920   6.987   0.241   5.453
 1804WAT      O 7921   6.912   0.850   5.370
 1804WAT     H1 7922   6.972   0.905   5.403
 1804WAT     H2 7923   6.903   0.791   5.433
 1804WAT    EPW 7924   6.919   0.850   5.385
 1805WAT      O 7925   7.306   0.600   6.026
 1805WAT     H1 7926   7.346   0.642   6.092
 1805WAT     H2 7927   7.371   0.556   5.988
 1805WAT    EPW 7928   7.322   0.599   6.030
 1806WAT      O 7929   6.904   0.652   5.155
 1806WAT     H1 7930   6.982   0.613   5.150
 1806WAT     H2 7931   6.917   0.716   5.213
 1806WAT    EPW 7932   6.918   0.656   5.163
 1807WAT      O 7933   6.933   0.468   5.901
 1807WAT     H1 7934   6.973   0.429   5.834
 1807WAT     H2 7935   6.948   0.553   5.887
 1807WAT    EPW 7936   6.941   0.475   5.889
 1808WAT      O 7937   7.451   0.833   5.668
 1808WAT     H1 7938   7.457   0.913   5.703
 1808WAT     H2 7939   7.518   0.790   5.704
 1808WAT    EPW 7940   7.462   0.838   5.679
 1809WAT      O 7941   7.279   0.251   5.909
 1809WAT     H1 7942   7.229   0.292   5.968
 1809WAT     H2 7943   7.286   0.170   5.940
 1809WAT    EPW 7944   7.273   0.245   5.922
 1810WAT      O 7945   7.693   1.020   6.236
 1810WAT     H1 7946   7.672   0.971   6.167
 1810WAT     H2 7947   7.697   1.101   6.204
 1810WAT    EPW 7948   7.691   1.025   6.221
 1811WAT      O 7949   7.086   0.346   6.848
 1811WAT     H1 7950   7.095   0.374   6.766
 1811WAT     H2 7951   7.136   0.275   6.851
 1811WAT    EPW 7952   7.094   0.339   6.837
 1812WAT      O 7953   7.714   0.857   6.657
 1812WAT     H1 7954   7.762   0.867   6.729
 1812WAT     H2 7955   7.665   0.787   6.674
 1812WAT    EPW 7956   7.714   0.848   6.670
 1813WAT      O 7957   7.613   1.013   5.413
 1813WAT     H1 7958   7.592   0.929   5.420
 1813WAT     H2 7959   7.675   1.013   5.351
 1813WAT    EPW 7960   7.619   1.001   5.405
 1814WAT      O 7961   7.810   1.026   5.215
 1814WAT     H1 7962   7.889   1.050   5.244
 1814WAT     H2 7963   7.778   1.099   5.180
 1814WAT    EPW 7964   7.817   1.040   5.214
 1815WAT      O 7965   7.206   0.325   5.309
 1815WAT     H1 7966   7.238   0.265   5.253
 1815WAT     H2 7967   7.277   0.358   5.346
 1815WAT    EPW 7968   7.221   0.321   5.306
 1816WAT      O 7969   7.770   0.139   5.482
 1816WAT     H1 7970   7.793   0.116   5.563
 1816WAT     H2 7971   7.750   0.063   5.444
 1816WAT    EPW 7972   7.771   0.125   5.488
 1817WAT      O 7973   7.771   0.537   5.936
 1817WAT     H1 7974   7.697   0.491   5.933
 1817WAT     H2 7975   7.794   0.535   6.020
 1817WAT    EPW 7976   7.763   0.530   5.948
 1818WAT      O 7977   7.411   1.095   4.993
 1818WAT     H1 7978   7.432   1.022   5.035
 1818WAT     H2 7979   7.402   1.154   5.058
 1818WAT    EPW 7980   7.412   1.093   5.009
 1819WAT      O 7981   7.123   0.400   6.088
 1819WAT     H1 7982   7.176   0.469   6.080
 1819WAT     H2 7983   7.055   0.420   6.037
 1819WAT    EPW 7984   7.121   0.413   6.079
 1820WAT      O 7985   7.257   0.133   5.045
 1820WAT     H1 7986   7.226   0.052   5.040
 1820WAT     H2 7987   7.338   0.126   5.013
 1820WAT    EPW 7988   7.264   0.120   5.040
 1821WAT      O 7989   7.088   0.475   6.604
 1821WAT     H1 7990   7.070   0.441   6.526
 1821WAT     H2 7991   7.024   0.532   6.618
 1821WAT    EPW 7992   7.076   0.479   6.595
 1822WAT      O 7993   7.470   0.731   6.215
 1822WAT     H1 7994   7.475   0.780   6.287
 1822WAT     H2 7995   7.505   0.782   6.153
 1822WAT    EPW 7996   7.476   0.746   6.216
 1823WAT      O 7997   7.332   0.591   6.555
 1823WAT     H1 7998   7.256   0.558   6.583
 1823WAT     H2 7999   7.315   0.676   6.544
 1823WAT    EPW 8000   7.318   0.598   6.558
 1824WAT      O 8001   7.803   0.523   6.217
 1824WAT     H1 8002   7.817   0.561   6.294
 1824WAT     H2 8003   7.724   0.487   6.225
 1824WAT    EPW 8004   7.794   0.524   6.229
 1825WAT      O 8005   7.731   1.095   5.657
 1825WAT     H1 8006   7.736   1.182   5.652
 1825WAT     H2 8007   7.701   1.071   5.579
 1825WAT    EPW 8008   7.727   1.104   5.645
 1826WAT      O 8009   7.581   0.889   6.010
 1826WAT     H1 8010   7.540   0.951   5.964
 1826WAT     H2 8011   7.620   0.840   5.948
 1826WAT    EPW 8012   7.581   0.891   5.994
 1827WAT      O 8013   7.649   0.419   5.137
 1827WAT     H1 8014   7.697   0.411   5.065
 1827WAT     H2 8015   7.585   0.474   5.113
 1827WAT    EPW 8016   7.647   0.426   5.122
 1828WAT      O 8017   7.764   1.113   6.537
 1828WAT     H1 8018   7.810   1.086   6.468
 1828WAT     H2 8019   7.754   1.040   6.584
 1828WAT    EPW 8020   7.770   1.098   6.534
 1829WAT      O 8021   7.785   0.630   6.484
 1829WAT     H1 8022   7.727   0.593   6.537
 1829WAT     H2 8023   7.803   0.706   6.524
 1829WAT    EPW 8024   7.780   0.636   6.497
 1830WAT      O 8025   7.426   1.230   6.090
 1830WAT     H1 8026   7.397   1.222   6.172
 1830WAT     H2 8027   7.389   1.162   6.049
 1830WAT    EPW 8028   7.416   1.219   6.096
 1831WAT      O 8029   7.015   1.183   6.619
 1831WAT     H1 8030   6.957   1.119   6.602
 1831WAT     H2 8031   6.965   1.249   6.645
 1831WAT    EPW 8032   6.999   1.183   6.620
 1832WAT      O 8033   7.047   0.351   6.349
 1832WAT     H1 8034   7.064   0.372   6.266
 1832WAT     H2 8035   7.022   0.268   6.344
 1832WAT    EPW 8036   7.046   0.342   6.336
 1833WAT      O 8037   7.442   0.858   5.148
 1833WAT     H1 8038   7.484   0.838   5.221
 1833WAT     H2 8039   7.358   0.849   5.169
 1833WAT    EPW 8040   7.436   0.854   5.162
 1834WAT      O 8041   7.333   0.368   6.385
 1834WAT     H1 8042   7.338   0.437   6.439
 1834WAT     H2 8043   7.247   0.358   6.374
 1834WAT    EPW 8044   7.321   0.377   6.391
 1835WAT      O 8045   7.188   0.787   5.221
 1835WAT     H1 8046   7.187   0.771   5.307
 1835WAT     H2 8047   7.183   0.708   5.185
 1835WAT    EPW 8048   7.187   0.773   5.228
 1836WAT      O 8049   7.449   0.596   5.048
 1836WAT     H1 8050   7.367   0.571   5.062
 1836WAT     H2 8051   7.450   0.679   5.075
 1836WAT    EPW 8052   7.437   0.604   5.054
 1837WAT      O 8053   7.445   1.142   6.612
 1837WAT     H1 8054   7.460   1.131   6.697
 1837WAT     H2 8055   7.499   1.085   6.574
 1837WAT    EPW 8056   7.456   1.132   6.619
 1838WAT      O 8057   7.197   1.018   6.760
 1838WAT     H1 8058   7.263   1.062   6.795
 1838WAT     H2 8059   7.149   1.080   6.721
 1838WAT    EPW 8060   7.199   1.034   6.760
 1839WAT      O 8061   7.023   0.762   6.475
 1839WAT     H1 8062   6.968   0.824   6.499
 1839WAT     H2 8063   7.102   0.795   6.494
 1839WAT    EPW 8064   7.027   0.776   6.481
 1840WAT      O 8065   7.343   1.099   5.406
 1840WAT     H1 8066   7.342   1.155   5.339
 1840WAT     H2 8067   7.425   1.070   5.407
 1840WAT    EPW 8068   7.355   1.103   5.396
 1841WAT      O 8069   7.686   0.396   5.412
 1841WAT     H1 8070   7.688   0.397   5.325
 1841WAT     H2 8071   7.715   0.316   5.432
 1841WAT    EPW 8072   7.691   0.385   5.402
 1842WAT      O 8073   7.253   1.026   6.000
 1842WAT     H1 8074   7.253   0.954   5.951
 1842WAT     H2 8075   7.215   1.086   5.949
 1842WAT    EPW 8076   7.247   1.024   5.985
 1843WAT      O 8077   7.002   1.245   6.348
 1843WAT     H1 8078   7.011   1.223   6.432
 1843WAT     H2 8079   7.033   1.176   6.305
 1843WAT    EPW 8080   7.008   1.232   6.354
 1844WAT      O 8081   6.914   0.657   3.669
 1844WAT     H1 8082   6.924   0.682   3.752
 1844WAT     H2 8083   6.832   0.628   3.666
 1844WAT    EPW 8084   6.903   0.656   3.681
 1845WAT      O 8085   7.177   0.527   3.231
 1845WAT     H1 8086   7.144   0.476   3.167
 1845WAT     H2 8087   7.185   0.472   3.298
 1845WAT    EPW 8088   7.173   0.511   3.231
 1846WAT      O 8089   7.179   0.705   3.597
 1846WAT     H1 8090   7.227   0.661   3.655
 1846WAT     H2 8091   7.097   0.676   3.612
 1846WAT    EPW 8092   7.174   0.694   3.608
 1847WAT      O 8093   7.017   0.941   3.171
 1847WAT     H1 8094   7.070   0.961   3.105
 1847WAT     H2 8095   7.068   0.895   3.225
 1847WAT    EPW 8096   7.033   0.937   3.170
 1848WAT      O 8097   6.982   0.774   4.288
 1848WAT     H1 8098   6.994   0.764   4.373
 1848WAT     H2 8099   6.913   0.723   4.270
 1848WAT    EPW 8100   6.973   0.765   4.298
 1849WAT      O 8101   7.566   0.614   4.792
 1849WAT     H1 8102   7.537   0.606   4.873
 1849WAT     H2 8103   7.494   0.601   4.743
 1849WAT    EPW 8104   7.551   0.611   4.797
 1850WAT      O 8105   7.094   0.355   3.807
 1850WAT     H1 8106   7.058   0.314   3.740
 1850WAT     H2 8107   7.143   0.293   3.845
 1850WAT    EPW 8108   7.096   0.340   3.803
 1851WAT      O 8109   7.527   0.925   4.543
 1851WAT     H1 8110   7.574   0.963   4.479
 1851WAT     H2 8111   7.587   0.889   4.594
 1851WAT    EPW 8112   7.543   0.926   4.541
 1852WAT      O 8113   7.696   0.754   3.890
 1852WAT     H1 8114   7.727   0.686   3.936
 1852WAT     H2 8115   7.766   0.804   3.877
 1852WAT    EPW 8116   7.711   0.751   3.895
 1853WAT      O 8117   7.738   0.650   3.616
 1853WAT     H1 8118   7.733   0.649   3.703
 1853WAT     H2 8119   7.739   0.566   3.594
 1853WAT    EPW 8120   7.737   0.638   3.626
 1854WAT      O 8121   6.950   1.053   3.847
 1854WAT     H1 8122   6.882   1.088   3.806
 1854WAT     H2 8123   7.000   1.022   3.782
 1854WAT    EPW 8124   6.947   1.054   3.831
 1855WAT      O 8125   7.510   0.752   3.512
 1855WAT     H1 8126   7.471   0.774   3.587
 1855WAT     H2 8127   7.586   0.718   3.537
 1855WAT    EPW 8128   7.515   0.750   3.526
 1856WAT      O 8129   7.116   0.974   3.627
 1856WAT     H1 8130   7.148   0.894   3.634
 1856WAT     H2 8131   7.179   1.018   3.586
 1856WAT    EPW 8132   7.130   0.969   3.622
 1857WAT      O 8133   7.232   0.798   3.950
 1857WAT     H1 8134   7.291   0.793   3.885
 1857WAT     H2 8135   7.253   0.733   4.003
 1857WAT    EPW 8136   7.244   0.788   3.948
 1858WAT      O 8137   7.500   1.073   3.901
 1858WAT     H1 8138   7.578   1.084   3.863
 1858WAT     H2 8139   7.450   1.134   3.866
 1858WAT    EPW 8140   7.504   1.083   3.891
 1859WAT      O 8141   7.330   1.182   4.447
 1859WAT     H1 8142   7.355   1.162   4.529
 1859WAT     H2 8143   7.266   1.126   4.431
 1859WAT    EPW 8144   7.324   1.171   4.457
 1860WAT      O 8145   7.861   0.873   3.086
 1860WAT     H1 8146   7.838   0.916   3.158
 1860WAT     H2 8147   7.935   0.834   3.108
 1860WAT    EPW 8148   7.868   0.874   3.100
 1861WAT      O 8149   7.121   1.023   4.340
 1861WAT     H1 8150   7.082   0.945   4.340
 1861WAT     H2 8151   7.164   1.023   4.263
 1861WAT    EPW 8152   7.122   1.011   4.328
 1862WAT      O 8153   7.269   0.861   4.642
 1862WAT     H1 8154   7.342   0.898   4.611
 1862WAT     H2 8155   7.249   0.911   4.711
 1862WAT    EPW 8156   7.277   0.874   4.648
 1863WAT      O 8157   7.509   0.423   4.048
 1863WAT     H1 8158   7.514   0.415   4.135
 1863WAT     H2 8159   7.448   0.365   4.025
 1863WAT    EPW 8160   7.500   0.413   4.057
 1864WAT      O 8161   7.533   0.459   4.320
 1864WAT     H1 8162   7.515   0.545   4.329
 1864WAT     H2 8163   7.474   0.421   4.372
 1864WAT    EPW 8164   7.521   0.466   4.329
 1865WAT      O 8165   6.826   0.843   4.885
 1865WAT     H1 8166   6.881   0.855   4.951
 1865WAT     H2 8167   6.838   0.759   4.863
 1865WAT    EPW 8168   6.836   0.832   4.891
 1866WAT      O 8169   7.307   0.537   3.773
 1866WAT     H1 8170   7.350   0.499   3.708
 1866WAT     H2 8171   7.240   0.482   3.788
 1866WAT    EPW 8172   7.303   0.523   3.765
 1867WAT      O 8173   7.143   1.223   3.943
 1867WAT     H1 8174   7.072   1.183   3.912
 1867WAT     H2 8175   7.196   1.229   3.874
 1867WAT    EPW 8176   7.140   1.218   3.928
 1868WAT      O 8177   7.421   0.473   3.523
 1868WAT     H1 8178   7.434   0.557   3.505
 1868WAT     H2 8179   7.502   0.440   3.524
 1868WAT    EPW 8180   7.435   0.480   3.521
 1869WAT      O 8181   6.964   0.732   3.928
 1869WAT     H1 8182   6.919   0.792   3.972
 1869WAT     H2 8183   7.047   0.759   3.934
 1869WAT    EPW 8184   6.970   0.745   3.935
 1870WAT      O 8185   6.975   0.247   3.567
 1870WAT     H1 8186   6.979   0.161   3.554
 1870WAT     H2 8187   7.039   0.278   3.516
 1870WAT    EPW 8188   6.985   0.239   3.558
 1871WAT      O 8189   6.913   0.848   3.475
 1871WAT     H1 8190   6.972   0.904   3.508
 1871WAT     H2 8191   6.905   0.788   3.538
 1871WAT    EPW 8192   6.921   0.848   3.489
 1872WAT      O 8193   7.305   0.601   4.127
 1872WAT     H1 8194   7.344   0.643   4.192
 1872WAT     H2 8195   7.370   0.558   4.088
 1872WAT    EPW 8196   7.320   0.601   4.131
 1873WAT      O 8197   6.910   0.645   3.268
 1873WAT     H1 8198   6.990   0.611   3.262
 1873WAT     H2 8199   6.920   0.713   3.322
 1873WAT    EPW 8200   6.923   0.650   3.275
 1874WAT      O 8201   6.931   0.471   4.002
 1874WAT     H1 8202   6.971   0.432   3.935
 1874WAT     H2 8203   6.945   0.556   3.988
 1874WAT    EPW 8204   6.939   0.478   3.990
 1875WAT      O 8205   7.449   0.834   3.771
 1875WAT     H1 8206   7.455   0.914   3.805
 1875WAT     H2 8207   7.515   0.791   3.807
 1875WAT    EPW 8208   7.460   0.839   3.781
 1876WAT      O 8209   7.277   0.253   4.014
 1876WAT     H1 8210   7.227   0.294   4.072
 1876WAT     H2 8211   7.283   0.172   4.046
 1876WAT    EPW 8212   7.270   0.247   4.027
 1877WAT      O 8213   7.686   1.019   4.336
 1877WAT     H1 8214   7.665   0.973   4.266
 1877WAT     H2 8215   7.693   1.101   4.306
 1877WAT    EPW 8216   7.684   1.025   4.322
 1878WAT      O 8217   7.075   0.330   4.959
 1878WAT     H1 8218   7.092   0.352   4.877
 1878WAT     H2 8219   7.130   0.263   4.974
 1878WAT    EPW 8220   7.086   0.323   4.949
 1879WAT      O 8221   7.708   0.849   4.753
 1879WAT     H1 8222   7.757   0.859   4.824
 1879WAT     H2 8223   7.659   0.780   4.771
 1879WAT    EPW 8224   7.708   0.841   4.766
 1880WAT      O 8225   7.613   1.013   3.514
 1880WAT     H1 8226   7.593   0.929   3.522
 1880WAT     H2 8227   7.675   1.013   3.452
 1880WAT    EPW 8228   7.620   1.001   3.506
 1881WAT      O 8229   7.811   1.026   3.317
 1881WAT     H1 8230   7.889   1.050   3.347
 1881WAT     H2 8231   7.779   1.099   3.281
 1881WAT    EPW 8232   7.818   1.040   3.316
 1882WAT      O 8233   7.206   0.324   3.417
 1882WAT     H1 8234   7.238   0.263   3.364
 1882WAT     H2 8235   7.277   0.357   3.455
 1882WAT    EPW 8236   7.221   0.320   3.415
 1883WAT      O 8237   7.770   0.139   3.587
 1883WAT     H1 8238   7.795   0.120   3.668
 1883WAT     H2 8239   7.745   0.061   3.554
 1883WAT    EPW 8240   7.770   0.124   3.594
 1884WAT      O 8241   7.770   0.536   4.034
 1884WAT     H1 8242   7.696   0.490   4.032
 1884WAT     H2 8243   7.794   0.534   4.118
 1884WAT    EPW 8244   7.763   0.529   4.046
 1885WAT      O 8245   7.412   1.093   3.096
 1885WAT     H1 8246   7.434   1.020   3.138
 1885WAT     H2 8247   7.404   1.152   3.160
 1885WAT    EPW 8248   7.414   1.091   3.112
 1886WAT      O 8249   7.120   0.404   4.190
 1886WAT     H1 8250   7.173   0.472   4.181
 1886WAT     H2 8251   7.052   0.424   4.139
 1886WAT    EPW 8252   7.118   0.417   4.181
 1887WAT      O 8253   7.253   0.126   3.147
 1887WAT     H1 8254   7.223   0.044   3.140
 1887WAT     H2 8255   7.335   0.120   3.116
 1887WAT    EPW 8256   7.261   0.113   3.141
 1888WAT      O 8257   7.093   0.461   4.715
 1888WAT     H1 8258   7.073   0.430   4.636
 1888WAT     H2 8259   7.026   0.512   4.735
 1888WAT    EPW 8260   7.080   0.464   4.706
 1889WAT      O 8261   7.467   0.734   4.316
 1889WAT     H1 8262   7.470   0.783   4.388
 1889WAT     H2 8263   7.501   0.785   4.254
 1889WAT    EPW 8264   7.472   0.749   4.318
 1890WAT      O 8265   7.327   0.591   4.656
 1890WAT     H1 8266   7.254   0.555   4.687
 1890WAT     H2 8267   7.307   0.675   4.646
 1890WAT    EPW 8268   7.313   0.598   4.659
 1891WAT      O 8269   7.803   0.523   4.315
 1891WAT     H1 8270   7.818   0.560   4.393
 1891WAT     H2 8271   7.724   0.489   4.323
 1891WAT    EPW 8272   7.794   0.523   4.328
 1892WAT      O 8273   7.732   1.093   3.758
 1892WAT     H1 8274   7.737   1.180   3.753
 1892WAT     H2 8275   7.701   1.070   3.680
 1892WAT    EPW 8276   7.728   1.103   3.746
 1893WAT      O 8277   7.577   0.891   4.110
 1893WAT     H1 8278   7.536   0.952   4.063
 1893WAT     H2 8279   7.616   0.842   4.049
 1893WAT    EPW 8280   7.577   0.892   4.094
 1894WAT      O 8281   7.651   0.415   3.237
 1894WAT     H1 8282   7.698   0.405   3.164
 1894WAT     H2 8283   7.588   0.471   3.213
 1894WAT    EPW 8284   7.648   0.422   3.223
 1895WAT      O 8285   7.762   1.113   4.653
 1895WAT     H1 8286   7.824   1.094   4.594
 1895WAT     H2 8287   7.746   1.036   4.691
 1895WAT    EPW 8288   7.769   1.099   4.650
 1896WAT      O 8289   7.786   0.624   4.584
 1896WAT     H1 8290   7.728   0.583   4.635
 1896WAT     H2 8291   7.796   0.702   4.623
 1896WAT    EPW 8292   7.779   0.629   4.598
 1897WAT      O 8293   7.425   1.234   4.190
 1897WAT     H1 8294   7.395   1.227   4.272
 1897WAT     H2 8295   7.388   1.166   4.150
 1897WAT    EPW 8296   7.415   1.223   4.196
 1898WAT      O 8297   7.009   1.192   4.716
 1898WAT     H1 8298   6.949   1.130   4.701
 1898WAT     H2 8299   6.962   1.260   4.744
 1898WAT    EPW 8300   6.993   1.193   4.718
 1899WAT      O 8301   7.044   0.355   4.452
 1899WAT     H1 8302   7.061   0.377   4.369
 1899WAT     H2 8303   7.015   0.273   4.446
 1899WAT    EPW 8304   7.042   0.346   4.439
 1900WAT      O 8305   7.445   0.856   3.250
 1900WAT     H1 8306   7.488   0.836   3.324
 1900WAT     H2 8307   7.361   0.847   3.272
 1900WAT    EPW 8308   7.439   0.852   3.264
 1901WAT      O 8309   7.331   0.371   4.484
 1901WAT     H1 8310   7.335   0.439   4.538
 1901WAT     H2 8311   7.245   0.359   4.472
 1901WAT    EPW 8312   7.319   0.379   4.490
 1902WAT      O 8313   7.193   0.785   3.327
 1902WAT     H1 8314   7.190   0.770   3.412
 1902WAT     H2 8315   7.190   0.705   3.291
 1902WAT    EPW 8316   7.192   0.771   3.334
 1903WAT      O 8317   7.452   0.595   3.150
 1903WAT     H1 8318   7.371   0.569   3.165
 1903WAT     H2 8319   7.454   0.677   3.177
 1903WAT    EPW 8320   7.441   0.603   3.156
 1904WAT      O 8321   7.433   1.144   4.712
 1904WAT     H1 8322   7.445   1.130   4.797
 1904WAT     H2 8323   7.487   1.086   4.674
 1904WAT    EPW 8324   7.443   1.133   4.719
 1905WAT      O 8325   7.178   1.016   4.856
 1905WAT     H1 8326   7.246   1.055   4.894
 1905WAT     H2 8327   7.136   1.081   4.817
 1905WAT    EPW 8328   7.182   1.031   4.856
 1906WAT      O 8329   7.017   0.782   4.556
 1906WAT     H1 8330   6.963   0.843   4.586
 1906WAT     H2 8331   7.096   0.809   4.583
 1906WAT    EPW 8332   7.021   0.795   4.565
 1907WAT      O 8333   7.343   1.098   3.506
 1907WAT     H1 8334   7.342   1.155   3.439
 1907WAT     H2 8335   7.425   1.069   3.507
 1907WAT    EPW 8336   7.355   1.102   3.496
 1908WAT      O 8337   7.687   0.395   3.512
 1908WAT     H1 8338   7.688   0.395   3.425
 1908WAT     H2 8339   7.715   0.315   3.533
 1908WAT    EPW 8340   7.691   0.383   3.502
 1909WAT      O 8341   7.253   1.029   4.100
 1909WAT     H1 8342   7.251   0.956   4.053
 1909WAT     H2 8343   7.214   1.088   4.049
 1909WAT    EPW 8344   7.247   1.027   4.086
 1910WAT      O 8345   6.996   1.250   4.445
 1910WAT     H1 8346   7.005   1.229   4.529
 1910WAT     H2 8347   7.028   1.180   4.403
 1910WAT    EPW 8348   7.002   1.236   4.451
 1911WAT      O 8349   6.918   0.656   1.771
 1911WAT     H1 8350   6.927   0.681   1.854
 1911WAT     H2 8351   6.836   0.625   1.768
 1911WAT    EPW 8352   6.907   0.655   1.783
 1912WAT      O 8353   7.163   0.533   1.330
 1912WAT     H1 8354   7.133   0.486   1.263
 1912WAT     H2 8355   7.171   0.475   1.394
 1912WAT    EPW 8356   7.159   0.518   1.329
 1913WAT      O 8357   7.184   0.704   1.705
 1913WAT     H1 8358   7.232   0.659   1.762
 1913WAT     H2 8359   7.103   0.675   1.719
 1913WAT    EPW 8360   7.179   0.693   1.716
 1914WAT      O 8361   7.053   0.979   1.300
 1914WAT     H1 8362   7.090   0.973   1.221
 1914WAT     H2 8363   7.096   0.919   1.348
 1914WAT    EPW 8364   7.065   0.969   1.295
 1915WAT      O 8365   6.973   0.773   2.379
 1915WAT     H1 8366   6.991   0.763   2.464
 1915WAT     H2 8367   6.906   0.720   2.366
 1915WAT    EPW 8368   6.966   0.764   2.390
 1916WAT      O 8369   7.568   0.616   2.893
 1916WAT     H1 8370   7.540   0.606   2.975
 1916WAT     H2 8371   7.496   0.603   2.845
 1916WAT    EPW 8372   7.553   0.613   2.898
 1917WAT      O 8373   7.099   0.354   1.910
 1917WAT     H1 8374   7.065   0.312   1.842
 1917WAT     H2 8375   7.148   0.293   1.949
 1917WAT    EPW 8376   7.101   0.338   1.906
 1918WAT      O 8377   7.528   0.922   2.644
 1918WAT     H1 8378   7.575   0.962   2.582
 1918WAT     H2 8379   7.588   0.887   2.696
 1918WAT    EPW 8380   7.544   0.923   2.643
 1919WAT      O 8381   7.694   0.756   1.998
 1919WAT     H1 8382   7.726   0.687   2.041
 1919WAT     H2 8383   7.765   0.804   1.980
 1919WAT    EPW 8384   7.709   0.753   2.002
 1920WAT      O 8385   7.741   0.642   1.722
 1920WAT     H1 8386   7.736   0.635   1.809
 1920WAT     H2 8387   7.739   0.559   1.695
 1920WAT    EPW 8388   7.740   0.629   1.731
 1921WAT      O 8389   6.958   1.049   1.949
 1921WAT     H1 8390   6.891   1.086   1.907
 1921WAT     H2 8391   7.008   1.018   1.885
 1921WAT    EPW 8392   6.955   1.049   1.934
 1922WAT      O 8393   7.517   0.755   1.619
 1922WAT     H1 8394   7.477   0.776   1.694
 1922WAT     H2 8395   7.591   0.717   1.646
 1922WAT    EPW 8396   7.522   0.752   1.634
 1923WAT      O 8397   7.121   0.973   1.728
 1923WAT     H1 8398   7.154   0.893   1.737
 1923WAT     H2 8399   7.184   1.016   1.686
 1923WAT    EPW 8400   7.135   0.968   1.723
 1924WAT      O 8401   7.230   0.799   2.053
 1924WAT     H1 8402   7.290   0.796   1.990
 1924WAT     H2 8403   7.253   0.734   2.106
 1924WAT    EPW 8404   7.242   0.789   2.051
 1925WAT      O 8405   7.498   1.073   2.009
 1925WAT     H1 8406   7.576   1.084   1.972
 1925WAT     H2 8407   7.448   1.134   1.972
 1925WAT    EPW 8408   7.502   1.083   1.998
 1926WAT      O 8409   7.324   1.175   2.553
 1926WAT     H1 8410   7.346   1.155   2.635
 1926WAT     H2 8411   7.255   1.124   2.537
 1926WAT    EPW 8412   7.317   1.165   2.563
 1927WAT      O 8413   7.864   0.890   1.197
 1927WAT     H1 8414   7.845   0.933   1.270
 1927WAT     H2 8415   7.934   0.843   1.219
 1927WAT    EPW 8416   7.872   0.889   1.211
 1928WAT      O 8417   7.104   1.033   2.444
 1928WAT     H1 8418   7.065   0.955   2.448
 1928WAT     H2 8419   7.146   1.031   2.368
 1928WAT    EPW 8420   7.104   1.021   2.434
 1929WAT      O 8421   7.269   0.861   2.741
 1929WAT     H1 8422   7.343   0.897   2.712
 1929WAT     H2 8423   7.249   0.910   2.811
 1929WAT    EPW 8424   7.277   0.874   2.747
 1930WAT      O 8425   7.511   0.424   2.149
 1930WAT     H1 8426   7.516   0.415   2.235
 1930WAT     H2 8427   7.451   0.366   2.125
 1930WAT    EPW 8428   7.503   0.414   2.158
 1931WAT      O 8429   7.535   0.459   2.421
 1931WAT     H1 8430   7.517   0.543   2.431
 1931WAT     H2 8431   7.478   0.420   2.474
 1931WAT    EPW 8432   7.524   0.465   2.431
 1932WAT      O 8433   6.830   0.835   2.988
 1932WAT     H1 8434   6.886   0.848   3.053
 1932WAT     H2 8435   6.845   0.752   2.965
 1932WAT    EPW 8436   6.840   0.825   2.994
 1933WAT      O 8437   7.314   0.531   1.873
 1933WAT     H1 8438   7.354   0.494   1.805
 1933WAT     H2 8439   7.247   0.477   1.889
 1933WAT    EPW 8440   7.310   0.517   1.865
 1934WAT      O 8441   7.143   1.227   2.043
 1934WAT     H1 8442   7.074   1.183   2.012
 1934WAT     H2 8443   7.197   1.231   1.974
 1934WAT    EPW 8444   7.141   1.221   2.028
 1935WAT      O 8445   7.419   0.472   1.617
 1935WAT     H1 8446   7.432   0.557   1.602
 1935WAT     H2 8447   7.499   0.439   1.618
 1935WAT    EPW 8448   7.433   0.480   1.615
 1936WAT      O 8449   6.963   0.730   2.031
 1936WAT     H1 8450   6.916   0.791   2.072
 1936WAT     H2 8451   7.045   0.759   2.038
 1936WAT    EPW 8452   6.968   0.743   2.038
 1937WAT      O 8453   6.986   0.241   1.669
 1937WAT     H1 8454   6.991   0.155   1.658
 1937WAT     H2 8455   7.047   0.273   1.615
 1937WAT    EPW 8456   6.995   0.233   1.659
 1938WAT      O 8457   6.919   0.846   1.576
 1938WAT     H1 8458   6.980   0.900   1.607
 1938WAT     H2 8459   6.910   0.786   1.639
 1938WAT    EPW 8460   6.927   0.845   1.590
 1939WAT      O 8461   7.308   0.603   2.229
 1939WAT     H1 8462   7.348   0.644   2.294
 1939WAT     H2 8463   7.373   0.560   2.190
 1939WAT    EPW 8464   7.324   0.602   2.233
 1940WAT      O 8465   6.907   0.670   1.350
 1940WAT     H1 8466   6.982   0.625   1.348
 1940WAT     H2 8467   6.918   0.727   1.415
 1940WAT    EPW 8468   6.920   0.672   1.359
 1941WAT      O 8469   6.936   0.469   2.106
 1941WAT     H1 8470   6.977   0.431   2.039
 1941WAT     H2 8471   6.949   0.554   2.092
 1941WAT    EPW 8472   6.944   0.476   2.094
 1942WAT      O 8473   7.448   0.834   1.877
 1942WAT     H1 8474   7.455   0.915   1.911
 1942WAT     H2 8475   7.514   0.791   1.914
 1942WAT    EPW 8476   7.459   0.840   1.888
 1943WAT      O 8477   7.280   0.252   2.116
 1943WAT     H1 8478   7.232   0.294   2.175
 1943WAT     H2 8479   7.291   0.173   2.151
 1943WAT    EPW 8480   7.275   0.247   2.130
 1944WAT      O 8481   7.694   1.023   2.444
 1944WAT     H1 8482   7.672   0.973   2.376
 1944WAT     H2 8483   7.696   1.103   2.411
 1944WAT    EPW 8484   7.691   1.027   2.429
 1945WAT      O 8485   7.077   0.330   3.066
 1945WAT     H1 8486   7.095   0.351   2.983
 1945WAT     H2 8487   7.128   0.261   3.081
 1945WAT    EPW 8488   7.087   0.323   3.056
 1946WAT      O 8489   7.711   0.850   2.855
 1946WAT     H1 8490   7.760   0.860   2.926
 1946WAT     H2 8491   7.662   0.781   2.874
 1946WAT    EPW 8492   7.711   0.842   2.868
 1947WAT      O 8493   7.619   1.018   1.620
 1947WAT     H1 8494   7.600   0.933   1.627
 1947WAT     H2 8495   7.682   1.020   1.560
 1947WAT    EPW 8496   7.625   1.005   1.612
 1948WAT      O 8497   7.819   1.044   1.427
 1948WAT     H1 8498   7.898   1.069   1.453
 1948WAT     H2 8499   7.787   1.114   1.386
 1948WAT    EPW 8500   7.826   1.058   1.425
 1949WAT      O 8501   7.203   0.323   1.504
 1949WAT     H1 8502   7.232   0.266   1.444
 1949WAT     H2 8503   7.276   0.354   1.540
 1949WAT    EPW 8504   7.218   0.319   1.501
 1950WAT      O 8505   7.775   0.142   1.690
 1950WAT     H1 8506   7.803   0.128   1.772
 1950WAT     H2 8507   7.755   0.062   1.662
 1950WAT    EPW 8508   7.776   0.128   1.698
 1951WAT      O 8509   7.773   0.532   2.129
 1951WAT     H1 8510   7.698   0.488   2.128
 1951WAT     H2 8511   7.796   0.532   2.213
 1951WAT    EPW 8512   7.766   0.525   2.141
 1952WAT      O 8513   7.421   1.088   1.201
 1952WAT     H1 8514   7.444   1.015   1.244
 1952WAT     H2 8515   7.413   1.147   1.265
 1952WAT    EPW 8516   7.423   1.086   1.217
 1953WAT      O 8517   7.126   0.404   2.294
 1953WAT     H1 8518   7.179   0.472   2.285
 1953WAT     H2 8519   7.058   0.423   2.243
 1953WAT    EPW 8520   7.124   0.417   2.285
 1954WAT      O 8521   7.251   0.151   1.253
 1954WAT     H1 8522   7.220   0.069   1.250
 1954WAT     H2 8523   7.334   0.142   1.228
 1954WAT    EPW 8524   7.259   0.137   1.249
 1955WAT      O 8525   7.100   0.455   2.819
 1955WAT     H1 8526   7.081   0.424   2.740
 1955WAT     H2 8527   7.032   0.506   2.838
 1955WAT    EPW 8528   7.087   0.458   2.810
 1956WAT      O 8529   7.469   0.733   2.420
 1956WAT     H1 8530   7.472   0.781   2.493
 1956WAT     H2 8531   7.503   0.785   2.359
 1956WAT    EPW 8532   7.474   0.748   2.422
 1957WAT      O 8533   7.330   0.592   2.757
 1957WAT     H1 8534   7.258   0.555   2.789
 1957WAT     H2 8535   7.308   0.675   2.747
 1957WAT    EPW 8536   7.316   0.599   2.760
 1958WAT      O 8537   7.804   0.529   2.410
 1958WAT     H1 8538   7.819   0.567   2.487
 1958WAT     H2 8539   7.726   0.492   2.420
 1958WAT    EPW 8540   7.795   0.529   2.423
 1959WAT      O 8541   7.731   1.096   1.868
 1959WAT     H1 8542   7.737   1.183   1.864
 1959WAT     H2 8543   7.701   1.073   1.789
 1959WAT    EPW 8544   7.727   1.105   1.856
 1960WAT      O 8545   7.580   0.893   2.218
 1960WAT     H1 8546   7.538   0.955   2.173
 1960WAT     H2 8547   7.619   0.845   2.157
 1960WAT    EPW 8548   7.579   0.895   2.203
 1961WAT      O 8549   7.646   0.414   1.332
 1961WAT     H1 8550   7.697   0.417   1.262
 1961WAT     H2 8551   7.580   0.468   1.311
 1961WAT    EPW 8552   7.644   0.422   1.319
 1962WAT      O 8553   7.761   1.110   2.744
 1962WAT     H1 8554   7.805   1.084   2.674
 1962WAT     H2 8555   7.749   1.036   2.789
 1962WAT    EPW 8556   7.765   1.095   2.741
 1963WAT      O 8557   7.785   0.630   2.680
 1963WAT     H1 8558   7.729   0.586   2.730
 1963WAT     H2 8559   7.796   0.705   2.722
 1963WAT    EPW 8560   7.778   0.635   2.693
 1964WAT      O 8561   7.423   1.224   2.298
 1964WAT     H1 8562   7.393   1.218   2.380
 1964WAT     H2 8563   7.383   1.159   2.257
 1964WAT    EPW 8564   7.412   1.214   2.304
 1965WAT      O 8565   7.004   1.188   2.829
 1965WAT     H1 8566   6.946   1.126   2.810
 1965WAT     H2 8567   6.955   1.254   2.859
 1965WAT    EPW 8568   6.989   1.189   2.830
 1966WAT      O 8569   7.051   0.355   2.555
 1966WAT     H1 8570   7.068   0.377   2.473
 1966WAT     H2 8571   7.021   0.273   2.549
 1966WAT    EPW 8572   7.049   0.346   2.542
 1967WAT      O 8573   7.454   0.853   1.357
 1967WAT     H1 8574   7.497   0.833   1.430
 1967WAT     H2 8575   7.370   0.846   1.381
 1967WAT    EPW 8576   7.448   0.849   1.372
 1968WAT      O 8577   7.337   0.369   2.589
 1968WAT     H1 8578   7.341   0.438   2.642
 1968WAT     H2 8579   7.252   0.357   2.577
 1968WAT    EPW 8580   7.325   0.377   2.595
 1969WAT      O 8581   7.202   0.785   1.437
 1969WAT     H1 8582   7.199   0.766   1.522
 1969WAT     H2 8583   7.188   0.707   1.399
 1969WAT    EPW 8584   7.199   0.770   1.444
 1970WAT      O 8585   7.442   0.593   1.257
 1970WAT     H1 8586   7.358   0.571   1.272
 1970WAT     H2 8587   7.447   0.675   1.287
 1970WAT    EPW 8588   7.430   0.602   1.264
 1971WAT      O 8589   7.434   1.141   2.815
 1971WAT     H1 8590   7.446   1.126   2.900
 1971WAT     H2 8591   7.490   1.087   2.777
 1971WAT    EPW 8592   7.444   1.131   2.822
 1972WAT      O 8593   7.179   1.011   2.960
 1972WAT     H1 8594   7.247   1.051   2.998
 1972WAT     H2 8595   7.135   1.077   2.922
 1972WAT    EPW 8596   7.183   1.027   2.960
 1973WAT      O 8597   7.021   0.784   2.646
 1973WAT     H1 8598   6.965   0.841   2.681
 1973WAT     H2 8599   7.099   0.810   2.675
 1973WAT    EPW 8600   7.024   0.796   2.655
 1974WAT      O 8601   7.347   1.099   1.607
 1974WAT     H1 8602   7.346   1.153   1.539
 1974WAT     H2 8603   7.430   1.071   1.609
 1974WAT    EPW 8604   7.359   1.102   1.597
 1975WAT      O 8605   7.684   0.393   1.608
 1975WAT     H1 8606   7.685   0.392   1.520
 1975WAT     H2 8607   7.714   0.314   1.630
 1975WAT    EPW 8608   7.689   0.381   1.598
 1976WAT      O 8609   7.241   1.030   2.206
 1976WAT     H1 8610   7.241   0.957   2.158
 1976WAT     H2 8611   7.206   1.089   2.152
 1976WAT    EPW 8612   7.236   1.028   2.191
 1977WAT      O 8613   6.989   1.261   2.562
 1977WAT     H1 8614   6.997   1.235   2.644
 1977WAT     H2 8615   7.015   1.192   2.516
 1977WAT    EPW 8616   6.994   1.247   2.567
 1978WAT      O 8617   6.977   0.807   0.538
 1978WAT     H1 8618   6.987   0.785   0.621
 1978WAT     H2 8619   6.923   0.746   0.506
 1978WAT    EPW 8620   6.970   0.795   0.546
 1979WAT      O 8621   7.565   0.629   1.008
 1979WAT     H1 8622   7.528   0.616   1.086
 1979WAT     H2 8623   7.501   0.608   0.952
 1979WAT    EPW 8624   7.550   0.624   1.011
 1980WAT      O 8625   7.533   0.877   0.744
 1980WAT     H1 8626   7.559   0.943   0.693
 1980WAT     H2 8627   7.595   0.874   0.806
 1980WAT    EPW 8628   7.546   0.886   0.746
 1981WAT      O 8629   7.377   1.126   0.652
 1981WAT     H1 8630   7.378   1.130   0.739
 1981WAT     H2 8631   7.302   1.085   0.634
 1981WAT    EPW 8632   7.366   1.121   0.662
 1982WAT      O 8633   7.155   1.021   0.510
 1982WAT     H1 8634   7.109   0.948   0.521
 1982WAT     H2 8635   7.196   1.008   0.434
 1982WAT    EPW 8636   7.155   1.008   0.500
 1983WAT      O 8637   7.273   0.851   0.834
 1983WAT     H1 8638   7.352   0.876   0.808
 1983WAT     H2 8639   7.261   0.895   0.908
 1983WAT    EPW 8640   7.283   0.861   0.841
 1984WAT      O 8641   7.435   0.493   0.235
 1984WAT     H1 8642   7.467   0.459   0.309
 1984WAT     H2 8643   7.399   0.424   0.195
 1984WAT    EPW 8644   7.434   0.478   0.240
 1985WAT      O 8645   7.549   0.432   0.481
 1985WAT     H1 8646   7.541   0.515   0.507
 1985WAT     H2 8647   7.496   0.389   0.534
 1985WAT    EPW 8648   7.540   0.438   0.493
 1986WAT      O 8649   6.833   0.799   1.110
 1986WAT     H1 8650   6.865   0.770   1.185
 1986WAT     H2 8651   6.815   0.726   1.065
 1986WAT    EPW 8652   6.835   0.784   1.114
 1987WAT      O 8653   7.286   0.692   0.362
 1987WAT     H1 8654   7.339   0.693   0.431
 1987WAT     H2 8655   7.323   0.633   0.309
 1987WAT    EPW 8656   7.300   0.683   0.364
 1988WAT      O 8657   7.698   1.033   0.560
 1988WAT     H1 8658   7.687   0.973   0.497
 1988WAT     H2 8659   7.702   1.108   0.516
 1988WAT    EPW 8660   7.697   1.035   0.544
 1989WAT      O 8661   7.074   0.352   1.145
 1989WAT     H1 8662   7.090   0.378   1.063
 1989WAT     H2 8663   7.129   0.285   1.156
 1989WAT    EPW 8664   7.084   0.346   1.135
 1990WAT      O 8665   7.708   0.868   0.971
 1990WAT     H1 8666   7.758   0.880   1.042
 1990WAT     H2 8667   7.658   0.800   0.992
 1990WAT    EPW 8668   7.708   0.860   0.984
 1991WAT      O 8669   7.657   0.652   0.168
 1991WAT     H1 8670   7.583   0.606   0.176
 1991WAT     H2 8671   7.713   0.609   0.219
 1991WAT    EPW 8672   7.654   0.639   0.177
 1992WAT      O 8673   7.078   0.516   0.424
 1992WAT     H1 8674   7.138   0.577   0.408
 1992WAT     H2 8675   7.002   0.555   0.404
 1992WAT    EPW 8676   7.075   0.530   0.419
 1993WAT      O 8677   7.093   0.481   0.896
 1993WAT     H1 8678   7.078   0.438   0.822
 1993WAT     H2 8679   7.049   0.556   0.886
 1993WAT    EPW 8680   7.085   0.486   0.884
 1994WAT      O 8681   7.504   0.698   0.535
 1994WAT     H1 8682   7.511   0.742   0.610
 1994WAT     H2 8683   7.544   0.750   0.477
 1994WAT    EPW 8684   7.511   0.713   0.537
 1995WAT      O 8685   7.345   0.581   0.844
 1995WAT     H1 8686   7.270   0.547   0.873
 1995WAT     H2 8687   7.326   0.665   0.832
 1995WAT    EPW 8688   7.331   0.589   0.847
 1996WAT      O 8689   7.794   0.502   0.360
 1996WAT     H1 8690   7.855   0.513   0.421
 1996WAT     H2 8691   7.728   0.464   0.402
 1996WAT    EPW 8692   7.794   0.498   0.375
 1997WAT      O 8693   7.601   0.869   0.341
 1997WAT     H1 8694   7.530   0.904   0.306
 1997WAT     H2 8695   7.629   0.813   0.280
 1997WAT    EPW 8696   7.595   0.866   0.327
 1998WAT      O 8697   7.715   1.118   0.831
 1998WAT     H1 8698   7.730   1.088   0.751
 1998WAT     H2 8699   7.729   1.048   0.882
 1998WAT    EPW 8700   7.719   1.103   0.827
 1999WAT      O 8701   7.829   0.614   0.889
 1999WAT     H1 8702   7.752   0.589   0.921
 1999WAT     H2 8703   7.828   0.700   0.898
 1999WAT    EPW 8704   7.818   0.623   0.895
 2000WAT      O 8705   7.425   1.196   0.389
 2000WAT     H1 8706   7.413   1.177   0.473
 2000WAT     H2 8707   7.398   1.124   0.347
 2000WAT    EPW 8708   7.419   1.183   0.395
 2001WAT      O 8709   7.045   1.177   0.916
 2001WAT     H1 8710   6.982   1.117   0.911
 2001WAT     H2 8711   7.005   1.247   0.950
 2001WAT    EPW 8712   7.030   1.179   0.920
 2002WAT      O 8713   7.056   0.357   0.645
 2002WAT     H1 8714   7.065   0.407   0.574
 2002WAT     H2 8715   7.034   0.279   0.613
 2002WAT    EPW 8716   7.054   0.353   0.630
 2003WAT      O 8717   7.348   0.365   0.663
 2003WAT     H1 8718   7.357   0.433   0.717
 2003WAT     H2 8719   7.262   0.355   0.656
 2003WAT    EPW 8720   7.337   0.373   0.670
 2004WAT      O 8721   7.448   1.158   0.928
 2004WAT     H1 8722   7.449   1.135   1.012
 2004WAT     H2 8723   7.530   1.144   0.902
 2004WAT    EPW 8724   7.460   1.152   0.936
 2005WAT      O 8725   7.198   0.993   1.061
 2005WAT     H1 8726   7.264   1.031   1.104
 2005WAT     H2 8727   7.159   1.059   1.021
 2005WAT    EPW 8728   7.202   1.008   1.062
 2006WAT      O 8729   7.018   0.747   0.803
 2006WAT     H1 8730   6.965   0.808   0.835
 2006WAT     H2 8731   7.097   0.782   0.811
 2006WAT    EPW 8732   7.022   0.761   0.809
 2007WAT      O 8733   7.322   0.953   0.276
 2007WAT     H1 8734   7.304   0.870   0.297
 2007WAT     H2 8735   7.290   0.961   0.196
 2007WAT    EPW 8736   7.314   0.942   0.268
 2008WAT      O 8737   7.031   1.243   0.645
 2008WAT     H1 8738   7.046   1.214   0.726
 2008WAT     H2 8739   7.066   1.181   0.594
 2008WAT    EPW 8740   7.038   1.229   0.650
 2009WAT      O 8741   6.136   6.859   7.438
 2009WAT     H1 8742   6.140   6.903   7.363
 2009WAT     H2 8743   6.218   6.836   7.453
 2009WAT    EPW 8744   6.148   6.862   7.429
 2010WAT      O 8745   5.049   7.320   7.044
 2010WAT     H1 8746   4.978   7.364   7.018
 2010WAT     H2 8747   5.020   7.237   7.051
 2010WAT    EPW 8748   5.034   7.314   7.041
 2011WAT      O 8749   5.344   7.900   6.877
 2011WAT     H1 8750   5.301   7.853   6.817
 2011WAT     H2 8751   5.360   7.843   6.940
 2011WAT    EPW 8752   5.340   7.885   6.877
 2012WAT      O 8753   6.357   7.659   7.504
 2012WAT     H1 8754   6.347   7.647   7.419
 2012WAT     H2 8755   6.289   7.617   7.540
 2012WAT    EPW 8756   6.346   7.651   7.497
 2013WAT      O 8757   5.774   6.972   7.316
 2013WAT     H1 8758   5.764   7.037   7.259
 2013WAT     H2 8759   5.851   6.938   7.295
 2013WAT    EPW 8760   5.784   6.976   7.305
 2014WAT      O 8761   5.426   7.751   7.445
 2014WAT     H1 8762   5.357   7.753   7.391
 2014WAT     H2 8763   5.462   7.674   7.430
 2014WAT    EPW 8764   5.421   7.740   7.435
 2015WAT      O 8765   5.510   7.491   7.402
 2015WAT     H1 8766   5.562   7.453   7.461
 2015WAT     H2 8767   5.431   7.459   7.420
 2015WAT    EPW 8768   5.506   7.480   7.413
 2016WAT      O 8769   5.504   7.022   7.424
 2016WAT     H1 8770   5.464   7.070   7.364
 2016WAT     H2 8771   5.585   7.012   7.392
 2016WAT    EPW 8772   5.510   7.028   7.411
 2017WAT      O 8773   5.807   6.908   7.587
 2017WAT     H1 8774   5.809   6.988   7.623
 2017WAT     H2 8775   5.789   6.924   7.503
 2017WAT    EPW 8776   5.805   6.922   7.580
 2018WAT      O 8777   6.247   7.148   6.840
 2018WAT     H1 8778   6.200   7.211   6.878
 2018WAT     H2 8779   6.263   7.092   6.906
 2018WAT    EPW 8780   6.243   7.149   6.856
 2019WAT      O 8781   5.136   7.512   7.704
 2019WAT     H1 8782   5.064   7.557   7.689
 2019WAT     H2 8783   5.107   7.433   7.726
 2019WAT    EPW 8784   5.121   7.507   7.705
 2020WAT      O 8785   6.758   7.167   7.510
 2020WAT     H1 8786   6.697   7.226   7.531
 2020WAT     H2 8787   6.713   7.093   7.504
 2020WAT    EPW 8788   6.742   7.165   7.512
 2021WAT      O 8789   5.959   7.344   7.437
 2021WAT     H1 8790   5.992   7.300   7.369
 2021WAT     H2 8791   6.027   7.387   7.469
 2021WAT    EPW 8792   5.974   7.344   7.432
 2022WAT      O 8793   6.068   7.324   6.972
 2022WAT     H1 8794   6.081   7.402   7.009
 2022WAT     H2 8795   5.990   7.333   6.934
 2022WAT    EPW 8796   6.058   7.337   6.972
 2023WAT      O 8797   6.290   6.971   7.051
 2023WAT     H1 8798   6.343   6.901   7.054
 2023WAT     H2 8799   6.316   7.019   7.119
 2023WAT    EPW 8800   6.302   6.968   7.061
 2024WAT      O 8801   5.090   7.102   7.323
 2024WAT     H1 8802   5.071   7.017   7.320
 2024WAT     H2 8803   5.031   7.135   7.378
 2024WAT    EPW 8804   5.079   7.094   7.331
 2025WAT      O 8805   6.066   7.210   7.225
 2025WAT     H1 8806   6.040   7.129   7.210
 2025WAT     H2 8807   6.062   7.248   7.146
 2025WAT    EPW 8808   6.061   7.204   7.211
 2026WAT      O 8809   6.043   6.939   7.173
 2026WAT     H1 8810   5.983   6.922   7.112
 2026WAT     H2 8811   6.118   6.940   7.129
 2026WAT    EPW 8812   6.045   6.937   7.158
 2027WAT      O 8813   5.860   7.186   7.639
 2027WAT     H1 8814   5.892   7.231   7.572
 2027WAT     H2 8815   5.885   7.233   7.709
 2027WAT    EPW 8816   5.868   7.200   7.640
 2028WAT      O 8817   5.409   6.777   7.527
 2028WAT     H1 8818   5.438   6.855   7.501
 2028WAT     H2 8819   5.376   6.742   7.454
 2028WAT    EPW 8820   5.408   6.783   7.512
 2029WAT      O 8821   6.389   6.770   7.505
 2029WAT     H1 8822   6.390   6.759   7.592
 2029WAT     H2 8823   6.426   6.697   7.475
 2029WAT    EPW 8824   6.394   6.758   7.513
 2030WAT      O 8825   5.413   7.194   7.626
 2030WAT     H1 8826   5.443   7.135   7.569
 2030WAT     H2 8827   5.357   7.148   7.675
 2030WAT    EPW 8828   5.409   7.178   7.625
 2031WAT      O 8829   6.425   7.653   6.983
 2031WAT     H1 8830   6.410   7.736   6.961
 2031WAT     H2 8831   6.402   7.648   7.066
 2031WAT    EPW 8832   6.419   7.664   6.992
 2032WAT      O 8833   6.771   7.021   6.965
 2032WAT     H1 8834   6.814   6.992   6.895
 2032WAT     H2 8835   6.743   7.100   6.940
 2032WAT    EPW 8836   6.773   7.028   6.951
 2033WAT      O 8837   5.220   7.728   7.260
 2033WAT     H1 8838   5.180   7.651   7.264
 2033WAT     H2 8839   5.275   7.719   7.193
 2033WAT    EPW 8840   5.222   7.715   7.251
 2034WAT      O 8841   6.656   6.920   7.196
 2034WAT     H1 8842   6.731   6.884   7.224
 2034WAT     H2 8843   6.680   6.961   7.123
 2034WAT    EPW 8844   6.671   6.920   7.189
 2035WAT      O 8845   6.270   7.273   7.706
 2035WAT     H1 8846   6.289   7.254   7.789
 2035WAT     H2 8847   6.228   7.201   7.678
 2035WAT    EPW 8848   6.267   7.259   7.714
 2036WAT      O 8849   5.743   7.160   7.123
 2036WAT     H1 8850   5.733   7.142   7.039
 2036WAT     H2 8851   5.730   7.247   7.128
 2036WAT    EPW 8852   5.740   7.170   7.112
 2037WAT      O 8853   5.400   7.410   7.095
 2037WAT     H1 8854   5.383   7.351   7.157
 2037WAT     H2 8855   5.361   7.376   7.024
 2037WAT    EPW 8856   5.392   7.396   7.094
 2038WAT      O 8857   5.304   7.790   7.690
 2038WAT     H1 8858   5.348   7.780   7.616
 2038WAT     H2 8859   5.271   7.711   7.706
 2038WAT    EPW 8860   5.306   7.777   7.682
 2039WAT      O 8861   6.324   7.122   7.277
 2039WAT     H1 8862   6.379   7.188   7.288
 2039WAT     H2 8863   6.246   7.161   7.271
 2039WAT    EPW 8864   6.320   7.137   7.277
 2040WAT      O 8865   6.089   7.560   7.122
 2040WAT     H1 8866   6.085   7.623   7.062
 2040WAT     H2 8867   6.030   7.583   7.181
 2040WAT    EPW 8868   6.080   7.572   7.122
 2041WAT      O 8869   5.577   6.843   7.068
 2041WAT     H1 8870   5.580   6.831   7.155
 2041WAT     H2 8871   5.526   6.912   7.059
 2041WAT    EPW 8872   5.570   6.851   7.080
 2042WAT      O 8873   5.430   7.687   7.074
 2042WAT     H1 8874   5.416   7.602   7.085
 2042WAT     H2 8875   5.499   7.703   7.125
 2042WAT    EPW 8876   5.438   7.677   7.083
 2043WAT      O 8877   5.011   6.827   7.306
 2043WAT     H1 8878   5.019   6.770   7.240
 2043WAT     H2 8879   4.982   6.777   7.372
 2043WAT    EPW 8880   5.008   6.811   7.306
 2044WAT      O 8881   5.902   7.601   7.336
 2044WAT     H1 8882   5.908   7.638   7.414
 2044WAT     H2 8883   5.899   7.515   7.353
 2044WAT    EPW 8884   5.903   7.593   7.350
 2045WAT      O 8885   5.429   7.067   7.003
 2045WAT     H1 8886   5.369   7.058   6.941
 2045WAT     H2 8887   5.498   7.100   6.961
 2045WAT    EPW 8888   5.431   7.070   6.988
 2046WAT      O 8889   5.859   7.566   7.647
 2046WAT     H1 8890   5.793   7.511   7.630
 2046WAT     H2 8891   5.821   7.632   7.688
 2046WAT    EPW 8892   5.844   7.567   7.650
 2047WAT      O 8893   5.644   7.365   7.618
 2047WAT     H1 8894   5.700   7.298   7.613
 2047WAT     H2 8895   5.568   7.327   7.638
 2047WAT    EPW 8896   5.641   7.349   7.620
 2048WAT      O 8897   5.104   7.470   7.277
 2048WAT     H1 8898   5.152   7.433   7.340
 2048WAT     H2 8899   5.107   7.412   7.212
 2048WAT    EPW 8900   5.111   7.456   7.277
 2049WAT      O 8901   5.595   7.649   6.848
 2049WAT     H1 8902   5.545   7.663   6.918
 2049WAT     H2 8903   5.544   7.602   6.795
 2049WAT    EPW 8904   5.580   7.644   6.850
 2050WAT      O 8905   6.797   7.661   7.626
 2050WAT     H1 8906   6.856   7.726   7.633
 2050WAT     H2 8907   6.753   7.682   7.553
 2050WAT    EPW 8908   6.799   7.674   7.616
 2051WAT      O 8909   5.676   7.432   7.099
 2051WAT     H1 8910   5.687   7.513   7.128
 2051WAT     H2 8911   5.589   7.420   7.103
 2051WAT    EPW 8912   5.665   7.442   7.104
 2052WAT      O 8913   5.044   7.245   7.734
 2052WAT     H1 8914   4.999   7.219   7.664
 2052WAT     H2 8915   5.001   7.209   7.801
 2052WAT    EPW 8916   5.031   7.236   7.733
 2053WAT      O 8917   6.528   7.321   7.592
 2053WAT     H1 8918   6.451   7.293   7.623
 2053WAT     H2 8919   6.539   7.398   7.632
 2053WAT    EPW 8920   6.518   7.328   7.603
 2054WAT      O 8921   6.672   7.534   6.966
 2054WAT     H1 8922   6.726   7.583   6.919
 2054WAT     H2 8923   6.597   7.579   6.964
 2054WAT    EPW 8924   6.669   7.548   6.959
 2055WAT      O 8925   5.810   7.809   6.928
 2055WAT     H1 8926   5.752   7.756   6.889
 2055WAT     H2 8927   5.778   7.889   6.914
 2055WAT    EPW 8928   5.797   7.813   6.920
 2056WAT      O 8929   6.467   7.356   7.324
 2056WAT     H1 8930   6.483   7.348   7.409
 2056WAT     H2 8931   6.540   7.393   7.293
 2056WAT    EPW 8932   6.480   7.360   7.332
 2057WAT      O 8933   6.608   6.938   7.469
 2057WAT     H1 8934   6.531   6.901   7.486
 2057WAT     H2 8935   6.608   6.946   7.382
 2057WAT    EPW 8936   6.597   6.933   7.458
 2058WAT      O 8937   6.626   7.723   7.420
 2058WAT     H1 8938   6.637   7.665   7.356
 2058WAT     H2 8939   6.542   7.715   7.440
 2058WAT    EPW 8940   6.615   7.713   7.413
 2059WAT      O 8941   5.352   7.175   7.248
 2059WAT     H1 8942   5.365   7.136   7.171
 2059WAT     H2 8943   5.270   7.155   7.268
 2059WAT    EPW 8944   5.342   7.166   7.240
 2060WAT      O 8945   6.677   7.514   7.242
 2060WAT     H1 8946   6.679   7.523   7.155
 2060WAT     H2 8947   6.761   7.502   7.263
 2060WAT    EPW 8948   6.690   7.513   7.232
 2061WAT      O 8949   5.261   7.330   6.865
 2061WAT     H1 8950   5.188   7.333   6.914
 2061WAT     H2 8951   5.262   7.249   6.834
 2061WAT    EPW 8952   5.250   7.319   6.868
 2062WAT      O 8953   6.114   7.057   7.634
 2062WAT     H1 8954   6.029   7.073   7.633
 2062WAT     H2 8955   6.123   6.991   7.577
 2062WAT    EPW 8956   6.103   7.050   7.625
 2063WAT      O 8957   6.541   7.570   7.708
 2063WAT     H1 8958   6.620   7.605   7.695
 2063WAT     H2 8959   6.490   7.612   7.651
 2063WAT    EPW 8960   6.545   7.581   7.697
 2064WAT      O 8961   5.844   6.869   6.998
 2064WAT     H1 8962   5.850   6.874   6.911
 2064WAT     H2 8963   5.759   6.876   7.013
 2064WAT    EPW 8964   5.833   6.871   6.988
 2065WAT      O 8965   6.141   7.495   7.587
 2065WAT     H1 8966   6.178   7.432   7.635
 2065WAT     H2 8967   6.070   7.517   7.632
 2065WAT    EPW 8968   6.136   7.489   7.600
 2066WAT      O 8969   5.265   7.391   7.490
 2066WAT     H1 8970   5.228   7.434   7.556
 2066WAT     H2 8971   5.300   7.321   7.528
 2066WAT    EPW 8972   5.265   7.387   7.505
 2067WAT      O 8973   6.338   7.589   7.239
 2067WAT     H1 8974   6.370   7.511   7.259
 2067WAT     H2 8975   6.258   7.572   7.209
 2067WAT    EPW 8976   6.331   7.575   7.238
 2068WAT      O 8977   5.701   7.701   7.166
 2068WAT     H1 8978   5.748   7.740   7.105
 2068WAT     H2 8979   5.759   7.683   7.229
 2068WAT    EPW 8980   5.716   7.704   7.167
 2069WAT      O 8981   6.128   6.858   5.564
 2069WAT     H1 8982   6.132   6.900   5.487
 2069WAT     H2 8983   6.210   6.836   5.580
 2069WAT    EPW 8984   6.140   6.861   5.555
 2070WAT      O 8985   6.087   7.466   6.024
 2070WAT     H1 8986   6.044   7.536   6.055
 2070WAT     H2 8987   6.146   7.450   6.086
 2070WAT    EPW 8988   6.089   7.474   6.038
 2071WAT      O 8989   5.043   7.315   5.191
 2071WAT     H1 8990   4.978   7.360   5.154
 2071WAT     H2 8991   5.005   7.240   5.215
 2071WAT    EPW 8992   5.028   7.311   5.189
 2072WAT      O 8993   5.345   7.895   4.987
 2072WAT     H1 8994   5.302   7.848   4.927
 2072WAT     H2 8995   5.354   7.840   5.054
 2072WAT    EPW 8996   5.340   7.880   4.988
 2073WAT      O 8997   6.343   7.649   5.709
 2073WAT     H1 8998   6.338   7.647   5.622
 2073WAT     H2 8999   6.287   7.587   5.735
 2073WAT    EPW 9000   6.334   7.640   5.700
 2074WAT      O 9001   5.784   6.959   5.440
 2074WAT     H1 9002   5.779   7.029   5.388
 2074WAT     H2 9003   5.861   6.924   5.419
 2074WAT    EPW 9004   5.795   6.964   5.429
 2075WAT      O 9005   5.314   7.776   5.654
 2075WAT     H1 9006   5.279   7.772   5.574
 2075WAT     H2 9007   5.352   7.697   5.663
 2075WAT    EPW 9008   5.314   7.764   5.643
 2076WAT      O 9009   5.695   7.294   6.218
 2076WAT     H1 9010   5.761   7.290   6.161
 2076WAT     H2 9011   5.657   7.216   6.211
 2076WAT    EPW 9012   5.699   7.282   6.208
 2077WAT      O 9013   5.396   7.515   5.733
 2077WAT     H1 9014   5.466   7.464   5.739
 2077WAT     H2 9015   5.332   7.460   5.709
 2077WAT    EPW 9016   5.397   7.500   5.730
 2078WAT      O 9017   6.065   7.532   6.715
 2078WAT     H1 9018   5.985   7.530   6.682
 2078WAT     H2 9019   6.063   7.600   6.769
 2078WAT    EPW 9020   6.053   7.542   6.718
 2079WAT      O 9021   5.510   7.000   5.527
 2079WAT     H1 9022   5.473   7.055   5.471
 2079WAT     H2 9023   5.592   6.991   5.498
 2079WAT    EPW 9024   5.517   7.007   5.515
 2080WAT      O 9025   6.478   6.758   6.494
 2080WAT     H1 9026   6.451   6.825   6.445
 2080WAT     H2 9027   6.406   6.734   6.537
 2080WAT    EPW 9028   6.463   6.764   6.493
 2081WAT      O 9029   5.809   6.936   5.716
 2081WAT     H1 9030   5.818   7.020   5.737
 2081WAT     H2 9031   5.792   6.938   5.630
 2081WAT    EPW 9032   5.808   6.949   5.706
 2082WAT      O 9033   6.244   7.152   4.957
 2082WAT     H1 9034   6.203   7.218   4.995
 2082WAT     H2 9035   6.261   7.097   5.023
 2082WAT    EPW 9036   6.241   7.154   4.972
 2083WAT      O 9037   5.059   7.378   5.921
 2083WAT     H1 9038   5.021   7.457   5.927
 2083WAT     H2 9039   5.011   7.329   5.974
 2083WAT    EPW 9040   5.047   7.383   5.930
 2084WAT      O 9041   5.333   6.953   5.947
 2084WAT     H1 9042   5.319   6.874   5.914
 2084WAT     H2 9043   5.393   6.938   6.009
 2084WAT    EPW 9044   5.340   6.939   5.952
 2085WAT      O 9045   5.658   7.133   6.848
 2085WAT     H1 9046   5.669   7.094   6.771
 2085WAT     H2 9047   5.703   7.207   6.840
 2085WAT    EPW 9048   5.666   7.138   6.836
 2086WAT      O 9049   6.810   7.117   5.674
 2086WAT     H1 9050   6.758   7.187   5.674
 2086WAT     H2 9051   6.754   7.050   5.667
 2086WAT    EPW 9052   6.794   7.117   5.673
 2087WAT      O 9053   5.258   7.061   6.785
 2087WAT     H1 9054   5.179   7.029   6.770
 2087WAT     H2 9055   5.307   7.025   6.722
 2087WAT    EPW 9056   5.254   7.051   6.773
 2088WAT      O 9057   5.869   6.877   6.726
 2088WAT     H1 9058   5.891   6.801   6.687
 2088WAT     H2 9059   5.805   6.908   6.676
 2088WAT    EPW 9060   5.863   6.870   6.713
 2089WAT      O 9061   5.977   7.395   5.583
 2089WAT     H1 9062   6.008   7.350   5.515
 2089WAT     H2 9063   6.048   7.409   5.632
 2089WAT    EPW 9064   5.992   7.391   5.580
 2090WAT      O 9065   6.086   7.340   5.093
 2090WAT     H1 9066   6.101   7.419   5.127
 2090WAT     H2 9067   6.008   7.348   5.055
 2090WAT    EPW 9068   6.076   7.353   5.093
 2091WAT      O 9069   6.716   7.051   6.097
 2091WAT     H1 9070   6.785   7.056   6.044
 2091WAT     H2 9071   6.737   6.986   6.152
 2091WAT    EPW 9072   6.729   7.042   6.097
 2092WAT      O 9073   4.994   7.182   6.544
 2092WAT     H1 9074   4.978   7.260   6.581
 2092WAT     H2 9075   5.057   7.200   6.486
 2092WAT    EPW 9076   5.001   7.196   6.540
 2093WAT      O 9077   6.288   6.986   5.175
 2093WAT     H1 9078   6.340   6.917   5.185
 2093WAT     H2 9079   6.306   7.036   5.244
 2093WAT    EPW 9080   6.299   6.983   5.186
 2094WAT      O 9081   5.120   7.071   5.439
 2094WAT     H1 9082   5.092   6.990   5.422
 2094WAT     H2 9083   5.080   7.090   5.515
 2094WAT    EPW 9084   5.110   7.061   5.448
 2095WAT      O 9085   6.049   7.250   5.355
 2095WAT     H1 9086   5.978   7.202   5.341
 2095WAT     H2 9087   6.068   7.283   5.277
 2095WAT    EPW 9088   6.041   7.248   5.341
 2096WAT      O 9089   6.045   6.928   5.299
 2096WAT     H1 9090   5.985   6.924   5.236
 2096WAT     H2 9091   6.119   6.946   5.256
 2096WAT    EPW 9092   6.047   6.930   5.284
 2097WAT      O 9093   5.857   7.210   5.755
 2097WAT     H1 9094   5.887   7.274   5.705
 2097WAT     H2 9095   5.869   7.240   5.836
 2097WAT    EPW 9096   5.863   7.224   5.760
 2098WAT      O 9097   5.427   6.745   5.595
 2098WAT     H1 9098   5.449   6.826   5.574
 2098WAT     H2 9099   5.407   6.708   5.518
 2098WAT    EPW 9100   5.427   6.751   5.581
 2099WAT      O 9101   5.548   7.808   6.087
 2099WAT     H1 9102   5.560   7.737   6.137
 2099WAT     H2 9103   5.497   7.779   6.022
 2099WAT    EPW 9104   5.542   7.793   6.084
 2100WAT      O 9105   6.200   7.158   6.344
 2100WAT     H1 9106   6.188   7.197   6.421
 2100WAT     H2 9107   6.137   7.099   6.341
 2100WAT    EPW 9108   6.189   7.155   6.355
 2101WAT      O 9109   6.381   6.764   5.644
 2101WAT     H1 9110   6.374   6.752   5.730
 2101WAT     H2 9111   6.416   6.690   5.615
 2101WAT    EPW 9112   6.385   6.752   5.652
 2102WAT      O 9113   6.599   7.189   6.454
 2102WAT     H1 9114   6.684   7.179   6.472
 2102WAT     H2 9115   6.561   7.187   6.532
 2102WAT    EPW 9116   6.606   7.187   6.468
 2103WAT      O 9117   5.390   7.135   5.743
 2103WAT     H1 9118   5.425   7.086   5.681
 2103WAT     H2 9119   5.375   7.079   5.808
 2103WAT    EPW 9120   5.393   7.120   5.744
 2104WAT      O 9121   5.263   7.345   6.114
 2104WAT     H1 9122   5.341   7.363   6.079
 2104WAT     H2 9123   5.208   7.357   6.047
 2104WAT    EPW 9124   5.266   7.349   6.099
 2105WAT      O 9125   6.460   7.668   5.085
 2105WAT     H1 9126   6.436   7.740   5.043
 2105WAT     H2 9127   6.474   7.697   5.167
 2105WAT    EPW 9128   6.459   7.683   5.091
 2106WAT      O 9129   6.777   7.071   5.132
 2106WAT     H1 9130   6.822   7.012   5.086
 2106WAT     H2 9131   6.745   7.125   5.071
 2106WAT    EPW 9132   6.779   7.070   5.116
 2107WAT      O 9133   5.809   7.363   6.865
 2107WAT     H1 9134   5.765   7.402   6.929
 2107WAT     H2 9135   5.800   7.418   6.798
 2107WAT    EPW 9136   5.801   7.377   6.865
 2108WAT      O 9137   6.898   7.461   6.356
 2108WAT     H1 9138   6.961   7.400   6.362
 2108WAT     H2 9139   6.848   7.431   6.291
 2108WAT    EPW 9140   6.900   7.448   6.347
 2109WAT      O 9141   5.219   7.719   5.397
 2109WAT     H1 9142   5.184   7.639   5.403
 2109WAT     H2 9143   5.278   7.711   5.333
 2109WAT    EPW 9144   5.223   7.706   5.388
 2110WAT      O 9145   6.651   6.932   5.343
 2110WAT     H1 9146   6.726   6.893   5.363
 2110WAT     H2 9147   6.674   6.991   5.282
 2110WAT    EPW 9148   6.666   6.935   5.337
 2111WAT      O 9149   6.353   7.202   5.777
 2111WAT     H1 9150   6.383   7.163   5.849
 2111WAT     H2 9151   6.285   7.152   5.754
 2111WAT    EPW 9152   6.347   7.189   5.784
 2112WAT      O 9153   5.789   7.165   5.261
 2112WAT     H1 9154   5.780   7.132   5.181
 2112WAT     H2 9155   5.754   7.245   5.255
 2112WAT    EPW 9156   5.782   7.172   5.248
 2113WAT      O 9157   5.389   7.518   6.704
 2113WAT     H1 9158   5.349   7.460   6.755
 2113WAT     H2 9159   5.403   7.474   6.630
 2113WAT    EPW 9160   5.385   7.503   6.701
 2114WAT      O 9161   5.400   7.406   5.214
 2114WAT     H1 9162   5.386   7.345   5.274
 2114WAT     H2 9163   5.358   7.376   5.143
 2114WAT    EPW 9164   5.392   7.393   5.212
 2115WAT      O 9165   5.331   7.711   5.927
 2115WAT     H1 9166   5.315   7.760   5.857
 2115WAT     H2 9167   5.353   7.634   5.893
 2115WAT    EPW 9168   5.332   7.707   5.912
 2116WAT      O 9169   5.475   7.586   6.272
 2116WAT     H1 9170   5.487   7.536   6.201
 2116WAT     H2 9171   5.403   7.631   6.253
 2116WAT    EPW 9172   5.466   7.585   6.259
 2117WAT      O 9173   6.499   7.361   6.061
 2117WAT     H1 9174   6.432   7.389   6.109
 2117WAT     H2 9175   6.501   7.416   5.993
 2117WAT    EPW 9176   6.490   7.373   6.058
 2118WAT      O 9177   6.037   6.935   6.406
 2118WAT     H1 9178   6.055   6.853   6.385
 2118WAT     H2 9179   6.068   6.943   6.487
 2118WAT    EPW 9180   6.044   6.924   6.415
 2119WAT      O 9181   6.303   7.139   5.401
 2119WAT     H1 9182   6.359   7.205   5.411
 2119WAT     H2 9183   6.225   7.177   5.398
 2119WAT    EPW 9184   6.300   7.154   5.402
 2120WAT      O 9185   5.218   7.734   6.681
 2120WAT     H1 9186   5.191   7.733   6.598
 2120WAT     H2 9187   5.270   7.665   6.687
 2120WAT    EPW 9188   5.222   7.724   6.670
 2121WAT      O 9189   5.888   7.278   6.020
 2121WAT     H1 9190   5.954   7.334   6.027
 2121WAT     H2 9191   5.921   7.204   6.052
 2121WAT    EPW 9192   5.902   7.275   6.026
 2122WAT      O 9193   6.118   7.576   5.238
 2122WAT     H1 9194   6.115   7.637   5.176
 2122WAT     H2 9195   6.054   7.599   5.293
 2122WAT    EPW 9196   6.108   7.588   5.237
 2123WAT      O 9197   5.575   6.825   5.154
 2123WAT     H1 9198   5.564   6.794   5.235
 2123WAT     H2 9199   5.521   6.893   5.150
 2123WAT    EPW 9200   5.566   6.830   5.165
 2124WAT      O 9201   6.723   7.798   6.434
 2124WAT     H1 9202   6.698   7.765   6.357
 2124WAT     H2 9203   6.809   7.784   6.434
 2124WAT    EPW 9204   6.732   7.791   6.423
 2125WAT      O 9205   6.600   6.893   6.702
 2125WAT     H1 9206   6.562   6.849   6.637
 2125WAT     H2 9207   6.604   6.835   6.767
 2125WAT    EPW 9208   6.595   6.878   6.702
 2126WAT      O 9209   5.428   7.684   5.198
 2126WAT     H1 9210   5.414   7.598   5.206
 2126WAT     H2 9211   5.502   7.697   5.243
 2126WAT    EPW 9212   5.437   7.673   5.206
 2127WAT      O 9213   6.146   7.752   6.324
 2127WAT     H1 9214   6.170   7.825   6.366
 2127WAT     H2 9215   6.187   7.688   6.369
 2127WAT    EPW 9216   6.156   7.753   6.337
 2128WAT      O 9217   5.011   6.810   5.401
 2128WAT     H1 9218   5.002   6.765   5.326
 2128WAT     H2 9219   5.045   6.750   5.455
 2128WAT    EPW 9220   5.015   6.794   5.398
 2129WAT      O 9221   5.930   7.634   5.443
 2129WAT     H1 9222   5.953   7.693   5.503
 2129WAT     H2 9223   5.934   7.559   5.487
 2129WAT    EPW 9224   5.934   7.632   5.459
 2130WAT      O 9225   5.429   7.055   5.113
 2130WAT     H1 9226   5.367   7.051   5.051
 2130WAT     H2 9227   5.497   7.091   5.072
 2130WAT    EPW 9228   5.430   7.060   5.098
 2131WAT      O 9229   5.806   7.829   5.964
 2131WAT     H1 9230   5.727   7.832   6.002
 2131WAT     H2 9231   5.853   7.782   6.020
 2131WAT    EPW 9232   5.801   7.823   5.978
 2132WAT      O 9233   5.281   7.774   6.197
 2132WAT     H1 9234   5.349   7.828   6.191
 2132WAT     H2 9235   5.270   7.747   6.115
 2132WAT    EPW 9236   5.290   7.778   6.184
 2133WAT      O 9237   5.589   7.321   5.796
 2133WAT     H1 9238   5.667   7.286   5.776
 2133WAT     H2 9239   5.533   7.256   5.781
 2133WAT    EPW 9240   5.593   7.306   5.790
 2134WAT      O 9241   5.103   7.460   5.431
 2134WAT     H1 9242   5.130   7.415   5.501
 2134WAT     H2 9243   5.106   7.401   5.367
 2134WAT    EPW 9244   5.108   7.444   5.432
 2135WAT      O 9245   6.638   7.669   6.196
 2135WAT     H1 9246   6.621   7.596   6.240
 2135WAT     H2 9247   6.558   7.697   6.172
 2135WAT    EPW 9248   6.623   7.663   6.199
 2136WAT      O 9249   5.586   7.641   4.965
 2136WAT     H1 9250   5.535   7.660   5.033
 2136WAT     H2 9251   5.535   7.591   4.915
 2136WAT    EPW 9252   5.571   7.636   4.968
 2137WAT      O 9253   6.786   7.625   5.962
 2137WAT     H1 9254   6.749   7.635   6.040
 2137WAT     H2 9255   6.832   7.698   5.951
 2137WAT    EPW 9256   6.787   7.637   5.972
 2138WAT      O 9257   5.677   7.417   5.215
 2138WAT     H1 9258   5.689   7.500   5.241
 2138WAT     H2 9259   5.590   7.410   5.212
 2138WAT    EPW 9260   5.666   7.428   5.218
 2139WAT      O 9261   6.499   7.156   6.714
 2139WAT     H1 9262   6.423   7.157   6.757
 2139WAT     H2 9263   6.523   7.072   6.718
 2139WAT    EPW 9264   6.492   7.144   6.721
 2140WAT      O 9265   5.061   7.043   5.944
 2140WAT     H1 9266   5.046   7.058   5.859
 2140WAT     H2 9267   5.146   7.022   5.946
 2140WAT    EPW 9268   5.072   7.042   5.932
 2141WAT      O 9269   6.332   7.469   6.797
 2141WAT     H1 9270   6.353   7.521   6.864
 2141WAT     H2 9271   6.250   7.490   6.780
 2141WAT    EPW 9272   6.323   7.480   6.805
 2142WAT      O 9273   6.518   7.548   6.612
 2142WAT     H1 9274   6.537   7.630   6.637
 2142WAT     H2 9275   6.466   7.519   6.676
 2142WAT    EPW 9276   6.513   7.556   6.625
 2143WAT      O 9277   6.595   7.300   5.681
 2143WAT     H1 9278   6.525   7.255   5.708
 2143WAT     H2 9279   6.592   7.373   5.729
 2143WAT    EPW 9280   6.584   7.304   5.692
 2144WAT      O 9281   6.827   7.665   6.777
 2144WAT     H1 9282   6.825   7.595   6.725
 2144WAT     H2 9283   6.906   7.698   6.765
 2144WAT    EPW 9284   6.838   7.659   6.768
 2145WAT      O 9285   6.429   6.993   6.348
 2145WAT     H1 9286   6.489   7.054   6.368
 2145WAT     H2 9287   6.355   7.040   6.341
 2145WAT    EPW 9288   6.427   7.009   6.350
 2146WAT      O 9289   5.942   7.667   6.157
 2146WAT     H1 9290   6.007   7.704   6.203
 2146WAT     H2 9291   5.889   7.634   6.218
 2146WAT    EPW 9292   5.944   7.668   6.173
 2147WAT      O 9293   5.682   7.273   6.495
 2147WAT     H1 9294   5.681   7.188   6.514
 2147WAT     H2 9295   5.700   7.275   6.410
 2147WAT    EPW 9296   5.685   7.261   6.485
 2148WAT      O 9297   6.492   6.796   6.157
 2148WAT     H1 9298   6.470   6.868   6.200
 2148WAT     H2 9299   6.576   6.785   6.177
 2148WAT    EPW 9300   6.501   6.805   6.166
 2149WAT      O 9301   5.764   6.886   6.340
 2149WAT     H1 9302   5.846   6.914   6.342
 2149WAT     H2 9303   5.769   6.809   6.300
 2149WAT    EPW 9304   5.777   6.879   6.334
 2150WAT      O 9305   6.696   7.514   5.071
 2150WAT     H1 9306   6.748   7.564   5.021
 2150WAT     H2 9307   6.620   7.557   5.070
 2150WAT    EPW 9308   6.693   7.528   5.063
 2151WAT      O 9309   5.812   7.793   5.036
 2151WAT     H1 9310   5.753   7.741   4.998
 2151WAT     H2 9311   5.780   7.873   5.022
 2151WAT    EPW 9312   5.799   7.797   5.028
 2152WAT      O 9313   5.524   7.425   6.049
 2152WAT     H1 9314   5.547   7.403   5.968
 2152WAT     H2 9315   5.580   7.380   6.099
 2152WAT    EPW 9316   5.536   7.415   6.044
 2153WAT      O 9317   6.183   7.311   6.582
 2153WAT     H1 9318   6.126   7.362   6.624
 2153WAT     H2 9319   6.237   7.284   6.645
 2153WAT    EPW 9320   6.183   7.314   6.597
 2154WAT      O 9321   6.272   7.398   6.215
 2154WAT     H1 9322   6.286   7.447   6.286
 2154WAT     H2 9323   6.251   7.320   6.248
 2154WAT    EPW 9324   6.271   7.394   6.231
 2155WAT      O 9325   6.479   7.361   5.438
 2155WAT     H1 9326   6.513   7.339   5.515
 2155WAT     H2 9327   6.543   7.405   5.399
 2155WAT    EPW 9328   6.494   7.364   5.443
 2156WAT      O 9329   5.771   6.867   5.988
 2156WAT     H1 9330   5.687   6.851   6.009
 2156WAT     H2 9331   5.769   6.876   5.901
 2156WAT    EPW 9332   5.758   6.866   5.978
 2157WAT      O 9333   6.609   6.928   5.619
 2157WAT     H1 9334   6.530   6.893   5.635
 2157WAT     H2 9335   6.607   6.946   5.534
 2157WAT    EPW 9336   6.597   6.926   5.609
 2158WAT      O 9337   6.515   7.753   5.342
 2158WAT     H1 9338   6.581   7.700   5.359
 2158WAT     H2 9339   6.447   7.714   5.380
 2158WAT    EPW 9340   6.514   7.739   5.350
 2159WAT      O 9341   5.007   6.956   6.704
 2159WAT     H1 9342   5.004   7.027   6.653
 2159WAT     H2 9343   4.923   6.933   6.711
 2159WAT    EPW 9344   4.994   6.963   6.698
 2160WAT      O 9345   5.367   7.167   5.358
 2160WAT     H1 9346   5.379   7.128   5.281
 2160WAT     H2 9347   5.288   7.141   5.383
 2160WAT    EPW 9348   5.357   7.158   5.350
 2161WAT      O 9349   6.785   7.448   6.609
 2161WAT     H1 9350   6.699   7.466   6.609
 2161WAT     H2 9351   6.809   7.461   6.526
 2161WAT    EPW 9352   6.776   7.452   6.597
 2162WAT      O 9353   6.281   7.545   6.455
 2162WAT     H1 9354   6.243   7.479   6.498
 2162WAT     H2 9355   6.355   7.558   6.499
 2162WAT    EPW 9356   6.286   7.537   6.468
 2163WAT      O 9357   6.082   7.738   6.906
 2163WAT     H1 9358   6.136   7.804   6.892
 2163WAT     H2 9359   6.003   7.776   6.908
 2163WAT    EPW 9360   6.078   7.753   6.904
 2164WAT      O 9361   5.428   7.384   6.465
 2164WAT     H1 9362   5.444   7.444   6.404
 2164WAT     H2 9363   5.506   7.346   6.477
 2164WAT    EPW 9364   5.442   7.387   6.457
 2165WAT      O 9365   5.212   7.244   6.362
 2165WAT     H1 9366   5.225   7.264   6.278
 2165WAT     H2 9367   5.279   7.282   6.403
 2165WAT    EPW 9368   5.224   7.252   6.355
 2166WAT      O 9369   6.684   7.529   5.350
 2166WAT     H1 9370   6.701   7.528   5.264
 2166WAT     H2 9371   6.763   7.516   5.386
 2166WAT    EPW 9372   6.698   7.527   5.342
 2167WAT      O 9373   5.396   6.919   6.590
 2167WAT     H1 9374   5.352   6.844   6.600
 2167WAT     H2 9375   5.376   6.943   6.509
 2167WAT    EPW 9376   5.387   6.911   6.580
 2168WAT      O 9377   6.572   7.455   6.356
 2168WAT     H1 9378   6.581   7.369   6.366
 2168WAT     H2 9379   6.553   7.483   6.437
 2168WAT    EPW 9380   6.571   7.447   6.370
 2169WAT      O 9381   5.120   7.705   6.415
 2169WAT     H1 9382   5.165   7.737   6.348
 2169WAT     H2 9383   5.093   7.627   6.387
 2169WAT    EPW 9384   5.122   7.698   6.401
 2170WAT      O 9385   5.244   7.320   4.998
 2170WAT     H1 9386   5.176   7.319   5.053
 2170WAT     H2 9387   5.242   7.240   4.962
 2170WAT    EPW 9388   5.234   7.308   5.001
 2171WAT      O 9389   6.127   6.962   6.669
 2171WAT     H1 9390   6.159   7.026   6.719
 2171WAT     H2 9391   6.047   6.949   6.701
 2171WAT    EPW 9392   6.120   6.969   6.681
 2172WAT      O 9393   6.112   7.062   5.752
 2172WAT     H1 9394   6.035   7.103   5.747
 2172WAT     H2 9395   6.106   6.999   5.692
 2172WAT    EPW 9396   6.099   7.059   5.743
 2173WAT      O 9397   6.444   7.095   6.017
 2173WAT     H1 9398   6.522   7.058   6.032
 2173WAT     H2 9399   6.457   7.178   6.041
 2173WAT    EPW 9400   6.458   7.102   6.023
 2174WAT      O 9401   5.623   7.669   6.502
 2174WAT     H1 9402   5.564   7.709   6.552
 2174WAT     H2 9403   5.579   7.650   6.429
 2174WAT    EPW 9404   5.608   7.672   6.499
 2175WAT      O 9405   6.551   7.522   5.841
 2175WAT     H1 9406   6.620   7.571   5.862
 2175WAT     H2 9407   6.498   7.578   5.800
 2175WAT    EPW 9408   6.553   7.538   5.838
 2176WAT      O 9409   5.571   7.053   6.220
 2176WAT     H1 9410   5.494   7.025   6.251
 2176WAT     H2 9411   5.627   6.992   6.247
 2176WAT    EPW 9412   5.568   7.040   6.229
 2177WAT      O 9413   6.745   6.841   6.285
 2177WAT     H1 9414   6.707   6.839   6.364
 2177WAT     H2 9415   6.827   6.819   6.302
 2177WAT    EPW 9416   6.751   6.838   6.299
 2178WAT      O 9417   5.961   7.031   6.110
 2178WAT     H1 9418   5.901   6.978   6.074
 2178WAT     H2 9419   6.037   6.998   6.084
 2178WAT    EPW 9420   5.963   7.019   6.101
 2179WAT      O 9421   5.805   7.493   6.618
 2179WAT     H1 9422   5.775   7.422   6.578
 2179WAT     H2 9423   5.754   7.557   6.587
 2179WAT    EPW 9424   5.793   7.492   6.608
 2180WAT      O 9425   5.842   6.889   5.116
 2180WAT     H1 9426   5.852   6.889   5.030
 2180WAT     H2 9427   5.756   6.881   5.127
 2180WAT    EPW 9428   5.831   6.888   5.105
 2181WAT      O 9429   5.322   6.988   6.336
 2181WAT     H1 9430   5.261   6.929   6.316
 2181WAT     H2 9431   5.278   7.063   6.337
 2181WAT    EPW 9432   5.307   6.990   6.333
 2182WAT      O 9433   6.201   6.952   5.992
 2182WAT     H1 9434   6.272   6.998   6.012
 2182WAT     H2 9435   6.173   6.987   5.917
 2182WAT    EPW 9436   6.207   6.964   5.984
 2183WAT      O 9437   6.184   7.427   5.767
 2183WAT     H1 9438   6.241   7.362   5.776
 2183WAT     H2 9439   6.155   7.440   5.848
 2183WAT    EPW 9440   6.188   7.420   5.780
 2184WAT      O 9441   5.195   7.332   5.674
 2184WAT     H1 9442   5.146   7.338   5.746
 2184WAT     H2 9443   5.245   7.262   5.689
 2184WAT    EPW 9444   5.195   7.322   5.687
 2185WAT      O 9445   6.315   7.587   5.437
 2185WAT     H1 9446   6.357   7.510   5.437
 2185WAT     H2 9447   6.257   7.578   5.372
 2185WAT    EPW 9448   6.313   7.574   5.427
 2186WAT      O 9449   5.707   7.686   5.278
 2186WAT     H1 9450   5.749   7.724   5.211
 2186WAT     H2 9451   5.769   7.678   5.339
 2186WAT    EPW 9452   5.723   7.690   5.277
 2187WAT      O 9453   6.599   7.804   6.687
 2187WAT     H1 9454   6.670   7.775   6.728
 2187WAT     H2 9455   6.628   7.822   6.607
 2187WAT    EPW 9456   6.614   7.802   6.681
 2188WAT      O 9457   6.686   7.271   6.887
 2188WAT     H1 9458   6.670   7.355   6.903
 2188WAT     H2 9459   6.624   7.248   6.830
 2188WAT    EPW 9460   6.675   7.280   6.881
 2189WAT      O 9461   6.761   7.327   6.149
 2189WAT     H1 9462   6.680   7.350   6.128
 2189WAT     H2 9463   6.760   7.240   6.141
 2189WAT    EPW 9464   6.749   7.317   6.145
 2190WAT      O 9465   5.665   6.998   6.576
 2190WAT     H1 9466   5.693   6.960   6.503
 2190WAT     H2 9467   5.584   6.967   6.586
 2190WAT    EPW 9468   5.657   6.988   6.567
 2191WAT      O 9469   6.385   7.904   6.871
 2191WAT     H1 9470   6.447   7.895   6.811
 2191WAT     H2 9471   6.398   7.985   6.901
 2191WAT    EPW 9472   6.396   7.915   6.867
 2192WAT      O 9473   6.209   6.871   3.636
 2192WAT     H1 9474   6.244   6.941   3.597
 2192WAT     H2 9475   6.278   6.830   3.669
 2192WAT    EPW 9476   6.224   6.876   3.635
 2193WAT      O 9477   6.082   7.460   4.126
 2193WAT     H1 9478   6.039   7.530   4.155
 2193WAT     H2 9479   6.140   7.444   4.189
 2193WAT    EPW 9480   6.084   7.468   4.139
 2194WAT      O 9481   5.043   7.332   3.268
 2194WAT     H1 9482   4.981   7.381   3.230
 2194WAT     H2 9483   5.003   7.256   3.283
 2194WAT    EPW 9484   5.028   7.328   3.264
 2195WAT      O 9485   5.353   7.877   3.104
 2195WAT     H1 9486   5.308   7.834   3.043
 2195WAT     H2 9487   5.363   7.819   3.168
 2195WAT    EPW 9488   5.348   7.862   3.105
 2196WAT      O 9489   6.326   7.620   3.805
 2196WAT     H1 9490   6.325   7.614   3.718
 2196WAT     H2 9491   6.270   7.558   3.831
 2196WAT    EPW 9492   6.317   7.610   3.796
 2197WAT      O 9493   5.784   6.962   3.552
 2197WAT     H1 9494   5.760   7.024   3.495
 2197WAT     H2 9495   5.860   6.933   3.519
 2197WAT    EPW 9496   5.792   6.967   3.538
 2198WAT      O 9497   5.309   7.739   3.760
 2198WAT     H1 9498   5.271   7.754   3.683
 2198WAT     H2 9499   5.360   7.670   3.744
 2198WAT    EPW 9500   5.311   7.731   3.746
 2199WAT      O 9501   5.695   7.285   4.327
 2199WAT     H1 9502   5.762   7.279   4.271
 2199WAT     H2 9503   5.662   7.204   4.328
 2199WAT    EPW 9504   5.700   7.272   4.319
 2200WAT      O 9505   5.427   7.494   3.715
 2200WAT     H1 9506   5.477   7.455   3.775
 2200WAT     H2 9507   5.353   7.447   3.716
 2200WAT    EPW 9508   5.423   7.481   3.724
 2201WAT      O 9509   6.066   7.528   4.828
 2201WAT     H1 9510   5.984   7.527   4.797
 2201WAT     H2 9511   6.067   7.599   4.879
 2201WAT    EPW 9512   6.054   7.539   4.831
 2202WAT      O 9513   5.506   7.009   3.646
 2202WAT     H1 9514   5.467   7.059   3.586
 2202WAT     H2 9515   5.591   7.018   3.628
 2202WAT    EPW 9516   5.512   7.018   3.634
 2203WAT      O 9517   6.464   6.764   4.632
 2203WAT     H1 9518   6.439   6.828   4.579
 2203WAT     H2 9519   6.390   6.741   4.673
 2203WAT    EPW 9520   6.449   6.770   4.630
 2204WAT      O 9521   5.849   6.957   3.826
 2204WAT     H1 9522   5.828   7.037   3.853
 2204WAT     H2 9523   5.827   6.958   3.741
 2204WAT    EPW 9524   5.843   6.969   3.817
 2205WAT      O 9525   6.237   7.140   3.066
 2205WAT     H1 9526   6.190   7.203   3.103
 2205WAT     H2 9527   6.251   7.083   3.130
 2205WAT    EPW 9528   6.232   7.141   3.081
 2206WAT      O 9529   5.097   7.398   4.014
 2206WAT     H1 9530   5.030   7.450   4.034
 2206WAT     H2 9531   5.067   7.318   4.030
 2206WAT    EPW 9532   5.083   7.394   4.019
 2207WAT      O 9533   5.297   6.962   4.053
 2207WAT     H1 9534   5.280   6.886   4.014
 2207WAT     H2 9535   5.355   6.940   4.115
 2207WAT    EPW 9536   5.303   6.947   4.057
 2208WAT      O 9537   5.662   7.136   4.978
 2208WAT     H1 9538   5.666   7.102   4.898
 2208WAT     H2 9539   5.711   7.207   4.973
 2208WAT    EPW 9540   5.670   7.141   4.966
 2209WAT      O 9541   6.812   7.121   3.769
 2209WAT     H1 9542   6.754   7.187   3.774
 2209WAT     H2 9543   6.761   7.050   3.763
 2209WAT    EPW 9544   6.796   7.120   3.769
 2210WAT      O 9545   5.242   7.054   4.903
 2210WAT     H1 9546   5.163   7.022   4.886
 2210WAT     H2 9547   5.291   7.025   4.837
 2210WAT    EPW 9548   5.237   7.045   4.891
 2211WAT      O 9549   5.868   6.879   4.844
 2211WAT     H1 9550   5.883   6.805   4.801
 2211WAT     H2 9551   5.798   6.912   4.803
 2211WAT    EPW 9552   5.860   6.873   4.831
 2212WAT      O 9553   5.959   7.363   3.685
 2212WAT     H1 9554   5.987   7.312   3.621
 2212WAT     H2 9555   6.030   7.374   3.735
 2212WAT    EPW 9556   5.974   7.357   3.683
 2213WAT      O 9557   6.062   7.310   3.205
 2213WAT     H1 9558   6.082   7.390   3.236
 2213WAT     H2 9559   5.985   7.323   3.164
 2213WAT    EPW 9560   6.053   7.324   3.204
 2214WAT      O 9561   6.722   7.056   4.192
 2214WAT     H1 9562   6.790   7.062   4.138
 2214WAT     H2 9563   6.745   6.993   4.247
 2214WAT    EPW 9564   6.735   7.047   4.192
 2215WAT      O 9565   4.983   7.173   4.641
 2215WAT     H1 9566   4.970   7.249   4.680
 2215WAT     H2 9567   5.046   7.190   4.584
 2215WAT    EPW 9568   4.990   7.186   4.638
 2216WAT      O 9569   6.269   6.964   3.278
 2216WAT     H1 9570   6.326   6.897   3.283
 2216WAT     H2 9571   6.291   7.014   3.346
 2216WAT    EPW 9572   6.281   6.961   3.289
 2217WAT      O 9573   5.112   7.053   3.561
 2217WAT     H1 9574   5.082   6.973   3.543
 2217WAT     H2 9575   5.061   7.079   3.627
 2217WAT    EPW 9576   5.100   7.045   3.568
 2218WAT      O 9577   6.045   7.207   3.465
 2218WAT     H1 9578   6.018   7.126   3.448
 2218WAT     H2 9579   6.046   7.245   3.387
 2218WAT    EPW 9580   6.041   7.201   3.451
 2219WAT      O 9581   6.009   6.940   3.383
 2219WAT     H1 9582   5.955   6.915   3.319
 2219WAT     H2 9583   6.088   6.935   3.346
 2219WAT    EPW 9584   6.013   6.936   3.368
 2220WAT      O 9585   5.795   7.226   3.871
 2220WAT     H1 9586   5.843   7.273   3.815
 2220WAT     H2 9587   5.829   7.246   3.949
 2220WAT    EPW 9588   5.807   7.236   3.874
 2221WAT      O 9589   5.453   6.748   3.726
 2221WAT     H1 9590   5.469   6.831   3.704
 2221WAT     H2 9591   5.434   6.711   3.650
 2221WAT    EPW 9592   5.452   6.755   3.711
 2222WAT      O 9593   5.536   7.728   4.131
 2222WAT     H1 9594   5.550   7.643   4.147
 2222WAT     H2 9595   5.472   7.727   4.072
 2222WAT    EPW 9596   5.528   7.715   4.125
 2223WAT      O 9597   6.187   7.160   4.455
 2223WAT     H1 9598   6.175   7.198   4.533
 2223WAT     H2 9599   6.123   7.101   4.452
 2223WAT    EPW 9600   6.175   7.157   4.466
 2224WAT      O 9601   6.416   6.742   3.760
 2224WAT     H1 9602   6.410   6.725   3.845
 2224WAT     H2 9603   6.447   6.668   3.726
 2224WAT    EPW 9604   6.420   6.729   3.768
 2225WAT      O 9605   6.593   7.188   4.557
 2225WAT     H1 9606   6.678   7.184   4.576
 2225WAT     H2 9607   6.555   7.187   4.635
 2225WAT    EPW 9608   6.600   7.187   4.571
 2226WAT      O 9609   5.369   7.143   3.852
 2226WAT     H1 9610   5.410   7.095   3.792
 2226WAT     H2 9611   5.351   7.086   3.916
 2226WAT    EPW 9612   5.372   7.128   3.853
 2227WAT      O 9613   5.271   7.347   4.229
 2227WAT     H1 9614   5.350   7.374   4.203
 2227WAT     H2 9615   5.219   7.365   4.162
 2227WAT    EPW 9616   5.275   7.353   4.216
 2228WAT      O 9617   6.458   7.653   3.192
 2228WAT     H1 9618   6.430   7.725   3.153
 2228WAT     H2 9619   6.472   7.677   3.274
 2228WAT    EPW 9620   6.456   7.667   3.198
 2229WAT      O 9621   6.768   7.079   3.233
 2229WAT     H1 9622   6.820   7.023   3.190
 2229WAT     H2 9623   6.737   7.130   3.169
 2229WAT    EPW 9624   6.771   7.078   3.217
 2230WAT      O 9625   5.823   7.361   4.987
 2230WAT     H1 9626   5.775   7.397   5.050
 2230WAT     H2 9627   5.809   7.413   4.918
 2230WAT    EPW 9628   5.814   7.374   4.986
 2231WAT      O 9629   6.900   7.466   4.451
 2231WAT     H1 9630   6.960   7.403   4.458
 2231WAT     H2 9631   6.848   7.437   4.387
 2231WAT    EPW 9632   6.901   7.452   4.442
 2232WAT      O 9633   5.211   7.727   3.496
 2232WAT     H1 9634   5.172   7.649   3.499
 2232WAT     H2 9635   5.276   7.716   3.439
 2232WAT    EPW 9636   5.215   7.714   3.488
 2233WAT      O 9637   6.646   6.930   3.441
 2233WAT     H1 9638   6.722   6.892   3.457
 2233WAT     H2 9639   6.666   6.992   3.383
 2233WAT    EPW 9640   6.660   6.934   3.435
 2234WAT      O 9641   6.335   7.174   3.896
 2234WAT     H1 9642   6.372   7.147   3.970
 2234WAT     H2 9643   6.271   7.116   3.882
 2234WAT    EPW 9644   6.331   7.161   3.905
 2235WAT      O 9645   5.700   7.128   3.353
 2235WAT     H1 9646   5.703   7.114   3.267
 2235WAT     H2 9647   5.699   7.215   3.359
 2235WAT    EPW 9648   5.701   7.139   3.341
 2236WAT      O 9649   5.375   7.505   4.833
 2236WAT     H1 9650   5.331   7.449   4.884
 2236WAT     H2 9651   5.388   7.458   4.760
 2236WAT    EPW 9652   5.370   7.489   4.830
 2237WAT      O 9653   5.397   7.396   3.320
 2237WAT     H1 9654   5.379   7.335   3.381
 2237WAT     H2 9655   5.358   7.365   3.248
 2237WAT    EPW 9656   5.388   7.382   3.319
 2238WAT      O 9657   5.259   7.669   4.024
 2238WAT     H1 9658   5.268   7.700   3.943
 2238WAT     H2 9659   5.231   7.587   4.011
 2238WAT    EPW 9660   5.256   7.662   4.010
 2239WAT      O 9661   5.449   7.573   4.420
 2239WAT     H1 9662   5.480   7.534   4.348
 2239WAT     H2 9663   5.389   7.628   4.389
 2239WAT    EPW 9664   5.445   7.575   4.404
 2240WAT      O 9665   6.492   7.358   4.171
 2240WAT     H1 9666   6.423   7.386   4.217
 2240WAT     H2 9667   6.492   7.410   4.101
 2240WAT    EPW 9668   6.482   7.370   4.167
 2241WAT      O 9669   6.030   6.929   4.516
 2241WAT     H1 9670   6.058   6.851   4.490
 2241WAT     H2 9671   6.066   6.939   4.595
 2241WAT    EPW 9672   6.039   6.919   4.524
 2242WAT      O 9673   6.301   7.109   3.510
 2242WAT     H1 9674   6.362   7.171   3.516
 2242WAT     H2 9675   6.227   7.154   3.505
 2242WAT    EPW 9676   6.299   7.125   3.510
 2243WAT      O 9677   5.218   7.729   4.791
 2243WAT     H1 9678   5.197   7.731   4.706
 2243WAT     H2 9679   5.266   7.657   4.799
 2243WAT    EPW 9680   5.222   7.719   4.780
 2244WAT      O 9681   5.887   7.265   4.128
 2244WAT     H1 9682   5.952   7.324   4.131
 2244WAT     H2 9683   5.926   7.190   4.149
 2244WAT    EPW 9684   5.902   7.263   4.132
 2245WAT      O 9685   6.115   7.549   3.337
 2245WAT     H1 9686   6.116   7.612   3.277
 2245WAT     H2 9687   6.055   7.575   3.394
 2245WAT    EPW 9688   6.106   7.562   3.337
 2246WAT      O 9689   5.551   6.824   3.317
 2246WAT     H1 9690   5.587   6.853   3.392
 2246WAT     H2 9691   5.506   6.892   3.288
 2246WAT    EPW 9692   5.550   6.838   3.324
 2247WAT      O 9693   6.728   7.794   4.531
 2247WAT     H1 9694   6.702   7.761   4.455
 2247WAT     H2 9695   6.814   7.782   4.530
 2247WAT    EPW 9696   6.737   7.787   4.520
 2248WAT      O 9697   6.602   6.898   4.829
 2248WAT     H1 9698   6.562   6.854   4.765
 2248WAT     H2 9699   6.604   6.841   4.895
 2248WAT    EPW 9700   6.597   6.883   4.829
 2249WAT      O 9701   5.432   7.674   3.309
 2249WAT     H1 9702   5.415   7.589   3.320
 2249WAT     H2 9703   5.505   7.686   3.357
 2249WAT    EPW 9704   5.441   7.663   3.318
 2250WAT      O 9705   6.148   7.748   4.423
 2250WAT     H1 9706   6.172   7.822   4.463
 2250WAT     H2 9707   6.186   7.686   4.470
 2250WAT    EPW 9708   6.157   7.750   4.435
 2251WAT      O 9709   4.994   6.799   3.504
 2251WAT     H1 9710   4.997   6.746   3.434
 2251WAT     H2 9711   4.963   6.747   3.567
 2251WAT    EPW 9712   4.990   6.783   3.503
 2252WAT      O 9713   5.936   7.609   3.549
 2252WAT     H1 9714   5.962   7.665   3.611
 2252WAT     H2 9715   5.933   7.532   3.590
 2252WAT    EPW 9716   5.940   7.606   3.564
 2253WAT      O 9717   5.415   7.039   3.213
 2253WAT     H1 9718   5.352   7.035   3.153
 2253WAT     H2 9719   5.482   7.077   3.172
 2253WAT    EPW 9720   5.416   7.044   3.198
 2254WAT      O 9721   5.799   7.814   4.055
 2254WAT     H1 9722   5.718   7.794   4.078
 2254WAT     H2 9723   5.848   7.773   4.115
 2254WAT    EPW 9724   5.794   7.805   4.067
 2255WAT      O 9725   5.292   7.766   4.291
 2255WAT     H1 9726   5.371   7.797   4.272
 2255WAT     H2 9727   5.264   7.735   4.214
 2255WAT    EPW 9728   5.300   7.766   4.277
 2256WAT      O 9729   5.547   7.344   3.920
 2256WAT     H1 9730   5.625   7.310   3.900
 2256WAT     H2 9731   5.491   7.278   3.904
 2256WAT    EPW 9732   5.550   7.329   3.915
 2257WAT      O 9733   5.089   7.470   3.515
 2257WAT     H1 9734   5.118   7.423   3.583
 2257WAT     H2 9735   5.097   7.415   3.448
 2257WAT    EPW 9736   5.094   7.455   3.515
 2258WAT      O 9737   6.635   7.666   4.294
 2258WAT     H1 9738   6.619   7.594   4.340
 2258WAT     H2 9739   6.556   7.696   4.274
 2258WAT    EPW 9740   6.621   7.660   4.298
 2259WAT      O 9741   5.597   7.624   3.079
 2259WAT     H1 9742   5.546   7.643   3.147
 2259WAT     H2 9743   5.544   7.581   3.024
 2259WAT    EPW 9744   5.582   7.620   3.081
 2260WAT      O 9745   6.774   7.621   4.054
 2260WAT     H1 9746   6.740   7.631   4.134
 2260WAT     H2 9747   6.814   7.697   4.040
 2260WAT    EPW 9748   6.775   7.634   4.064
 2261WAT      O 9749   5.672   7.405   3.326
 2261WAT     H1 9750   5.690   7.487   3.352
 2261WAT     H2 9751   5.585   7.402   3.325
 2261WAT    EPW 9752   5.662   7.417   3.330
 2262WAT      O 9753   6.483   7.151   4.812
 2262WAT     H1 9754   6.412   7.155   4.863
 2262WAT     H2 9755   6.512   7.069   4.823
 2262WAT    EPW 9756   6.477   7.139   4.821
 2263WAT      O 9757   5.052   7.112   4.033
 2263WAT     H1 9758   5.023   7.096   3.952
 2263WAT     H2 9759   5.127   7.068   4.036
 2263WAT    EPW 9760   5.058   7.103   4.022
 2264WAT      O 9761   6.341   7.476   4.916
 2264WAT     H1 9762   6.364   7.529   4.982
 2264WAT     H2 9763   6.257   7.494   4.904
 2264WAT    EPW 9764   6.332   7.487   4.924
 2265WAT      O 9765   6.516   7.547   4.717
 2265WAT     H1 9766   6.538   7.628   4.739
 2265WAT     H2 9767   6.467   7.519   4.783
 2265WAT    EPW 9768   6.512   7.555   4.730
 2266WAT      O 9769   6.575   7.280   3.790
 2266WAT     H1 9770   6.507   7.235   3.819
 2266WAT     H2 9771   6.572   7.354   3.836
 2266WAT    EPW 9772   6.565   7.284   3.801
 2267WAT      O 9773   6.832   7.661   4.879
 2267WAT     H1 9774   6.829   7.595   4.821
 2267WAT     H2 9775   6.910   7.697   4.865
 2267WAT    EPW 9776   6.843   7.656   4.868
 2268WAT      O 9777   6.411   6.994   4.474
 2268WAT     H1 9778   6.472   7.055   4.487
 2268WAT     H2 9779   6.338   7.040   4.462
 2268WAT    EPW 9780   6.410   7.010   4.474
 2269WAT      O 9781   5.942   7.666   4.256
 2269WAT     H1 9782   6.007   7.701   4.301
 2269WAT     H2 9783   5.885   7.642   4.318
 2269WAT    EPW 9784   5.943   7.668   4.271
 2270WAT      O 9785   5.675   7.279   4.608
 2270WAT     H1 9786   5.674   7.195   4.631
 2270WAT     H2 9787   5.693   7.277   4.523
 2270WAT    EPW 9788   5.677   7.267   4.599
 2271WAT      O 9789   6.490   6.788   4.303
 2271WAT     H1 9790   6.459   6.860   4.341
 2271WAT     H2 9791   6.576   6.794   4.315
 2271WAT    EPW 9792   6.498   6.799   4.311
 2272WAT      O 9793   5.759   6.865   4.516
 2272WAT     H1 9794   5.844   6.882   4.511
 2272WAT     H2 9795   5.756   6.785   4.550
 2272WAT    EPW 9796   5.771   6.856   4.520
 2273WAT      O 9797   6.701   7.515   3.161
 2273WAT     H1 9798   6.749   7.567   3.110
 2273WAT     H2 9799   6.624   7.556   3.165
 2273WAT    EPW 9800   6.697   7.529   3.154
 2274WAT      O 9801   5.822   7.780   3.145
 2274WAT     H1 9802   5.763   7.727   3.109
 2274WAT     H2 9803   5.789   7.860   3.132
 2274WAT    EPW 9804   5.808   7.784   3.138
 2275WAT      O 9805   5.532   7.446   4.177
 2275WAT     H1 9806   5.539   7.420   4.094
 2275WAT     H2 9807   5.587   7.394   4.220
 2275WAT    EPW 9808   5.541   7.435   4.171
 2276WAT      O 9809   6.184   7.312   4.694
 2276WAT     H1 9810   6.131   7.366   4.740
 2276WAT     H2 9811   6.238   7.281   4.755
 2276WAT    EPW 9812   6.184   7.316   4.710
 2277WAT      O 9813   6.263   7.396   4.323
 2277WAT     H1 9814   6.278   7.446   4.393
 2277WAT     H2 9815   6.240   7.319   4.356
 2277WAT    EPW 9816   6.262   7.392   4.338
 2278WAT      O 9817   6.480   7.327   3.535
 2278WAT     H1 9818   6.510   7.312   3.616
 2278WAT     H2 9819   6.545   7.371   3.497
 2278WAT    EPW 9820   6.494   7.331   3.541
 2279WAT      O 9821   5.765   6.837   4.132
 2279WAT     H1 9822   5.681   6.838   4.155
 2279WAT     H2 9823   5.763   6.849   4.045
 2279WAT    EPW 9824   5.753   6.839   4.122
 2280WAT      O 9825   6.627   6.919   3.720
 2280WAT     H1 9826   6.554   6.877   3.742
 2280WAT     H2 9827   6.617   6.936   3.635
 2280WAT    EPW 9828   6.615   6.915   3.711
 2281WAT      O 9829   6.515   7.724   3.450
 2281WAT     H1 9830   6.581   7.669   3.465
 2281WAT     H2 9831   6.446   7.684   3.486
 2281WAT    EPW 9832   6.514   7.710   3.458
 2282WAT      O 9833   5.008   6.938   4.788
 2282WAT     H1 9834   5.002   7.010   4.740
 2282WAT     H2 9835   4.925   6.920   4.808
 2282WAT    EPW 9836   4.994   6.946   4.784
 2283WAT      O 9837   5.354   7.155   3.463
 2283WAT     H1 9838   5.364   7.115   3.386
 2283WAT     H2 9839   5.275   7.127   3.490
 2283WAT    EPW 9840   5.344   7.145   3.456
 2284WAT      O 9841   6.787   7.451   4.703
 2284WAT     H1 9842   6.701   7.467   4.704
 2284WAT     H2 9843   6.810   7.465   4.620
 2284WAT    EPW 9844   6.777   7.455   4.691
 2285WAT      O 9845   6.278   7.543   4.562
 2285WAT     H1 9846   6.241   7.478   4.605
 2285WAT     H2 9847   6.352   7.558   4.606
 2285WAT    EPW 9848   6.283   7.536   4.575
 2286WAT      O 9849   6.095   7.739   5.011
 2286WAT     H1 9850   6.148   7.805   4.992
 2286WAT     H2 9851   6.016   7.776   5.014
 2286WAT    EPW 9852   6.091   7.754   5.008
 2287WAT      O 9853   5.411   7.365   4.597
 2287WAT     H1 9854   5.419   7.432   4.541
 2287WAT     H2 9855   5.492   7.334   4.603
 2287WAT    EPW 9856   5.424   7.371   4.590
 2288WAT      O 9857   5.202   7.237   4.469
 2288WAT     H1 9858   5.221   7.262   4.388
 2288WAT     H2 9859   5.268   7.270   4.516
 2288WAT    EPW 9860   5.215   7.246   4.464
 2289WAT      O 9861   6.682   7.499   3.444
 2289WAT     H1 9862   6.699   7.507   3.358
 2289WAT     H2 9863   6.762   7.492   3.479
 2289WAT    EPW 9864   6.696   7.499   3.436
 2290WAT      O 9865   5.387   6.930   4.701
 2290WAT     H1 9866   5.358   6.847   4.705
 2290WAT     H2 9867   5.374   6.952   4.618
 2290WAT    EPW 9868   5.381   6.921   4.690
 2291WAT      O 9869   6.572   7.456   4.461
 2291WAT     H1 9870   6.578   7.369   4.469
 2291WAT     H2 9871   6.549   7.483   4.541
 2291WAT    EPW 9872   6.569   7.447   4.474
 2292WAT      O 9873   5.130   7.711   4.519
 2292WAT     H1 9874   5.174   7.741   4.450
 2292WAT     H2 9875   5.102   7.632   4.494
 2292WAT    EPW 9876   5.132   7.704   4.505
 2293WAT      O 9877   5.257   7.312   3.091
 2293WAT     H1 9878   5.185   7.321   3.139
 2293WAT     H2 9879   5.249   7.232   3.056
 2293WAT    EPW 9880   5.245   7.302   3.093
 2294WAT      O 9881   6.120   6.974   4.779
 2294WAT     H1 9882   6.153   7.036   4.831
 2294WAT     H2 9883   6.041   6.960   4.812
 2294WAT    EPW 9884   6.113   6.981   4.791
 2295WAT      O 9885   6.133   6.980   3.875
 2295WAT     H1 9886   6.046   6.984   3.873
 2295WAT     H2 9887   6.154   6.942   3.799
 2295WAT    EPW 9888   6.123   6.975   3.863
 2296WAT      O 9889   6.448   7.089   4.135
 2296WAT     H1 9890   6.529   7.058   4.144
 2296WAT     H2 9891   6.455   7.173   4.157
 2296WAT    EPW 9892   6.461   7.097   4.139
 2297WAT      O 9893   5.614   7.669   4.630
 2297WAT     H1 9894   5.558   7.714   4.679
 2297WAT     H2 9895   5.566   7.646   4.561
 2297WAT    EPW 9896   5.599   7.672   4.627
 2298WAT      O 9897   6.538   7.508   3.943
 2298WAT     H1 9898   6.606   7.560   3.959
 2298WAT     H2 9899   6.483   7.560   3.900
 2298WAT    EPW 9900   6.540   7.523   3.939
 2299WAT      O 9901   5.593   7.035   4.365
 2299WAT     H1 9902   5.511   7.011   4.381
 2299WAT     H2 9903   5.641   6.971   4.399
 2299WAT    EPW 9904   5.588   7.022   4.372
 2300WAT      O 9905   6.752   6.864   4.394
 2300WAT     H1 9906   6.731   6.904   4.469
 2300WAT     H2 9907   6.834   6.837   4.407
 2300WAT    EPW 9908   6.761   6.866   4.407
 2301WAT      O 9909   5.983   7.016   4.188
 2301WAT     H1 9910   5.922   6.954   4.183
 2301WAT     H2 9911   6.058   6.971   4.182
 2301WAT    EPW 9912   5.985   7.000   4.187
 2302WAT      O 9913   5.800   7.492   4.740
 2302WAT     H1 9914   5.771   7.422   4.697
 2302WAT     H2 9915   5.749   7.557   4.713
 2302WAT    EPW 9916   5.788   7.491   4.730
 2303WAT      O 9917   5.816   6.835   3.213
 2303WAT     H1 9918   5.824   6.847   3.127
 2303WAT     H2 9919   5.730   6.844   3.227
 2303WAT    EPW 9920   5.805   6.838   3.202
 2304WAT      O 9921   5.327   6.988   4.439
 2304WAT     H1 9922   5.270   6.923   4.424
 2304WAT     H2 9923   5.277   7.060   4.439
 2304WAT    EPW 9924   5.311   6.989   4.437
 2305WAT      O 9925   6.236   6.902   4.125
 2305WAT     H1 9926   6.299   6.960   4.140
 2305WAT     H2 9927   6.209   6.921   4.044
 2305WAT    EPW 9928   6.241   6.913   4.115
 2306WAT      O 9929   6.167   7.399   3.868
 2306WAT     H1 9930   6.224   7.334   3.881
 2306WAT     H2 9931   6.140   7.418   3.949
 2306WAT    EPW 9932   6.172   7.392   3.882
 2307WAT      O 9933   5.192   7.342   3.751
 2307WAT     H1 9934   5.155   7.365   3.826
 2307WAT     H2 9935   5.237   7.270   3.772
 2307WAT    EPW 9936   5.193   7.335   3.765
 2308WAT      O 9937   6.315   7.553   3.534
 2308WAT     H1 9938   6.357   7.476   3.532
 2308WAT     H2 9939   6.256   7.545   3.469
 2308WAT    EPW 9940   6.312   7.540   3.524
 2309WAT      O 9941   5.714   7.674   3.387
 2309WAT     H1 9942   5.757   7.711   3.320
 2309WAT     H2 9943   5.776   7.663   3.448
 2309WAT    EPW 9944   5.729   7.678   3.386
 2310WAT      O 9945   6.603   7.801   4.783
 2310WAT     H1 9946   6.673   7.774   4.828
 2310WAT     H2 9947   6.635   7.817   4.703
 2310WAT    EPW 9948   6.618   7.799   4.778
 2311WAT      O 9949   6.696   7.258   4.950
 2311WAT     H1 9950   6.682   7.341   4.972
 2311WAT     H2 9951   6.624   7.236   4.906
 2311WAT    EPW 9952   6.683   7.267   4.947
 2312WAT      O 9953   6.759   7.331   4.248
 2312WAT     H1 9954   6.676   7.353   4.230
 2312WAT     H2 9955   6.760   7.245   4.237
 2312WAT    EPW 9956   6.747   7.322   4.243
 2313WAT      O 9957   5.652   7.015   4.716
 2313WAT     H1 9958   5.684   6.974   4.646
 2313WAT     H2 9959   5.569   6.988   4.719
 2313WAT    EPW 9960   5.645   7.005   4.706
 2314WAT      O 9961   6.378   7.898   4.950
 2314WAT     H1 9962   6.442   7.893   4.891
 2314WAT     H2 9963   6.388   7.978   4.984
 2314WAT    EPW 9964   6.389   7.909   4.946
 2315WAT      O 9965   6.197   6.889   1.759
 2315WAT     H1 9966   6.233   6.953   1.712
 2315WAT     H2 9967   6.266   6.849   1.794
 2315WAT    EPW 9968   6.213   6.892   1.757
 2316WAT      O 9969   6.089   7.460   2.234
 2316WAT     H1 9970   6.049   7.532   2.263
 2316WAT     H2 9971   6.148   7.443   2.296
 2316WAT    EPW 9972   6.092   7.468   2.247
 2317WAT      O 9973   5.047   7.324   1.390
 2317WAT     H1 9974   4.980   7.368   1.357
 2317WAT     H2 9975   5.015   7.244   1.403
 2317WAT    EPW 9976   5.032   7.319   1.387
 2318WAT      O 9977   5.340   7.901   1.208
 2318WAT     H1 9978   5.296   7.854   1.149
 2318WAT     H2 9979   5.353   7.844   1.273
 2318WAT    EPW 9980   5.336   7.886   1.209
 2319WAT      O 9981   6.329   7.636   1.912
 2319WAT     H1 9982   6.328   7.629   1.825
 2319WAT     H2 9983   6.274   7.574   1.938
 2319WAT    EPW 9984   6.321   7.626   1.903
 2320WAT      O 9985   5.769   6.965   1.655
 2320WAT     H1 9986   5.750   7.030   1.600
 2320WAT     H2 9987   5.846   6.935   1.626
 2320WAT    EPW 9988   5.777   6.970   1.643
 2321WAT      O 9989   5.330   7.761   1.860
 2321WAT     H1 9990   5.285   7.764   1.785
 2321WAT     H2 9991   5.373   7.686   1.855
 2321WAT    EPW 9992   5.330   7.750   1.848
 2322WAT      O 9993   5.690   7.299   2.425
 2322WAT     H1 9994   5.758   7.292   2.370
 2322WAT     H2 9995   5.652   7.221   2.420
 2322WAT    EPW 9996   5.694   7.286   2.416
 2323WAT      O 9997   5.429   7.503   1.882
 2323WAT     H1 9998   5.493   7.448   1.904
 2323WAT     H2 9999   5.359   7.452   1.873
 2323WAT    EPW10000   5.428   7.488   1.884
 2324WAT      O10001   6.061   7.513   2.939
 2324WAT     H110002   5.979   7.514   2.908
 2324WAT     H210003   6.065   7.585   2.988
 2324WAT    EPW10004   6.050   7.524   2.941
 2325WAT      O10005   5.496   7.010   1.736
 2325WAT     H110006   5.459   7.065   1.679
 2325WAT     H210007   5.579   7.004   1.708
 2325WAT    EPW10008   5.503   7.017   1.724
 2326WAT      O10009   6.468   6.760   2.714
 2326WAT     H110010   6.442   6.826   2.664
 2326WAT     H210011   6.395   6.737   2.757
 2326WAT    EPW10012   6.453   6.766   2.713
 2327WAT      O10013   5.806   6.928   1.927
 2327WAT     H110014   5.821   7.011   1.950
 2327WAT     H210015   5.783   6.935   1.843
 2327WAT    EPW10016   5.805   6.942   1.918
 2328WAT      O10017   6.199   7.126   1.174
 2328WAT     H110018   6.158   7.192   1.214
 2328WAT     H210019   6.222   7.073   1.239
 2328WAT    EPW10020   6.196   7.128   1.189
 2329WAT      O10021   5.059   7.394   2.125
 2329WAT     H110022   5.024   7.473   2.130
 2329WAT     H210023   5.008   7.345   2.175
 2329WAT    EPW10024   5.046   7.398   2.133
 2330WAT      O10025   5.324   6.954   2.153
 2330WAT     H110026   5.313   6.875   2.116
 2330WAT     H210027   5.380   6.939   2.218
 2330WAT    EPW10028   5.330   6.940   2.157
 2331WAT      O10029   5.648   7.115   3.068
 2331WAT     H110030   5.657   7.081   2.988
 2331WAT     H210031   5.696   7.188   3.064
 2331WAT    EPW10032   5.657   7.121   3.055
 2332WAT      O10033   6.820   7.129   1.873
 2332WAT     H110034   6.767   7.198   1.882
 2332WAT     H210035   6.766   7.062   1.861
 2332WAT    EPW10036   6.804   7.129   1.873
 2333WAT      O10037   5.235   7.044   2.999
 2333WAT     H110038   5.156   7.016   2.976
 2333WAT     H210039   5.287   7.013   2.936
 2333WAT    EPW10040   5.231   7.035   2.986
 2334WAT      O10041   5.854   6.867   2.943
 2334WAT     H110042   5.878   6.794   2.902
 2334WAT     H210043   5.791   6.899   2.892
 2334WAT    EPW10044   5.848   6.861   2.929
 2335WAT      O10045   5.970   7.379   1.788
 2335WAT     H110046   5.997   7.327   1.724
 2335WAT     H210047   6.042   7.392   1.836
 2335WAT    EPW10048   5.985   7.373   1.786
 2336WAT      O10049   6.054   7.320   1.316
 2336WAT     H110050   6.077   7.398   1.346
 2336WAT     H210051   5.978   7.335   1.276
 2336WAT    EPW10052   6.046   7.334   1.315
 2337WAT      O10053   6.715   7.048   2.307
 2337WAT     H110054   6.781   7.040   2.250
 2337WAT     H210055   6.733   6.988   2.368
 2337WAT    EPW10056   6.727   7.038   2.307
 2338WAT      O10057   4.988   7.174   2.737
 2338WAT     H110058   4.974   7.250   2.778
 2338WAT     H210059   5.051   7.193   2.680
 2338WAT    EPW10060   4.995   7.188   2.735
 2339WAT      O10061   6.264   6.961   1.388
 2339WAT     H110062   6.325   6.899   1.383
 2339WAT     H210063   6.290   7.010   1.455
 2339WAT    EPW10064   6.277   6.959   1.397
 2340WAT      O10065   5.107   7.083   1.666
 2340WAT     H110066   5.083   7.000   1.654
 2340WAT     H210067   5.061   7.109   1.735
 2340WAT    EPW10068   5.097   7.075   1.674
 2341WAT      O10069   6.047   7.213   1.574
 2341WAT     H110070   6.015   7.133   1.560
 2341WAT     H210071   6.044   7.251   1.496
 2341WAT    EPW10072   6.042   7.207   1.561
 2342WAT      O10073   6.005   6.944   1.500
 2342WAT     H110074   5.948   6.917   1.440
 2342WAT     H210075   6.083   6.936   1.460
 2342WAT    EPW10076   6.008   6.939   1.485
 2343WAT      O10077   5.862   7.197   1.971
 2343WAT     H110078   5.889   7.262   1.919
 2343WAT     H210079   5.873   7.230   2.051
 2343WAT    EPW10080   5.868   7.211   1.975
 2344WAT      O10081   5.441   6.746   1.790
 2344WAT     H110082   5.454   6.831   1.775
 2344WAT     H210083   5.414   6.716   1.712
 2344WAT    EPW10084   5.439   6.754   1.776
 2345WAT      O10085   5.561   7.795   2.288
 2345WAT     H110086   5.567   7.729   2.345
 2345WAT     H210087   5.512   7.762   2.224
 2345WAT    EPW10088   5.554   7.780   2.287
 2346WAT      O10089   6.186   7.159   2.556
 2346WAT     H110090   6.177   7.196   2.634
 2346WAT     H210091   6.122   7.100   2.554
 2346WAT    EPW10092   6.175   7.156   2.567
 2347WAT      O10093   6.417   6.763   1.868
 2347WAT     H110094   6.410   6.747   1.954
 2347WAT     H210095   6.447   6.687   1.836
 2347WAT    EPW10096   6.421   6.749   1.876
 2348WAT      O10097   6.587   7.191   2.657
 2348WAT     H110098   6.672   7.182   2.676
 2348WAT     H210099   6.548   7.188   2.735
 2348WAT    EPW10100   6.594   7.189   2.671
 2349WAT      O10101   5.384   7.141   1.956
 2349WAT     H110102   5.415   7.092   1.891
 2349WAT     H210103   5.367   7.083   2.019
 2349WAT    EPW10104   5.386   7.125   1.955
 2350WAT      O10105   5.262   7.338   2.314
 2350WAT     H110106   5.340   7.357   2.280
 2350WAT     H210107   5.206   7.357   2.249
 2350WAT    EPW10108   5.266   7.343   2.299
 2351WAT      O10109   6.452   7.666   1.303
 2351WAT     H110110   6.426   7.739   1.264
 2351WAT     H210111   6.469   7.692   1.385
 2351WAT    EPW10112   6.451   7.681   1.309
 2352WAT      O10113   6.760   7.068   1.288
 2352WAT     H110114   6.804   7.018   1.232
 2352WAT     H210115   6.712   7.119   1.237
 2352WAT    EPW10116   6.759   7.068   1.272
 2353WAT      O10117   5.804   7.344   3.090
 2353WAT     H110118   5.760   7.380   3.156
 2353WAT     H210119   5.793   7.400   3.024
 2353WAT    EPW10120   5.796   7.357   3.090
 2354WAT      O10121   6.899   7.463   2.533
 2354WAT     H110122   6.954   7.396   2.542
 2354WAT     H210123   6.844   7.438   2.471
 2354WAT    EPW10124   6.899   7.450   2.525
 2355WAT      O10125   5.212   7.725   1.608
 2355WAT     H110126   5.177   7.645   1.613
 2355WAT     H210127   5.273   7.717   1.546
 2355WAT    EPW10128   5.216   7.712   1.600
 2356WAT      O10129   6.653   6.938   1.521
 2356WAT     H110130   6.729   6.903   1.544
 2356WAT     H210131   6.674   6.991   1.454
 2356WAT    EPW10132   6.667   6.941   1.514
 2357WAT      O10133   6.355   7.194   1.994
 2357WAT     H110134   6.387   7.159   2.067
 2357WAT     H210135   6.286   7.145   1.976
 2357WAT    EPW10136   6.350   7.182   2.002
 2358WAT      O10137   5.712   7.155   1.471
 2358WAT     H110138   5.700   7.138   1.386
 2358WAT     H210139   5.710   7.242   1.475
 2358WAT    EPW10140   5.710   7.165   1.459
 2359WAT      O10141   5.390   7.500   2.930
 2359WAT     H110142   5.348   7.440   2.978
 2359WAT     H210143   5.399   7.461   2.852
 2359WAT    EPW10144   5.385   7.485   2.925
 2360WAT      O10145   5.399   7.412   1.425
 2360WAT     H110146   5.381   7.351   1.484
 2360WAT     H210147   5.360   7.383   1.352
 2360WAT    EPW10148   5.390   7.399   1.423
 2361WAT      O10149   5.356   7.680   2.126
 2361WAT     H110150   5.339   7.720   2.051
 2361WAT     H210151   5.385   7.601   2.101
 2361WAT    EPW10152   5.358   7.674   2.112
 2362WAT      O10153   5.475   7.582   2.479
 2362WAT     H110154   5.485   7.531   2.409
 2362WAT     H210155   5.403   7.628   2.461
 2362WAT    EPW10156   5.466   7.581   2.466
 2363WAT      O10157   6.494   7.360   2.267
 2363WAT     H110158   6.428   7.386   2.317
 2363WAT     H210159   6.493   7.417   2.201
 2363WAT    EPW10160   6.484   7.372   2.264
 2364WAT      O10161   6.024   6.937   2.625
 2364WAT     H110162   6.049   6.856   2.603
 2364WAT     H210163   6.054   6.946   2.706
 2364WAT    EPW10164   6.032   6.926   2.634
 2365WAT      O10165   6.301   7.112   1.618
 2365WAT     H110166   6.362   7.174   1.627
 2365WAT     H210167   6.227   7.157   1.609
 2365WAT    EPW10168   6.299   7.128   1.618
 2366WAT      O10169   5.222   7.719   2.901
 2366WAT     H110170   5.205   7.720   2.816
 2366WAT     H210171   5.271   7.648   2.912
 2366WAT    EPW10172   5.227   7.709   2.890
 2367WAT      O10173   5.890   7.271   2.235
 2367WAT     H110174   5.955   7.328   2.241
 2367WAT     H210175   5.925   7.197   2.266
 2367WAT    EPW10176   5.905   7.268   2.241
 2368WAT      O10177   6.113   7.560   1.447
 2368WAT     H110178   6.114   7.622   1.387
 2368WAT     H210179   6.052   7.587   1.504
 2368WAT    EPW10180   6.104   7.573   1.446
 2369WAT      O10181   5.526   6.803   1.375
 2369WAT     H110182   5.481   6.765   1.440
 2369WAT     H210183   5.485   6.879   1.364
 2369WAT    EPW10184   5.513   6.808   1.383
 2370WAT      O10185   6.603   7.847   2.621
 2370WAT     H110186   6.611   7.796   2.551
 2370WAT     H210187   6.622   7.926   2.592
 2370WAT    EPW10188   6.607   7.851   2.606
 2371WAT      O10189   6.600   6.897   2.915
 2371WAT     H110190   6.561   6.852   2.851
 2371WAT     H210191   6.602   6.840   2.981
 2371WAT    EPW10192   6.595   6.882   2.916
 2372WAT      O10193   5.429   7.691   1.414
 2372WAT     H110194   5.414   7.605   1.423
 2372WAT     H210195   5.500   7.704   1.463
 2372WAT    EPW10196   5.437   7.680   1.423
 2373WAT      O10197   6.187   7.750   2.513
 2373WAT     H110198   6.210   7.823   2.556
 2373WAT     H210199   6.213   7.686   2.567
 2373WAT    EPW10200   6.194   7.751   2.528
 2374WAT      O10201   5.011   6.818   1.629
 2374WAT     H110202   5.011   6.764   1.560
 2374WAT     H210203   4.983   6.768   1.694
 2374WAT    EPW10204   5.007   6.802   1.628
 2375WAT      O10205   5.931   7.625   1.657
 2375WAT     H110206   5.954   7.680   1.720
 2375WAT     H210207   5.931   7.547   1.697
 2375WAT    EPW10208   5.935   7.621   1.672
 2376WAT      O10209   5.406   7.046   1.323
 2376WAT     H110210   5.347   7.048   1.259
 2376WAT     H210211   5.475   7.087   1.288
 2376WAT    EPW10212   5.407   7.053   1.309
 2377WAT      O10213   5.816   7.805   2.158
 2377WAT     H110214   5.738   7.812   2.197
 2377WAT     H210215   5.867   7.769   2.219
 2377WAT    EPW10216   5.812   7.801   2.173
 2378WAT      O10217   5.286   7.769   2.384
 2378WAT     H110218   5.353   7.825   2.379
 2378WAT     H210219   5.281   7.735   2.304
 2378WAT    EPW10220   5.295   7.772   2.372
 2379WAT      O10221   5.596   7.312   2.001
 2379WAT     H110222   5.672   7.271   1.984
 2379WAT     H210223   5.537   7.249   1.989
 2379WAT    EPW10224   5.599   7.297   1.997
 2380WAT      O10225   5.098   7.464   1.636
 2380WAT     H110226   5.126   7.420   1.705
 2380WAT     H210227   5.103   7.406   1.571
 2380WAT    EPW10228   5.103   7.449   1.636
 2381WAT      O10229   6.602   7.679   2.392
 2381WAT     H110230   6.602   7.605   2.437
 2381WAT     H210231   6.519   7.686   2.365
 2381WAT    EPW10232   6.590   7.669   2.394
 2382WAT      O10233   5.592   7.645   1.185
 2382WAT     H110234   5.541   7.664   1.253
 2382WAT     H210235   5.538   7.606   1.128
 2382WAT    EPW10236   5.577   7.642   1.187
 2383WAT      O10237   6.762   7.674   2.158
 2383WAT     H110238   6.723   7.676   2.236
 2383WAT     H210239   6.784   7.757   2.144
 2383WAT    EPW10240   6.760   7.687   2.168
 2384WAT      O10241   5.674   7.429   1.435
 2384WAT     H110242   5.687   7.511   1.461
 2384WAT     H210243   5.587   7.423   1.432
 2384WAT    EPW10244   5.663   7.441   1.438
 2385WAT      O10245   6.472   7.148   2.911
 2385WAT     H110246   6.404   7.149   2.966
 2385WAT     H210247   6.504   7.067   2.919
 2385WAT    EPW10248   6.466   7.136   2.920
 2386WAT      O10249   5.049   7.049   2.144
 2386WAT     H110250   5.032   7.073   2.062
 2386WAT     H210251   5.134   7.029   2.142
 2386WAT    EPW10252   5.059   7.050   2.131
 2387WAT      O10253   6.338   7.461   3.021
 2387WAT     H110254   6.363   7.513   3.086
 2387WAT     H210255   6.254   7.482   3.009
 2387WAT    EPW10256   6.330   7.472   3.029
 2388WAT      O10257   6.516   7.532   2.822
 2388WAT     H110258   6.532   7.614   2.847
 2388WAT     H210259   6.466   7.501   2.887
 2388WAT    EPW10260   6.511   7.540   2.835
 2389WAT      O10261   6.595   7.303   1.899
 2389WAT     H110262   6.527   7.256   1.929
 2389WAT     H210263   6.589   7.378   1.943
 2389WAT    EPW10264   6.584   7.307   1.910
 2390WAT      O10265   6.826   7.665   2.961
 2390WAT     H110266   6.825   7.598   2.905
 2390WAT     H210267   6.906   7.698   2.953
 2390WAT    EPW10268   6.838   7.660   2.952
 2391WAT      O10269   6.412   6.994   2.566
 2391WAT     H110270   6.472   7.055   2.582
 2391WAT     H210271   6.338   7.039   2.558
 2391WAT    EPW10272   6.410   7.009   2.567
 2392WAT      O10273   5.964   7.674   2.365
 2392WAT     H110274   6.034   7.708   2.405
 2392WAT     H210275   5.911   7.652   2.431
 2392WAT    EPW10276   5.967   7.676   2.380
 2393WAT      O10277   5.673   7.270   2.704
 2393WAT     H110278   5.671   7.185   2.721
 2393WAT     H210279   5.692   7.274   2.619
 2393WAT    EPW10280   5.675   7.258   2.694
 2394WAT      O10281   6.495   6.796   2.386
 2394WAT     H110282   6.465   6.868   2.425
 2394WAT     H210283   6.579   6.793   2.411
 2394WAT    EPW10284   6.503   6.806   2.395
 2395WAT      O10285   5.756   6.884   2.557
 2395WAT     H110286   5.839   6.910   2.563
 2395WAT     H210287   5.762   6.806   2.518
 2395WAT    EPW10288   5.770   6.876   2.552
 2396WAT      O10289   6.678   7.503   1.271
 2396WAT     H110290   6.732   7.557   1.228
 2396WAT     H210291   6.605   7.549   1.277
 2396WAT    EPW10292   6.675   7.518   1.265
 2397WAT      O10293   5.819   7.797   1.254
 2397WAT     H110294   5.758   7.746   1.218
 2397WAT     H210295   5.786   7.877   1.246
 2397WAT    EPW10296   5.805   7.801   1.247
 2398WAT      O10297   5.522   7.423   2.247
 2398WAT     H110298   5.548   7.399   2.167
 2398WAT     H210299   5.578   7.382   2.300
 2398WAT    EPW10300   5.534   7.413   2.243
 2399WAT      O10301   6.183   7.306   2.797
 2399WAT     H110302   6.129   7.356   2.843
 2399WAT     H210303   6.240   7.277   2.855
 2399WAT    EPW10304   6.183   7.309   2.812
 2400WAT      O10305   6.272   7.393   2.428
 2400WAT     H110306   6.284   7.442   2.499
 2400WAT     H210307   6.246   7.316   2.460
 2400WAT    EPW10308   6.270   7.388   2.443
 2401WAT      O10309   6.476   7.333   1.650
 2401WAT     H110310   6.511   7.321   1.730
 2401WAT     H210311   6.539   7.376   1.607
 2401WAT    EPW10312   6.491   7.338   1.656
 2402WAT      O10313   5.770   6.865   2.201
 2402WAT     H110314   5.687   6.855   2.224
 2402WAT     H210315   5.767   6.873   2.114
 2402WAT    EPW10316   5.757   6.865   2.192
 2403WAT      O10317   6.628   6.937   1.805
 2403WAT     H110318   6.554   6.898   1.829
 2403WAT     H210319   6.616   6.952   1.720
 2403WAT    EPW10320   6.615   6.933   1.796
 2404WAT      O10321   6.517   7.734   1.561
 2404WAT     H110322   6.583   7.677   1.572
 2404WAT     H210323   6.449   7.692   1.596
 2404WAT    EPW10324   6.517   7.719   1.568
 2405WAT      O10325   5.002   6.935   2.877
 2405WAT     H110326   4.998   7.009   2.831
 2405WAT     H210327   4.918   6.918   2.895
 2405WAT    EPW10328   4.989   6.943   2.873
 2406WAT      O10329   5.350   7.174   1.566
 2406WAT     H110330   5.359   7.130   1.491
 2406WAT     H210331   5.272   7.150   1.595
 2406WAT    EPW10332   5.340   7.164   1.559
 2407WAT      O10333   6.792   7.448   2.792
 2407WAT     H110334   6.705   7.458   2.796
 2407WAT     H210335   6.811   7.463   2.708
 2407WAT    EPW10336   6.782   7.452   2.780
 2408WAT      O10337   6.280   7.537   2.668
 2408WAT     H110338   6.239   7.472   2.710
 2408WAT     H210339   6.352   7.549   2.715
 2408WAT    EPW10340   6.285   7.529   2.681
 2409WAT      O10341   6.107   7.724   3.117
 2409WAT     H110342   6.166   7.787   3.101
 2409WAT     H210343   6.032   7.768   3.122
 2409WAT    EPW10344   6.105   7.740   3.116
 2410WAT      O10345   5.419   7.383   2.677
 2410WAT     H110346   5.433   7.446   2.618
 2410WAT     H210347   5.497   7.346   2.687
 2410WAT    EPW10348   5.432   7.387   2.670
 2411WAT      O10349   5.208   7.242   2.563
 2411WAT     H110350   5.223   7.262   2.480
 2411WAT     H210351   5.273   7.281   2.606
 2411WAT    EPW10352   5.220   7.251   2.557
 2412WAT      O10353   6.676   7.501   1.551
 2412WAT     H110354   6.689   7.502   1.465
 2412WAT     H210355   6.756   7.489   1.584
 2412WAT    EPW10356   6.690   7.499   1.543
 2413WAT      O10357   5.383   6.911   2.802
 2413WAT     H110358   5.341   6.834   2.807
 2413WAT     H210359   5.365   6.939   2.722
 2413WAT    EPW10360   5.374   6.904   2.791
 2414WAT      O10361   6.578   7.459   2.559
 2414WAT     H110362   6.580   7.372   2.565
 2414WAT     H210363   6.552   7.485   2.638
 2414WAT    EPW10364   6.575   7.450   2.571
 2415WAT      O10365   5.167   7.683   2.626
 2415WAT     H110366   5.193   7.722   2.552
 2415WAT     H210367   5.116   7.618   2.598
 2415WAT    EPW10368   5.164   7.679   2.611
 2416WAT      O10369   5.251   7.326   1.201
 2416WAT     H110370   5.182   7.329   1.255
 2416WAT     H210371   5.245   7.248   1.164
 2416WAT    EPW10372   5.240   7.315   1.203
 2417WAT      O10373   6.110   6.965   2.889
 2417WAT     H110374   6.142   7.028   2.941
 2417WAT     H210375   6.031   6.950   2.922
 2417WAT    EPW10376   6.103   6.972   2.902
 2418WAT      O10377   6.119   7.051   1.971
 2418WAT     H110378   6.041   7.089   1.961
 2418WAT     H210379   6.125   6.999   1.901
 2418WAT    EPW10380   6.108   7.049   1.959
 2419WAT      O10381   6.445   7.091   2.235
 2419WAT     H110382   6.524   7.056   2.249
 2419WAT     H210383   6.455   7.174   2.257
 2419WAT    EPW10384   6.458   7.098   2.241
 2420WAT      O10385   5.615   7.657   2.720
 2420WAT     H110386   5.552   7.697   2.767
 2420WAT     H210387   5.576   7.640   2.644
 2420WAT    EPW10388   5.600   7.660   2.716
 2421WAT      O10389   6.542   7.530   2.052
 2421WAT     H110390   6.606   7.587   2.068
 2421WAT     H210391   6.484   7.577   2.008
 2421WAT    EPW10392   6.543   7.546   2.048
 2422WAT      O10393   5.570   7.056   2.437
 2422WAT     H110394   5.493   7.028   2.465
 2422WAT     H210395   5.626   6.995   2.464
 2422WAT    EPW10396   5.567   7.043   2.445
 2423WAT      O10397   6.744   6.857   2.510
 2423WAT     H110398   6.727   6.885   2.590
 2423WAT     H210399   6.827   6.828   2.515
 2423WAT    EPW10400   6.754   6.857   2.522
 2424WAT      O10401   5.972   7.023   2.318
 2424WAT     H110402   5.911   6.971   2.283
 2424WAT     H210403   6.047   6.986   2.292
 2424WAT    EPW10404   5.974   7.010   2.309
 2425WAT      O10405   5.797   7.482   2.844
 2425WAT     H110406   5.768   7.412   2.800
 2425WAT     H210407   5.746   7.546   2.814
 2425WAT    EPW10408   5.785   7.481   2.833
 2426WAT      O10409   5.806   6.828   1.346
 2426WAT     H110410   5.814   6.837   1.259
 2426WAT     H210411   5.720   6.834   1.359
 2426WAT    EPW10412   5.795   6.831   1.335
 2427WAT      O10413   5.321   6.986   2.546
 2427WAT     H110414   5.263   6.925   2.523
 2427WAT     H210415   5.276   7.060   2.544
 2427WAT    EPW10416   5.306   6.988   2.542
 2428WAT      O10417   6.212   6.933   2.205
 2428WAT     H110418   6.280   6.983   2.227
 2428WAT     H210419   6.183   6.969   2.131
 2428WAT    EPW10420   6.218   6.945   2.197
 2429WAT      O10421   6.177   7.412   1.975
 2429WAT     H110422   6.238   7.351   1.986
 2429WAT     H210423   6.148   7.428   2.056
 2429WAT    EPW10424   6.182   7.405   1.988
 2430WAT      O10425   5.199   7.343   1.878
 2430WAT     H110426   5.151   7.356   1.950
 2430WAT     H210427   5.244   7.270   1.897
 2430WAT    EPW10428   5.198   7.334   1.892
 2431WAT      O10429   6.315   7.563   1.642
 2431WAT     H110430   6.355   7.485   1.642
 2431WAT     H210431   6.256   7.555   1.578
 2431WAT    EPW10432   6.312   7.550   1.633
 2432WAT      O10433   5.709   7.697   1.497
 2432WAT     H110434   5.753   7.731   1.430
 2432WAT     H210435   5.770   7.684   1.558
 2432WAT    EPW10436   5.725   7.700   1.496
 2433WAT      O10437   6.576   7.791   2.894
 2433WAT     H110438   6.657   7.775   2.922
 2433WAT     H210439   6.588   7.818   2.812
 2433WAT    EPW10440   6.589   7.793   2.886
 2434WAT      O10441   6.689   7.258   3.042
 2434WAT     H110442   6.678   7.341   3.064
 2434WAT     H210443   6.615   7.237   3.001
 2434WAT    EPW10444   6.677   7.267   3.039
 2435WAT      O10445   6.764   7.326   2.321
 2435WAT     H110446   6.680   7.346   2.309
 2435WAT     H210447   6.764   7.239   2.323
 2435WAT    EPW10448   6.752   7.316   2.320
 2436WAT      O10449   5.652   6.992   2.792
 2436WAT     H110450   5.682   6.955   2.718
 2436WAT     H210451   5.571   6.962   2.799
 2436WAT    EPW10452   5.645   6.982   2.782
 2437WAT      O10453   6.357   7.883   3.068
 2437WAT     H110454   6.419   7.878   3.007
 2437WAT     H210455   6.368   7.963   3.102
 2437WAT    EPW10456   6.368   7.894   3.064
 2438WAT      O10457   6.050   7.470   0.393
 2438WAT     H110458   6.012   7.531   0.442
 2438WAT     H210459   6.128   7.459   0.432
 2438WAT    EPW10460   6.056   7.478   0.406
 2439WAT      O10461   5.691   7.246   0.572
 2439WAT     H110462   5.763   7.247   0.522
 2439WAT     H210463   5.660   7.165   0.562
 2439WAT    EPW10464   5.697   7.234   0.563
 2440WAT      O10465   6.071   7.521   1.049
 2440WAT     H110466   5.990   7.518   1.018
 2440WAT     H210467   6.072   7.593   1.099
 2440WAT    EPW10468   6.059   7.531   1.052
 2441WAT      O10469   6.432   6.740   0.818
 2441WAT     H110470   6.422   6.821   0.786
 2441WAT     H210471   6.364   6.730   0.872
 2441WAT    EPW10472   6.421   6.750   0.821
 2442WAT      O10473   5.080   7.516   0.354
 2442WAT     H110474   5.031   7.581   0.323
 2442WAT     H210475   5.022   7.456   0.380
 2442WAT    EPW10476   5.064   7.516   0.353
 2443WAT      O10477   5.317   6.908   0.381
 2443WAT     H110478   5.334   6.970   0.323
 2443WAT     H210479   5.376   6.846   0.363
 2443WAT    EPW10480   5.328   6.908   0.370
 2444WAT      O10481   5.640   7.141   1.197
 2444WAT     H110482   5.647   7.100   1.120
 2444WAT     H210483   5.689   7.212   1.188
 2444WAT    EPW10484   5.648   7.145   1.185
 2445WAT      O10485   5.232   7.060   1.104
 2445WAT     H110486   5.153   7.027   1.085
 2445WAT     H210487   5.283   7.028   1.040
 2445WAT    EPW10488   5.228   7.050   1.092
 2446WAT      O10489   5.841   6.857   1.074
 2446WAT     H110490   5.858   6.784   1.029
 2446WAT     H210491   5.770   6.890   1.035
 2446WAT    EPW10492   5.833   6.851   1.062
 2447WAT      O10493   6.798   7.042   0.467
 2447WAT     H110494   6.867   7.006   0.427
 2447WAT     H210495   6.789   6.992   0.539
 2447WAT    EPW10496   6.807   7.029   0.472
 2448WAT      O10497   4.982   7.177   0.849
 2448WAT     H110498   4.969   7.249   0.897
 2448WAT     H210499   5.048   7.200   0.796
 2448WAT    EPW10500   4.990   7.191   0.848
 2449WAT      O10501   5.500   7.783   0.408
 2449WAT     H110502   5.517   7.727   0.473
 2449WAT     H210503   5.579   7.796   0.372
 2449WAT    EPW10504   5.514   7.777   0.413
 2450WAT      O10505   6.207   7.171   0.656
 2450WAT     H110506   6.188   7.218   0.727
 2450WAT     H210507   6.145   7.110   0.654
 2450WAT    EPW10508   6.195   7.169   0.666
 2451WAT      O10509   6.618   7.204   0.787
 2451WAT     H110510   6.701   7.186   0.805
 2451WAT     H210511   6.581   7.216   0.865
 2451WAT    EPW10512   6.624   7.203   0.801
 2452WAT      O10513   5.273   7.318   0.420
 2452WAT     H110514   5.354   7.342   0.401
 2452WAT     H210515   5.224   7.379   0.382
 2452WAT    EPW10516   5.278   7.330   0.412
 2453WAT      O10517   5.801   7.367   1.198
 2453WAT     H110518   5.759   7.404   1.265
 2453WAT     H210519   5.791   7.425   1.133
 2453WAT    EPW10520   5.793   7.381   1.198
 2454WAT      O10521   6.900   7.461   0.687
 2454WAT     H110522   6.962   7.400   0.680
 2454WAT     H210523   6.841   7.436   0.627
 2454WAT    EPW10524   6.900   7.448   0.677
 2455WAT      O10525   5.377   7.520   1.042
 2455WAT     H110526   5.336   7.462   1.092
 2455WAT     H210527   5.388   7.478   0.966
 2455WAT    EPW10528   5.373   7.506   1.038
 2456WAT      O10529   5.480   7.576   0.607
 2456WAT     H110530   5.499   7.522   0.541
 2456WAT     H210531   5.401   7.606   0.587
 2456WAT    EPW10532   5.472   7.573   0.594
 2457WAT      O10533   6.511   7.331   0.377
 2457WAT     H110534   6.446   7.361   0.426
 2457WAT     H210535   6.496   7.367   0.299
 2457WAT    EPW10536   6.499   7.341   0.373
 2458WAT      O10537   6.037   6.943   0.699
 2458WAT     H110538   6.053   6.858   0.690
 2458WAT     H210539   6.053   6.958   0.784
 2458WAT    EPW10540   6.041   6.933   0.710
 2459WAT      O10541   5.206   7.738   1.014
 2459WAT     H110542   5.182   7.740   0.930
 2459WAT     H210543   5.260   7.670   1.018
 2459WAT    EPW10544   5.210   7.729   1.002
 2460WAT      O10545   5.896   7.240   0.394
 2460WAT     H110546   5.950   7.308   0.385
 2460WAT     H210547   5.948   7.171   0.388
 2460WAT    EPW10548   5.912   7.240   0.392
 2461WAT      O10549   6.705   7.806   0.755
 2461WAT     H110550   6.676   7.781   0.677
 2461WAT     H210551   6.791   7.792   0.752
 2461WAT    EPW10552   6.713   7.800   0.743
 2462WAT      O10553   6.669   6.811   0.948
 2462WAT     H110554   6.592   6.797   0.910
 2462WAT     H210555   6.662   6.772   1.025
 2462WAT    EPW10556   6.657   6.803   0.954
 2463WAT      O10557   6.135   7.780   0.690
 2463WAT     H110558   6.153   7.842   0.749
 2463WAT     H210559   6.186   7.713   0.713
 2463WAT    EPW10560   6.145   7.780   0.702
 2464WAT      O10561   5.773   7.779   0.338
 2464WAT     H110562   5.827   7.785   0.270
 2464WAT     H210563   5.824   7.748   0.402
 2464WAT    EPW10564   5.788   7.775   0.337
 2465WAT      O10565   5.247   7.687   0.507
 2465WAT     H110566   5.294   7.734   0.450
 2465WAT     H210567   5.196   7.638   0.457
 2465WAT    EPW10568   5.247   7.687   0.492
 2466WAT      O10569   6.594   7.692   0.520
 2466WAT     H110570   6.596   7.614   0.558
 2466WAT     H210571   6.509   7.710   0.512
 2466WAT    EPW10572   6.582   7.683   0.524
 2467WAT      O10573   6.766   7.690   0.296
 2467WAT     H110574   6.713   7.695   0.365
 2467WAT     H210575   6.746   7.761   0.250
 2467WAT    EPW10576   6.756   7.701   0.299
 2468WAT      O10577   6.396   7.182   0.989
 2468WAT     H110578   6.340   7.160   1.052
 2468WAT     H210579   6.391   7.115   0.933
 2468WAT    EPW10580   6.387   7.169   0.990
 2469WAT      O10581   6.345   7.473   1.130
 2469WAT     H110582   6.364   7.528   1.196
 2469WAT     H210583   6.259   7.485   1.118
 2469WAT    EPW10584   6.335   7.483   1.138
 2470WAT      O10585   6.521   7.545   0.931
 2470WAT     H110586   6.541   7.626   0.956
 2470WAT     H210587   6.469   7.516   0.995
 2470WAT    EPW10588   6.516   7.553   0.944
 2471WAT      O10589   6.824   7.669   1.102
 2471WAT     H110590   6.826   7.601   1.046
 2471WAT     H210591   6.902   7.706   1.092
 2471WAT    EPW10592   6.836   7.664   1.092
 2472WAT      O10593   6.412   7.013   0.763
 2472WAT     H110594   6.485   7.057   0.746
 2472WAT     H210595   6.352   7.055   0.716
 2472WAT    EPW10596   6.414   7.026   0.753
 2473WAT      O10597   5.923   7.670   0.549
 2473WAT     H110598   5.988   7.711   0.589
 2473WAT     H210599   5.863   7.660   0.611
 2473WAT    EPW10600   5.924   7.675   0.564
 2474WAT      O10601   5.665   7.277   0.845
 2474WAT     H110602   5.660   7.196   0.876
 2474WAT     H210603   5.684   7.265   0.761
 2474WAT    EPW10604   5.667   7.263   0.837
 2475WAT      O10605   6.538   6.788   0.518
 2475WAT     H110606   6.519   6.870   0.494
 2475WAT     H210607   6.612   6.798   0.564
 2475WAT    EPW10608   6.546   6.802   0.522
 2476WAT      O10609   5.766   6.878   0.749
 2476WAT     H110610   5.851   6.887   0.732
 2476WAT     H210611   5.758   6.795   0.774
 2476WAT    EPW10612   5.777   6.867   0.750
 2477WAT      O10613   5.541   7.402   0.403
 2477WAT     H110614   5.591   7.423   0.334
 2477WAT     H210615   5.591   7.348   0.449
 2477WAT    EPW10616   5.556   7.397   0.399
 2478WAT      O10617   6.191   7.337   0.877
 2478WAT     H110618   6.145   7.380   0.937
 2478WAT     H210619   6.257   7.302   0.923
 2478WAT    EPW10620   6.194   7.338   0.893
 2479WAT      O10621   6.290   7.406   0.525
 2479WAT     H110622   6.304   7.456   0.595
 2479WAT     H210623   6.264   7.330   0.559
 2479WAT    EPW10624   6.288   7.402   0.540
 2480WAT      O10625   5.767   6.844   0.382
 2480WAT     H110626   5.720   6.898   0.431
 2480WAT     H210627   5.708   6.806   0.331
 2480WAT    EPW10628   5.751   6.847   0.382
 2481WAT      O10629   5.002   6.938   0.983
 2481WAT     H110630   4.997   7.015   0.942
 2481WAT     H210631   4.918   6.919   0.999
 2481WAT    EPW10632   4.989   6.947   0.979
 2482WAT      O10633   6.796   7.448   0.940
 2482WAT     H110634   6.709   7.457   0.938
 2482WAT     H210635   6.819   7.460   0.856
 2482WAT    EPW10636   6.786   7.451   0.927
 2483WAT      O10637   6.295   7.564   0.760
 2483WAT     H110638   6.252   7.499   0.798
 2483WAT     H210639   6.367   7.573   0.809
 2483WAT    EPW10640   6.299   7.556   0.773
 2484WAT      O10641   6.102   7.735   1.226
 2484WAT     H110642   6.160   7.799   1.210
 2484WAT     H210643   6.026   7.778   1.231
 2484WAT    EPW10644   6.100   7.751   1.225
 2485WAT      O10645   5.415   7.387   0.801
 2485WAT     H110646   5.436   7.449   0.742
 2485WAT     H210647   5.491   7.349   0.818
 2485WAT    EPW10648   5.429   7.391   0.795
 2486WAT      O10649   5.205   7.254   0.677
 2486WAT     H110650   5.223   7.270   0.593
 2486WAT     H210651   5.271   7.291   0.720
 2486WAT    EPW10652   5.217   7.261   0.671
 2487WAT      O10653   5.374   6.925   0.906
 2487WAT     H110654   5.335   6.848   0.911
 2487WAT     H210655   5.362   6.949   0.822
 2487WAT    EPW10656   5.367   6.917   0.894
 2488WAT      O10657   6.587   7.461   0.673
 2488WAT     H110658   6.597   7.375   0.685
 2488WAT     H210659   6.566   7.490   0.753
 2488WAT    EPW10660   6.585   7.453   0.687
 2489WAT      O10661   5.101   7.711   0.748
 2489WAT     H110662   5.148   7.730   0.677
 2489WAT     H210663   5.071   7.630   0.731
 2489WAT    EPW10664   5.103   7.702   0.735
 2490WAT      O10665   6.072   6.976   0.976
 2490WAT     H110666   6.107   7.030   1.035
 2490WAT     H210667   5.999   6.948   1.014
 2490WAT    EPW10668   6.066   6.980   0.990
 2491WAT      O10669   6.516   7.052   0.411
 2491WAT     H110670   6.603   7.044   0.412
 2491WAT     H210671   6.504   7.138   0.401
 2491WAT    EPW10672   6.527   7.063   0.410
 2492WAT      O10673   5.713   7.669   0.740
 2492WAT     H110674   5.692   7.752   0.758
 2492WAT     H210675   5.640   7.637   0.702
 2492WAT    EPW10676   5.699   7.677   0.737
 2493WAT      O10677   5.604   6.989   0.555
 2493WAT     H110678   5.519   6.983   0.575
 2493WAT     H210679   5.643   6.945   0.619
 2493WAT    EPW10680   5.597   6.982   0.568
 2494WAT      O10681   6.763   6.856   0.675
 2494WAT     H110682   6.745   6.842   0.759
 2494WAT     H210683   6.839   6.815   0.663
 2494WAT    EPW10684   6.772   6.848   0.686
 2495WAT      O10685   6.020   6.984   0.413
 2495WAT     H110686   5.951   6.938   0.386
 2495WAT     H210687   6.021   6.971   0.500
 2495WAT    EPW10688   6.010   6.975   0.422
 2496WAT      O10689   5.810   7.497   0.944
 2496WAT     H110690   5.773   7.424   0.914
 2496WAT     H210691   5.783   7.558   0.888
 2496WAT    EPW10692   5.800   7.495   0.932
 2497WAT      O10693   5.336   7.004   0.645
 2497WAT     H110694   5.308   6.962   0.574
 2497WAT     H210695   5.289   7.077   0.645
 2497WAT    EPW10696   5.325   7.008   0.635
 2498WAT      O10697   6.278   6.902   0.313
 2498WAT     H110698   6.338   6.960   0.340
 2498WAT     H210699   6.203   6.936   0.340
 2498WAT    EPW10700   6.276   6.916   0.321
 2499WAT      O10701   6.589   7.802   1.009
 2499WAT     H110702   6.661   7.778   1.054
 2499WAT     H210703   6.620   7.822   0.930
 2499WAT    EPW10704   6.604   7.801   1.004
 2500WAT      O10705   6.627   7.254   1.133
 2500WAT     H110706   6.626   7.334   1.168
 2500WAT     H210707   6.545   7.243   1.104
 2500WAT    EPW10708   6.614   7.264   1.134
 2501WAT      O10709   6.777   7.322   0.470
 2501WAT     H110710   6.695   7.332   0.444
 2501WAT     H210711   6.788   7.235   0.471
 2501WAT    EPW10712   6.767   7.311   0.467
 2502WAT      O10713   5.636   7.012   0.945
 2502WAT     H110714   5.677   6.975   0.878
 2502WAT     H210715   5.555   6.981   0.939
 2502WAT    EPW10716   5.630   7.002   0.934
 2503WAT      O10717   6.360   7.894   1.168
 2503WAT     H110718   6.426   7.885   1.111
 2503WAT     H210719   6.373   7.973   1.202
 2503WAT    EPW10720   6.372   7.904   1.165
 2504WAT      O10721   6.118   4.975   7.434
 2504WAT     H110722   6.109   5.020   7.360
 2504WAT     H210723   6.204   4.963   7.441
 2504WAT    EPW10724   6.129   4.980   7.424
 2505WAT      O10725   5.042   6.088   7.412
 2505WAT     H110726   4.960   6.084   7.440
 2505WAT     H210727   5.052   6.013   7.368
 2505WAT    EPW10728   5.032   6.076   7.410
 2506WAT      O10729   6.692   6.486   7.213
 2506WAT     H110730   6.757   6.431   7.233
 2506WAT     H210731   6.637   6.438   7.166
 2506WAT    EPW10732   6.694   6.471   7.209
 2507WAT      O10733   5.032   5.447   7.024
 2507WAT     H110734   4.967   5.497   6.993
 2507WAT     H210735   5.002   5.366   7.016
 2507WAT    EPW10736   5.018   5.443   7.019
 2508WAT      O10737   5.375   6.035   7.009
 2508WAT     H110738   5.340   5.997   6.939
 2508WAT     H210739   5.389   5.969   7.064
 2508WAT    EPW10740   5.371   6.020   7.007
 2509WAT      O10741   6.322   5.827   7.535
 2509WAT     H110742   6.332   5.814   7.449
 2509WAT     H210743   6.277   5.756   7.561
 2509WAT    EPW10744   6.317   5.814   7.526
 2510WAT      O10745   5.310   6.220   7.404
 2510WAT     H110746   5.374   6.217   7.463
 2510WAT     H210747   5.251   6.165   7.435
 2510WAT    EPW10748   5.311   6.211   7.417
 2511WAT      O10749   5.778   5.153   7.342
 2511WAT     H110750   5.777   5.217   7.282
 2511WAT     H210751   5.840   5.099   7.314
 2511WAT    EPW10752   5.787   5.155   7.329
 2512WAT      O10753   5.199   6.494   7.002
 2512WAT     H110754   5.246   6.501   6.929
 2512WAT     H210755   5.235   6.426   7.044
 2512WAT    EPW10756   5.211   6.485   6.998
 2513WAT      O10757   5.271   5.874   7.531
 2513WAT     H110758   5.217   5.876   7.462
 2513WAT     H210759   5.326   5.810   7.510
 2513WAT    EPW10760   5.271   5.865   7.517
 2514WAT      O10761   5.442   5.680   7.440
 2514WAT     H110762   5.498   5.654   7.502
 2514WAT     H210763   5.378   5.620   7.443
 2514WAT    EPW10764   5.441   5.667   7.450
 2515WAT      O10765   5.759   6.232   7.642
 2515WAT     H110766   5.790   6.152   7.659
 2515WAT     H210767   5.829   6.283   7.649
 2515WAT    EPW10768   5.774   6.227   7.645
 2516WAT      O10769   5.858   6.193   7.328
 2516WAT     H110770   5.907   6.133   7.368
 2516WAT     H210771   5.877   6.181   7.243
 2516WAT    EPW10772   5.868   6.182   7.321
 2517WAT      O10773   5.515   5.181   7.448
 2517WAT     H110774   5.473   5.224   7.384
 2517WAT     H210775   5.595   5.169   7.416
 2517WAT    EPW10776   5.521   5.185   7.433
 2518WAT      O10777   5.845   5.169   7.613
 2518WAT     H110778   5.822   5.250   7.637
 2518WAT     H210779   5.822   5.165   7.529
 2518WAT    EPW10780   5.838   5.180   7.604
 2519WAT      O10781   6.253   5.310   6.845
 2519WAT     H110782   6.206   5.377   6.876
 2519WAT     H210783   6.265   5.259   6.914
 2519WAT    EPW10784   6.248   5.312   6.860
 2520WAT      O10785   5.088   5.601   7.714
 2520WAT     H110786   5.089   5.685   7.737
 2520WAT     H210787   5.091   5.559   7.791
 2520WAT    EPW10788   5.089   5.607   7.729
 2521WAT      O10789   5.067   6.561   7.651
 2521WAT     H110790   5.003   6.611   7.619
 2521WAT     H210791   5.105   6.529   7.579
 2521WAT    EPW10792   5.063   6.564   7.635
 2522WAT      O10793   5.654   6.381   7.340
 2522WAT     H110794   5.606   6.363   7.410
 2522WAT     H210795   5.720   6.325   7.345
 2522WAT    EPW10796   5.657   6.370   7.351
 2523WAT      O10797   6.241   6.587   7.128
 2523WAT     H110798   6.315   6.633   7.128
 2523WAT     H210799   6.267   6.506   7.150
 2523WAT    EPW10800   6.255   6.582   7.131
 2524WAT      O10801   6.046   6.629   7.317
 2524WAT     H110802   6.071   6.701   7.360
 2524WAT     H210803   6.108   6.618   7.257
 2524WAT    EPW10804   6.059   6.638   7.315
 2525WAT      O10805   5.194   6.471   7.417
 2525WAT     H110806   5.242   6.399   7.427
 2525WAT     H210807   5.247   6.526   7.375
 2525WAT    EPW10808   5.209   6.468   7.413
 2526WAT      O10809   6.809   5.279   7.559
 2526WAT     H110810   6.763   5.352   7.574
 2526WAT     H210811   6.747   5.220   7.540
 2526WAT    EPW10812   6.793   5.281   7.558
 2527WAT      O10813   5.392   6.227   7.801
 2527WAT     H110814   5.417   6.282   7.737
 2527WAT     H210815   5.429   6.151   7.778
 2527WAT    EPW10816   5.401   6.224   7.788
 2528WAT      O10817   5.607   6.593   7.606
 2528WAT     H110818   5.690   6.616   7.599
 2528WAT     H210819   5.564   6.665   7.580
 2528WAT    EPW10820   5.613   6.607   7.601
 2529WAT      O10821   5.992   5.553   7.469
 2529WAT     H110822   6.017   5.505   7.400
 2529WAT     H210823   6.065   5.560   7.516
 2529WAT    EPW10824   6.006   5.547   7.466
 2530WAT      O10825   6.088   5.507   6.966
 2530WAT     H110826   6.109   5.586   6.997
 2530WAT     H210827   6.011   5.520   6.928
 2530WAT    EPW10828   6.080   5.521   6.965
 2531WAT      O10829   6.461   6.754   7.091
 2531WAT     H110830   6.509   6.731   7.022
 2531WAT     H210831   6.516   6.801   7.140
 2531WAT    EPW10832   6.476   6.758   7.088
 2532WAT      O10833   5.928   6.426   6.935
 2532WAT     H110834   5.898   6.486   6.991
 2532WAT     H210835   6.006   6.457   6.912
 2532WAT    EPW10836   5.935   6.440   6.940
 2533WAT      O10837   6.284   5.144   7.067
 2533WAT     H110838   6.341   5.078   7.071
 2533WAT     H210839   6.304   5.192   7.137
 2533WAT    EPW10840   6.296   5.141   7.078
 2534WAT      O10841   5.116   5.230   7.318
 2534WAT     H110842   5.091   5.147   7.307
 2534WAT     H210843   5.066   5.258   7.384
 2534WAT    EPW10844   5.105   5.222   7.326
 2535WAT      O10845   6.053   5.416   7.230
 2535WAT     H110846   5.980   5.370   7.217
 2535WAT     H210847   6.072   5.448   7.151
 2535WAT    EPW10848   6.045   5.414   7.217
 2536WAT      O10849   6.040   5.087   7.191
 2536WAT     H110850   5.982   5.076   7.127
 2536WAT     H210851   6.114   5.106   7.149
 2536WAT    EPW10852   6.043   5.088   7.176
 2537WAT      O10853   6.760   6.704   7.501
 2537WAT     H110854   6.718   6.780   7.506
 2537WAT     H210855   6.696   6.647   7.486
 2537WAT    EPW10856   6.744   6.707   7.499
 2538WAT      O10857   5.821   5.445   7.659
 2538WAT     H110858   5.869   5.477   7.594
 2538WAT     H210859   5.865   5.470   7.730
 2538WAT    EPW10860   5.835   5.454   7.660
 2539WAT      O10861   6.470   6.282   7.509
 2539WAT     H110862   6.535   6.224   7.505
 2539WAT     H210863   6.399   6.233   7.522
 2539WAT    EPW10864   6.469   6.266   7.510
 2540WAT      O10865   5.422   4.934   7.539
 2540WAT     H110866   5.447   5.015   7.518
 2540WAT     H210867   5.395   4.901   7.463
 2540WAT    EPW10868   5.422   4.941   7.524
 2541WAT      O10869   6.384   4.929   7.492
 2541WAT     H110870   6.388   4.919   7.578
 2541WAT     H210871   6.422   4.856   7.461
 2541WAT    EPW10872   6.390   4.917   7.500
 2542WAT      O10873   5.403   5.352   7.640
 2542WAT     H110874   5.444   5.294   7.589
 2542WAT     H210875   5.335   5.307   7.671
 2542WAT    EPW10876   5.399   5.337   7.637
 2543WAT      O10877   6.657   6.079   7.075
 2543WAT     H110878   6.653   6.026   7.144
 2543WAT     H210879   6.743   6.087   7.060
 2543WAT    EPW10880   6.669   6.072   7.083
 2544WAT      O10881   5.488   6.009   7.641
 2544WAT     H110882   5.538   6.020   7.570
 2544WAT     H210883   5.416   5.971   7.609
 2544WAT    EPW10884   5.485   6.005   7.626
 2545WAT      O10885   5.308   6.632   7.777
 2545WAT     H110886   5.231   6.621   7.738
 2545WAT     H210887   5.354   6.676   7.717
 2545WAT    EPW10888   5.304   6.637   7.762
 2546WAT      O10889   6.461   5.747   6.992
 2546WAT     H110890   6.453   5.830   6.966
 2546WAT     H210891   6.432   5.748   7.075
 2546WAT    EPW10892   6.456   5.759   7.001
 2547WAT      O10893   5.633   6.028   7.403
 2547WAT     H110894   5.695   6.087   7.385
 2547WAT     H210895   5.649   5.963   7.347
 2547WAT    EPW10896   5.645   6.027   7.392
 2548WAT      O10897   6.795   5.210   6.973
 2548WAT     H110898   6.839   5.154   6.922
 2548WAT     H210899   6.760   5.266   6.916
 2548WAT    EPW10900   6.797   5.210   6.957
 2549WAT      O10901   5.127   6.144   7.836
 2549WAT     H110902   5.088   6.220   7.855
 2549WAT     H210903   5.210   6.167   7.824
 2549WAT    EPW10904   5.134   6.159   7.837
 2550WAT      O10905   5.125   5.850   7.291
 2550WAT     H110906   5.097   5.768   7.287
 2550WAT     H210907   5.202   5.848   7.250
 2550WAT    EPW10908   5.132   5.838   7.285
 2551WAT      O10909   6.672   5.102   7.201
 2551WAT     H110910   6.745   5.063   7.228
 2551WAT     H210911   6.697   5.147   7.131
 2551WAT    EPW10912   6.687   5.103   7.195
 2552WAT      O10913   5.996   6.383   7.659
 2552WAT     H110914   5.966   6.465   7.657
 2552WAT     H210915   6.033   6.373   7.581
 2552WAT    EPW10916   5.997   6.393   7.647
 2553WAT      O10917   5.036   6.311   7.255
 2553WAT     H110918   5.087   6.367   7.298
 2553WAT     H210919   5.032   6.242   7.307
 2553WAT    EPW10920   5.043   6.309   7.269
 2554WAT      O10921   6.335   5.357   7.693
 2554WAT     H110922   6.356   5.309   7.763
 2554WAT     H210923   6.274   5.309   7.654
 2554WAT    EPW10924   6.329   5.343   7.698
 2555WAT      O10925   5.048   6.143   7.027
 2555WAT     H110926   5.122   6.096   7.024
 2555WAT     H210927   5.060   6.196   7.095
 2555WAT    EPW10928   5.061   6.144   7.037
 2556WAT      O10929   5.102   5.881   7.750
 2556WAT     H110930   5.156   5.882   7.681
 2556WAT     H210931   5.115   5.960   7.786
 2556WAT    EPW10932   5.112   5.893   7.745
 2557WAT      O10933   5.788   5.341   7.140
 2557WAT     H110934   5.780   5.308   7.060
 2557WAT     H210935   5.750   5.419   7.133
 2557WAT    EPW10936   5.781   5.347   7.127
 2558WAT      O10937   5.515   6.339   7.578
 2558WAT     H110938   5.533   6.423   7.593
 2558WAT     H210939   5.587   6.297   7.604
 2558WAT    EPW10940   5.529   6.345   7.584
 2559WAT      O10941   5.384   5.552   7.104
 2559WAT     H110942   5.373   5.488   7.162
 2559WAT     H210943   5.349   5.521   7.031
 2559WAT    EPW10944   5.377   5.538   7.102
 2560WAT      O10945   5.659   5.830   7.772
 2560WAT     H110946   5.601   5.885   7.737
 2560WAT     H210947   5.632   5.751   7.746
 2560WAT    EPW10948   5.647   5.826   7.763
 2561WAT      O10949   6.300   5.295   7.295
 2561WAT     H110950   6.355   5.361   7.307
 2561WAT     H210951   6.222   5.334   7.286
 2561WAT    EPW10952   6.297   5.310   7.295
 2562WAT      O10953   6.141   5.745   7.100
 2562WAT     H110954   6.118   5.798   7.035
 2562WAT     H210955   6.079   5.758   7.160
 2562WAT    EPW10956   6.129   5.755   7.099
 2563WAT      O10957   6.669   6.082   7.494
 2563WAT     H110958   6.673   6.035   7.567
 2563WAT     H210959   6.645   6.024   7.434
 2563WAT    EPW10960   6.666   6.067   7.496
 2564WAT      O10961   6.107   6.164   7.799
 2564WAT     H110962   6.072   6.236   7.764
 2564WAT     H210963   6.143   6.193   7.873
 2564WAT    EPW10964   6.107   6.179   7.805
 2565WAT      O10965   5.635   6.652   7.283
 2565WAT     H110966   5.642   6.576   7.326
 2565WAT     H210967   5.700   6.647   7.224
 2565WAT    EPW10968   5.646   6.640   7.281
 2566WAT      O10969   5.578   4.988   7.049
 2566WAT     H110970   5.587   4.971   7.134
 2566WAT     H210971   5.535   5.064   7.047
 2566WAT    EPW10972   5.573   4.997   7.061
 2567WAT      O10973   5.853   6.622   7.116
 2567WAT     H110974   5.914   6.629   7.178
 2567WAT     H210975   5.858   6.697   7.073
 2567WAT    EPW10976   5.863   6.634   7.119
 2568WAT      O10977   5.381   5.818   7.189
 2568WAT     H110978   5.373   5.738   7.155
 2568WAT     H210979   5.426   5.805   7.262
 2568WAT    EPW10980   5.386   5.804   7.194
 2569WAT      O10981   5.021   4.963   7.274
 2569WAT     H110982   5.016   4.908   7.206
 2569WAT     H210983   4.989   4.916   7.340
 2569WAT    EPW10984   5.016   4.948   7.273
 2570WAT      O10985   5.970   5.781   7.313
 2570WAT     H110986   5.989   5.850   7.363
 2570WAT     H210987   5.972   5.715   7.369
 2570WAT    EPW10988   5.973   5.782   7.329
 2571WAT      O10989   5.457   5.230   7.004
 2571WAT     H110990   5.399   5.215   6.941
 2571WAT     H210991   5.525   5.265   6.962
 2571WAT    EPW10992   5.458   5.233   6.989
 2572WAT      O10993   5.880   5.987   7.701
 2572WAT     H110994   5.819   5.933   7.733
 2572WAT     H210995   5.927   6.008   7.772
 2572WAT    EPW10996   5.878   5.982   7.716
 2573WAT      O10997   5.547   6.623   6.901
 2573WAT     H110998   5.570   6.555   6.951
 2573WAT     H210999   5.557   6.692   6.954
 2573WAT    EPW11000   5.552   6.623   6.916
 2574WAT      O11001   5.576   5.576   7.665
 2574WAT     H111002   5.652   5.534   7.658
 2574WAT     H211003   5.517   5.512   7.673
 2574WAT    EPW11004   5.578   5.560   7.665
 2575WAT      O11005   6.851   6.656   7.069
 2575WAT     H111006   6.916   6.604   7.042
 2575WAT     H211007   6.800   6.603   7.115
 2575WAT    EPW11008   6.853   6.640   7.072
 2576WAT      O11009   5.065   5.577   7.275
 2576WAT     H111010   5.113   5.540   7.338
 2576WAT     H211011   5.074   5.523   7.208
 2576WAT    EPW11012   5.073   5.564   7.274
 2577WAT      O11013   5.571   5.768   6.883
 2577WAT     H111014   5.569   5.708   6.946
 2577WAT     H211015   5.513   5.739   6.825
 2577WAT    EPW11016   5.562   5.755   6.884
 2578WAT      O11017   6.700   5.942   7.732
 2578WAT     H111018   6.697   6.003   7.794
 2578WAT     H211019   6.783   5.916   7.734
 2578WAT    EPW11020   6.712   5.947   7.742
 2579WAT      O11021   5.657   5.590   7.096
 2579WAT     H111022   5.672   5.660   7.146
 2579WAT     H211023   5.573   5.572   7.111
 2579WAT    EPW11024   5.647   5.598   7.106
 2580WAT      O11025   5.164   5.223   7.700
 2580WAT     H111026   5.094   5.246   7.654
 2580WAT     H211027   5.157   5.136   7.706
 2580WAT    EPW11028   5.153   5.214   7.694
 2581WAT      O11029   6.934   6.401   7.875
 2581WAT     H111030   6.936   6.448   7.802
 2581WAT     H211031   7.009   6.421   7.915
 2581WAT    EPW11032   6.945   6.411   7.870
 2582WAT      O11033   6.525   6.322   7.075
 2582WAT     H111034   6.561   6.244   7.081
 2582WAT     H211035   6.450   6.314   7.119
 2582WAT    EPW11036   6.519   6.310   7.082
 2583WAT      O11037   6.578   5.462   7.591
 2583WAT     H111038   6.509   5.421   7.625
 2583WAT     H211039   6.575   5.541   7.627
 2583WAT    EPW11040   6.567   5.467   7.601
 2584WAT      O11041   6.199   6.142   6.993
 2584WAT     H111042   6.273   6.097   6.985
 2584WAT     H211043   6.170   6.148   6.911
 2584WAT    EPW11044   6.205   6.137   6.980
 2585WAT      O11045   5.886   6.638   7.577
 2585WAT     H111046   5.876   6.723   7.594
 2585WAT     H211047   5.917   6.637   7.496
 2585WAT    EPW11048   5.889   6.651   7.568
 2586WAT      O11049   6.713   5.637   6.961
 2586WAT     H111050   6.762   5.692   6.916
 2586WAT     H211051   6.634   5.673   6.960
 2586WAT    EPW11052   6.708   5.650   6.955
 2587WAT      O11053   5.786   5.921   6.964
 2587WAT     H111054   5.719   5.881   6.924
 2587WAT     H211055   5.763   6.005   6.962
 2587WAT    EPW11056   5.773   5.927   6.958
 2588WAT      O11057   6.470   5.516   7.341
 2588WAT     H111058   6.499   5.496   7.421
 2588WAT     H211059   6.542   5.544   7.300
 2588WAT    EPW11060   6.485   5.517   7.347
 2589WAT      O11061   6.609   5.098   7.474
 2589WAT     H111062   6.530   5.063   7.481
 2589WAT     H211063   6.615   5.117   7.388
 2589WAT    EPW11064   6.598   5.096   7.462
 2590WAT      O11065   6.606   5.906   7.289
 2590WAT     H111066   6.649   5.831   7.281
 2590WAT     H211067   6.522   5.883   7.283
 2590WAT    EPW11068   6.600   5.892   7.287
 2591WAT      O11069   5.371   5.318   7.254
 2591WAT     H111070   5.389   5.282   7.176
 2591WAT     H211071   5.290   5.292   7.270
 2591WAT    EPW11072   5.362   5.309   7.245
 2592WAT      O11073   6.256   6.098   7.567
 2592WAT     H111074   6.222   6.111   7.646
 2592WAT     H211075   6.284   6.016   7.569
 2592WAT    EPW11076   6.255   6.088   7.579
 2593WAT      O11077   6.014   6.010   7.461
 2593WAT     H111078   5.972   5.999   7.538
 2593WAT     H211079   6.091   6.043   7.484
 2593WAT    EPW11080   6.019   6.013   7.476
 2594WAT      O11081   6.416   6.728   7.778
 2594WAT     H111082   6.368   6.744   7.849
 2594WAT     H211083   6.478   6.673   7.807
 2594WAT    EPW11084   6.418   6.722   7.793
 2595WAT      O11085   6.692   5.647   7.238
 2595WAT     H111086   6.704   5.645   7.152
 2595WAT     H211087   6.769   5.622   7.270
 2595WAT    EPW11088   6.705   5.643   7.230
 2596WAT      O11089   6.074   6.360   7.393
 2596WAT     H111090   6.061   6.443   7.370
 2596WAT     H211091   6.002   6.319   7.366
 2596WAT    EPW11092   6.062   6.366   7.386
 2597WAT      O11093   5.260   5.464   6.870
 2597WAT     H111094   5.183   5.460   6.910
 2597WAT     H211095   5.269   5.384   6.836
 2597WAT    EPW11096   5.250   5.451   6.871
 2598WAT      O11097   6.122   5.209   7.596
 2598WAT     H111098   6.036   5.204   7.611
 2598WAT     H211099   6.138   5.142   7.543
 2598WAT    EPW11100   6.111   5.199   7.591
 2599WAT      O11101   5.575   6.394   7.067
 2599WAT     H111102   5.614   6.397   7.145
 2599WAT     H211103   5.495   6.364   7.086
 2599WAT    EPW11104   5.569   6.390   7.082
 2600WAT      O11105   6.532   5.720   7.686
 2600WAT     H111106   6.589   5.784   7.707
 2600WAT     H211107   6.473   5.761   7.637
 2600WAT    EPW11108   6.532   5.736   7.682
 2601WAT      O11109   6.537   6.543   7.434
 2601WAT     H111110   6.512   6.465   7.463
 2601WAT     H211111   6.578   6.525   7.360
 2601WAT    EPW11112   6.539   6.529   7.427
 2602WAT      O11113   5.331   6.281   7.129
 2602WAT     H111114   5.327   6.262   7.214
 2602WAT     H211115   5.344   6.203   7.092
 2602WAT    EPW11116   5.332   6.266   7.136
 2603WAT      O11117   5.625   6.153   6.925
 2603WAT     H111118   5.550   6.113   6.947
 2603WAT     H211119   5.622   6.228   6.969
 2603WAT    EPW11120   5.614   6.158   6.935
 2604WAT      O11121   5.845   5.041   7.002
 2604WAT     H111122   5.859   5.047   6.916
 2604WAT     H211123   5.759   5.035   7.008
 2604WAT    EPW11124   5.835   5.041   6.990
 2605WAT      O11125   6.203   5.599   7.648
 2605WAT     H111126   6.251   5.527   7.658
 2605WAT     H211127   6.195   5.630   7.729
 2605WAT    EPW11128   6.209   5.593   7.661
 2606WAT      O11129   5.227   5.511   7.492
 2606WAT     H111130   5.180   5.540   7.559
 2606WAT     H211131   5.278   5.450   7.528
 2606WAT    EPW11132   5.228   5.506   7.507
 2607WAT      O11133   6.363   5.762   7.264
 2607WAT     H111134   6.382   5.679   7.285
 2607WAT     H211135   6.288   5.754   7.219
 2607WAT    EPW11136   6.354   5.748   7.260
 2608WAT      O11137   5.358   6.641   7.272
 2608WAT     H111138   5.335   6.640   7.188
 2608WAT     H211139   5.446   6.641   7.268
 2608WAT    EPW11140   5.368   6.641   7.259
 2609WAT      O11141   5.718   5.832   7.218
 2609WAT     H111142   5.737   5.869   7.141
 2609WAT     H211143   5.796   5.815   7.252
 2609WAT    EPW11144   5.732   5.835   7.212
 2610WAT      O11145   6.639   6.695   6.890
 2610WAT     H111146   6.711   6.691   6.939
 2610WAT     H211147   6.625   6.612   6.866
 2610WAT    EPW11148   6.648   6.682   6.893
 2611WAT      O11149   6.275   6.321   7.194
 2611WAT     H111150   6.226   6.314   7.265
 2611WAT     H211151   6.238   6.266   7.137
 2611WAT    EPW11152   6.262   6.311   7.196
 2612WAT      O11153   5.329   6.443   7.990
 2612WAT     H111154   5.356   6.374   7.944
 2612WAT     H211155   5.337   6.509   7.933
 2612WAT    EPW11156   5.334   6.443   7.975
 2613WAT      O11157   5.931   6.180   7.066
 2613WAT     H111158   6.012   6.153   7.049
 2613WAT     H211159   5.924   6.254   7.021
 2613WAT    EPW11160   5.942   6.187   7.057
 2614WAT      O11161   6.128   5.015   5.560
 2614WAT     H111162   6.131   5.058   5.485
 2614WAT     H211163   6.212   4.995   5.575
 2614WAT    EPW11164   6.141   5.018   5.551
 2615WAT      O11165   6.082   5.638   5.995
 2615WAT     H111166   6.049   5.716   6.019
 2615WAT     H211167   6.139   5.620   6.059
 2615WAT    EPW11168   6.085   5.647   6.008
 2616WAT      O11169   5.013   5.993   5.584
 2616WAT     H111170   5.023   6.074   5.553
 2616WAT     H211171   5.057   5.944   5.527
 2616WAT    EPW11172   5.021   5.997   5.571
 2617WAT      O11173   6.680   6.486   5.341
 2617WAT     H111174   6.747   6.433   5.358
 2617WAT     H211175   6.629   6.438   5.289
 2617WAT    EPW11176   6.682   6.471   5.336
 2618WAT      O11177   5.032   5.381   5.205
 2618WAT     H111178   4.960   5.368   5.158
 2618WAT     H211179   5.032   5.314   5.261
 2618WAT    EPW11180   5.021   5.370   5.206
 2619WAT      O11181   5.382   6.032   5.077
 2619WAT     H111182   5.337   5.992   5.014
 2619WAT     H211183   5.391   5.970   5.139
 2619WAT    EPW11184   5.376   6.017   5.077
 2620WAT      O11185   6.327   5.820   5.649
 2620WAT     H111186   6.332   5.807   5.563
 2620WAT     H211187   6.274   5.757   5.677
 2620WAT    EPW11188   6.320   5.809   5.640
 2621WAT      O11189   5.350   6.196   5.443
 2621WAT     H111190   5.379   6.172   5.522
 2621WAT     H211191   5.266   6.214   5.456
 2621WAT    EPW11192   5.342   6.195   5.456
 2622WAT      O11193   5.778   5.118   5.444
 2622WAT     H111194   5.771   5.187   5.392
 2622WAT     H211195   5.855   5.083   5.422
 2622WAT    EPW11196   5.789   5.123   5.433
 2623WAT      O11197   5.199   6.498   5.095
 2623WAT     H111198   5.243   6.509   5.020
 2623WAT     H211199   5.235   6.426   5.129
 2623WAT    EPW11200   5.211   6.489   5.089
 2624WAT      O11201   5.033   6.384   6.231
 2624WAT     H111202   5.070   6.350   6.303
 2624WAT     H211203   4.972   6.325   6.209
 2624WAT    EPW11204   5.029   6.370   6.238
 2625WAT      O11205   5.721   6.167   6.662
 2625WAT     H111206   5.700   6.157   6.746
 2625WAT     H211207   5.649   6.142   6.619
 2625WAT    EPW11208   5.708   6.162   6.668
 2626WAT      O11209   5.340   5.835   5.655
 2626WAT     H111210   5.279   5.845   5.593
 2626WAT     H211211   5.387   5.767   5.626
 2626WAT    EPW11212   5.338   5.826   5.641
 2627WAT      O11213   5.675   5.470   6.205
 2627WAT     H111214   5.745   5.468   6.153
 2627WAT     H211215   5.646   5.388   6.204
 2627WAT    EPW11216   5.681   5.457   6.197
 2628WAT      O11217   5.690   6.406   6.407
 2628WAT     H111218   5.668   6.480   6.367
 2628WAT     H211219   5.774   6.419   6.428
 2628WAT    EPW11220   5.699   6.419   6.404
 2629WAT      O11221   5.449   5.600   5.565
 2629WAT     H111222   5.506   5.564   5.621
 2629WAT     H211223   5.374   5.561   5.586
 2629WAT    EPW11224   5.447   5.589   5.576
 2630WAT      O11225   5.826   6.298   5.849
 2630WAT     H111226   5.850   6.214   5.856
 2630WAT     H211227   5.901   6.340   5.836
 2630WAT    EPW11228   5.840   6.292   5.848
 2631WAT      O11229   5.892   6.198   5.463
 2631WAT     H111230   5.935   6.134   5.504
 2631WAT     H211231   5.909   6.182   5.379
 2631WAT    EPW11232   5.901   6.186   5.457
 2632WAT      O11233   6.044   5.689   6.667
 2632WAT     H111234   5.962   5.685   6.637
 2632WAT     H211235   6.039   5.748   6.731
 2632WAT    EPW11236   6.031   5.697   6.672
 2633WAT      O11237   5.501   5.136   5.532
 2633WAT     H111238   5.456   5.185   5.475
 2633WAT     H211239   5.581   5.135   5.498
 2633WAT    EPW11240   5.506   5.143   5.518
 2634WAT      O11241   6.478   4.927   6.488
 2634WAT     H111242   6.453   4.995   6.441
 2634WAT     H211243   6.405   4.902   6.529
 2634WAT    EPW11244   6.464   4.933   6.487
 2635WAT      O11245   5.805   5.085   5.722
 2635WAT     H111246   5.818   5.169   5.744
 2635WAT     H211247   5.784   5.089   5.638
 2635WAT    EPW11248   5.804   5.098   5.713
 2636WAT      O11249   6.234   5.304   4.942
 2636WAT     H111250   6.187   5.371   4.972
 2636WAT     H211251   6.250   5.256   5.013
 2636WAT    EPW11252   6.230   5.307   4.957
 2637WAT      O11253   5.086   5.623   5.898
 2637WAT     H111254   5.076   5.708   5.884
 2637WAT     H211255   5.014   5.600   5.942
 2637WAT    EPW11256   5.074   5.632   5.902
 2638WAT      O11257   5.033   6.631   5.774
 2638WAT     H111258   4.955   6.667   5.758
 2638WAT     H211259   5.061   6.608   5.695
 2638WAT    EPW11260   5.025   6.633   5.760
 2639WAT      O11261   5.670   6.362   5.423
 2639WAT     H111262   5.631   6.354   5.501
 2639WAT     H211263   5.744   6.317   5.432
 2639WAT    EPW11264   5.675   6.354   5.436
 2640WAT      O11265   6.242   6.590   5.242
 2640WAT     H111266   6.313   6.640   5.248
 2640WAT     H211267   6.270   6.511   5.266
 2640WAT    EPW11268   6.256   6.586   5.246
 2641WAT      O11269   6.044   6.631   5.429
 2641WAT     H111270   6.070   6.702   5.474
 2641WAT     H211271   6.106   6.622   5.368
 2641WAT    EPW11272   6.057   6.640   5.427
 2642WAT      O11273   5.293   5.101   5.930
 2642WAT     H111274   5.271   5.028   5.887
 2642WAT     H211275   5.353   5.073   5.988
 2642WAT    EPW11276   5.299   5.086   5.932
 2643WAT      O11277   5.688   5.310   6.860
 2643WAT     H111278   5.698   5.275   6.780
 2643WAT     H211279   5.729   5.386   6.854
 2643WAT    EPW11280   5.695   5.316   6.847
 2644WAT      O11281   5.132   6.585   5.520
 2644WAT     H111282   5.106   6.504   5.500
 2644WAT     H211283   5.205   6.595   5.472
 2644WAT    EPW11284   5.139   6.575   5.510
 2645WAT      O11285   6.810   5.276   5.681
 2645WAT     H111286   6.760   5.347   5.684
 2645WAT     H211287   6.752   5.211   5.671
 2645WAT    EPW11288   6.794   5.277   5.680
 2646WAT      O11289   6.290   6.615   6.232
 2646WAT     H111290   6.358   6.667   6.218
 2646WAT     H211291   6.274   6.580   6.153
 2646WAT    EPW11292   6.298   6.617   6.218
 2647WAT      O11293   5.286   5.193   6.788
 2647WAT     H111294   5.207   5.161   6.767
 2647WAT     H211295   5.339   5.154   6.731
 2647WAT    EPW11296   5.282   5.182   6.776
 2648WAT      O11297   5.322   6.249   5.909
 2648WAT     H111298   5.354   6.216   5.834
 2648WAT     H211299   5.374   6.214   5.970
 2648WAT    EPW11300   5.335   6.239   5.907
 2649WAT      O11301   5.617   6.630   5.772
 2649WAT     H111302   5.698   6.642   5.744
 2649WAT     H211303   5.568   6.671   5.712
 2649WAT    EPW11304   5.621   6.638   5.759
 2650WAT      O11305   5.884   5.047   6.730
 2650WAT     H111306   5.899   4.972   6.688
 2650WAT     H211307   5.826   5.087   6.680
 2650WAT    EPW11308   5.878   5.042   6.717
 2651WAT      O11309   5.974   5.542   5.579
 2651WAT     H111310   6.002   5.502   5.507
 2651WAT     H211311   6.048   5.557   5.624
 2651WAT    EPW11312   5.989   5.538   5.575
 2652WAT      O11313   6.070   5.510   5.073
 2652WAT     H111314   6.089   5.588   5.109
 2652WAT     H211315   5.991   5.522   5.039
 2652WAT    EPW11316   6.061   5.524   5.073
 2653WAT      O11317   6.456   6.770   5.227
 2653WAT     H111318   6.504   6.746   5.159
 2653WAT     H211319   6.512   6.815   5.277
 2653WAT    EPW11320   6.471   6.773   5.224
 2654WAT      O11321   5.534   6.637   6.342
 2654WAT     H111322   5.544   6.651   6.428
 2654WAT     H211323   5.454   6.601   6.336
 2654WAT    EPW11324   5.523   6.633   6.354
 2655WAT      O11325   6.702   5.223   6.109
 2655WAT     H111326   6.769   5.214   6.055
 2655WAT     H211327   6.715   5.161   6.169
 2655WAT    EPW11328   6.714   5.212   6.110
 2656WAT      O11329   5.003   5.325   6.523
 2656WAT     H111330   4.993   5.399   6.569
 2656WAT     H211331   5.067   5.344   6.468
 2656WAT    EPW11332   5.011   5.339   6.522
 2657WAT      O11333   6.180   6.401   6.609
 2657WAT     H111334   6.173   6.423   6.693
 2657WAT     H211335   6.266   6.390   6.597
 2657WAT    EPW11336   6.191   6.403   6.620
 2658WAT      O11337   5.924   6.423   5.043
 2658WAT     H111338   5.893   6.485   5.097
 2658WAT     H211339   6.003   6.452   5.021
 2658WAT    EPW11340   5.931   6.437   5.047
 2659WAT      O11341   6.280   5.150   5.171
 2659WAT     H111342   6.333   5.082   5.178
 2659WAT     H211343   6.299   5.199   5.241
 2659WAT    EPW11344   6.290   5.147   5.182
 2660WAT      O11345   5.065   5.194   5.413
 2660WAT     H111346   5.038   5.112   5.397
 2660WAT     H211347   5.023   5.215   5.487
 2660WAT    EPW11348   5.055   5.185   5.422
 2661WAT      O11349   5.271   6.550   6.232
 2661WAT     H111350   5.204   6.494   6.228
 2661WAT     H211351   5.313   6.538   6.156
 2661WAT    EPW11352   5.268   6.540   6.220
 2662WAT      O11353   6.044   5.415   5.338
 2662WAT     H111354   5.975   5.363   5.325
 2662WAT     H211355   6.059   5.448   5.259
 2662WAT    EPW11356   6.036   5.412   5.324
 2663WAT      O11357   6.041   6.659   6.335
 2663WAT     H111358   6.120   6.649   6.298
 2663WAT     H211359   5.987   6.661   6.267
 2663WAT    EPW11360   6.045   6.658   6.320
 2664WAT      O11361   6.039   5.089   5.298
 2664WAT     H111362   5.980   5.076   5.236
 2664WAT     H211363   6.112   5.109   5.254
 2664WAT    EPW11364   6.041   5.090   5.283
 2665WAT      O11365   6.747   6.688   5.615
 2665WAT     H111366   6.710   6.765   5.632
 2665WAT     H211367   6.680   6.634   5.604
 2665WAT    EPW11368   6.732   6.692   5.616
 2666WAT      O11369   5.856   5.361   5.757
 2666WAT     H111370   5.885   5.423   5.703
 2666WAT     H211371   5.865   5.396   5.836
 2666WAT    EPW11372   5.862   5.375   5.760
 2667WAT      O11373   6.496   6.277   5.693
 2667WAT     H111374   6.558   6.218   5.677
 2667WAT     H211375   6.422   6.231   5.685
 2667WAT    EPW11376   6.494   6.261   5.689
 2668WAT      O11377   5.432   6.378   6.529
 2668WAT     H111378   5.511   6.402   6.504
 2668WAT     H211379   5.420   6.423   6.603
 2668WAT    EPW11380   5.442   6.388   6.537
 2669WAT      O11381   5.428   4.874   5.585
 2669WAT     H111382   5.450   4.957   5.568
 2669WAT     H211383   5.403   4.843   5.508
 2669WAT    EPW11384   5.427   4.881   5.571
 2670WAT      O11385   5.638   5.957   5.948
 2670WAT     H111386   5.662   5.929   6.027
 2670WAT     H211387   5.567   5.909   5.931
 2670WAT    EPW11388   5.631   5.946   5.957
 2671WAT      O11389   6.209   5.333   6.326
 2671WAT     H111390   6.206   5.374   6.402
 2671WAT     H211391   6.147   5.272   6.332
 2671WAT    EPW11392   6.200   5.330   6.338
 2672WAT      O11393   5.742   5.943   6.206
 2672WAT     H111394   5.750   6.029   6.214
 2672WAT     H211395   5.719   5.917   6.286
 2672WAT    EPW11396   5.740   5.952   6.219
 2673WAT      O11397   6.346   6.050   6.218
 2673WAT     H111398   6.270   6.023   6.250
 2673WAT     H211399   6.342   6.137   6.226
 2673WAT    EPW11400   6.334   6.059   6.224
 2674WAT      O11401   6.384   4.925   5.641
 2674WAT     H111402   6.376   4.915   5.727
 2674WAT     H211403   6.419   4.850   5.614
 2674WAT    EPW11404   6.388   4.913   5.650
 2675WAT      O11405   5.000   6.362   6.852
 2675WAT     H111406   5.058   6.408   6.900
 2675WAT     H211407   5.007   6.281   6.885
 2675WAT    EPW11408   5.010   6.357   6.864
 2676WAT      O11409   6.594   5.385   6.426
 2676WAT     H111410   6.677   5.364   6.447
 2676WAT     H211411   6.552   5.376   6.502
 2676WAT    EPW11412   6.600   5.381   6.440
 2677WAT      O11413   5.387   5.282   5.744
 2677WAT     H111414   5.419   5.230   5.682
 2677WAT     H211415   5.361   5.227   5.806
 2677WAT    EPW11416   5.388   5.266   5.744
 2678WAT      O11417   6.652   6.078   5.197
 2678WAT     H111418   6.649   6.031   5.270
 2678WAT     H211419   6.738   6.088   5.182
 2678WAT    EPW11420   6.665   6.072   5.206
 2679WAT      O11421   5.427   6.097   5.693
 2679WAT     H111422   5.510   6.093   5.666
 2679WAT     H211423   5.400   6.014   5.683
 2679WAT    EPW11424   5.435   6.084   5.688
 2680WAT      O11425   5.293   6.704   5.836
 2680WAT     H111426   5.209   6.687   5.820
 2680WAT     H211427   5.327   6.712   5.757
 2680WAT    EPW11428   5.285   6.703   5.822
 2681WAT      O11429   5.252   5.507   6.097
 2681WAT     H111430   5.333   5.518   6.067
 2681WAT     H211431   5.202   5.538   6.033
 2681WAT    EPW11432   5.257   5.513   6.083
 2682WAT      O11433   6.856   6.487   6.577
 2682WAT     H111434   6.781   6.490   6.532
 2682WAT     H211435   6.836   6.437   6.646
 2682WAT    EPW11436   6.842   6.480   6.580
 2683WAT      O11437   6.461   5.744   5.109
 2683WAT     H111438   6.454   5.827   5.082
 2683WAT     H211439   6.430   5.747   5.191
 2683WAT    EPW11440   6.455   5.757   5.117
 2684WAT      O11441   5.669   6.040   5.555
 2684WAT     H111442   5.728   6.097   5.527
 2684WAT     H211443   5.664   5.982   5.489
 2684WAT    EPW11444   5.677   6.040   5.541
 2685WAT      O11445   6.783   5.215   5.116
 2685WAT     H111446   6.818   5.148   5.073
 2685WAT     H211447   6.752   5.267   5.052
 2685WAT    EPW11448   6.783   5.213   5.100
 2686WAT      O11449   5.052   6.170   5.942
 2686WAT     H111450   5.015   6.246   5.922
 2686WAT     H211451   5.137   6.187   5.935
 2686WAT    EPW11452   5.059   6.184   5.938
 2687WAT      O11453   5.823   5.552   6.868
 2687WAT     H111454   5.774   5.586   6.932
 2687WAT     H211455   5.803   5.602   6.799
 2687WAT    EPW11456   5.813   5.564   6.867
 2688WAT      O11457   6.900   5.623   6.317
 2688WAT     H111458   6.956   5.556   6.319
 2688WAT     H211459   6.840   5.597   6.259
 2688WAT    EPW11460   6.899   5.609   6.309
 2689WAT      O11461   5.183   5.838   5.423
 2689WAT     H111462   5.158   5.755   5.414
 2689WAT     H211463   5.252   5.845   5.370
 2689WAT    EPW11464   5.189   5.827   5.414
 2690WAT      O11465   6.649   5.092   5.333
 2690WAT     H111466   6.724   5.053   5.355
 2690WAT     H211467   6.673   5.148   5.270
 2690WAT    EPW11468   6.664   5.095   5.327
 2691WAT      O11469   6.049   6.452   5.790
 2691WAT     H111470   6.003   6.522   5.767
 2691WAT     H211471   6.079   6.421   5.714
 2691WAT    EPW11472   6.047   6.457   5.776
 2692WAT      O11473   5.494   6.141   6.095
 2692WAT     H111474   5.556   6.176   6.146
 2692WAT     H211475   5.539   6.091   6.039
 2692WAT    EPW11476   5.510   6.139   6.095
 2693WAT      O11477   6.348   5.365   5.770
 2693WAT     H111478   6.376   5.331   5.845
 2693WAT     H211479   6.281   5.313   5.748
 2693WAT    EPW11480   6.342   5.352   5.778
 2694WAT      O11481   5.029   6.128   5.117
 2694WAT     H111482   5.095   6.071   5.111
 2694WAT     H211483   5.043   6.167   5.194
 2694WAT    EPW11484   5.041   6.125   5.128
 2695WAT      O11485   5.014   5.901   5.850
 2695WAT     H111486   5.021   5.921   5.765
 2695WAT     H211487   5.029   5.977   5.890
 2695WAT    EPW11488   5.017   5.915   5.843
 2696WAT      O11489   5.784   5.322   5.261
 2696WAT     H111490   5.767   5.295   5.180
 2696WAT     H211491   5.751   5.403   5.263
 2696WAT    EPW11492   5.776   5.330   5.249
 2697WAT      O11493   6.616   6.516   6.422
 2697WAT     H111494   6.573   6.592   6.431
 2697WAT     H211495   6.616   6.503   6.336
 2697WAT    EPW11496   6.610   6.525   6.411
 2698WAT      O11497   5.604   6.365   5.692
 2698WAT     H111498   5.597   6.447   5.721
 2698WAT     H211499   5.671   6.333   5.736
 2698WAT    EPW11500   5.613   6.373   5.703
 2699WAT      O11501   5.359   5.677   6.722
 2699WAT     H111502   5.324   5.609   6.764
 2699WAT     H211503   5.371   5.647   6.641
 2699WAT    EPW11504   5.356   5.662   6.717
 2700WAT      O11505   5.397   5.534   5.233
 2700WAT     H111506   5.377   5.477   5.295
 2700WAT     H211507   5.354   5.504   5.163
 2700WAT    EPW11508   5.388   5.521   5.232
 2701WAT      O11509   5.394   5.821   5.928
 2701WAT     H111510   5.366   5.821   5.845
 2701WAT     H211511   5.420   5.739   5.941
 2701WAT    EPW11512   5.394   5.809   5.918
 2702WAT      O11513   5.456   5.748   6.269
 2702WAT     H111514   5.483   5.705   6.197
 2702WAT     H211515   5.404   5.810   6.237
 2702WAT    EPW11516   5.452   5.751   6.254
 2703WAT      O11517   6.488   5.545   6.036
 2703WAT     H111518   6.422   5.573   6.086
 2703WAT     H211519   6.485   5.599   5.967
 2703WAT    EPW11520   6.478   5.557   6.033
 2704WAT      O11521   5.829   6.659   6.160
 2704WAT     H111522   5.786   6.590   6.127
 2704WAT     H211523   5.821   6.719   6.098
 2704WAT    EPW11524   5.822   6.657   6.146
 2705WAT      O11525   6.057   5.105   6.397
 2705WAT     H111526   6.072   5.021   6.377
 2705WAT     H211527   6.086   5.112   6.478
 2705WAT    EPW11528   6.063   5.094   6.406
 2706WAT      O11529   6.293   5.300   5.400
 2706WAT     H111530   6.350   5.366   5.409
 2706WAT     H211531   6.217   5.340   5.389
 2706WAT    EPW11532   6.290   5.316   5.399
 2707WAT      O11533   5.238   5.914   6.799
 2707WAT     H111534   5.230   5.961   6.727
 2707WAT     H211535   5.281   5.843   6.773
 2707WAT    EPW11536   5.243   5.911   6.785
 2708WAT      O11537   6.384   6.103   6.661
 2708WAT     H111538   6.411   6.182   6.637
 2708WAT     H211539   6.414   6.050   6.599
 2708WAT    EPW11540   6.392   6.107   6.648
 2709WAT      O11541   5.807   6.435   6.687
 2709WAT     H111542   5.839   6.430   6.768
 2709WAT     H211543   5.780   6.353   6.671
 2709WAT    EPW11544   5.808   6.422   6.697
 2710WAT      O11545   5.878   5.451   6.016
 2710WAT     H111546   5.945   5.507   6.018
 2710WAT     H211547   5.912   5.378   6.049
 2710WAT    EPW11548   5.893   5.448   6.021
 2711WAT      O11549   6.121   5.742   5.230
 2711WAT     H111550   6.099   5.794   5.163
 2711WAT     H211551   6.060   5.758   5.289
 2711WAT    EPW11552   6.109   5.752   5.229
 2712WAT      O11553   6.676   6.069   5.649
 2712WAT     H111554   6.677   6.019   5.721
 2712WAT     H211555   6.647   6.015   5.587
 2712WAT    EPW11556   6.672   6.053   5.651
 2713WAT      O11557   6.246   6.484   5.989
 2713WAT     H111558   6.181   6.466   5.934
 2713WAT     H211559   6.287   6.550   5.951
 2713WAT    EPW11560   6.242   6.491   5.975
 2714WAT      O11561   6.241   6.130   5.970
 2714WAT     H111562   6.167   6.163   6.000
 2714WAT     H211563   6.272   6.083   6.037
 2714WAT    EPW11564   6.235   6.128   5.984
 2715WAT      O11565   5.623   6.625   5.357
 2715WAT     H111566   5.632   6.546   5.394
 2715WAT     H211567   5.695   6.633   5.309
 2715WAT    EPW11568   5.635   6.614   5.355
 2716WAT      O11569   5.580   4.967   5.143
 2716WAT     H111570   5.568   4.933   5.222
 2716WAT     H211571   5.528   5.037   5.143
 2716WAT    EPW11572   5.570   4.973   5.154
 2717WAT      O11573   5.861   6.631   5.217
 2717WAT     H111574   5.918   6.636   5.283
 2717WAT     H211575   5.866   6.710   5.180
 2717WAT    EPW11576   5.870   6.644   5.222
 2718WAT      O11577   6.468   5.951   6.446
 2718WAT     H111578   6.434   5.989   6.375
 2718WAT     H211579   6.553   5.969   6.440
 2718WAT    EPW11580   6.475   5.959   6.435
 2719WAT      O11581   6.176   6.533   6.863
 2719WAT     H111582   6.203   6.553   6.943
 2719WAT     H211583   6.207   6.598   6.814
 2719WAT    EPW11584   6.185   6.546   6.867
 2720WAT      O11585   6.599   5.059   6.699
 2720WAT     H111586   6.562   5.014   6.634
 2720WAT     H211587   6.601   5.001   6.765
 2720WAT    EPW11588   6.594   5.044   6.699
 2721WAT      O11589   5.417   5.811   5.257
 2721WAT     H111590   5.403   5.725   5.263
 2721WAT     H211591   5.489   5.823   5.305
 2721WAT    EPW11592   5.426   5.800   5.265
 2722WAT      O11593   6.111   5.959   6.326
 2722WAT     H111594   6.060   5.998   6.385
 2722WAT     H211595   6.141   5.889   6.369
 2722WAT    EPW11596   6.108   5.955   6.341
 2723WAT      O11597   4.942   4.940   5.382
 2723WAT     H111598   4.968   4.875   5.330
 2723WAT     H211599   4.902   4.899   5.447
 2723WAT    EPW11600   4.940   4.924   5.384
 2724WAT      O11601   5.947   5.788   5.447
 2724WAT     H111602   5.973   5.850   5.502
 2724WAT     H211603   5.948   5.716   5.496
 2724WAT    EPW11604   5.951   5.786   5.462
 2725WAT      O11605   6.500   6.259   5.982
 2725WAT     H111606   6.517   6.277   5.898
 2725WAT     H211607   6.417   6.231   5.979
 2725WAT    EPW11608   6.490   6.257   5.969
 2726WAT      O11609   5.440   5.203   5.124
 2726WAT     H111610   5.380   5.194   5.061
 2726WAT     H211611   5.504   5.247   5.085
 2726WAT    EPW11612   5.441   5.209   5.109
 2727WAT      O11613   5.894   6.026   5.856
 2727WAT     H111614   5.812   5.999   5.866
 2727WAT     H211615   5.935   5.991   5.925
 2727WAT    EPW11616   5.888   6.017   5.868
 2728WAT      O11617   5.566   6.613   4.975
 2728WAT     H111618   5.592   6.545   5.023
 2728WAT     H211619   5.570   6.680   5.031
 2728WAT    EPW11620   5.571   6.613   4.990
 2729WAT      O11621   5.300   5.948   6.156
 2729WAT     H111622   5.353   6.017   6.151
 2729WAT     H211623   5.308   5.911   6.077
 2729WAT    EPW11624   5.309   5.953   6.144
 2730WAT      O11625   5.589   5.468   5.773
 2730WAT     H111626   5.666   5.429   5.763
 2730WAT     H211627   5.531   5.403   5.768
 2730WAT    EPW11628   5.592   5.453   5.771
 2731WAT      O11629   6.842   6.650   5.188
 2731WAT     H111630   6.905   6.599   5.156
 2731WAT     H211631   6.793   6.594   5.234
 2731WAT    EPW11632   6.844   6.634   5.190
 2732WAT      O11633   5.100   5.573   5.412
 2732WAT     H111634   5.126   5.532   5.485
 2732WAT     H211635   5.093   5.508   5.354
 2732WAT    EPW11636   5.103   5.557   5.414
 2733WAT      O11637   6.584   5.896   6.143
 2733WAT     H111638   6.587   5.826   6.195
 2733WAT     H211639   6.505   5.930   6.159
 2733WAT    EPW11640   6.572   5.891   6.153
 2734WAT      O11641   5.548   5.754   5.002
 2734WAT     H111642   5.499   5.762   5.074
 2734WAT     H211643   5.494   5.720   4.944
 2734WAT    EPW11644   5.533   5.750   5.004
 2735WAT      O11645   5.212   6.048   6.557
 2735WAT     H111646   5.180   5.998   6.493
 2735WAT     H211647   5.188   6.128   6.534
 2735WAT    EPW11648   5.204   6.052   6.544
 2736WAT      O11649   6.688   5.904   5.880
 2736WAT     H111650   6.656   5.907   5.962
 2736WAT     H211651   6.774   5.898   5.892
 2736WAT    EPW11652   6.696   5.903   5.894
 2737WAT      O11653   5.673   5.576   5.243
 2737WAT     H111654   5.680   5.652   5.285
 2737WAT     H211655   5.587   5.561   5.241
 2737WAT    EPW11656   5.662   5.585   5.249
 2738WAT      O11657   6.478   5.315   6.678
 2738WAT     H111658   6.409   5.317   6.730
 2738WAT     H211659   6.507   5.233   6.686
 2738WAT    EPW11660   6.472   5.303   6.687
 2739WAT      O11661   5.041   5.241   5.905
 2739WAT     H111662   5.009   5.226   5.825
 2739WAT     H211663   5.117   5.198   5.905
 2739WAT    EPW11664   5.047   5.233   5.893
 2740WAT      O11665   6.826   6.416   5.964
 2740WAT     H111666   6.869   6.457   5.900
 2740WAT     H211667   6.886   6.406   6.026
 2740WAT    EPW11668   6.841   6.421   5.964
 2741WAT      O11669   6.340   5.648   6.761
 2741WAT     H111670   6.367   5.670   6.841
 2741WAT     H211671   6.258   5.679   6.757
 2741WAT    EPW11672   6.332   5.656   6.772
 2742WAT      O11673   6.569   5.705   6.612
 2742WAT     H111674   6.586   5.787   6.637
 2742WAT     H211675   6.497   5.684   6.657
 2742WAT    EPW11676   6.561   5.714   6.623
 2743WAT      O11677   6.526   6.323   5.185
 2743WAT     H111678   6.562   6.244   5.193
 2743WAT     H211679   6.450   6.316   5.227
 2743WAT    EPW11680   6.520   6.310   5.192
 2744WAT      O11681   6.593   5.460   5.679
 2744WAT     H111682   6.525   5.415   5.708
 2744WAT     H211683   6.585   5.537   5.719
 2744WAT    EPW11684   6.582   5.465   5.689
 2745WAT      O11685   6.871   5.789   6.796
 2745WAT     H111686   6.878   5.733   6.729
 2745WAT     H211687   6.951   5.824   6.801
 2745WAT    EPW11688   6.884   5.786   6.787
 2746WAT      O11689   6.734   6.038   6.431
 2746WAT     H111690   6.800   5.989   6.402
 2746WAT     H211691   6.723   6.097   6.367
 2746WAT    EPW11692   6.742   6.040   6.417
 2747WAT      O11693   6.201   6.141   5.105
 2747WAT     H111694   6.275   6.096   5.097
 2747WAT     H211695   6.169   6.142   5.024
 2747WAT    EPW11696   6.207   6.135   5.092
 2748WAT      O11697   5.744   6.227   6.205
 2748WAT     H111698   5.730   6.270   6.279
 2748WAT     H211699   5.733   6.288   6.143
 2748WAT    EPW11700   5.741   6.243   6.207
 2749WAT      O11701   5.485   6.103   6.522
 2749WAT     H111702   5.405   6.072   6.538
 2749WAT     H211703   5.473   6.189   6.515
 2749WAT    EPW11704   5.472   6.111   6.523
 2750WAT      O11705   6.434   5.167   6.342
 2750WAT     H111706   6.495   5.228   6.353
 2750WAT     H211707   6.361   5.212   6.332
 2750WAT    EPW11708   6.432   5.182   6.342
 2751WAT      O11709   5.985   5.884   6.087
 2751WAT     H111710   6.036   5.913   6.151
 2751WAT     H211711   5.904   5.887   6.121
 2751WAT    EPW11712   5.980   5.888   6.102
 2752WAT      O11713   5.655   5.460   6.484
 2752WAT     H111714   5.671   5.378   6.508
 2752WAT     H211715   5.673   5.460   6.399
 2752WAT    EPW11716   5.660   5.448   6.475
 2753WAT      O11717   5.885   6.658   5.686
 2753WAT     H111718   5.890   6.744   5.700
 2753WAT     H211719   5.904   6.651   5.601
 2753WAT    EPW11720   5.889   6.670   5.675
 2754WAT      O11721   6.486   4.960   6.158
 2754WAT     H111722   6.465   5.034   6.199
 2754WAT     H211723   6.570   4.948   6.178
 2754WAT    EPW11724   6.495   4.969   6.167
 2755WAT      O11725   5.780   5.060   6.352
 2755WAT     H111726   5.864   5.083   6.345
 2755WAT     H211727   5.779   4.979   6.319
 2755WAT    EPW11728   5.793   5.051   6.346
 2756WAT      O11729   5.688   6.444   6.042
 2756WAT     H111730   5.607   6.463   6.014
 2756WAT     H211731   5.727   6.410   5.972
 2756WAT    EPW11732   5.682   6.442   6.028
 2757WAT      O11733   6.117   6.095   6.730
 2757WAT     H111734   6.199   6.099   6.699
 2757WAT     H211735   6.068   6.111   6.660
 2757WAT    EPW11736   6.122   6.098   6.715
 2758WAT      O11737   6.457   6.364   6.594
 2758WAT     H111738   6.495   6.389   6.669
 2758WAT     H211739   6.505   6.403   6.533
 2758WAT    EPW11740   6.470   6.373   6.596
 2759WAT      O11741   6.714   5.636   5.080
 2759WAT     H111742   6.760   5.692   5.030
 2759WAT     H211743   6.634   5.670   5.080
 2759WAT    EPW11744   6.709   5.650   5.073
 2760WAT      O11745   5.773   5.901   5.077
 2760WAT     H111746   5.710   5.854   5.039
 2760WAT     H211747   5.748   5.984   5.061
 2760WAT    EPW11748   5.760   5.906   5.069
 2761WAT      O11749   5.511   5.579   6.016
 2761WAT     H111750   5.539   5.547   5.939
 2761WAT     H211751   5.565   5.543   6.074
 2761WAT    EPW11752   5.523   5.569   6.013
 2762WAT      O11753   6.212   5.499   6.550
 2762WAT     H111754   6.146   5.544   6.585
 2762WAT     H211755   6.272   5.498   6.614
 2762WAT    EPW11756   6.211   5.506   6.565
 2763WAT      O11757   6.262   5.576   6.193
 2763WAT     H111758   6.268   5.630   6.261
 2763WAT     H211759   6.246   5.498   6.230
 2763WAT    EPW11760   6.260   5.572   6.208
 2764WAT      O11761   5.970   6.650   6.604
 2764WAT     H111762   5.981   6.647   6.518
 2764WAT     H211763   5.930   6.575   6.623
 2764WAT    EPW11764   5.966   6.639   6.594
 2765WAT      O11765   6.475   5.518   5.435
 2765WAT     H111766   6.503   5.495   5.514
 2765WAT     H211767   6.546   5.552   5.397
 2765WAT    EPW11768   6.490   5.519   5.441
 2766WAT      O11769   5.756   5.020   5.997
 2766WAT     H111770   5.670   5.013   6.014
 2766WAT     H211771   5.760   5.027   5.911
 2766WAT    EPW11772   5.744   5.020   5.987
 2767WAT      O11773   6.610   5.090   5.612
 2767WAT     H111774   6.533   5.053   5.628
 2767WAT     H211775   6.607   5.108   5.527
 2767WAT    EPW11776   6.598   5.087   5.602
 2768WAT      O11777   6.599   5.916   5.423
 2768WAT     H111778   6.642   5.842   5.410
 2768WAT     H211779   6.516   5.894   5.412
 2768WAT    EPW11780   6.593   5.902   5.420
 2769WAT      O11781   5.953   6.122   6.503
 2769WAT     H111782   5.879   6.124   6.550
 2769WAT     H211783   5.959   6.202   6.470
 2769WAT    EPW11784   5.943   6.134   6.505
 2770WAT      O11785   5.029   5.107   6.698
 2770WAT     H111786   5.023   5.178   6.647
 2770WAT     H211787   4.955   5.064   6.681
 2770WAT    EPW11788   5.017   5.111   6.688
 2771WAT      O11789   5.527   6.767   6.085
 2771WAT     H111790   5.533   6.733   6.165
 2771WAT     H211791   5.511   6.698   6.034
 2771WAT    EPW11792   5.525   6.752   6.090
 2772WAT      O11793   5.334   5.287   5.368
 2772WAT     H111794   5.356   5.257   5.289
 2772WAT     H211795   5.254   5.255   5.381
 2772WAT    EPW11796   5.326   5.278   5.358
 2773WAT      O11797   6.276   6.091   5.696
 2773WAT     H111798   6.261   6.101   5.782
 2773WAT     H211799   6.302   6.008   5.689
 2773WAT    EPW11800   6.277   6.080   5.708
 2774WAT      O11801   6.022   6.005   5.610
 2774WAT     H111802   5.979   6.007   5.685
 2774WAT     H211803   6.102   6.035   5.631
 2774WAT    EPW11804   6.028   6.010   5.624
 2775WAT      O11805   5.983   6.392   6.416
 2775WAT     H111806   6.043   6.392   6.480
 2775WAT     H211807   6.003   6.463   6.369
 2775WAT    EPW11808   5.995   6.403   6.418
 2776WAT      O11809   6.831   5.611   6.586
 2776WAT     H111810   6.746   5.627   6.592
 2776WAT     H211811   6.848   5.623   6.501
 2776WAT    EPW11812   6.821   5.615   6.574
 2777WAT      O11813   6.268   5.745   6.414
 2777WAT     H111814   6.260   5.679   6.471
 2777WAT     H211815   6.342   5.783   6.437
 2777WAT    EPW11816   6.278   5.740   6.426
 2778WAT      O11817   5.170   6.731   6.619
 2778WAT     H111818   5.118   6.661   6.617
 2778WAT     H211819   5.119   6.794   6.651
 2778WAT    EPW11820   5.155   6.730   6.623
 2779WAT      O11821   6.042   5.870   6.874
 2779WAT     H111822   6.067   5.942   6.831
 2779WAT     H211823   5.961   5.889   6.899
 2779WAT    EPW11824   6.034   5.884   6.871
 2780WAT      O11825   6.355   6.732   5.919
 2780WAT     H111826   6.296   6.793   5.940
 2780WAT     H211827   6.418   6.744   5.979
 2780WAT    EPW11828   6.356   6.743   5.931
 2781WAT      O11829   6.026   6.227   6.125
 2781WAT     H111830   5.945   6.224   6.157
 2781WAT     H211831   6.073   6.261   6.191
 2781WAT    EPW11832   6.021   6.232   6.139
 2782WAT      O11833   6.590   6.431   6.829
 2782WAT     H111834   6.670   6.397   6.827
 2782WAT     H211835   6.555   6.397   6.902
 2782WAT    EPW11836   6.597   6.421   6.839
 2783WAT      O11837   5.399   5.565   6.469
 2783WAT     H111838   5.412   5.625   6.407
 2783WAT     H211839   5.477   5.528   6.479
 2783WAT    EPW11840   5.413   5.569   6.462
 2784WAT      O11841   5.214   5.401   6.349
 2784WAT     H111842   5.226   5.417   6.265
 2784WAT     H211843   5.276   5.448   6.389
 2784WAT    EPW11844   5.225   5.410   6.343
 2785WAT      O11845   6.699   5.666   5.357
 2785WAT     H111846   6.715   5.662   5.272
 2785WAT     H211847   6.773   5.638   5.393
 2785WAT    EPW11848   6.712   5.661   5.350
 2786WAT      O11849   5.458   5.068   6.606
 2786WAT     H111850   5.489   4.987   6.598
 2786WAT     H211851   5.423   5.085   6.528
 2786WAT    EPW11852   5.457   5.059   6.593
 2787WAT      O11853   6.100   6.374   5.524
 2787WAT     H111854   6.077   6.453   5.495
 2787WAT     H211855   6.029   6.325   5.507
 2787WAT    EPW11856   6.086   6.378   5.517
 2788WAT      O11857   6.580   5.670   6.331
 2788WAT     H111858   6.581   5.583   6.333
 2788WAT     H211859   6.573   5.692   6.415
 2788WAT    EPW11860   6.579   5.660   6.344
 2789WAT      O11861   5.108   5.898   6.348
 2789WAT     H111862   5.161   5.918   6.282
 2789WAT     H211863   5.096   5.812   6.339
 2789WAT    EPW11864   5.114   5.888   6.337
 2790WAT      O11865   5.235   5.447   5.017
 2790WAT     H111866   5.166   5.436   5.069
 2790WAT     H211867   5.241   5.371   4.974
 2790WAT    EPW11868   5.226   5.434   5.018
 2791WAT      O11869   6.139   5.131   6.663
 2791WAT     H111870   6.172   5.194   6.714
 2791WAT     H211871   6.060   5.117   6.697
 2791WAT    EPW11872   6.132   5.138   6.675
 2792WAT      O11873   6.110   5.219   5.749
 2792WAT     H111874   6.032   5.258   5.745
 2792WAT     H211875   6.105   5.156   5.690
 2792WAT    EPW11876   6.098   5.216   5.740
 2793WAT      O11877   5.600   6.381   5.144
 2793WAT     H111878   5.633   6.378   5.224
 2793WAT     H211879   5.518   6.356   5.155
 2793WAT    EPW11880   5.593   6.377   5.157
 2794WAT      O11881   6.435   5.273   6.018
 2794WAT     H111882   6.512   5.238   6.039
 2794WAT     H211883   6.446   5.358   6.036
 2794WAT    EPW11884   6.448   5.280   6.024
 2795WAT      O11885   5.631   5.868   6.451
 2795WAT     H111886   5.588   5.940   6.476
 2795WAT     H211887   5.573   5.827   6.400
 2795WAT    EPW11888   5.616   5.872   6.447
 2796WAT      O11889   6.524   5.698   5.803
 2796WAT     H111890   6.581   5.761   5.824
 2796WAT     H211891   6.465   5.740   5.754
 2796WAT    EPW11892   6.523   5.714   5.799
 2797WAT      O11893   6.522   6.531   5.568
 2797WAT     H111894   6.511   6.454   5.608
 2797WAT     H211895   6.560   6.509   5.492
 2797WAT    EPW11896   6.526   6.516   5.563
 2798WAT      O11897   5.348   6.284   5.183
 2798WAT     H111898   5.350   6.264   5.268
 2798WAT     H211899   5.351   6.207   5.144
 2798WAT    EPW11900   5.348   6.270   5.190
 2799WAT      O11901   5.638   6.137   5.009
 2799WAT     H111902   5.559   6.105   5.025
 2799WAT     H211903   5.640   6.212   5.052
 2799WAT    EPW11904   5.627   6.143   5.017
 2800WAT      O11905   5.582   5.216   6.232
 2800WAT     H111906   5.508   5.186   6.267
 2800WAT     H211907   5.642   5.160   6.262
 2800WAT    EPW11908   5.580   5.204   6.242
 2801WAT      O11909   6.733   5.010   6.293
 2801WAT     H111910   6.698   5.002   6.373
 2801WAT     H211911   6.816   4.985   6.304
 2801WAT    EPW11912   6.740   5.005   6.307
 2802WAT      O11913   5.947   5.200   6.103
 2802WAT     H111914   5.889   5.143   6.072
 2802WAT     H211915   6.024   5.165   6.080
 2802WAT    EPW11916   5.950   5.187   6.095
 2803WAT      O11917   6.288   6.324   6.223
 2803WAT     H111918   6.309   6.395   6.270
 2803WAT     H211919   6.279   6.356   6.142
 2803WAT    EPW11920   6.290   6.339   6.218
 2804WAT      O11921   6.248   6.713   6.654
 2804WAT     H111922   6.178   6.670   6.624
 2804WAT     H211923   6.219   6.794   6.667
 2804WAT    EPW11924   6.234   6.718   6.652
 2805WAT      O11925   5.770   5.676   6.615
 2805WAT     H111926   5.736   5.607   6.573
 2805WAT     H211927   5.731   5.744   6.576
 2805WAT    EPW11928   5.759   5.676   6.603
 2806WAT      O11929   5.847   5.027   5.109
 2806WAT     H111930   5.859   5.032   5.023
 2806WAT     H211931   5.760   5.020   5.117
 2806WAT    EPW11932   5.836   5.026   5.098
 2807WAT      O11933   6.703   6.154   6.171
 2807WAT     H111934   6.681   6.071   6.157
 2807WAT     H211935   6.650   6.199   6.118
 2807WAT    EPW11936   6.692   6.149   6.161
 2808WAT      O11937   5.610   6.627   6.623
 2808WAT     H111938   5.594   6.647   6.706
 2808WAT     H211939   5.673   6.567   6.628
 2808WAT    EPW11940   5.617   6.621   6.636
 2809WAT      O11941   6.606   6.471   6.140
 2809WAT     H111942   6.677   6.471   6.089
 2809WAT     H211943   6.552   6.416   6.101
 2809WAT    EPW11944   6.609   6.463   6.127
 2810WAT      O11945   5.344   5.150   6.366
 2810WAT     H111946   5.287   5.087   6.346
 2810WAT     H211947   5.297   5.223   6.359
 2810WAT    EPW11948   5.328   5.151   6.362
 2811WAT      O11949   6.194   5.119   5.994
 2811WAT     H111950   6.263   5.168   6.015
 2811WAT     H211951   6.168   5.152   5.918
 2811WAT    EPW11952   6.201   5.131   5.986
 2812WAT      O11953   5.330   6.530   6.759
 2812WAT     H111954   5.401   6.563   6.797
 2812WAT     H211955   5.293   6.599   6.720
 2812WAT    EPW11956   5.335   6.545   6.759
 2813WAT      O11957   6.191   5.597   5.743
 2813WAT     H111958   6.246   5.530   5.755
 2813WAT     H211959   6.158   5.611   5.822
 2813WAT    EPW11960   6.195   5.589   5.756
 2814WAT      O11961   5.207   5.489   5.663
 2814WAT     H111962   5.167   5.522   5.733
 2814WAT     H211963   5.246   5.417   5.693
 2814WAT    EPW11964   5.207   5.483   5.677
 2815WAT      O11965   5.165   6.311   6.467
 2815WAT     H111966   5.121   6.369   6.515
 2815WAT     H211967   5.248   6.338   6.474
 2815WAT    EPW11968   5.170   6.324   6.475
 2816WAT      O11969   6.357   5.762   5.375
 2816WAT     H111970   6.379   5.680   5.394
 2816WAT     H211971   6.280   5.754   5.335
 2816WAT    EPW11972   6.349   5.749   5.372
 2817WAT      O11973   5.344   6.625   5.338
 2817WAT     H111974   5.310   6.596   5.263
 2817WAT     H211975   5.429   6.609   5.329
 2817WAT    EPW11976   5.352   6.618   5.325
 2818WAT      O11977   5.697   5.844   5.340
 2818WAT     H111978   5.724   5.872   5.261
 2818WAT     H211979   5.772   5.826   5.381
 2818WAT    EPW11980   5.712   5.845   5.334
 2819WAT      O11981   6.627   6.702   5.021
 2819WAT     H111982   6.700   6.692   5.068
 2819WAT     H211983   6.610   6.622   4.991
 2819WAT    EPW11984   6.635   6.689   5.023
 2820WAT      O11985   6.669   5.953   6.697
 2820WAT     H111986   6.739   5.915   6.732
 2820WAT     H211987   6.700   5.993   6.626
 2820WAT    EPW11988   6.684   5.953   6.692
 2821WAT      O11989   6.280   6.323   5.309
 2821WAT     H111990   6.233   6.319   5.383
 2821WAT     H211991   6.239   6.268   5.256
 2821WAT    EPW11992   6.267   6.314   5.312
 2822WAT      O11993   6.706   5.404   6.804
 2822WAT     H111994   6.695   5.484   6.838
 2822WAT     H211995   6.630   5.388   6.764
 2822WAT    EPW11996   6.693   5.413   6.803
 2823WAT      O11997   6.752   5.503   6.109
 2823WAT     H111998   6.670   5.527   6.091
 2823WAT     H211999   6.747   5.417   6.116
 2823WAT    EPW12000   6.739   5.494   6.107
 2824WAT      O12001   5.699   5.195   6.582
 2824WAT     H112002   5.728   5.158   6.508
 2824WAT     H212003   5.620   5.160   6.593
 2824WAT    EPW12004   5.692   5.185   6.573
 2825WAT      O12005   6.435   6.010   6.923
 2825WAT     H112006   6.512   6.036   6.954
 2825WAT     H212007   6.438   6.033   6.839
 2825WAT    EPW12008   6.447   6.017   6.915
 2826WAT      O12009   5.408   6.503   5.989
 2826WAT     H112010   5.382   6.426   5.958
 2826WAT     H212011   5.375   6.561   5.932
 2826WAT    EPW12012   5.399   6.500   5.976
 2827WAT      O12013   5.940   6.186   5.194
 2827WAT     H112014   6.019   6.158   5.170
 2827WAT     H212015   5.927   6.256   5.144
 2827WAT    EPW12016   5.950   6.192   5.183
 2828WAT      O12017   5.139   6.772   6.338
 2828WAT     H112018   5.152   6.755   6.423
 2828WAT     H212019   5.181   6.707   6.298
 2828WAT    EPW12020   5.147   6.760   6.345
 2829WAT      O12021   6.110   5.032   3.663
 2829WAT     H112022   6.103   5.072   3.585
 2829WAT     H212023   6.195   5.013   3.668
 2829WAT    EPW12024   6.122   5.035   3.652
 2830WAT      O12025   6.055   5.627   4.102
 2830WAT     H112026   6.021   5.703   4.127
 2830WAT     H212027   6.115   5.610   4.163
 2830WAT    EPW12028   6.059   5.636   4.115
 2831WAT      O12029   5.048   6.108   3.633
 2831WAT     H112030   5.056   6.113   3.720
 2831WAT     H212031   5.050   6.022   3.617
 2831WAT    EPW12032   5.049   6.096   3.643
 2832WAT      O12033   6.678   6.474   3.424
 2832WAT     H112034   6.746   6.422   3.441
 2832WAT     H212035   6.626   6.424   3.374
 2832WAT    EPW12036   6.680   6.459   3.419
 2833WAT      O12037   5.029   5.399   3.305
 2833WAT     H112038   4.970   5.365   3.251
 2833WAT     H212039   5.035   5.339   3.369
 2833WAT    EPW12040   5.022   5.385   3.306
 2834WAT      O12041   5.395   6.026   3.199
 2834WAT     H112042   5.352   5.992   3.132
 2834WAT     H212043   5.386   5.966   3.262
 2834WAT    EPW12044   5.387   6.012   3.199
 2835WAT      O12045   6.319   5.815   3.741
 2835WAT     H112046   6.328   5.799   3.656
 2835WAT     H212047   6.264   5.754   3.769
 2835WAT    EPW12048   6.312   5.804   3.733
 2836WAT      O12049   5.299   6.212   3.581
 2836WAT     H112050   5.351   6.171   3.637
 2836WAT     H212051   5.221   6.175   3.593
 2836WAT    EPW12052   5.295   6.201   3.591
 2837WAT      O12053   5.724   5.109   3.567
 2837WAT     H112054   5.739   5.181   3.521
 2837WAT     H212055   5.746   5.044   3.512
 2837WAT    EPW12056   5.729   5.110   3.552
 2838WAT      O12057   5.156   6.461   3.177
 2838WAT     H112058   5.211   6.480   3.112
 2838WAT     H212059   5.201   6.402   3.224
 2838WAT    EPW12060   5.171   6.455   3.174
 2839WAT      O12061   5.043   6.322   4.305
 2839WAT     H112062   5.077   6.299   4.382
 2839WAT     H212063   4.979   6.264   4.293
 2839WAT    EPW12064   5.039   6.310   4.315
 2840WAT      O12065   5.718   6.165   4.744
 2840WAT     H112066   5.700   6.150   4.828
 2840WAT     H212067   5.646   6.141   4.702
 2840WAT    EPW12068   5.705   6.159   4.750
 2841WAT      O12069   5.244   5.835   3.774
 2841WAT     H112070   5.195   5.835   3.702
 2841WAT     H212071   5.283   5.757   3.772
 2841WAT    EPW12072   5.243   5.824   3.763
 2842WAT      O12073   5.653   5.443   4.329
 2842WAT     H112074   5.718   5.444   4.272
 2842WAT     H212075   5.632   5.359   4.335
 2842WAT    EPW12076   5.659   5.431   4.321
 2843WAT      O12077   5.708   6.437   4.489
 2843WAT     H112078   5.725   6.497   4.429
 2843WAT     H212079   5.787   6.411   4.516
 2843WAT    EPW12080   5.722   6.442   4.484
 2844WAT      O12081   5.361   5.587   3.781
 2844WAT     H112082   5.420   5.528   3.806
 2844WAT     H212083   5.289   5.539   3.767
 2844WAT    EPW12084   5.359   5.571   3.782
 2845WAT      O12085   5.832   6.268   3.913
 2845WAT     H112086   5.860   6.189   3.935
 2845WAT     H212087   5.905   6.316   3.913
 2845WAT    EPW12088   5.847   6.264   3.916
 2846WAT      O12089   5.922   6.229   3.557
 2846WAT     H112090   5.945   6.160   3.604
 2846WAT     H212091   5.960   6.215   3.480
 2846WAT    EPW12092   5.931   6.217   3.552
 2847WAT      O12093   6.013   5.686   4.765
 2847WAT     H112094   5.929   5.683   4.743
 2847WAT     H212095   6.013   5.738   4.836
 2847WAT    EPW12096   6.000   5.693   4.772
 2848WAT      O12097   5.458   5.128   3.651
 2848WAT     H112098   5.424   5.188   3.598
 2848WAT     H212099   5.542   5.125   3.627
 2848WAT    EPW12100   5.465   5.136   3.640
 2849WAT      O12101   6.511   4.936   4.581
 2849WAT     H112102   6.478   5.004   4.537
 2849WAT     H212103   6.443   4.907   4.627
 2849WAT    EPW12104   6.496   4.942   4.581
 2850WAT      O12105   5.794   5.064   3.837
 2850WAT     H112106   5.805   5.147   3.863
 2850WAT     H212107   5.770   5.073   3.753
 2850WAT    EPW12108   5.792   5.078   3.828
 2851WAT      O12109   6.232   5.327   3.046
 2851WAT     H112110   6.189   5.392   3.086
 2851WAT     H212111   6.252   5.273   3.111
 2851WAT    EPW12112   6.229   5.329   3.061
 2852WAT      O12113   5.021   5.530   4.010
 2852WAT     H112114   5.015   5.616   4.021
 2852WAT     H212115   4.946   5.499   4.044
 2852WAT    EPW12116   5.009   5.538   4.017
 2853WAT      O12117   5.073   6.550   3.824
 2853WAT     H112118   5.000   6.587   3.793
 2853WAT     H212119   5.113   6.520   3.752
 2853WAT    EPW12120   5.068   6.551   3.809
 2854WAT      O12121   5.651   6.259   3.520
 2854WAT     H112122   5.620   6.271   3.601
 2854WAT     H212123   5.737   6.245   3.533
 2854WAT    EPW12124   5.659   6.259   3.534
 2855WAT      O12125   6.249   6.580   3.332
 2855WAT     H112126   6.320   6.630   3.338
 2855WAT     H212127   6.275   6.503   3.363
 2855WAT    EPW12128   6.264   6.576   3.338
 2856WAT      O12129   6.071   6.655   3.528
 2856WAT     H112130   6.103   6.729   3.559
 2856WAT     H212131   6.126   6.634   3.463
 2856WAT    EPW12132   6.084   6.663   3.523
 2857WAT      O12133   5.671   5.308   4.990
 2857WAT     H112134   5.678   5.275   4.910
 2857WAT     H212135   5.708   5.387   4.984
 2857WAT    EPW12136   5.677   5.315   4.977
 2858WAT      O12137   5.200   6.471   3.587
 2858WAT     H112138   5.247   6.398   3.598
 2858WAT     H212139   5.257   6.525   3.548
 2858WAT    EPW12140   5.216   6.468   3.582
 2859WAT      O12141   6.802   5.274   3.780
 2859WAT     H112142   6.753   5.346   3.786
 2859WAT     H212143   6.744   5.210   3.766
 2859WAT    EPW12144   6.786   5.275   3.779
 2860WAT      O12145   6.290   6.597   4.341
 2860WAT     H112146   6.355   6.654   4.332
 2860WAT     H212147   6.277   6.567   4.259
 2860WAT    EPW12148   6.297   6.601   4.327
 2861WAT      O12149   5.259   5.183   4.915
 2861WAT     H112150   5.181   5.150   4.894
 2861WAT     H212151   5.311   5.153   4.851
 2861WAT    EPW12152   5.255   5.174   4.902
 2862WAT      O12153   5.360   6.294   3.953
 2862WAT     H112154   5.423   6.286   3.894
 2862WAT     H212155   5.383   6.236   4.015
 2862WAT    EPW12156   5.373   6.284   3.954
 2863WAT      O12157   5.639   6.590   3.866
 2863WAT     H112158   5.717   6.614   3.836
 2863WAT     H212159   5.584   6.644   3.824
 2863WAT    EPW12160   5.642   6.601   3.855
 2864WAT      O12161   5.875   5.036   4.835
 2864WAT     H112162   5.868   4.963   4.788
 2864WAT     H212163   5.813   5.088   4.801
 2864WAT    EPW12164   5.865   5.033   4.823
 2865WAT      O12165   5.955   5.542   3.685
 2865WAT     H112166   5.985   5.498   3.616
 2865WAT     H212167   6.026   5.555   3.734
 2865WAT    EPW12168   5.970   5.538   3.682
 2866WAT      O12169   6.076   5.516   3.188
 2866WAT     H112170   6.097   5.596   3.215
 2866WAT     H212171   5.999   5.526   3.150
 2866WAT    EPW12172   6.068   5.529   3.186
 2867WAT      O12173   6.458   6.764   3.319
 2867WAT     H112174   6.506   6.743   3.249
 2867WAT     H212175   6.513   6.811   3.368
 2867WAT    EPW12176   6.473   6.768   3.316
 2868WAT      O12177   5.465   6.685   4.469
 2868WAT     H112178   5.515   6.669   4.539
 2868WAT     H212179   5.415   6.614   4.462
 2868WAT    EPW12180   5.465   6.672   4.479
 2869WAT      O12181   6.692   5.228   4.214
 2869WAT     H112182   6.758   5.222   4.157
 2869WAT     H212183   6.707   5.163   4.270
 2869WAT    EPW12184   6.704   5.217   4.214
 2870WAT      O12185   5.018   5.333   4.695
 2870WAT     H112186   4.987   5.411   4.718
 2870WAT     H212187   5.059   5.347   4.620
 2870WAT    EPW12188   5.019   5.346   4.688
 2871WAT      O12189   6.178   6.402   4.726
 2871WAT     H112190   6.172   6.425   4.810
 2871WAT     H212191   6.264   6.393   4.714
 2871WAT    EPW12192   6.190   6.404   4.737
 2872WAT      O12193   5.944   6.410   3.146
 2872WAT     H112194   5.915   6.465   3.206
 2872WAT     H212195   6.018   6.447   3.119
 2872WAT    EPW12196   5.951   6.424   3.151
 2873WAT      O12197   6.274   5.156   3.256
 2873WAT     H112198   6.329   5.088   3.262
 2873WAT     H212199   6.297   5.206   3.324
 2873WAT    EPW12200   6.286   5.154   3.267
 2874WAT      O12201   5.064   5.254   3.541
 2874WAT     H112202   5.000   5.196   3.557
 2874WAT     H212203   5.065   5.303   3.614
 2874WAT    EPW12204   5.054   5.253   3.554
 2875WAT      O12205   5.240   6.535   4.334
 2875WAT     H112206   5.181   6.472   4.324
 2875WAT     H212207   5.285   6.533   4.259
 2875WAT    EPW12208   5.238   6.525   4.322
 2876WAT      O12209   6.057   5.416   3.455
 2876WAT     H112210   6.026   5.335   3.446
 2876WAT     H212211   6.058   5.447   3.373
 2876WAT    EPW12212   6.053   5.409   3.441
 2877WAT      O12213   6.041   6.652   4.439
 2877WAT     H112214   6.119   6.639   4.402
 2877WAT     H212215   5.985   6.644   4.372
 2877WAT    EPW12216   6.044   6.649   4.423
 2878WAT      O12217   6.039   5.134   3.410
 2878WAT     H112218   5.972   5.096   3.370
 2878WAT     H212219   6.104   5.126   3.353
 2878WAT    EPW12220   6.039   5.127   3.396
 2879WAT      O12221   6.763   6.679   3.703
 2879WAT     H112222   6.724   6.754   3.724
 2879WAT     H212223   6.697   6.623   3.694
 2879WAT    EPW12224   6.748   6.682   3.705
 2880WAT      O12225   5.824   5.352   3.861
 2880WAT     H112226   5.848   5.416   3.807
 2880WAT     H212227   5.828   5.389   3.940
 2880WAT    EPW12228   5.828   5.367   3.865
 2881WAT      O12229   6.494   6.264   3.783
 2881WAT     H112230   6.556   6.204   3.770
 2881WAT     H212231   6.420   6.219   3.773
 2881WAT    EPW12232   6.492   6.249   3.780
 2882WAT      O12233   5.438   6.385   4.607
 2882WAT     H112234   5.517   6.413   4.584
 2882WAT     H212235   5.424   6.423   4.684
 2882WAT    EPW12236   5.448   6.395   4.615
 2883WAT      O12237   5.408   4.871   3.742
 2883WAT     H112238   5.425   4.951   3.713
 2883WAT     H212239   5.387   4.827   3.670
 2883WAT    EPW12240   5.407   4.876   3.727
 2884WAT      O12241   5.631   5.955   4.046
 2884WAT     H112242   5.655   5.943   4.129
 2884WAT     H212243   5.582   5.885   4.028
 2884WAT    EPW12244   5.627   5.943   4.055
 2885WAT      O12245   6.212   5.341   4.439
 2885WAT     H112246   6.208   5.384   4.515
 2885WAT     H212247   6.152   5.278   4.447
 2885WAT    EPW12248   6.203   5.338   4.451
 2886WAT      O12249   5.726   5.975   4.307
 2886WAT     H112250   5.703   6.059   4.314
 2886WAT     H212251   5.696   5.939   4.380
 2886WAT    EPW12252   5.718   5.982   4.318
 2887WAT      O12253   6.340   6.034   4.315
 2887WAT     H112254   6.264   6.006   4.348
 2887WAT     H212255   6.335   6.121   4.322
 2887WAT    EPW12256   6.328   6.043   4.321
 2888WAT      O12257   6.370   4.939   3.727
 2888WAT     H112258   6.361   4.933   3.813
 2888WAT     H212259   6.401   4.860   3.704
 2888WAT    EPW12260   6.373   4.926   3.736
 2889WAT      O12261   4.995   6.358   4.956
 2889WAT     H112262   5.054   6.405   5.000
 2889WAT     H212263   5.002   6.278   4.991
 2889WAT    EPW12264   5.005   6.353   4.968
 2890WAT      O12265   6.591   5.386   4.538
 2890WAT     H112266   6.673   5.366   4.558
 2890WAT     H212267   6.548   5.377   4.613
 2890WAT    EPW12268   6.597   5.382   4.552
 2891WAT      O12269   5.296   5.236   3.862
 2891WAT     H112270   5.328   5.177   3.807
 2891WAT     H212271   5.240   5.191   3.911
 2891WAT    EPW12272   5.292   5.221   3.861
 2892WAT      O12273   6.651   6.075   3.293
 2892WAT     H112274   6.649   6.029   3.367
 2892WAT     H212275   6.736   6.086   3.278
 2892WAT    EPW12276   6.663   6.070   3.302
 2893WAT      O12277   5.432   6.043   3.754
 2893WAT     H112278   5.485   6.010   3.694
 2893WAT     H212279   5.377   5.977   3.771
 2893WAT    EPW12280   5.431   6.028   3.747
 2894WAT      O12281   5.262   6.722   3.922
 2894WAT     H112282   5.197   6.675   3.889
 2894WAT     H212283   5.318   6.730   3.856
 2894WAT    EPW12284   5.261   6.716   3.908
 2895WAT      O12285   5.195   5.388   4.183
 2895WAT     H112286   5.276   5.417   4.168
 2895WAT     H212287   5.146   5.436   4.130
 2895WAT    EPW12288   5.200   5.399   4.173
 2896WAT      O12289   6.858   6.493   4.683
 2896WAT     H112290   6.780   6.502   4.644
 2896WAT     H212291   6.840   6.445   4.753
 2896WAT    EPW12292   6.844   6.487   4.688
 2897WAT      O12293   6.469   5.734   3.192
 2897WAT     H112294   6.466   5.818   3.166
 2897WAT     H212295   6.441   5.738   3.275
 2897WAT    EPW12296   6.464   5.747   3.201
 2898WAT      O12297   5.563   5.984   3.511
 2898WAT     H112298   5.587   6.067   3.500
 2898WAT     H212299   5.629   5.939   3.477
 2898WAT    EPW12300   5.576   5.990   3.504
 2899WAT      O12301   6.799   5.210   3.202
 2899WAT     H112302   6.830   5.138   3.163
 2899WAT     H212303   6.770   5.259   3.135
 2899WAT    EPW12304   6.799   5.207   3.186
 2900WAT      O12305   5.111   6.170   3.902
 2900WAT     H112306   5.059   6.229   3.939
 2900WAT     H212307   5.190   6.204   3.909
 2900WAT    EPW12308   5.115   6.184   3.909
 2901WAT      O12309   5.797   5.557   4.987
 2901WAT     H112310   5.752   5.585   5.056
 2901WAT     H212311   5.768   5.607   4.922
 2901WAT    EPW12312   5.786   5.568   4.988
 2902WAT      O12313   6.894   5.628   4.427
 2902WAT     H112314   6.951   5.563   4.428
 2902WAT     H212315   6.835   5.602   4.368
 2902WAT    EPW12316   6.893   5.615   4.419
 2903WAT      O12317   5.095   5.843   3.543
 2903WAT     H112318   5.059   5.765   3.531
 2903WAT     H212319   5.165   5.842   3.491
 2903WAT    EPW12320   5.100   5.831   3.533
 2904WAT      O12321   6.664   5.107   3.428
 2904WAT     H112322   6.735   5.064   3.456
 2904WAT     H212323   6.694   5.155   3.362
 2904WAT    EPW12324   6.679   5.108   3.422
 2905WAT      O12325   6.040   6.453   3.905
 2905WAT     H112326   5.997   6.527   3.886
 2905WAT     H212327   6.079   6.433   3.830
 2905WAT    EPW12328   6.039   6.461   3.891
 2906WAT      O12329   5.008   6.315   3.457
 2906WAT     H112330   5.067   6.371   3.487
 2906WAT     H212331   5.007   6.251   3.517
 2906WAT    EPW12332   5.016   6.314   3.470
 2907WAT      O12333   5.430   6.114   4.153
 2907WAT     H112334   5.481   6.157   4.209
 2907WAT     H212335   5.487   6.066   4.108
 2907WAT    EPW12336   5.446   6.113   4.155
 2908WAT      O12337   6.333   5.371   3.870
 2908WAT     H112338   6.362   5.337   3.945
 2908WAT     H212339   6.264   5.321   3.851
 2908WAT    EPW12340   6.327   5.359   3.879
 2909WAT      O12341   4.986   6.135   3.239
 2909WAT     H112342   5.058   6.087   3.235
 2909WAT     H212343   5.003   6.194   3.301
 2909WAT    EPW12344   4.999   6.136   3.248
 2910WAT      O12345   5.104   5.910   4.001
 2910WAT     H112346   5.152   5.875   3.937
 2910WAT     H212347   5.106   5.996   3.983
 2910WAT    EPW12348   5.112   5.918   3.989
 2911WAT      O12349   5.756   5.319   3.386
 2911WAT     H112350   5.746   5.290   3.304
 2911WAT     H212351   5.734   5.404   3.380
 2911WAT    EPW12352   5.751   5.328   3.373
 2912WAT      O12353   6.610   6.538   4.544
 2912WAT     H112354   6.567   6.611   4.564
 2912WAT     H212355   6.610   6.536   4.457
 2912WAT    EPW12356   6.604   6.548   4.534
 2913WAT      O12357   5.590   6.330   3.781
 2913WAT     H112358   5.598   6.415   3.799
 2913WAT     H212359   5.659   6.294   3.820
 2913WAT    EPW12360   5.602   6.337   3.789
 2914WAT      O12361   5.331   5.653   4.845
 2914WAT     H112362   5.296   5.588   4.892
 2914WAT     H212363   5.335   5.620   4.764
 2914WAT    EPW12364   5.327   5.638   4.840
 2915WAT      O12365   5.386   5.565   3.363
 2915WAT     H112366   5.370   5.500   3.419
 2915WAT     H212367   5.347   5.538   3.290
 2915WAT    EPW12368   5.378   5.551   3.361
 2916WAT      O12369   5.464   5.739   4.005
 2916WAT     H112370   5.435   5.707   3.929
 2916WAT     H212371   5.465   5.670   4.057
 2916WAT    EPW12372   5.460   5.724   4.001
 2917WAT      O12373   5.415   5.728   4.365
 2917WAT     H112374   5.434   5.671   4.303
 2917WAT     H212375   5.362   5.786   4.325
 2917WAT    EPW12376   5.410   5.728   4.350
 2918WAT      O12377   6.483   5.554   4.145
 2918WAT     H112378   6.413   5.577   4.192
 2918WAT     H212379   6.477   5.603   4.073
 2918WAT    EPW12380   6.471   5.564   4.141
 2919WAT      O12381   5.819   6.602   4.278
 2919WAT     H112382   5.794   6.542   4.219
 2919WAT     H212383   5.801   6.678   4.239
 2919WAT    EPW12384   5.812   6.604   4.263
 2920WAT      O12385   6.061   5.115   4.504
 2920WAT     H112386   6.068   5.032   4.478
 2920WAT     H212387   6.087   5.113   4.588
 2920WAT    EPW12388   6.066   5.103   4.513
 2921WAT      O12389   6.318   5.316   3.472
 2921WAT     H112390   6.376   5.379   3.490
 2921WAT     H212391   6.241   5.356   3.480
 2921WAT    EPW12392   6.315   5.331   3.476
 2922WAT      O12393   5.221   5.903   4.892
 2922WAT     H112394   5.219   5.945   4.816
 2922WAT     H212395   5.258   5.827   4.873
 2922WAT    EPW12396   5.226   5.898   4.878
 2923WAT      O12397   6.379   6.104   4.772
 2923WAT     H112398   6.407   6.184   4.749
 2923WAT     H212399   6.409   6.053   4.708
 2923WAT    EPW12400   6.388   6.108   4.759
 2924WAT      O12401   5.809   6.430   4.788
 2924WAT     H112402   5.836   6.424   4.871
 2924WAT     H212403   5.782   6.349   4.771
 2924WAT    EPW12404   5.809   6.417   4.798
 2925WAT      O12405   5.844   5.442   4.122
 2925WAT     H112406   5.912   5.496   4.124
 2925WAT     H212407   5.876   5.366   4.151
 2925WAT    EPW12408   5.859   5.439   4.127
 2926WAT      O12409   6.139   5.758   3.313
 2926WAT     H112410   6.139   5.835   3.271
 2926WAT     H212411   6.085   5.772   3.380
 2926WAT    EPW12412   6.131   5.771   3.317
 2927WAT      O12413   6.676   6.059   3.756
 2927WAT     H112414   6.673   6.006   3.825
 2927WAT     H212415   6.656   6.007   3.689
 2927WAT    EPW12416   6.672   6.044   3.757
 2928WAT      O12417   6.243   6.467   4.096
 2928WAT     H112418   6.175   6.459   4.042
 2928WAT     H212419   6.293   6.527   4.057
 2928WAT    EPW12420   6.240   6.475   4.082
 2929WAT      O12421   6.243   6.112   4.061
 2929WAT     H112422   6.169   6.145   4.093
 2929WAT     H212423   6.274   6.064   4.127
 2929WAT    EPW12424   6.237   6.110   4.075
 2930WAT      O12425   5.663   6.541   3.514
 2930WAT     H112426   5.669   6.454   3.526
 2930WAT     H212427   5.727   6.558   3.457
 2930WAT    EPW12428   5.673   6.530   3.508
 2931WAT      O12429   5.543   4.956   3.312
 2931WAT     H112430   5.500   4.926   3.382
 2931WAT     H212431   5.502   5.032   3.295
 2931WAT    EPW12432   5.530   4.963   3.320
 2932WAT      O12433   5.870   6.597   3.340
 2932WAT     H112434   5.931   6.620   3.398
 2932WAT     H212435   5.855   6.670   3.295
 2932WAT    EPW12436   5.877   6.611   3.342
 2933WAT      O12437   6.461   5.955   4.552
 2933WAT     H112438   6.427   5.987   4.478
 2933WAT     H212439   6.546   5.972   4.545
 2933WAT    EPW12440   6.468   5.962   4.540
 2934WAT      O12441   6.173   6.532   4.979
 2934WAT     H112442   6.199   6.553   5.060
 2934WAT     H212443   6.199   6.599   4.931
 2934WAT    EPW12444   6.180   6.545   4.984
 2935WAT      O12445   6.599   5.064   4.813
 2935WAT     H112446   6.573   5.021   4.741
 2935WAT     H212447   6.594   5.004   4.875
 2935WAT    EPW12448   6.594   5.049   4.811
 2936WAT      O12449   5.340   5.843   3.407
 2936WAT     H112450   5.360   5.759   3.399
 2936WAT     H212451   5.408   5.876   3.452
 2936WAT    EPW12452   5.353   5.836   3.412
 2937WAT      O12453   6.102   5.951   4.429
 2937WAT     H112454   6.057   5.992   4.492
 2937WAT     H212455   6.137   5.883   4.470
 2937WAT    EPW12456   6.101   5.947   4.445
 2938WAT      O12457   4.838   5.100   3.622
 2938WAT     H112458   4.851   5.030   3.671
 2938WAT     H212459   4.764   5.082   3.579
 2938WAT    EPW12460   4.829   5.087   3.623
 2939WAT      O12461   5.983   5.786   3.543
 2939WAT     H112462   5.995   5.852   3.599
 2939WAT     H212463   5.969   5.717   3.594
 2939WAT    EPW12464   5.983   5.786   3.559
 2940WAT      O12465   6.495   6.249   4.068
 2940WAT     H112466   6.511   6.260   3.983
 2940WAT     H212467   6.413   6.220   4.069
 2940WAT    EPW12468   6.485   6.246   4.055
 2941WAT      O12469   5.445   5.206   3.245
 2941WAT     H112470   5.390   5.200   3.178
 2941WAT     H212471   5.515   5.245   3.210
 2941WAT    EPW12472   5.447   5.211   3.230
 2942WAT      O12473   5.891   5.998   3.954
 2942WAT     H112474   5.807   5.980   3.968
 2942WAT     H212475   5.931   5.966   4.025
 2942WAT    EPW12476   5.884   5.991   3.967
 2943WAT      O12477   5.539   6.612   3.122
 2943WAT     H112478   5.561   6.538   3.163
 2943WAT     H212479   5.544   6.672   3.185
 2943WAT    EPW12480   5.543   6.610   3.137
 2944WAT      O12481   5.247   5.919   4.242
 2944WAT     H112482   5.302   5.985   4.224
 2944WAT     H212483   5.205   5.906   4.167
 2944WAT    EPW12484   5.249   5.927   4.229
 2945WAT      O12485   5.526   5.398   3.905
 2945WAT     H112486   5.604   5.366   3.883
 2945WAT     H212487   5.472   5.330   3.893
 2945WAT    EPW12488   5.529   5.383   3.900
 2946WAT      O12489   6.835   6.650   3.280
 2946WAT     H112490   6.899   6.600   3.249
 2946WAT     H212491   6.786   6.594   3.326
 2946WAT    EPW12492   6.837   6.634   3.282
 2947WAT      O12493   4.981   5.585   3.515
 2947WAT     H112494   4.981   5.534   3.585
 2947WAT     H212495   5.003   5.531   3.450
 2947WAT    EPW12496   4.984   5.570   3.516
 2948WAT      O12497   6.583   5.890   4.250
 2948WAT     H112498   6.588   5.820   4.303
 2948WAT     H212499   6.503   5.921   4.264
 2948WAT    EPW12500   6.572   5.884   4.260
 2949WAT      O12501   5.585   5.748   3.098
 2949WAT     H112502   5.581   5.695   3.167
 2949WAT     H212503   5.520   5.719   3.047
 2949WAT    EPW12504   5.574   5.736   3.100
 2950WAT      O12505   5.209   6.032   4.644
 2950WAT     H112506   5.167   5.981   4.587
 2950WAT     H212507   5.183   6.112   4.623
 2950WAT    EPW12508   5.199   6.036   4.633
 2951WAT      O12509   6.684   5.893   3.986
 2951WAT     H112510   6.655   5.895   4.069
 2951WAT     H212511   6.770   5.889   3.995
 2951WAT    EPW12512   6.692   5.892   4.000
 2952WAT      O12513   5.657   5.581   3.315
 2952WAT     H112514   5.685   5.653   3.356
 2952WAT     H212515   5.575   5.571   3.343
 2952WAT    EPW12516   5.649   5.590   3.325
 2953WAT      O12517   6.476   5.318   4.792
 2953WAT     H112518   6.401   5.319   4.836
 2953WAT     H212519   6.504   5.236   4.800
 2953WAT    EPW12520   6.469   5.306   4.800
 2954WAT      O12521   5.087   5.154   4.038
 2954WAT     H112522   5.001   5.168   4.043
 2954WAT     H212523   5.120   5.207   4.099
 2954WAT    EPW12524   5.079   5.164   4.048
 2955WAT      O12525   6.831   6.407   4.039
 2955WAT     H112526   6.882   6.450   3.983
 2955WAT     H212527   6.881   6.398   4.109
 2955WAT    EPW12528   6.846   6.412   4.041
 2956WAT      O12529   6.330   5.654   4.879
 2956WAT     H112530   6.363   5.670   4.958
 2956WAT     H212531   6.250   5.690   4.883
 2956WAT    EPW12532   6.323   5.662   4.891
 2957WAT      O12533   6.556   5.708   4.722
 2957WAT     H112534   6.573   5.790   4.745
 2957WAT     H212535   6.485   5.688   4.769
 2957WAT    EPW12536   6.548   5.717   4.732
 2958WAT      O12537   6.512   6.313   3.277
 2958WAT     H112538   6.551   6.236   3.286
 2958WAT     H212539   6.440   6.306   3.326
 2958WAT    EPW12540   6.507   6.301   3.285
 2959WAT      O12541   6.585   5.459   3.783
 2959WAT     H112542   6.514   5.413   3.807
 2959WAT     H212543   6.575   5.535   3.825
 2959WAT    EPW12544   6.573   5.463   3.793
 2960WAT      O12545   6.860   5.792   4.904
 2960WAT     H112546   6.865   5.736   4.838
 2960WAT     H212547   6.939   5.829   4.906
 2960WAT    EPW12548   6.872   5.789   4.895
 2961WAT      O12549   6.727   6.041   4.532
 2961WAT     H112550   6.794   5.993   4.502
 2961WAT     H212551   6.714   6.100   4.469
 2961WAT    EPW12552   6.735   6.043   4.518
 2962WAT      O12553   6.171   6.006   3.181
 2962WAT     H112554   6.258   6.009   3.174
 2962WAT     H212555   6.143   6.018   3.099
 2962WAT    EPW12556   6.180   6.008   3.168
 2963WAT      O12557   5.634   6.243   4.299
 2963WAT     H112558   5.648   6.293   4.369
 2963WAT     H212559   5.654   6.295   4.232
 2963WAT    EPW12560   5.639   6.258   4.299
 2964WAT      O12561   5.477   6.104   4.609
 2964WAT     H112562   5.397   6.074   4.625
 2964WAT     H212563   5.465   6.190   4.599
 2964WAT    EPW12564   5.463   6.112   4.610
 2965WAT      O12565   6.436   5.170   4.441
 2965WAT     H112566   6.496   5.232   4.455
 2965WAT     H212567   6.361   5.214   4.436
 2965WAT    EPW12568   6.434   5.186   4.442
 2966WAT      O12569   5.964   5.876   4.201
 2966WAT     H112570   6.017   5.892   4.269
 2966WAT     H212571   5.885   5.894   4.232
 2966WAT    EPW12572   5.960   5.881   4.216
 2967WAT      O12573   5.618   5.461   4.606
 2967WAT     H112574   5.638   5.381   4.637
 2967WAT     H212575   5.640   5.455   4.522
 2967WAT    EPW12576   5.624   5.448   4.598
 2968WAT      O12577   5.899   6.674   3.791
 2968WAT     H112578   5.896   6.759   3.810
 2968WAT     H212579   5.925   6.672   3.708
 2968WAT    EPW12580   5.902   6.686   3.782
 2969WAT      O12581   6.476   4.966   4.248
 2969WAT     H112582   6.453   5.037   4.292
 2969WAT     H212583   6.561   4.958   4.265
 2969WAT    EPW12584   6.485   4.975   4.257
 2970WAT      O12585   5.783   5.061   4.507
 2970WAT     H112586   5.863   5.091   4.487
 2970WAT     H212587   5.798   4.976   4.522
 2970WAT    EPW12588   5.797   5.053   4.506
 2971WAT      O12589   5.701   6.425   4.097
 2971WAT     H112590   5.661   6.480   4.043
 2971WAT     H212591   5.748   6.374   4.045
 2971WAT    EPW12592   5.702   6.426   4.082
 2972WAT      O12593   6.114   6.080   4.845
 2972WAT     H112594   6.196   6.087   4.816
 2972WAT     H212595   6.066   6.096   4.775
 2972WAT    EPW12596   6.119   6.083   4.830
 2973WAT      O12597   6.455   6.368   4.708
 2973WAT     H112598   6.492   6.393   4.783
 2973WAT     H212599   6.501   6.412   4.648
 2973WAT    EPW12600   6.468   6.378   4.710
 2974WAT      O12601   6.721   5.620   3.168
 2974WAT     H112602   6.765   5.676   3.118
 2974WAT     H212603   6.640   5.652   3.168
 2974WAT    EPW12604   6.715   5.633   3.161
 2975WAT      O12605   5.823   5.886   3.123
 2975WAT     H112606   5.752   5.840   3.100
 2975WAT     H212607   5.796   5.968   3.123
 2975WAT    EPW12608   5.809   5.891   3.120
 2976WAT      O12609   5.454   5.505   4.153
 2976WAT     H112610   5.479   5.466   4.079
 2976WAT     H212611   5.515   5.482   4.210
 2976WAT    EPW12612   5.467   5.496   4.151
 2977WAT      O12613   6.204   5.513   4.662
 2977WAT     H112614   6.133   5.553   4.691
 2977WAT     H212615   6.259   5.516   4.731
 2977WAT    EPW12616   6.202   5.519   4.677
 2978WAT      O12617   6.249   5.578   4.292
 2978WAT     H112618   6.258   5.632   4.360
 2978WAT     H212619   6.238   5.500   4.330
 2978WAT    EPW12620   6.249   5.574   4.308
 2979WAT      O12621   5.958   6.654   4.703
 2979WAT     H112622   5.979   6.643   4.620
 2979WAT     H212623   5.923   6.577   4.726
 2979WAT    EPW12624   5.956   6.641   4.694
 2980WAT      O12625   6.493   5.526   3.532
 2980WAT     H112626   6.517   5.501   3.612
 2980WAT     H212627   6.566   5.560   3.499
 2980WAT    EPW12628   6.507   5.527   3.539
 2981WAT      O12629   5.739   4.982   4.120
 2981WAT     H112630   5.658   4.954   4.135
 2981WAT     H212631   5.744   4.986   4.033
 2981WAT    EPW12632   5.728   4.978   4.109
 2982WAT      O12633   6.600   5.095   3.702
 2982WAT     H112634   6.521   5.060   3.713
 2982WAT     H212635   6.602   5.114   3.617
 2982WAT    EPW12636   6.589   5.093   3.691
 2983WAT      O12637   6.610   5.915   3.521
 2983WAT     H112638   6.656   5.842   3.504
 2983WAT     H212639   6.527   5.889   3.510
 2983WAT    EPW12640   6.605   5.900   3.517
 2984WAT      O12641   5.961   6.115   4.611
 2984WAT     H112642   5.883   6.117   4.649
 2984WAT     H212643   5.971   6.196   4.580
 2984WAT    EPW12644   5.951   6.127   4.612
 2985WAT      O12645   5.019   5.076   4.793
 2985WAT     H112646   5.015   5.156   4.758
 2985WAT     H212647   4.937   5.047   4.788
 2985WAT    EPW12648   5.006   5.083   4.787
 2986WAT      O12649   5.496   6.776   4.201
 2986WAT     H112650   5.490   6.760   4.287
 2986WAT     H212651   5.473   6.701   4.164
 2986WAT    EPW12652   5.492   6.763   4.209
 2987WAT      O12653   5.337   5.311   3.481
 2987WAT     H112654   5.362   5.275   3.405
 2987WAT     H212655   5.254   5.286   3.489
 2987WAT    EPW12656   5.329   5.302   3.471
 2988WAT      O12657   6.270   6.086   3.786
 2988WAT     H112658   6.260   6.093   3.873
 2988WAT     H212659   6.296   6.003   3.776
 2988WAT    EPW12660   6.273   6.075   3.798
 2989WAT      O12661   6.014   6.013   3.705
 2989WAT     H112662   5.973   6.004   3.782
 2989WAT     H212663   6.094   6.039   3.727
 2989WAT    EPW12664   6.020   6.015   3.719
 2990WAT      O12665   5.990   6.382   4.527
 2990WAT     H112666   6.046   6.388   4.594
 2990WAT     H212667   6.012   6.450   4.477
 2990WAT    EPW12668   6.001   6.393   4.530
 2991WAT      O12669   6.819   5.613   4.695
 2991WAT     H112670   6.733   5.628   4.701
 2991WAT     H212671   6.836   5.626   4.610
 2991WAT    EPW12672   6.809   5.617   4.683
 2992WAT      O12673   6.264   5.744   4.515
 2992WAT     H112674   6.252   5.679   4.571
 2992WAT     H212675   6.338   5.781   4.542
 2992WAT    EPW12676   6.273   5.740   4.527
 2993WAT      O12677   5.173   6.716   4.718
 2993WAT     H112678   5.119   6.648   4.713
 2993WAT     H212679   5.121   6.781   4.747
 2993WAT    EPW12680   5.157   6.716   4.721
 2994WAT      O12681   6.033   5.853   4.988
 2994WAT     H112682   6.059   5.926   4.947
 2994WAT     H212683   5.951   5.871   5.012
 2994WAT    EPW12684   6.025   5.867   4.986
 2995WAT      O12685   6.404   6.682   4.029
 2995WAT     H112686   6.374   6.746   4.080
 2995WAT     H212687   6.471   6.649   4.073
 2995WAT    EPW12688   6.409   6.686   4.043
 2996WAT      O12689   6.028   6.202   4.215
 2996WAT     H112690   5.988   6.140   4.262
 2996WAT     H212691   6.081   6.240   4.273
 2996WAT    EPW12692   6.030   6.198   4.231
 2997WAT      O12693   6.585   6.441   4.942
 2997WAT     H112694   6.666   6.408   4.937
 2997WAT     H212695   6.553   6.403   5.014
 2997WAT    EPW12696   6.592   6.430   4.952
 2998WAT      O12697   5.357   5.554   4.578
 2998WAT     H112698   5.372   5.615   4.518
 2998WAT     H212699   5.436   5.518   4.590
 2998WAT    EPW12700   5.371   5.558   4.571
 2999WAT      O12701   5.163   5.390   4.459
 2999WAT     H112702   5.178   5.387   4.373
 2999WAT     H212703   5.231   5.436   4.490
 2999WAT    EPW12704   5.175   5.396   4.451
 3000WAT      O12705   6.714   5.669   3.445
 3000WAT     H112706   6.728   5.660   3.359
 3000WAT     H212707   6.788   5.639   3.481
 3000WAT    EPW12708   6.727   5.663   3.438
 3001WAT      O12709   5.432   5.086   4.720
 3001WAT     H112710   5.467   5.007   4.714
 3001WAT     H212711   5.390   5.096   4.644
 3001WAT    EPW12712   5.431   5.076   4.708
 3002WAT      O12713   6.120   6.404   3.646
 3002WAT     H112714   6.101   6.483   3.613
 3002WAT     H212715   6.052   6.355   3.621
 3002WAT    EPW12716   6.107   6.409   3.638
 3003WAT      O12717   6.576   5.670   4.442
 3003WAT     H112718   6.576   5.582   4.444
 3003WAT     H212719   6.566   5.692   4.526
 3003WAT    EPW12720   6.574   5.660   4.455
 3004WAT      O12721   5.069   5.877   4.455
 3004WAT     H112722   5.120   5.892   4.386
 3004WAT     H212723   5.051   5.792   4.449
 3004WAT    EPW12724   5.074   5.867   4.444
 3005WAT      O12725   5.248   5.463   3.137
 3005WAT     H112726   5.175   5.450   3.183
 3005WAT     H212727   5.261   5.386   3.097
 3005WAT    EPW12728   5.239   5.449   3.138
 3006WAT      O12729   6.137   5.098   4.772
 3006WAT     H112730   6.165   5.165   4.819
 3006WAT     H212731   6.057   5.084   4.802
 3006WAT    EPW12732   6.129   5.106   4.783
 3007WAT      O12733   6.089   5.235   3.851
 3007WAT     H112734   6.008   5.268   3.850
 3007WAT     H212735   6.085   5.170   3.794
 3007WAT    EPW12736   6.076   5.230   3.843
 3008WAT      O12737   5.573   6.359   3.256
 3008WAT     H112738   5.608   6.341   3.334
 3008WAT     H212739   5.489   6.338   3.266
 3008WAT    EPW12740   5.566   6.353   3.269
 3009WAT      O12741   6.425   5.284   4.118
 3009WAT     H112742   6.500   5.245   4.140
 3009WAT     H212743   6.439   5.368   4.137
 3009WAT    EPW12744   6.438   5.291   4.124
 3010WAT      O12745   5.605   5.862   4.531
 3010WAT     H112746   5.563   5.934   4.557
 3010WAT     H212747   5.546   5.819   4.484
 3010WAT    EPW12748   5.590   5.867   4.528
 3011WAT      O12749   6.511   5.696   3.906
 3011WAT     H112750   6.569   5.758   3.927
 3011WAT     H212751   6.454   5.739   3.855
 3011WAT    EPW12752   6.511   5.712   3.901
 3012WAT      O12753   6.541   6.514   3.662
 3012WAT     H112754   6.526   6.437   3.699
 3012WAT     H212755   6.574   6.493   3.584
 3012WAT    EPW12756   6.543   6.500   3.656
 3013WAT      O12757   5.315   6.267   3.305
 3013WAT     H112758   5.314   6.250   3.391
 3013WAT     H212759   5.336   6.190   3.270
 3013WAT    EPW12760   5.318   6.253   3.313
 3014WAT      O12761   5.656   6.119   3.126
 3014WAT     H112762   5.581   6.077   3.143
 3014WAT     H212763   5.644   6.198   3.161
 3014WAT    EPW12764   5.643   6.125   3.134
 3015WAT      O12765   5.564   5.190   4.376
 3015WAT     H112766   5.487   5.155   4.397
 3015WAT     H212767   5.622   5.130   4.401
 3015WAT    EPW12768   5.561   5.176   4.383
 3016WAT      O12769   6.727   5.001   4.381
 3016WAT     H112770   6.688   4.983   4.457
 3016WAT     H212771   6.811   4.983   4.397
 3016WAT    EPW12772   6.733   4.996   4.395
 3017WAT      O12773   5.915   5.190   4.201
 3017WAT     H112774   5.863   5.123   4.183
 3017WAT     H212775   5.995   5.158   4.184
 3017WAT    EPW12776   5.919   5.175   4.196
 3018WAT      O12777   6.276   6.305   4.322
 3018WAT     H112778   6.294   6.371   4.377
 3018WAT     H212779   6.274   6.343   4.244
 3018WAT    EPW12780   6.278   6.320   4.319
 3019WAT      O12781   6.227   6.720   4.778
 3019WAT     H112782   6.156   6.681   4.746
 3019WAT     H212783   6.203   6.803   4.788
 3019WAT    EPW12784   6.213   6.727   4.774
 3020WAT      O12785   5.735   5.683   4.724
 3020WAT     H112786   5.701   5.611   4.689
 3020WAT     H212787   5.702   5.747   4.676
 3020WAT    EPW12788   5.725   5.682   4.712
 3021WAT      O12789   5.814   5.004   3.284
 3021WAT     H112790   5.830   5.012   3.198
 3021WAT     H212791   5.727   4.996   3.287
 3021WAT    EPW12792   5.803   5.004   3.272
 3022WAT      O12793   6.684   6.157   4.270
 3022WAT     H112794   6.668   6.072   4.260
 3022WAT     H212795   6.632   6.194   4.211
 3022WAT    EPW12796   6.674   6.150   4.260
 3023WAT      O12797   5.632   6.643   4.699
 3023WAT     H112798   5.616   6.649   4.784
 3023WAT     H212799   5.685   6.574   4.693
 3023WAT    EPW12800   5.637   6.634   4.711
 3024WAT      O12801   6.588   6.501   4.149
 3024WAT     H112802   6.667   6.487   4.115
 3024WAT     H212803   6.545   6.428   4.132
 3024WAT    EPW12804   6.594   6.488   4.141
 3025WAT      O12805   5.303   5.130   4.478
 3025WAT     H112806   5.254   5.061   4.456
 3025WAT     H212807   5.248   5.197   4.473
 3025WAT    EPW12808   5.288   5.130   4.474
 3026WAT      O12809   6.176   5.139   4.098
 3026WAT     H112810   6.245   5.188   4.118
 3026WAT     H212811   6.148   5.173   4.023
 3026WAT    EPW12812   6.182   5.152   4.090
 3027WAT      O12813   5.338   6.523   4.848
 3027WAT     H112814   5.410   6.557   4.885
 3027WAT     H212815   5.300   6.592   4.811
 3027WAT    EPW12816   5.343   6.538   4.848
 3028WAT      O12817   6.173   5.602   3.848
 3028WAT     H112818   6.227   5.535   3.859
 3028WAT     H212819   6.137   5.612   3.927
 3028WAT    EPW12820   6.176   5.594   3.861
 3029WAT      O12821   5.127   5.430   3.760
 3029WAT     H112822   5.078   5.455   3.828
 3029WAT     H212823   5.176   5.366   3.793
 3029WAT    EPW12824   5.127   5.424   3.775
 3030WAT      O12825   5.165   6.298   4.558
 3030WAT     H112826   5.119   6.356   4.604
 3030WAT     H212827   5.246   6.331   4.558
 3030WAT    EPW12828   5.170   6.312   4.565
 3031WAT      O12829   6.370   5.764   3.466
 3031WAT     H112830   6.394   5.682   3.486
 3031WAT     H212831   6.294   5.754   3.425
 3031WAT    EPW12832   6.362   5.750   3.463
 3032WAT      O12833   5.407   6.630   3.479
 3032WAT     H112834   5.419   6.692   3.419
 3032WAT     H212835   5.485   6.593   3.487
 3032WAT    EPW12836   5.420   6.634   3.471
 3033WAT      O12837   5.757   5.828   3.391
 3033WAT     H112838   5.788   5.852   3.313
 3033WAT     H212839   5.830   5.818   3.439
 3033WAT    EPW12840   5.773   5.830   3.387
 3034WAT      O12841   6.624   6.701   3.108
 3034WAT     H112842   6.696   6.691   3.156
 3034WAT     H212843   6.605   6.621   3.081
 3034WAT    EPW12844   6.632   6.688   3.111
 3035WAT      O12845   6.661   5.956   4.800
 3035WAT     H112846   6.730   5.917   4.837
 3035WAT     H212847   6.694   5.995   4.730
 3035WAT    EPW12848   6.676   5.956   4.795
 3036WAT      O12849   6.282   6.323   3.431
 3036WAT     H112850   6.256   6.336   3.513
 3036WAT     H212851   6.214   6.285   3.393
 3036WAT    EPW12852   6.268   6.319   3.437
 3037WAT      O12853   6.705   5.398   4.927
 3037WAT     H112854   6.696   5.478   4.960
 3037WAT     H212855   6.630   5.385   4.885
 3037WAT    EPW12856   6.693   5.408   4.926
 3038WAT      O12857   6.748   5.509   4.215
 3038WAT     H112858   6.666   5.534   4.198
 3038WAT     H212859   6.742   5.422   4.222
 3038WAT    EPW12860   6.735   5.500   4.214
 3039WAT      O12861   5.678   5.206   4.717
 3039WAT     H112862   5.712   5.171   4.645
 3039WAT     H212863   5.598   5.173   4.721
 3039WAT    EPW12864   5.671   5.196   4.707
 3040WAT      O12865   6.437   6.007   5.035
 3040WAT     H112866   6.512   6.033   5.069
 3040WAT     H212867   6.443   6.030   4.951
 3040WAT    EPW12868   6.449   6.014   5.027
 3041WAT      O12869   5.376   6.539   4.092
 3041WAT     H112870   5.378   6.463   4.050
 3041WAT     H212871   5.338   6.593   4.036
 3041WAT    EPW12872   5.371   6.536   4.077
 3042WAT      O12873   6.054   6.216   3.315
 3042WAT     H112874   6.085   6.148   3.270
 3042WAT     H212875   6.017   6.266   3.254
 3042WAT    EPW12876   6.053   6.213   3.299
 3043WAT      O12877   5.144   6.773   4.443
 3043WAT     H112878   5.159   6.755   4.527
 3043WAT     H212879   5.177   6.703   4.401
 3043WAT    EPW12880   5.151   6.760   4.449
 3044WAT      O12881   6.132   5.027   1.762
 3044WAT     H112882   6.121   5.068   1.685
 3044WAT     H212883   6.217   5.007   1.762
 3044WAT    EPW12884   6.143   5.030   1.750
 3045WAT      O12885   6.096   5.626   2.253
 3045WAT     H112886   6.059   5.705   2.261
 3045WAT     H212887   6.131   5.612   2.331
 3045WAT    EPW12888   6.096   5.636   2.266
 3046WAT      O12889   5.044   6.097   1.717
 3046WAT     H112890   4.977   6.094   1.773
 3046WAT     H212891   5.056   6.013   1.694
 3046WAT    EPW12892   5.036   6.084   1.722
 3047WAT      O12893   6.691   6.488   1.543
 3047WAT     H112894   6.761   6.439   1.562
 3047WAT     H212895   6.642   6.435   1.494
 3047WAT    EPW12896   6.694   6.473   1.538
 3048WAT      O12897   5.038   5.441   1.381
 3048WAT     H112898   4.974   5.491   1.350
 3048WAT     H212899   5.009   5.360   1.367
 3048WAT    EPW12900   5.025   5.436   1.374
 3049WAT      O12901   5.322   6.050   1.318
 3049WAT     H112902   5.300   6.009   1.244
 3049WAT     H212903   5.333   5.985   1.375
 3049WAT    EPW12904   5.321   6.034   1.316
 3050WAT      O12905   6.327   5.822   1.871
 3050WAT     H112906   6.333   5.803   1.786
 3050WAT     H212907   6.274   5.760   1.902
 3050WAT    EPW12908   6.320   5.810   1.863
 3051WAT      O12909   5.296   6.222   1.717
 3051WAT     H112910   5.350   6.181   1.772
 3051WAT     H212911   5.221   6.179   1.725
 3051WAT    EPW12912   5.293   6.209   1.726
 3052WAT      O12913   5.782   5.147   1.664
 3052WAT     H112914   5.769   5.218   1.615
 3052WAT     H212915   5.855   5.112   1.632
 3052WAT    EPW12916   5.791   5.152   1.652
 3053WAT      O12917   5.205   6.508   1.323
 3053WAT     H112918   5.248   6.515   1.247
 3053WAT     H212919   5.235   6.434   1.357
 3053WAT    EPW12920   5.216   6.498   1.317
 3054WAT      O12921   5.119   6.320   2.435
 3054WAT     H112922   5.144   6.304   2.517
 3054WAT     H212923   5.050   6.267   2.423
 3054WAT    EPW12924   5.112   6.310   2.445
 3055WAT      O12925   5.731   6.157   2.859
 3055WAT     H112926   5.713   6.140   2.943
 3055WAT     H212927   5.659   6.132   2.817
 3055WAT    EPW12928   5.718   6.151   2.865
 3056WAT      O12929   5.254   5.847   1.890
 3056WAT     H112930   5.206   5.845   1.817
 3056WAT     H212931   5.310   5.780   1.880
 3056WAT    EPW12932   5.255   5.837   1.878
 3057WAT      O12933   5.703   5.402   2.441
 3057WAT     H112934   5.771   5.409   2.387
 3057WAT     H212935   5.685   5.317   2.441
 3057WAT    EPW12936   5.710   5.390   2.433
 3058WAT      O12937   5.694   6.405   2.615
 3058WAT     H112938   5.671   6.481   2.580
 3058WAT     H212939   5.780   6.415   2.629
 3058WAT    EPW12940   5.704   6.417   2.612
 3059WAT      O12941   5.430   5.630   1.886
 3059WAT     H112942   5.496   5.578   1.907
 3059WAT     H212943   5.361   5.576   1.886
 3059WAT    EPW12944   5.429   5.615   1.889
 3060WAT      O12945   5.832   6.291   2.053
 3060WAT     H112946   5.861   6.210   2.066
 3060WAT     H212947   5.905   6.337   2.036
 3060WAT    EPW12948   5.847   6.286   2.053
 3061WAT      O12949   5.914   6.225   1.658
 3061WAT     H112950   5.944   6.158   1.705
 3061WAT     H212951   5.923   6.199   1.576
 3061WAT    EPW12952   5.920   6.211   1.653
 3062WAT      O12953   5.997   5.620   2.744
 3062WAT     H112954   5.911   5.619   2.755
 3062WAT     H212955   6.025   5.678   2.803
 3062WAT    EPW12956   5.989   5.628   2.754
 3063WAT      O12957   5.506   5.140   1.743
 3063WAT     H112958   5.469   5.198   1.689
 3063WAT     H212959   5.590   5.140   1.718
 3063WAT    EPW12960   5.513   5.149   1.731
 3064WAT      O12961   6.440   4.918   2.740
 3064WAT     H112962   6.417   4.979   2.681
 3064WAT     H212963   6.364   4.888   2.769
 3064WAT    EPW12964   6.425   4.922   2.735
 3065WAT      O12965   5.814   5.081   1.936
 3065WAT     H112966   5.832   5.160   1.969
 3065WAT     H212967   5.797   5.097   1.852
 3065WAT    EPW12968   5.814   5.095   1.929
 3066WAT      O12969   6.211   5.305   1.162
 3066WAT     H112970   6.171   5.373   1.200
 3066WAT     H212971   6.230   5.253   1.229
 3066WAT    EPW12972   6.208   5.308   1.177
 3067WAT      O12973   5.085   5.591   2.139
 3067WAT     H112974   5.084   5.678   2.149
 3067WAT     H212975   5.014   5.564   2.181
 3067WAT    EPW12976   5.074   5.600   2.147
 3068WAT      O12977   5.078   6.559   1.972
 3068WAT     H112978   5.012   6.607   1.942
 3068WAT     H212979   5.113   6.525   1.899
 3068WAT    EPW12980   5.074   6.561   1.957
 3069WAT      O12981   5.640   6.252   1.669
 3069WAT     H112982   5.619   6.271   1.752
 3069WAT     H212983   5.727   6.243   1.673
 3069WAT    EPW12984   5.650   6.254   1.682
 3070WAT      O12985   6.256   6.589   1.435
 3070WAT     H112986   6.329   6.637   1.432
 3070WAT     H212987   6.284   6.511   1.461
 3070WAT    EPW12988   6.271   6.585   1.439
 3071WAT      O12989   6.087   6.661   1.641
 3071WAT     H112990   6.116   6.738   1.671
 3071WAT     H212991   6.140   6.644   1.574
 3071WAT    EPW12992   6.099   6.670   1.636
 3072WAT      O12993   5.307   5.086   2.148
 3072WAT     H112994   5.281   5.014   2.107
 3072WAT     H212995   5.361   5.056   2.210
 3072WAT    EPW12996   5.311   5.071   2.151
 3073WAT      O12997   5.679   5.300   3.108
 3073WAT     H112998   5.678   5.263   3.029
 3073WAT     H212999   5.723   5.374   3.096
 3073WAT    EPW13000   5.685   5.305   3.095
 3074WAT      O13001   5.201   6.481   1.729
 3074WAT     H113002   5.247   6.408   1.741
 3074WAT     H213003   5.255   6.531   1.682
 3074WAT    EPW13004   5.216   6.478   1.724
 3075WAT      O13005   6.802   5.277   1.865
 3075WAT     H113006   6.755   5.349   1.876
 3075WAT     H213007   6.743   5.217   1.843
 3075WAT    EPW13008   6.787   5.278   1.864
 3076WAT      O13009   6.288   6.617   2.442
 3076WAT     H113010   6.357   6.668   2.432
 3076WAT     H213011   6.273   6.586   2.362
 3076WAT    EPW13012   6.296   6.620   2.429
 3077WAT      O13013   5.279   5.203   3.024
 3077WAT     H113014   5.201   5.165   3.030
 3077WAT     H213015   5.321   5.157   2.963
 3077WAT    EPW13016   5.274   5.191   3.016
 3078WAT      O13017   5.360   6.277   2.099
 3078WAT     H113018   5.416   6.266   2.032
 3078WAT     H213019   5.390   6.223   2.160
 3078WAT    EPW13020   5.373   6.268   2.098
 3079WAT      O13021   5.638   6.604   1.935
 3079WAT     H113022   5.719   6.627   1.911
 3079WAT     H213023   5.588   6.656   1.885
 3079WAT    EPW13024   5.643   6.615   1.924
 3080WAT      O13025   5.856   5.022   3.011
 3080WAT     H113026   5.862   4.949   2.964
 3080WAT     H213027   5.796   5.069   2.968
 3080WAT    EPW13028   5.848   5.018   2.998
 3081WAT      O13029   5.985   5.550   1.812
 3081WAT     H113030   6.014   5.509   1.741
 3081WAT     H213031   6.057   5.563   1.859
 3081WAT    EPW13032   6.000   5.546   1.809
 3082WAT      O13033   6.074   5.509   1.300
 3082WAT     H113034   6.101   5.587   1.325
 3082WAT     H213035   5.998   5.525   1.260
 3082WAT    EPW13036   6.067   5.523   1.297
 3083WAT      O13037   6.468   6.770   1.398
 3083WAT     H113038   6.515   6.749   1.327
 3083WAT     H213039   6.523   6.816   1.446
 3083WAT    EPW13040   6.483   6.773   1.394
 3084WAT      O13041   5.542   6.639   2.562
 3084WAT     H113042   5.549   6.648   2.648
 3084WAT     H213043   5.464   6.601   2.551
 3084WAT    EPW13044   5.532   6.635   2.573
 3085WAT      O13045   6.686   5.240   2.310
 3085WAT     H113046   6.747   5.226   2.249
 3085WAT     H213047   6.712   5.192   2.377
 3085WAT    EPW13048   6.699   5.231   2.311
 3086WAT      O13049   4.962   5.331   2.714
 3086WAT     H113050   4.973   5.390   2.778
 3086WAT     H213051   5.033   5.342   2.665
 3086WAT    EPW13052   4.975   5.342   2.716
 3087WAT      O13053   6.174   6.386   2.818
 3087WAT     H113054   6.170   6.413   2.901
 3087WAT     H213055   6.260   6.383   2.801
 3087WAT    EPW13056   6.186   6.390   2.828
 3088WAT      O13057   5.927   6.415   1.275
 3088WAT     H113058   5.907   6.471   1.339
 3088WAT     H213059   6.001   6.448   1.242
 3088WAT    EPW13060   5.935   6.428   1.279
 3089WAT      O13061   6.265   5.137   1.377
 3089WAT     H113062   6.325   5.074   1.374
 3089WAT     H213063   6.289   5.186   1.445
 3089WAT    EPW13064   6.277   5.135   1.386
 3090WAT      O13065   5.122   5.236   1.657
 3090WAT     H113066   5.098   5.154   1.638
 3090WAT     H213067   5.073   5.256   1.727
 3090WAT    EPW13068   5.111   5.227   1.665
 3091WAT      O13069   5.296   6.543   2.440
 3091WAT     H113070   5.244   6.472   2.440
 3091WAT     H213071   5.335   6.539   2.363
 3091WAT    EPW13072   5.294   6.532   2.429
 3092WAT      O13073   6.046   5.422   1.566
 3092WAT     H113074   5.972   5.377   1.554
 3092WAT     H213075   6.062   5.455   1.487
 3092WAT    EPW13076   6.038   5.420   1.552
 3093WAT      O13077   6.041   6.663   2.549
 3093WAT     H113078   6.120   6.654   2.512
 3093WAT     H213079   5.987   6.665   2.481
 3093WAT    EPW13080   6.045   6.662   2.534
 3094WAT      O13081   6.021   5.091   1.508
 3094WAT     H113082   5.962   5.061   1.452
 3094WAT     H213083   6.092   5.106   1.459
 3094WAT    EPW13084   6.023   5.089   1.493
 3095WAT      O13085   6.765   6.696   1.806
 3095WAT     H113086   6.727   6.773   1.822
 3095WAT     H213087   6.698   6.641   1.800
 3095WAT    EPW13088   6.750   6.700   1.808
 3096WAT      O13089   5.877   5.353   1.985
 3096WAT     H113090   5.902   5.420   1.934
 3096WAT     H213091   5.886   5.386   2.066
 3096WAT    EPW13092   5.882   5.368   1.989
 3097WAT      O13093   6.500   6.275   1.893
 3097WAT     H113094   6.563   6.217   1.875
 3097WAT     H213095   6.427   6.229   1.885
 3097WAT    EPW13096   6.499   6.260   1.889
 3098WAT      O13097   5.446   6.367   2.752
 3098WAT     H113098   5.523   6.393   2.722
 3098WAT     H213099   5.433   6.417   2.822
 3098WAT    EPW13100   5.455   6.378   2.758
 3099WAT      O13101   5.434   4.879   1.807
 3099WAT     H113102   5.454   4.963   1.793
 3099WAT     H213103   5.411   4.850   1.728
 3099WAT    EPW13104   5.434   4.887   1.793
 3100WAT      O13105   5.654   5.954   2.158
 3100WAT     H113106   5.677   5.933   2.239
 3100WAT     H213107   5.594   5.894   2.138
 3100WAT    EPW13108   5.648   5.942   2.167
 3101WAT      O13109   5.746   5.938   2.418
 3101WAT     H113110   5.743   6.025   2.429
 3101WAT     H213111   5.716   5.907   2.494
 3101WAT    EPW13112   5.741   5.946   2.431
 3102WAT      O13113   6.343   6.060   2.416
 3102WAT     H113114   6.271   6.027   2.451
 3102WAT     H213115   6.334   6.146   2.426
 3102WAT    EPW13116   6.331   6.068   2.423
 3103WAT      O13117   6.389   4.927   1.797
 3103WAT     H113118   6.387   4.915   1.884
 3103WAT     H213119   6.422   4.852   1.767
 3103WAT    EPW13120   6.394   4.914   1.806
 3104WAT      O13121   4.957   6.336   3.032
 3104WAT     H113122   5.019   6.378   3.077
 3104WAT     H213123   4.954   6.257   3.070
 3104WAT    EPW13124   4.966   6.331   3.044
 3105WAT      O13125   6.559   5.368   2.628
 3105WAT     H113126   6.645   5.360   2.641
 3105WAT     H213127   6.525   5.362   2.708
 3105WAT    EPW13128   6.567   5.366   2.642
 3106WAT      O13129   5.397   5.273   1.965
 3106WAT     H113130   5.425   5.224   1.899
 3106WAT     H213131   5.373   5.215   2.025
 3106WAT    EPW13132   5.397   5.257   1.964
 3107WAT      O13133   6.662   6.061   1.405
 3107WAT     H113134   6.660   6.013   1.478
 3107WAT     H213135   6.747   6.075   1.392
 3107WAT    EPW13136   6.674   6.056   1.414
 3108WAT      O13137   5.439   6.055   1.885
 3108WAT     H113138   5.487   6.022   1.820
 3108WAT     H213139   5.379   5.994   1.899
 3108WAT    EPW13140   5.437   6.041   1.877
 3109WAT      O13141   5.304   6.708   2.029
 3109WAT     H113142   5.228   6.669   2.011
 3109WAT     H213143   5.341   6.717   1.950
 3109WAT    EPW13144   5.298   6.704   2.014
 3110WAT      O13145   5.261   5.473   2.326
 3110WAT     H113146   5.342   5.483   2.294
 3110WAT     H213147   5.210   5.500   2.262
 3110WAT    EPW13148   5.266   5.478   2.312
 3111WAT      O13149   6.846   6.486   2.777
 3111WAT     H113150   6.772   6.493   2.731
 3111WAT     H213151   6.823   6.438   2.846
 3111WAT    EPW13152   6.832   6.480   2.780
 3112WAT      O13153   6.470   5.746   1.325
 3112WAT     H113154   6.464   5.828   1.296
 3112WAT     H213155   6.442   5.751   1.408
 3112WAT    EPW13156   6.465   5.759   1.333
 3113WAT      O13157   5.555   5.987   1.639
 3113WAT     H113158   5.581   6.070   1.634
 3113WAT     H213159   5.626   5.943   1.613
 3113WAT    EPW13160   5.569   5.993   1.634
 3114WAT      O13161   6.797   5.203   1.268
 3114WAT     H113162   6.839   5.153   1.210
 3114WAT     H213163   6.752   5.259   1.219
 3114WAT    EPW13164   6.797   5.204   1.252
 3115WAT      O13165   5.102   6.165   2.094
 3115WAT     H113166   5.051   6.231   2.118
 3115WAT     H213167   5.181   6.202   2.087
 3115WAT    EPW13168   5.106   6.180   2.096
 3116WAT      O13169   5.817   5.541   3.078
 3116WAT     H113170   5.767   5.572   3.142
 3116WAT     H213171   5.789   5.582   3.007
 3116WAT    EPW13172   5.806   5.551   3.077
 3117WAT      O13173   6.883   5.626   2.512
 3117WAT     H113174   6.944   5.564   2.518
 3117WAT     H213175   6.833   5.600   2.445
 3117WAT    EPW13176   6.885   5.613   2.503
 3118WAT      O13177   5.116   5.834   1.652
 3118WAT     H113178   5.099   5.748   1.651
 3118WAT     H213179   5.186   5.842   1.600
 3118WAT    EPW13180   5.124   5.822   1.644
 3119WAT      O13181   6.667   5.094   1.494
 3119WAT     H113182   6.739   5.056   1.525
 3119WAT     H213183   6.695   5.137   1.423
 3119WAT    EPW13184   6.682   5.095   1.488
 3120WAT      O13185   6.051   6.453   1.995
 3120WAT     H113186   6.008   6.525   1.971
 3120WAT     H213187   6.087   6.425   1.920
 3120WAT    EPW13188   6.050   6.460   1.980
 3121WAT      O13189   5.031   6.328   1.570
 3121WAT     H113190   5.085   6.379   1.616
 3121WAT     H213191   5.024   6.256   1.619
 3121WAT    EPW13192   5.038   6.325   1.584
 3122WAT      O13193   5.469   6.111   2.291
 3122WAT     H113194   5.526   6.148   2.346
 3122WAT     H213195   5.521   6.065   2.238
 3122WAT    EPW13196   5.485   6.110   2.291
 3123WAT      O13197   6.353   5.374   2.001
 3123WAT     H113198   6.374   5.350   2.082
 3123WAT     H213199   6.289   5.318   1.979
 3123WAT    EPW13200   6.346   5.362   2.010
 3124WAT      O13201   5.051   6.161   1.341
 3124WAT     H113202   5.127   6.118   1.337
 3124WAT     H213203   5.060   6.212   1.411
 3124WAT    EPW13204   5.063   6.162   1.351
 3125WAT      O13205   5.114   5.891   2.125
 3125WAT     H113206   5.161   5.872   2.054
 3125WAT     H213207   5.109   5.978   2.123
 3125WAT    EPW13208   5.121   5.901   2.114
 3126WAT      O13209   5.776   5.353   1.480
 3126WAT     H113210   5.762   5.318   1.401
 3126WAT     H213211   5.743   5.433   1.473
 3126WAT    EPW13212   5.769   5.360   1.467
 3127WAT      O13213   6.608   6.524   2.620
 3127WAT     H113214   6.568   6.601   2.632
 3127WAT     H213215   6.608   6.515   2.533
 3127WAT    EPW13216   6.602   6.534   2.609
 3128WAT      O13217   5.588   6.336   1.927
 3128WAT     H113218   5.596   6.422   1.928
 3128WAT     H213219   5.661   6.307   1.965
 3128WAT    EPW13220   5.600   6.344   1.933
 3129WAT      O13221   5.356   5.656   2.962
 3129WAT     H113222   5.316   5.595   3.009
 3129WAT     H213223   5.356   5.623   2.882
 3129WAT    EPW13224   5.350   5.642   2.957
 3130WAT      O13225   5.397   5.577   1.464
 3130WAT     H113226   5.385   5.509   1.518
 3130WAT     H213227   5.358   5.552   1.390
 3130WAT    EPW13228   5.389   5.564   1.461
 3131WAT      O13229   5.460   5.764   2.130
 3131WAT     H113230   5.446   5.729   2.051
 3131WAT     H213231   5.481   5.695   2.179
 3131WAT    EPW13232   5.461   5.748   2.125
 3132WAT      O13233   5.435   5.722   2.483
 3132WAT     H113234   5.458   5.669   2.418
 3132WAT     H213235   5.382   5.780   2.445
 3132WAT    EPW13236   5.431   5.723   2.468
 3133WAT      O13237   6.474   5.577   2.268
 3133WAT     H113238   6.478   5.627   2.339
 3133WAT     H213239   6.480   5.634   2.202
 3133WAT    EPW13240   6.476   5.593   2.269
 3134WAT      O13241   5.831   6.658   2.373
 3134WAT     H113242   5.792   6.588   2.338
 3134WAT     H213243   5.820   6.720   2.312
 3134WAT    EPW13244   5.823   6.657   2.359
 3135WAT      O13245   6.077   5.073   2.649
 3135WAT     H113246   6.084   4.989   2.628
 3135WAT     H213247   6.092   5.075   2.734
 3135WAT    EPW13248   6.080   5.061   2.658
 3136WAT      O13249   6.295   5.293   1.601
 3136WAT     H113250   6.355   5.356   1.613
 3136WAT     H213251   6.220   5.337   1.599
 3136WAT    EPW13252   6.293   5.309   1.603
 3137WAT      O13253   5.244   5.905   3.004
 3137WAT     H113254   5.239   5.943   2.926
 3137WAT     H213255   5.286   5.830   2.988
 3137WAT    EPW13256   5.250   5.899   2.990
 3138WAT      O13257   6.393   6.108   2.865
 3138WAT     H113258   6.414   6.189   2.843
 3138WAT     H213259   6.428   6.060   2.801
 3138WAT    EPW13260   6.401   6.113   2.852
 3139WAT      O13261   5.811   6.425   2.902
 3139WAT     H113262   5.845   6.416   2.982
 3139WAT     H213263   5.786   6.344   2.881
 3139WAT    EPW13264   5.813   6.412   2.910
 3140WAT      O13265   5.910   5.421   2.251
 3140WAT     H113266   5.966   5.487   2.255
 3140WAT     H213267   5.958   5.351   2.274
 3140WAT    EPW13268   5.925   5.420   2.255
 3141WAT      O13269   6.150   5.745   1.431
 3141WAT     H113270   6.132   5.801   1.366
 3141WAT     H213271   6.092   5.767   1.492
 3141WAT    EPW13272   6.139   5.757   1.430
 3142WAT      O13273   6.684   6.071   1.845
 3142WAT     H113274   6.688   6.024   1.919
 3142WAT     H213275   6.659   6.012   1.785
 3142WAT    EPW13276   6.681   6.055   1.847
 3143WAT      O13277   6.242   6.482   2.198
 3143WAT     H113278   6.179   6.468   2.140
 3143WAT     H213279   6.291   6.544   2.162
 3143WAT    EPW13280   6.240   6.489   2.184
 3144WAT      O13281   6.223   6.142   2.175
 3144WAT     H113282   6.149   6.172   2.209
 3144WAT     H213283   6.260   6.098   2.240
 3144WAT    EPW13284   6.218   6.140   2.189
 3145WAT      O13285   5.618   6.502   1.556
 3145WAT     H113286   5.629   6.426   1.598
 3145WAT     H213287   5.699   6.533   1.548
 3145WAT    EPW13288   5.632   6.495   1.561
 3146WAT      O13289   5.536   4.949   1.385
 3146WAT     H113290   5.487   4.915   1.449
 3146WAT     H213291   5.501   5.029   1.374
 3146WAT    EPW13292   5.523   4.956   1.393
 3147WAT      O13293   5.868   6.597   1.479
 3147WAT     H113294   5.934   6.620   1.531
 3147WAT     H213295   5.850   6.670   1.435
 3147WAT    EPW13296   5.875   6.611   1.480
 3148WAT      O13297   6.478   5.965   2.639
 3148WAT     H113298   6.443   6.008   2.572
 3148WAT     H213299   6.562   5.989   2.637
 3148WAT    EPW13300   6.485   5.975   2.629
 3149WAT      O13301   6.184   6.525   3.068
 3149WAT     H113302   6.212   6.545   3.148
 3149WAT     H213303   6.210   6.593   3.019
 3149WAT    EPW13304   6.192   6.538   3.072
 3150WAT      O13305   6.595   5.058   2.919
 3150WAT     H113306   6.549   5.012   2.862
 3150WAT     H213307   6.604   5.004   2.987
 3150WAT    EPW13308   6.590   5.044   2.921
 3151WAT      O13309   5.349   5.853   1.509
 3151WAT     H113310   5.370   5.768   1.500
 3151WAT     H213311   5.415   5.886   1.555
 3151WAT    EPW13312   5.362   5.845   1.514
 3152WAT      O13313   6.123   5.951   2.538
 3152WAT     H113314   6.067   5.998   2.586
 3152WAT     H213315   6.153   5.892   2.594
 3152WAT    EPW13316   6.119   5.949   2.553
 3153WAT      O13317   5.024   4.974   1.604
 3153WAT     H113318   5.021   4.921   1.535
 3153WAT     H213319   4.988   4.927   1.668
 3153WAT    EPW13320   5.018   4.959   1.603
 3154WAT      O13321   5.999   5.791   1.664
 3154WAT     H113322   6.010   5.859   1.717
 3154WAT     H213323   5.987   5.724   1.719
 3154WAT    EPW13324   5.999   5.791   1.680
 3155WAT      O13325   6.488   6.272   2.179
 3155WAT     H113326   6.509   6.282   2.094
 3155WAT     H213327   6.402   6.257   2.177
 3155WAT    EPW13328   6.478   6.271   2.166
 3156WAT      O13329   5.449   5.207   1.335
 3156WAT     H113330   5.389   5.211   1.271
 3156WAT     H213331   5.518   5.248   1.300
 3156WAT    EPW13332   5.450   5.214   1.320
 3157WAT      O13333   5.906   6.021   2.069
 3157WAT     H113334   5.824   5.996   2.083
 3157WAT     H213335   5.950   5.988   2.137
 3157WAT    EPW13336   5.901   6.012   2.081
 3158WAT      O13337   5.567   6.634   1.158
 3158WAT     H113338   5.587   6.557   1.196
 3158WAT     H213339   5.559   6.688   1.226
 3158WAT    EPW13340   5.569   6.630   1.174
 3159WAT      O13341   5.273   5.917   2.362
 3159WAT     H113342   5.327   5.983   2.345
 3159WAT     H213343   5.236   5.900   2.285
 3159WAT    EPW13344   5.275   5.924   2.348
 3160WAT      O13345   5.604   5.447   2.016
 3160WAT     H113346   5.680   5.409   1.996
 3160WAT     H213347   5.546   5.383   2.001
 3160WAT    EPW13348   5.607   5.432   2.011
 3161WAT      O13349   6.841   6.656   1.383
 3161WAT     H113350   6.908   6.606   1.357
 3161WAT     H213351   6.793   6.602   1.433
 3161WAT    EPW13352   6.844   6.641   1.387
 3162WAT      O13353   5.084   5.553   1.657
 3162WAT     H113354   5.115   5.519   1.731
 3162WAT     H213355   5.091   5.488   1.599
 3162WAT    EPW13356   5.090   5.539   1.659
 3163WAT      O13357   6.580   5.919   2.337
 3163WAT     H113358   6.588   5.864   2.404
 3163WAT     H213359   6.503   5.956   2.350
 3163WAT    EPW13360   6.570   5.916   2.349
 3164WAT      O13361   5.584   5.804   1.224
 3164WAT     H113362   5.590   5.741   1.283
 3164WAT     H213363   5.531   5.770   1.163
 3164WAT    EPW13364   5.577   5.790   1.224
 3165WAT      O13365   5.229   6.018   2.754
 3165WAT     H113366   5.185   5.970   2.696
 3165WAT     H213367   5.200   6.099   2.739
 3165WAT    EPW13368   5.218   6.023   2.743
 3166WAT      O13369   6.699   5.915   2.079
 3166WAT     H113370   6.667   5.926   2.159
 3166WAT     H213371   6.785   5.909   2.092
 3166WAT    EPW13372   6.707   5.915   2.093
 3167WAT      O13373   5.664   5.606   1.417
 3167WAT     H113374   5.690   5.672   1.468
 3167WAT     H213375   5.581   5.594   1.441
 3167WAT    EPW13376   5.655   5.614   1.428
 3168WAT      O13377   6.478   5.313   2.893
 3168WAT     H113378   6.405   5.323   2.940
 3168WAT     H213379   6.501   5.230   2.908
 3168WAT    EPW13380   6.470   5.302   2.902
 3169WAT      O13381   5.073   5.254   2.129
 3169WAT     H113382   5.048   5.248   2.045
 3169WAT     H213383   5.142   5.201   2.133
 3169WAT    EPW13384   5.079   5.245   2.117
 3170WAT      O13385   6.826   6.422   2.159
 3170WAT     H113386   6.869   6.465   2.096
 3170WAT     H213387   6.885   6.414   2.223
 3170WAT    EPW13388   6.841   6.427   2.159
 3171WAT      O13389   6.312   5.689   2.961
 3171WAT     H113390   6.350   5.691   3.039
 3171WAT     H213391   6.229   5.712   2.978
 3171WAT    EPW13392   6.305   5.693   2.975
 3172WAT      O13393   6.558   5.709   2.815
 3172WAT     H113394   6.581   5.790   2.838
 3172WAT     H213395   6.487   5.693   2.863
 3172WAT    EPW13396   6.551   5.718   2.825
 3173WAT      O13397   6.542   6.310   1.402
 3173WAT     H113398   6.574   6.229   1.410
 3173WAT     H213399   6.465   6.305   1.443
 3173WAT    EPW13400   6.535   6.297   1.409
 3174WAT      O13401   6.593   5.468   1.898
 3174WAT     H113402   6.524   5.425   1.930
 3174WAT     H213403   6.588   5.546   1.937
 3174WAT    EPW13404   6.582   5.473   1.909
 3175WAT      O13405   6.862   5.777   2.992
 3175WAT     H113406   6.869   5.721   2.925
 3175WAT     H213407   6.941   5.814   2.996
 3175WAT    EPW13408   6.875   5.774   2.983
 3176WAT      O13409   6.740   6.053   2.626
 3176WAT     H113410   6.805   6.004   2.596
 3176WAT     H213411   6.730   6.114   2.565
 3176WAT    EPW13412   6.748   6.054   2.613
 3177WAT      O13413   6.213   6.137   1.320
 3177WAT     H113414   6.289   6.094   1.311
 3177WAT     H213415   6.184   6.145   1.238
 3177WAT    EPW13416   6.220   6.132   1.306
 3178WAT      O13417   5.716   6.221   2.410
 3178WAT     H113418   5.706   6.265   2.484
 3178WAT     H213419   5.710   6.283   2.348
 3178WAT    EPW13420   5.714   6.236   2.412
 3179WAT      O13421   5.495   6.091   2.720
 3179WAT     H113422   5.415   6.057   2.732
 3179WAT     H213423   5.481   6.178   2.722
 3179WAT    EPW13424   5.481   6.099   2.722
 3180WAT      O13425   6.420   5.128   2.548
 3180WAT     H113426   6.480   5.190   2.562
 3180WAT     H213427   6.459   5.073   2.493
 3180WAT    EPW13428   6.434   5.129   2.542
 3181WAT      O13429   5.990   5.878   2.303
 3181WAT     H113430   6.041   5.906   2.368
 3181WAT     H213431   5.910   5.885   2.335
 3181WAT    EPW13432   5.986   5.883   2.318
 3182WAT      O13433   5.615   5.423   2.708
 3182WAT     H113434   5.635   5.348   2.748
 3182WAT     H213435   5.649   5.413   2.628
 3182WAT    EPW13436   5.623   5.410   2.702
 3183WAT      O13437   5.911   6.670   1.878
 3183WAT     H113438   5.897   6.753   1.902
 3183WAT     H213439   5.955   6.677   1.804
 3183WAT    EPW13440   5.916   6.683   1.871
 3184WAT      O13441   6.554   4.905   2.424
 3184WAT     H113442   6.583   4.861   2.354
 3184WAT     H213443   6.626   4.945   2.454
 3184WAT    EPW13444   6.569   4.904   2.418
 3185WAT      O13445   5.806   5.026   2.666
 3185WAT     H113446   5.888   5.052   2.650
 3185WAT     H213447   5.816   4.947   2.701
 3185WAT    EPW13448   5.819   5.018   2.669
 3186WAT      O13449   5.700   6.444   2.246
 3186WAT     H113450   5.625   6.472   2.212
 3186WAT     H213451   5.741   6.409   2.177
 3186WAT    EPW13452   5.695   6.443   2.231
 3187WAT      O13453   6.125   6.051   2.908
 3187WAT     H113454   6.206   6.076   2.890
 3187WAT     H213455   6.077   6.087   2.844
 3187WAT    EPW13456   6.130   6.060   2.896
 3188WAT      O13457   6.453   6.372   2.796
 3188WAT     H113458   6.488   6.399   2.871
 3188WAT     H213459   6.499   6.413   2.735
 3188WAT    EPW13460   6.465   6.382   2.798
 3189WAT      O13461   6.711   5.620   1.281
 3189WAT     H113462   6.761   5.677   1.238
 3189WAT     H213463   6.634   5.660   1.286
 3189WAT    EPW13464   6.707   5.634   1.275
 3190WAT      O13465   5.839   5.913   1.284
 3190WAT     H113466   5.760   5.900   1.248
 3190WAT     H213467   5.841   5.999   1.300
 3190WAT    EPW13468   5.828   5.924   1.281
 3191WAT      O13469   5.531   5.533   2.270
 3191WAT     H113470   5.559   5.503   2.193
 3191WAT     H213471   5.583   5.494   2.328
 3191WAT    EPW13472   5.543   5.523   2.268
 3192WAT      O13473   6.149   5.388   2.779
 3192WAT     H113474   6.100   5.460   2.781
 3192WAT     H213475   6.174   5.378   2.862
 3192WAT    EPW13476   6.145   5.397   2.791
 3193WAT      O13477   6.170   5.568   2.518
 3193WAT     H113478   6.234   5.618   2.550
 3193WAT     H213479   6.103   5.583   2.572
 3193WAT    EPW13480   6.170   5.577   2.531
 3194WAT      O13481   5.964   6.646   2.817
 3194WAT     H113482   5.975   6.644   2.730
 3194WAT     H213483   5.926   6.570   2.835
 3194WAT    EPW13484   5.960   6.635   2.807
 3195WAT      O13485   6.481   5.506   1.647
 3195WAT     H113486   6.508   5.489   1.728
 3195WAT     H213487   6.552   5.535   1.606
 3195WAT    EPW13488   6.495   5.508   1.653
 3196WAT      O13489   5.799   5.034   2.273
 3196WAT     H113490   5.732   5.060   2.323
 3196WAT     H213491   5.762   5.021   2.195
 3196WAT    EPW13492   5.784   5.036   2.269
 3197WAT      O13493   6.607   5.100   1.770
 3197WAT     H113494   6.530   5.060   1.780
 3197WAT     H213495   6.611   5.115   1.684
 3197WAT    EPW13496   6.596   5.096   1.758
 3198WAT      O13497   6.617   5.899   1.633
 3198WAT     H113498   6.660   5.825   1.617
 3198WAT     H213499   6.533   5.875   1.628
 3198WAT    EPW13500   6.611   5.885   1.630
 3199WAT      O13501   5.956   6.121   2.693
 3199WAT     H113502   5.884   6.121   2.742
 3199WAT     H213503   5.962   6.203   2.665
 3199WAT    EPW13504   5.946   6.133   2.696
 3200WAT      O13505   5.015   5.060   2.763
 3200WAT     H113506   4.993   5.143   2.747
 3200WAT     H213507   5.015   5.055   2.850
 3200WAT    EPW13508   5.011   5.072   2.773
 3201WAT      O13509   5.524   6.773   2.306
 3201WAT     H113510   5.534   6.746   2.388
 3201WAT     H213511   5.503   6.700   2.263
 3201WAT    EPW13512   5.522   6.758   2.312
 3202WAT      O13513   5.374   5.321   1.579
 3202WAT     H113514   5.387   5.284   1.502
 3202WAT     H213515   5.293   5.297   1.601
 3202WAT    EPW13516   5.364   5.312   1.571
 3203WAT      O13517   6.277   6.096   1.905
 3203WAT     H113518   6.258   6.109   1.989
 3203WAT     H213519   6.302   6.012   1.902
 3203WAT    EPW13520   6.278   6.086   1.917
 3204WAT      O13521   6.023   6.024   1.816
 3204WAT     H113522   5.983   6.020   1.893
 3204WAT     H213523   6.103   6.052   1.836
 3204WAT    EPW13524   6.029   6.027   1.830
 3205WAT      O13525   5.985   6.394   2.618
 3205WAT     H113526   6.043   6.390   2.683
 3205WAT     H213527   6.005   6.468   2.577
 3205WAT    EPW13528   5.996   6.404   2.621
 3206WAT      O13529   6.811   5.600   2.779
 3206WAT     H113530   6.728   5.624   2.789
 3206WAT     H213531   6.828   5.617   2.695
 3206WAT    EPW13532   6.801   5.606   2.768
 3207WAT      O13533   6.280   5.774   2.689
 3207WAT     H113534   6.286   5.745   2.771
 3207WAT     H213535   6.350   5.826   2.680
 3207WAT    EPW13536   6.291   5.777   2.699
 3208WAT      O13537   5.160   6.708   2.814
 3208WAT     H113538   5.106   6.640   2.809
 3208WAT     H213539   5.109   6.774   2.840
 3208WAT    EPW13540   5.145   6.708   2.817
 3209WAT      O13541   6.049   5.792   2.961
 3209WAT     H113542   6.072   5.873   2.935
 3209WAT     H213543   5.980   5.806   3.012
 3209WAT    EPW13544   6.042   5.806   2.964
 3210WAT      O13545   6.377   6.719   2.140
 3210WAT     H113546   6.317   6.780   2.158
 3210WAT     H213547   6.438   6.730   2.201
 3210WAT    EPW13548   6.377   6.730   2.152
 3211WAT      O13549   6.008   6.223   2.342
 3211WAT     H113550   5.924   6.221   2.367
 3211WAT     H213551   6.047   6.264   2.408
 3211WAT    EPW13552   6.001   6.229   2.356
 3212WAT      O13553   6.576   6.438   3.037
 3212WAT     H113554   6.656   6.405   3.034
 3212WAT     H213555   6.540   6.400   3.107
 3212WAT    EPW13556   6.582   6.428   3.047
 3213WAT      O13557   5.373   5.557   2.701
 3213WAT     H113558   5.387   5.614   2.637
 3213WAT     H213559   5.448   5.512   2.705
 3213WAT    EPW13560   5.386   5.559   2.692
 3214WAT      O13561   5.202   5.383   2.575
 3214WAT     H113562   5.222   5.399   2.492
 3214WAT     H213563   5.254   5.436   2.620
 3214WAT    EPW13564   5.212   5.393   2.569
 3215WAT      O13565   6.706   5.645   1.558
 3215WAT     H113566   6.717   5.641   1.472
 3215WAT     H213567   6.782   5.618   1.590
 3215WAT    EPW13568   6.719   5.641   1.550
 3216WAT      O13569   5.435   5.058   2.835
 3216WAT     H113570   5.459   4.974   2.830
 3216WAT     H213571   5.411   5.077   2.753
 3216WAT    EPW13572   5.435   5.049   2.822
 3217WAT      O13573   6.123   6.393   1.731
 3217WAT     H113574   6.107   6.475   1.705
 3217WAT     H213575   6.050   6.350   1.707
 3217WAT    EPW13576   6.110   6.399   1.723
 3218WAT      O13577   6.535   5.645   2.536
 3218WAT     H113578   6.544   5.560   2.553
 3218WAT     H213579   6.532   5.681   2.615
 3218WAT    EPW13580   6.536   5.638   2.550
 3219WAT      O13581   5.086   5.872   2.565
 3219WAT     H113582   5.136   5.892   2.497
 3219WAT     H213583   5.066   5.788   2.552
 3219WAT    EPW13584   5.090   5.862   2.553
 3220WAT      O13585   5.266   5.488   1.230
 3220WAT     H113586   5.191   5.481   1.275
 3220WAT     H213587   5.272   5.412   1.189
 3220WAT    EPW13588   5.256   5.476   1.231
 3221WAT      O13589   6.110   5.094   2.928
 3221WAT     H113590   6.141   5.166   2.966
 3221WAT     H213591   6.033   5.081   2.966
 3221WAT    EPW13592   6.103   5.102   2.939
 3222WAT      O13593   6.130   5.209   1.972
 3222WAT     H113594   6.052   5.247   1.973
 3222WAT     H213595   6.124   5.152   1.906
 3222WAT    EPW13596   6.117   5.206   1.962
 3223WAT      O13597   5.558   6.392   1.312
 3223WAT     H113598   5.598   6.423   1.383
 3223WAT     H213599   5.482   6.361   1.343
 3223WAT    EPW13600   5.552   6.392   1.327
 3224WAT      O13601   6.417   5.308   2.266
 3224WAT     H113602   6.498   5.278   2.279
 3224WAT     H213603   6.426   5.395   2.275
 3224WAT    EPW13604   6.430   5.317   2.270
 3225WAT      O13605   5.622   5.846   2.650
 3225WAT     H113606   5.584   5.920   2.676
 3225WAT     H213607   5.560   5.808   2.601
 3225WAT    EPW13608   5.607   5.851   2.647
 3226WAT      O13609   6.529   5.709   2.026
 3226WAT     H113610   6.589   5.771   2.038
 3226WAT     H213611   6.468   5.748   1.977
 3226WAT    EPW13612   6.529   5.724   2.020
 3227WAT      O13613   6.541   6.530   1.774
 3227WAT     H113614   6.527   6.452   1.812
 3227WAT     H213615   6.577   6.509   1.697
 3227WAT    EPW13616   6.544   6.515   1.768
 3228WAT      O13617   5.333   6.293   1.443
 3228WAT     H113618   5.333   6.273   1.528
 3228WAT     H213619   5.332   6.215   1.404
 3228WAT    EPW13620   5.333   6.278   1.450
 3229WAT      O13621   5.628   6.126   1.251
 3229WAT     H113622   5.553   6.084   1.267
 3229WAT     H213623   5.610   6.209   1.272
 3229WAT    EPW13624   5.614   6.132   1.256
 3230WAT      O13625   5.634   5.138   2.475
 3230WAT     H113626   5.550   5.133   2.499
 3230WAT     H213627   5.676   5.091   2.535
 3230WAT    EPW13628   5.628   5.130   2.487
 3231WAT      O13629   6.754   5.085   2.532
 3231WAT     H113630   6.760   5.141   2.598
 3231WAT     H213631   6.830   5.043   2.533
 3231WAT    EPW13632   6.766   5.087   2.542
 3232WAT      O13633   6.036   5.187   2.328
 3232WAT     H113634   5.967   5.134   2.321
 3232WAT     H213635   6.099   5.143   2.287
 3232WAT    EPW13636   6.035   5.172   2.321
 3233WAT      O13637   6.278   6.328   2.433
 3233WAT     H113638   6.301   6.398   2.480
 3233WAT     H213639   6.265   6.360   2.353
 3233WAT    EPW13640   6.279   6.343   2.428
 3234WAT      O13641   6.234   6.717   2.868
 3234WAT     H113642   6.161   6.679   2.841
 3234WAT     H213643   6.208   6.799   2.884
 3234WAT    EPW13644   6.219   6.724   2.867
 3235WAT      O13645   5.733   5.644   2.822
 3235WAT     H113646   5.690   5.576   2.787
 3235WAT     H213647   5.700   5.713   2.780
 3235WAT    EPW13648   5.722   5.644   2.811
 3236WAT      O13649   5.814   4.986   1.356
 3236WAT     H113650   5.822   4.997   1.270
 3236WAT     H213651   5.727   4.987   1.368
 3236WAT    EPW13652   5.802   4.988   1.345
 3237WAT      O13653   6.696   6.177   2.375
 3237WAT     H113654   6.673   6.096   2.353
 3237WAT     H213655   6.643   6.227   2.326
 3237WAT    EPW13656   6.685   6.173   2.365
 3238WAT      O13657   5.611   6.618   2.844
 3238WAT     H113658   5.593   6.635   2.927
 3238WAT     H213659   5.675   6.558   2.849
 3238WAT    EPW13660   5.618   6.612   2.857
 3239WAT      O13661   6.602   6.481   2.332
 3239WAT     H113662   6.673   6.482   2.281
 3239WAT     H213663   6.547   6.430   2.289
 3239WAT    EPW13664   6.604   6.474   2.318
 3240WAT      O13665   5.371   5.152   2.578
 3240WAT     H113666   5.315   5.088   2.555
 3240WAT     H213667   5.320   5.223   2.579
 3240WAT    EPW13668   5.355   5.153   2.575
 3241WAT      O13669   6.258   5.091   2.191
 3241WAT     H113670   6.311   5.156   2.216
 3241WAT     H213671   6.219   5.122   2.119
 3241WAT    EPW13672   6.260   5.105   2.184
 3242WAT      O13673   5.324   6.525   2.965
 3242WAT     H113674   5.388   6.561   3.011
 3242WAT     H213675   5.286   6.592   2.925
 3242WAT    EPW13676   5.328   6.540   2.966
 3243WAT      O13677   6.195   5.603   1.987
 3243WAT     H113678   6.251   5.537   1.993
 3243WAT     H213679   6.168   5.615   2.069
 3243WAT    EPW13680   6.200   5.595   2.000
 3244WAT      O13681   5.202   5.476   1.904
 3244WAT     H113682   5.159   5.499   1.976
 3244WAT     H213683   5.242   5.402   1.927
 3244WAT    EPW13684   5.202   5.469   1.918
 3245WAT      O13685   5.182   6.289   2.700
 3245WAT     H113686   5.127   6.349   2.732
 3245WAT     H213687   5.261   6.323   2.718
 3245WAT    EPW13688   5.185   6.303   2.708
 3246WAT      O13689   6.371   5.757   1.598
 3246WAT     H113690   6.394   5.674   1.613
 3246WAT     H213691   6.296   5.749   1.553
 3246WAT    EPW13692   6.363   5.743   1.594
 3247WAT      O13693   5.370   6.623   1.543
 3247WAT     H113694   5.327   6.594   1.473
 3247WAT     H213695   5.444   6.576   1.543
 3247WAT    EPW13696   5.375   6.612   1.533
 3248WAT      O13697   5.760   5.834   1.536
 3248WAT     H113698   5.788   5.866   1.459
 3248WAT     H213699   5.834   5.822   1.581
 3248WAT    EPW13700   5.775   5.837   1.531
 3249WAT      O13701   6.642   6.692   1.195
 3249WAT     H113702   6.710   6.687   1.249
 3249WAT     H213703   6.621   6.609   1.180
 3249WAT    EPW13704   6.649   6.679   1.201
 3250WAT      O13705   6.672   5.952   2.889
 3250WAT     H113706   6.739   5.911   2.927
 3250WAT     H213707   6.710   5.996   2.823
 3250WAT    EPW13708   6.688   5.952   2.885
 3251WAT      O13709   6.294   6.326   1.517
 3251WAT     H113710   6.247   6.328   1.590
 3251WAT     H213711   6.251   6.268   1.467
 3251WAT    EPW13712   6.281   6.317   1.520
 3252WAT      O13713   6.721   5.387   3.005
 3252WAT     H113714   6.715   5.464   3.044
 3252WAT     H213715   6.641   5.373   2.972
 3252WAT    EPW13716   6.708   5.396   3.006
 3253WAT      O13717   6.748   5.518   2.290
 3253WAT     H113718   6.665   5.541   2.278
 3253WAT     H213719   6.745   5.431   2.296
 3253WAT    EPW13720   6.735   5.509   2.289
 3254WAT      O13721   5.677   5.182   2.851
 3254WAT     H113722   5.721   5.139   2.789
 3254WAT     H213723   5.599   5.144   2.850
 3254WAT    EPW13724   5.672   5.170   2.841
 3255WAT      O13725   6.444   5.998   3.123
 3255WAT     H113726   6.515   6.029   3.163
 3255WAT     H213727   6.451   6.030   3.042
 3255WAT    EPW13728   6.455   6.008   3.117
 3256WAT      O13729   5.428   6.526   2.193
 3256WAT     H113730   5.406   6.447   2.164
 3256WAT     H213731   5.393   6.580   2.134
 3256WAT    EPW13732   5.419   6.522   2.180
 3257WAT      O13733   5.944   6.160   1.391
 3257WAT     H113734   6.028   6.143   1.375
 3257WAT     H213735   5.930   6.236   1.350
 3257WAT    EPW13736   5.954   6.169   1.383
 3258WAT      O13737   5.150   6.762   2.537
 3258WAT     H113738   5.155   6.741   2.621
 3258WAT     H213739   5.191   6.697   2.497
 3258WAT    EPW13740   5.157   6.749   2.543
 3259WAT      O13741   6.055   5.633   0.357
 3259WAT     H113742   6.026   5.712   0.379
 3259WAT     H213743   6.123   5.621   0.410
 3259WAT    EPW13744   6.061   5.643   0.368
 3260WAT      O13745   5.102   6.323   0.522
 3260WAT     H113746   5.120   6.311   0.606
 3260WAT     H213747   5.042   6.262   0.505
 3260WAT    EPW13748   5.095   6.312   0.532
 3261WAT      O13749   5.724   6.148   0.993
 3261WAT     H113750   5.700   6.133   1.075
 3261WAT     H213751   5.652   6.133   0.947
 3261WAT    EPW13752   5.710   6.144   0.998
 3262WAT      O13753   5.669   5.422   0.563
 3262WAT     H113754   5.747   5.424   0.524
 3262WAT     H213755   5.644   5.339   0.556
 3262WAT    EPW13756   5.677   5.410   0.557
 3263WAT      O13757   5.698   6.443   0.725
 3263WAT     H113758   5.717   6.499   0.661
 3263WAT     H213759   5.776   6.412   0.749
 3263WAT    EPW13760   5.712   6.447   0.719
 3264WAT      O13761   6.010   5.715   0.931
 3264WAT     H113762   5.923   5.707   0.927
 3264WAT     H213763   6.023   5.761   1.004
 3264WAT    EPW13764   5.999   5.721   0.941
 3265WAT      O13765   6.430   4.894   0.816
 3265WAT     H113766   6.421   4.975   0.785
 3265WAT     H213767   6.364   4.885   0.872
 3265WAT    EPW13768   6.419   4.904   0.819
 3266WAT      O13769   5.060   5.669   0.341
 3266WAT     H113770   5.015   5.744   0.343
 3266WAT     H213771   5.001   5.610   0.367
 3266WAT    EPW13772   5.044   5.671   0.345
 3267WAT      O13773   5.307   5.068   0.388
 3267WAT     H113774   5.319   5.127   0.324
 3267WAT     H213775   5.369   5.008   0.371
 3267WAT    EPW13776   5.318   5.068   0.376
 3268WAT      O13777   5.682   5.309   1.209
 3268WAT     H113778   5.676   5.272   1.131
 3268WAT     H213779   5.723   5.384   1.193
 3268WAT    EPW13780   5.687   5.315   1.195
 3269WAT      O13781   6.292   6.615   0.600
 3269WAT     H113782   6.350   6.651   0.654
 3269WAT     H213783   6.322   6.635   0.521
 3269WAT    EPW13784   6.305   6.623   0.596
 3270WAT      O13785   5.269   5.227   1.122
 3270WAT     H113786   5.188   5.197   1.116
 3270WAT     H213787   5.308   5.195   1.051
 3270WAT    EPW13788   5.263   5.218   1.111
 3271WAT      O13789   5.845   5.018   1.082
 3271WAT     H113790   5.862   4.945   1.038
 3271WAT     H213791   5.774   5.050   1.042
 3271WAT    EPW13792   5.837   5.012   1.070
 3272WAT      O13793   5.501   6.679   0.621
 3272WAT     H113794   5.522   6.674   0.705
 3272WAT     H213795   5.434   6.622   0.613
 3272WAT    EPW13796   5.494   6.670   0.632
 3273WAT      O13797   6.784   5.199   0.460
 3273WAT     H113798   6.851   5.165   0.416
 3273WAT     H213799   6.780   5.150   0.532
 3273WAT    EPW13800   6.794   5.187   0.464
 3274WAT      O13801   5.013   5.336   0.873
 3274WAT     H113802   4.997   5.413   0.909
 3274WAT     H213803   5.069   5.354   0.809
 3274WAT    EPW13804   5.019   5.350   0.869
 3275WAT      O13805   6.177   6.417   0.915
 3275WAT     H113806   6.167   6.433   1.000
 3275WAT     H213807   6.262   6.398   0.907
 3275WAT    EPW13808   6.188   6.417   0.927
 3276WAT      O13809   5.291   6.526   0.501
 3276WAT     H113810   5.236   6.459   0.509
 3276WAT     H213811   5.323   6.516   0.420
 3276WAT    EPW13812   5.288   6.515   0.490
 3277WAT      O13813   6.032   6.670   0.667
 3277WAT     H113814   6.110   6.642   0.640
 3277WAT     H213815   5.977   6.636   0.609
 3277WAT    EPW13816   6.035   6.661   0.655
 3278WAT      O13817   5.437   6.387   0.843
 3278WAT     H113818   5.513   6.420   0.814
 3278WAT     H213819   5.423   6.431   0.917
 3278WAT    EPW13820   5.446   6.399   0.850
 3279WAT      O13821   5.657   6.034   0.260
 3279WAT     H113822   5.667   5.998   0.339
 3279WAT     H213823   5.658   5.966   0.206
 3279WAT    EPW13824   5.659   6.019   0.264
 3280WAT      O13825   6.214   5.340   0.678
 3280WAT     H113826   6.205   5.390   0.748
 3280WAT     H213827   6.144   5.288   0.681
 3280WAT    EPW13828   6.203   5.339   0.689
 3281WAT      O13829   5.713   5.973   0.528
 3281WAT     H113830   5.702   6.059   0.542
 3281WAT     H213831   5.691   5.937   0.604
 3281WAT    EPW13832   5.708   5.980   0.541
 3282WAT      O13833   6.294   6.085   0.468
 3282WAT     H113834   6.246   6.042   0.527
 3282WAT     H213835   6.286   6.169   0.493
 3282WAT    EPW13836   6.286   6.091   0.481
 3283WAT      O13837   4.997   6.380   1.170
 3283WAT     H113838   5.055   6.427   1.214
 3283WAT     H213839   5.006   6.300   1.204
 3283WAT    EPW13840   5.007   6.375   1.182
 3284WAT      O13841   6.624   5.359   0.773
 3284WAT     H113842   6.707   5.342   0.794
 3284WAT     H213843   6.585   5.371   0.850
 3284WAT    EPW13844   6.631   5.358   0.788
 3285WAT      O13845   5.261   5.488   0.417
 3285WAT     H113846   5.340   5.520   0.400
 3285WAT     H213847   5.207   5.548   0.384
 3285WAT    EPW13848   5.265   5.502   0.409
 3286WAT      O13849   6.870   6.490   0.909
 3286WAT     H113850   6.792   6.499   0.871
 3286WAT     H213851   6.853   6.441   0.979
 3286WAT    EPW13852   6.856   6.484   0.913
 3287WAT      O13853   5.817   5.554   1.187
 3287WAT     H113854   5.770   5.586   1.253
 3287WAT     H213855   5.792   5.602   1.119
 3287WAT    EPW13856   5.806   5.566   1.187
 3288WAT      O13857   6.894   5.614   0.655
 3288WAT     H113858   6.957   5.554   0.652
 3288WAT     H213859   6.835   5.585   0.599
 3288WAT    EPW13860   6.895   5.601   0.647
 3289WAT      O13861   5.436   6.181   0.360
 3289WAT     H113862   5.483   6.205   0.430
 3289WAT     H213863   5.494   6.137   0.312
 3289WAT    EPW13864   5.452   6.178   0.364
 3290WAT      O13865   6.619   6.522   0.785
 3290WAT     H113866   6.568   6.593   0.789
 3290WAT     H213867   6.612   6.498   0.701
 3290WAT    EPW13868   6.611   6.529   0.773
 3291WAT      O13869   5.381   5.683   1.064
 3291WAT     H113870   5.342   5.622   1.112
 3291WAT     H213871   5.377   5.651   0.983
 3291WAT    EPW13872   5.375   5.669   1.060
 3292WAT      O13873   5.427   5.762   0.596
 3292WAT     H113874   5.461   5.714   0.531
 3292WAT     H213875   5.379   5.822   0.555
 3292WAT    EPW13876   5.425   5.764   0.580
 3293WAT      O13877   6.480   5.475   0.376
 3293WAT     H113878   6.419   5.508   0.429
 3293WAT     H213879   6.450   5.492   0.296
 3293WAT    EPW13880   6.467   5.483   0.372
 3294WAT      O13881   5.806   6.600   0.518
 3294WAT     H113882   5.801   6.542   0.453
 3294WAT     H213883   5.790   6.676   0.479
 3294WAT    EPW13884   5.803   6.603   0.503
 3295WAT      O13885   6.035   5.106   0.710
 3295WAT     H113886   6.052   5.021   0.698
 3295WAT     H213887   6.054   5.118   0.794
 3295WAT    EPW13888   6.041   5.095   0.721
 3296WAT      O13889   5.233   5.912   1.100
 3296WAT     H113890   5.231   5.953   1.023
 3296WAT     H213891   5.284   5.843   1.084
 3296WAT    EPW13892   5.241   5.908   1.086
 3297WAT      O13893   6.391   6.084   0.952
 3297WAT     H113894   6.415   6.167   0.938
 3297WAT     H213895   6.421   6.042   0.882
 3297WAT    EPW13896   6.399   6.090   0.940
 3298WAT      O13897   5.790   6.422   1.031
 3298WAT     H113898   5.825   6.418   1.111
 3298WAT     H213899   5.773   6.339   1.012
 3298WAT    EPW13900   5.792   6.409   1.040
 3299WAT      O13901   5.901   5.410   0.420
 3299WAT     H113902   5.952   5.476   0.393
 3299WAT     H213903   5.950   5.339   0.408
 3299WAT    EPW13904   5.915   5.410   0.415
 3300WAT      O13905   6.403   6.375   0.249
 3300WAT     H113906   6.329   6.347   0.213
 3300WAT     H213907   6.394   6.462   0.252
 3300WAT    EPW13908   6.391   6.384   0.244
 3301WAT      O13909   6.186   6.190   0.220
 3301WAT     H113910   6.101   6.176   0.229
 3301WAT     H213911   6.222   6.143   0.284
 3301WAT    EPW13912   6.179   6.181   0.231
 3302WAT      O13913   6.504   5.945   0.732
 3302WAT     H113914   6.508   5.923   0.648
 3302WAT     H213915   6.586   5.971   0.750
 3302WAT    EPW13916   6.517   5.945   0.723
 3303WAT      O13917   6.162   6.533   1.179
 3303WAT     H113918   6.197   6.552   1.257
 3303WAT     H213919   6.181   6.603   1.131
 3303WAT    EPW13920   6.170   6.546   1.184
 3304WAT      O13921   6.673   4.963   0.941
 3304WAT     H113922   6.594   4.951   0.904
 3304WAT     H213923   6.664   4.926   1.020
 3304WAT    EPW13924   6.660   4.956   0.947
 3305WAT      O13925   6.120   5.963   0.653
 3305WAT     H113926   6.070   5.994   0.717
 3305WAT     H213927   6.162   5.896   0.690
 3305WAT    EPW13928   6.119   5.958   0.668
 3306WAT      O13929   6.549   6.188   0.394
 3306WAT     H113930   6.516   6.240   0.332
 3306WAT     H213931   6.481   6.141   0.420
 3306WAT    EPW13932   6.534   6.189   0.388
 3307WAT      O13933   5.923   6.130   0.306
 3307WAT     H113934   5.842   6.116   0.278
 3307WAT     H213935   5.946   6.055   0.344
 3307WAT    EPW13936   5.915   6.117   0.307
 3308WAT      O13937   5.276   5.951   0.446
 3308WAT     H113938   5.314   6.028   0.427
 3308WAT     H213939   5.240   5.927   0.371
 3308WAT    EPW13940   5.277   5.959   0.432
 3309WAT      O13941   6.550   5.817   0.484
 3309WAT     H113942   6.560   5.748   0.538
 3309WAT     H213943   6.472   5.803   0.448
 3309WAT    EPW13944   6.540   5.805   0.487
 3310WAT      O13945   5.226   6.038   0.856
 3310WAT     H113946   5.189   5.988   0.795
 3310WAT     H213947   5.196   6.118   0.837
 3310WAT    EPW13948   5.216   6.042   0.844
 3311WAT      O13949   6.790   5.893   0.361
 3311WAT     H113950   6.717   5.867   0.401
 3311WAT     H213951   6.761   5.926   0.285
 3311WAT    EPW13952   6.775   5.894   0.355
 3312WAT      O13953   6.432   5.329   0.993
 3312WAT     H113954   6.363   5.325   1.046
 3312WAT     H213955   6.415   5.268   0.933
 3312WAT    EPW13956   6.419   5.319   0.992
 3313WAT      O13957   6.818   6.512   0.391
 3313WAT     H113958   6.855   6.527   0.313
 3313WAT     H213959   6.877   6.463   0.433
 3313WAT    EPW13960   6.833   6.507   0.386
 3314WAT      O13961   6.316   5.673   1.105
 3314WAT     H113962   6.358   5.681   1.181
 3314WAT     H213963   6.245   5.722   1.116
 3314WAT    EPW13964   6.311   5.681   1.118
 3315WAT      O13965   6.549   5.698   0.945
 3315WAT     H113966   6.574   5.779   0.964
 3315WAT     H213967   6.476   5.687   0.992
 3315WAT    EPW13968   6.542   5.708   0.955
 3316WAT      O13969   6.870   5.784   1.128
 3316WAT     H113970   6.874   5.730   1.060
 3316WAT     H213971   6.947   5.823   1.128
 3316WAT    EPW13972   6.882   5.782   1.118
 3317WAT      O13973   6.763   6.036   0.772
 3317WAT     H113974   6.826   5.979   0.752
 3317WAT     H213975   6.765   6.092   0.706
 3317WAT    EPW13976   6.772   6.036   0.759
 3318WAT      O13977   5.651   6.247   0.532
 3318WAT     H113978   5.660   6.299   0.601
 3318WAT     H213979   5.685   6.293   0.466
 3318WAT    EPW13980   5.657   6.261   0.532
 3319WAT      O13981   5.492   6.112   0.842
 3319WAT     H113982   5.411   6.080   0.850
 3319WAT     H213983   5.480   6.198   0.836
 3319WAT    EPW13984   5.478   6.120   0.842
 3320WAT      O13985   6.418   5.167   0.760
 3320WAT     H113986   6.490   5.210   0.738
 3320WAT     H213987   6.354   5.214   0.722
 3320WAT    EPW13988   6.419   5.180   0.751
 3321WAT      O13989   5.963   5.889   0.440
 3321WAT     H113990   6.016   5.909   0.507
 3321WAT     H213991   5.883   5.901   0.473
 3321WAT    EPW13992   5.959   5.894   0.455
 3322WAT      O13993   5.620   5.452   0.834
 3322WAT     H113994   5.627   5.373   0.869
 3322WAT     H213995   5.646   5.440   0.751
 3322WAT    EPW13996   5.625   5.439   0.827
 3323WAT      O13997   6.537   4.933   0.515
 3323WAT     H113998   6.514   5.014   0.493
 3323WAT     H213999   6.612   4.944   0.558
 3323WAT    EPW14000   6.545   4.946   0.518
 3324WAT      O14001   5.763   5.048   0.762
 3324WAT     H114002   5.848   5.052   0.745
 3324WAT     H214003   5.751   4.966   0.788
 3324WAT    EPW14004   5.774   5.037   0.763
 3325WAT      O14005   5.713   6.415   0.316
 3325WAT     H114006   5.635   6.430   0.280
 3325WAT     H214007   5.764   6.396   0.247
 3325WAT    EPW14008   5.709   6.414   0.300
 3326WAT      O14009   6.138   6.090   1.057
 3326WAT     H114010   6.216   6.090   1.018
 3326WAT     H214011   6.082   6.099   0.990
 3326WAT    EPW14012   6.141   6.091   1.041
 3327WAT      O14013   6.451   6.354   0.927
 3327WAT     H114014   6.485   6.375   1.004
 3327WAT     H214015   6.501   6.398   0.870
 3327WAT    EPW14016   6.463   6.364   0.930
 3328WAT      O14017   5.524   5.588   0.398
 3328WAT     H114018   5.568   5.588   0.323
 3328WAT     H214019   5.570   5.534   0.449
 3328WAT    EPW14020   5.537   5.580   0.395
 3329WAT      O14021   6.204   5.530   0.880
 3329WAT     H114022   6.133   5.578   0.894
 3329WAT     H214023   6.249   5.537   0.955
 3329WAT    EPW14024   6.200   5.538   0.894
 3330WAT      O14025   6.269   5.570   0.525
 3330WAT     H114026   6.281   5.628   0.589
 3330WAT     H214027   6.248   5.496   0.567
 3330WAT    EPW14028   6.268   5.567   0.541
 3331WAT      O14029   5.932   6.640   0.923
 3331WAT     H114030   5.958   6.626   0.841
 3331WAT     H214031   5.899   6.563   0.948
 3331WAT    EPW14032   5.931   6.626   0.915
 3332WAT      O14033   5.766   5.010   0.394
 3332WAT     H114034   5.719   5.065   0.444
 3332WAT     H214035   5.706   4.973   0.343
 3332WAT    EPW14036   5.750   5.013   0.394
 3333WAT      O14037   5.958   6.094   0.846
 3333WAT     H114038   5.883   6.092   0.891
 3333WAT     H214039   5.960   6.175   0.814
 3333WAT    EPW14040   5.947   6.106   0.848
 3334WAT      O14041   5.022   5.105   1.026
 3334WAT     H114042   5.021   5.178   0.978
 3334WAT     H214043   4.946   5.066   1.007
 3334WAT    EPW14044   5.011   5.110   1.016
 3335WAT      O14045   5.517   6.711   0.341
 3335WAT     H114046   5.521   6.698   0.427
 3335WAT     H214047   5.494   6.633   0.309
 3335WAT    EPW14048   5.514   6.698   0.349
 3336WAT      O14049   5.958   6.354   0.756
 3336WAT     H114050   6.031   6.378   0.796
 3336WAT     H214051   5.979   6.353   0.672
 3336WAT    EPW14052   5.972   6.357   0.750
 3337WAT      O14053   6.821   5.606   0.921
 3337WAT     H114054   6.734   5.617   0.928
 3337WAT     H214055   6.837   5.618   0.836
 3337WAT    EPW14056   6.810   5.609   0.910
 3338WAT      O14057   6.287   5.756   0.731
 3338WAT     H114058   6.271   5.696   0.792
 3338WAT     H214059   6.359   5.796   0.759
 3338WAT    EPW14060   6.295   5.753   0.744
 3339WAT      O14061   5.172   6.718   0.921
 3339WAT     H114062   5.118   6.650   0.914
 3339WAT     H214063   5.120   6.784   0.941
 3339WAT    EPW14064   5.157   6.717   0.923
 3340WAT      O14065   6.081   5.846   1.170
 3340WAT     H114066   6.106   5.922   1.137
 3340WAT     H214067   6.001   5.861   1.200
 3340WAT    EPW14068   6.073   5.859   1.170
 3341WAT      O14069   6.382   6.644   0.332
 3341WAT     H114070   6.343   6.720   0.313
 3341WAT     H214071   6.454   6.669   0.375
 3341WAT    EPW14072   6.387   6.659   0.336
 3342WAT      O14073   5.997   6.342   0.483
 3342WAT     H114074   5.975   6.277   0.430
 3342WAT     H214075   6.084   6.347   0.474
 3342WAT    EPW14076   6.007   6.333   0.474
 3343WAT      O14077   6.589   6.424   1.157
 3343WAT     H114078   6.671   6.395   1.150
 3343WAT     H214079   6.561   6.388   1.232
 3343WAT    EPW14080   6.597   6.414   1.167
 3344WAT      O14081   5.376   5.580   0.804
 3344WAT     H114082   5.389   5.640   0.742
 3344WAT     H214083   5.454   5.540   0.810
 3344WAT    EPW14084   5.390   5.583   0.796
 3345WAT      O14085   5.202   5.413   0.672
 3345WAT     H114086   5.219   5.431   0.588
 3345WAT     H214087   5.259   5.461   0.716
 3345WAT    EPW14088   5.213   5.423   0.666
 3346WAT      O14089   5.382   5.090   0.908
 3346WAT     H114090   5.340   5.013   0.916
 3346WAT     H214091   5.367   5.113   0.826
 3346WAT    EPW14092   5.374   5.082   0.897
 3347WAT      O14093   6.574   5.618   0.676
 3347WAT     H114094   6.590   5.533   0.689
 3347WAT     H214095   6.560   5.649   0.756
 3347WAT    EPW14096   6.574   5.610   0.690
 3348WAT      O14097   5.102   5.885   0.662
 3348WAT     H114098   5.146   5.903   0.588
 3348WAT     H214099   5.082   5.801   0.653
 3348WAT    EPW14100   5.106   5.875   0.649
 3349WAT      O14101   6.079   5.137   0.983
 3349WAT     H114102   6.115   5.196   1.036
 3349WAT     H214103   6.006   5.113   1.026
 3349WAT    EPW14104   6.073   5.142   0.997
 3350WAT      O14105   6.503   5.198   0.415
 3350WAT     H114106   6.590   5.194   0.414
 3350WAT     H214107   6.486   5.283   0.409
 3350WAT    EPW14108   6.513   5.210   0.414
 3351WAT      O14109   5.615   5.870   0.768
 3351WAT     H114110   5.581   5.945   0.795
 3351WAT     H214111   5.552   5.835   0.719
 3351WAT    EPW14112   5.601   5.876   0.765
 3352WAT      O14113   5.603   5.158   0.565
 3352WAT     H114114   5.519   5.150   0.585
 3352WAT     H214115   5.643   5.116   0.631
 3352WAT    EPW14116   5.597   5.150   0.578
 3353WAT      O14117   6.764   5.010   0.667
 3353WAT     H114118   6.747   4.997   0.752
 3353WAT     H214119   6.844   4.975   0.657
 3353WAT    EPW14120   6.773   5.003   0.678
 3354WAT      O14121   6.019   5.150   0.425
 3354WAT     H114122   5.949   5.104   0.400
 3354WAT     H214123   6.022   5.139   0.511
 3354WAT    EPW14124   6.009   5.142   0.434
 3355WAT      O14125   6.275   6.357   0.497
 3355WAT     H114126   6.290   6.428   0.546
 3355WAT     H214127   6.320   6.373   0.425
 3355WAT    EPW14128   6.284   6.370   0.494
 3356WAT      O14129   6.203   6.729   0.981
 3356WAT     H114130   6.137   6.683   0.947
 3356WAT     H214131   6.171   6.810   0.987
 3356WAT    EPW14132   6.189   6.734   0.977
 3357WAT      O14133   5.735   5.681   0.944
 3357WAT     H114134   5.701   5.609   0.908
 3357WAT     H214135   5.699   5.746   0.899
 3357WAT    EPW14136   5.725   5.680   0.932
 3358WAT      O14137   6.796   6.133   0.505
 3358WAT     H114138   6.811   6.056   0.468
 3358WAT     H214139   6.720   6.159   0.471
 3358WAT    EPW14140   6.787   6.126   0.495
 3359WAT      O14141   5.619   6.661   0.884
 3359WAT     H114142   5.612   6.657   0.971
 3359WAT     H214143   5.664   6.589   0.864
 3359WAT    EPW14144   5.624   6.650   0.894
 3360WAT      O14145   6.589   6.438   0.527
 3360WAT     H114146   6.654   6.469   0.478
 3360WAT     H214147   6.572   6.360   0.492
 3360WAT    EPW14148   6.596   6.431   0.514
 3361WAT      O14149   5.335   5.166   0.649
 3361WAT     H114150   5.307   5.125   0.578
 3361WAT     H214151   5.288   5.240   0.650
 3361WAT    EPW14152   5.324   5.171   0.639
 3362WAT      O14153   6.269   5.046   0.327
 3362WAT     H114154   6.331   5.103   0.350
 3362WAT     H214155   6.195   5.085   0.352
 3362WAT    EPW14156   6.268   5.060   0.334
 3363WAT      O14157   5.328   6.535   1.072
 3363WAT     H114158   5.403   6.574   1.097
 3363WAT     H214159   5.286   6.598   1.028
 3363WAT    EPW14160   5.333   6.550   1.069
 3364WAT      O14161   5.175   6.304   0.786
 3364WAT     H114162   5.124   6.362   0.826
 3364WAT     H214163   5.255   6.336   0.799
 3364WAT    EPW14164   5.180   6.317   0.794
 3365WAT      O14165   6.666   5.940   1.023
 3365WAT     H114166   6.735   5.904   1.062
 3365WAT     H214167   6.700   5.985   0.958
 3365WAT    EPW14168   6.681   5.941   1.019
 3366WAT      O14169   6.673   5.390   1.115
 3366WAT     H114170   6.668   5.468   1.154
 3366WAT     H214171   6.591   5.377   1.087
 3366WAT    EPW14172   6.660   5.400   1.117
 3367WAT      O14173   6.753   5.479   0.449
 3367WAT     H114174   6.668   5.486   0.431
 3367WAT     H214175   6.767   5.393   0.455
 3367WAT    EPW14176   6.742   5.468   0.448
 3368WAT      O14177   5.638   5.191   0.955
 3368WAT     H114178   5.682   5.155   0.889
 3368WAT     H214179   5.558   5.157   0.948
 3368WAT    EPW14180   5.633   5.180   0.944
 3369WAT      O14181   6.447   6.004   1.235
 3369WAT     H114182   6.523   6.028   1.271
 3369WAT     H214183   6.459   6.017   1.150
 3369WAT    EPW14184   6.460   6.010   1.228
 3370WAT      O14185   5.431   6.446   0.246
 3370WAT     H114186   5.419   6.363   0.271
 3370WAT     H214187   5.401   6.448   0.164
 3370WAT    EPW14188   5.425   6.434   0.238
 3371WAT      O14189   5.139   6.736   0.634
 3371WAT     H114190   5.170   6.721   0.714
 3371WAT     H214191   5.183   6.680   0.583
 3371WAT    EPW14192   5.150   6.725   0.638
 3372WAT      O14193   6.114   3.127   7.421
 3372WAT     H114194   6.104   3.175   7.349
 3372WAT     H214195   6.201   3.116   7.427
 3372WAT    EPW14196   6.126   3.132   7.411
 3373WAT      O14197   5.105   4.266   7.443
 3373WAT     H114198   5.092   4.264   7.529
 3373WAT     H214199   5.096   4.183   7.419
 3373WAT    EPW14200   5.102   4.254   7.452
 3374WAT      O14201   6.693   4.643   7.209
 3374WAT     H114202   6.758   4.588   7.228
 3374WAT     H214203   6.638   4.594   7.162
 3374WAT    EPW14204   6.694   4.628   7.205
 3375WAT      O14205   5.033   3.612   7.036
 3375WAT     H114206   4.967   3.660   7.004
 3375WAT     H214207   5.003   3.530   7.028
 3375WAT    EPW14208   5.019   3.607   7.030
 3376WAT      O14209   5.364   4.196   6.989
 3376WAT     H114210   5.324   4.156   6.922
 3376WAT     H214211   5.378   4.131   7.046
 3376WAT    EPW14212   5.360   4.181   6.987
 3377WAT      O14213   6.317   3.985   7.539
 3377WAT     H114214   6.327   3.976   7.453
 3377WAT     H214215   6.274   3.914   7.563
 3377WAT    EPW14216   6.312   3.973   7.530
 3378WAT      O14217   5.347   4.380   7.365
 3378WAT     H114218   5.418   4.343   7.400
 3378WAT     H214219   5.281   4.332   7.396
 3378WAT    EPW14220   5.348   4.367   7.375
 3379WAT      O14221   5.734   3.280   7.367
 3379WAT     H114222   5.752   3.328   7.297
 3379WAT     H214223   5.726   3.199   7.334
 3379WAT    EPW14224   5.736   3.275   7.352
 3380WAT      O14225   5.169   4.632   6.958
 3380WAT     H114226   5.220   4.644   6.887
 3380WAT     H214227   5.214   4.575   7.006
 3380WAT    EPW14228   5.183   4.625   6.954
 3381WAT      O14229   5.298   3.993   7.549
 3381WAT     H114230   5.247   4.005   7.479
 3381WAT     H214231   5.350   3.927   7.526
 3381WAT    EPW14232   5.298   3.985   7.535
 3382WAT      O14233   5.449   3.792   7.440
 3382WAT     H114234   5.499   3.768   7.507
 3382WAT     H214235   5.379   3.739   7.447
 3382WAT    EPW14236   5.446   3.781   7.451
 3383WAT      O14237   5.775   4.397   7.655
 3383WAT     H114238   5.807   4.318   7.672
 3383WAT     H214239   5.845   4.449   7.662
 3383WAT    EPW14240   5.790   4.393   7.658
 3384WAT      O14241   5.862   4.344   7.334
 3384WAT     H114242   5.910   4.283   7.373
 3384WAT     H214243   5.881   4.335   7.249
 3384WAT    EPW14244   5.872   4.333   7.327
 3385WAT      O14245   5.480   3.352   7.455
 3385WAT     H114246   5.444   3.399   7.391
 3385WAT     H214247   5.562   3.338   7.427
 3385WAT    EPW14248   5.487   3.357   7.441
 3386WAT      O14249   5.849   3.314   7.618
 3386WAT     H114250   5.825   3.395   7.639
 3386WAT     H214251   5.816   3.303   7.538
 3386WAT    EPW14252   5.840   3.325   7.609
 3387WAT      O14253   6.242   3.465   6.842
 3387WAT     H114254   6.192   3.526   6.878
 3387WAT     H214255   6.262   3.413   6.909
 3387WAT    EPW14256   6.238   3.466   6.857
 3388WAT      O14257   5.055   3.746   7.724
 3388WAT     H114258   5.062   3.830   7.746
 3388WAT     H214259   5.061   3.704   7.800
 3388WAT    EPW14260   5.057   3.752   7.738
 3389WAT      O14261   5.073   4.707   7.619
 3389WAT     H114262   5.010   4.757   7.586
 3389WAT     H214263   5.114   4.676   7.549
 3389WAT    EPW14264   5.070   4.710   7.604
 3390WAT      O14265   5.660   4.536   7.320
 3390WAT     H114266   5.616   4.528   7.396
 3390WAT     H214267   5.728   4.482   7.330
 3390WAT    EPW14268   5.663   4.527   7.333
 3391WAT      O14269   6.269   4.744   7.106
 3391WAT     H114270   6.339   4.795   7.117
 3391WAT     H214271   6.295   4.667   7.139
 3391WAT    EPW14272   6.284   4.740   7.113
 3392WAT      O14273   6.053   4.757   7.273
 3392WAT     H114274   6.068   4.824   7.327
 3392WAT     H214275   6.121   4.757   7.219
 3392WAT    EPW14276   6.065   4.767   7.273
 3393WAT      O14277   5.212   4.623   7.392
 3393WAT     H114278   5.267   4.556   7.399
 3393WAT     H214279   5.260   4.686   7.356
 3393WAT    EPW14280   5.227   4.623   7.388
 3394WAT      O14281   6.811   3.425   7.561
 3394WAT     H114282   6.768   3.499   7.577
 3394WAT     H214283   6.747   3.369   7.539
 3394WAT    EPW14284   6.795   3.428   7.560
 3395WAT      O14285   5.384   4.386   7.753
 3395WAT     H114286   5.422   4.440   7.697
 3395WAT     H214287   5.425   4.310   7.740
 3395WAT    EPW14288   5.395   4.382   7.743
 3396WAT      O14289   5.652   4.772   7.567
 3396WAT     H114290   5.728   4.812   7.583
 3396WAT     H214291   5.594   4.836   7.568
 3396WAT    EPW14292   5.655   4.787   7.569
 3397WAT      O14293   5.987   3.699   7.464
 3397WAT     H114294   6.010   3.645   7.400
 3397WAT     H214295   6.060   3.707   7.511
 3397WAT    EPW14296   6.002   3.692   7.462
 3398WAT      O14297   6.069   3.646   6.982
 3398WAT     H114298   6.092   3.725   7.011
 3398WAT     H214299   5.993   3.660   6.942
 3398WAT    EPW14300   6.061   3.660   6.980
 3399WAT      O14301   6.472   4.938   7.099
 3399WAT     H114302   6.517   4.913   7.028
 3399WAT     H214303   6.530   4.985   7.144
 3399WAT    EPW14304   6.487   4.941   7.095
 3400WAT      O14305   5.929   4.577   6.919
 3400WAT     H114306   5.896   4.638   6.972
 3400WAT     H214307   6.008   4.609   6.897
 3400WAT    EPW14308   5.936   4.591   6.923
 3401WAT      O14309   6.299   3.297   7.057
 3401WAT     H114310   6.352   3.228   7.062
 3401WAT     H214311   6.323   3.346   7.125
 3401WAT    EPW14312   6.310   3.294   7.068
 3402WAT      O14313   5.104   3.402   7.321
 3402WAT     H114314   5.085   3.318   7.311
 3402WAT     H214315   5.052   3.427   7.386
 3402WAT    EPW14316   5.094   3.394   7.329
 3403WAT      O14317   6.065   3.541   7.245
 3403WAT     H114318   6.037   3.459   7.236
 3403WAT     H214319   6.060   3.574   7.165
 3403WAT    EPW14320   6.060   3.534   7.232
 3404WAT      O14321   6.055   3.262   7.186
 3404WAT     H114322   5.991   3.240   7.130
 3404WAT     H214323   6.126   3.267   7.136
 3404WAT    EPW14324   6.056   3.259   7.171
 3405WAT      O14325   6.750   4.859   7.496
 3405WAT     H114326   6.709   4.936   7.501
 3405WAT     H214327   6.685   4.803   7.479
 3405WAT    EPW14328   6.734   4.862   7.494
 3406WAT      O14329   5.818   3.591   7.657
 3406WAT     H114330   5.863   3.623   7.590
 3406WAT     H214331   5.863   3.618   7.727
 3406WAT    EPW14332   5.831   3.599   7.657
 3407WAT      O14333   6.466   4.440   7.515
 3407WAT     H114334   6.530   4.382   7.508
 3407WAT     H214335   6.395   4.392   7.533
 3407WAT    EPW14336   6.465   4.424   7.516
 3408WAT      O14337   5.420   3.093   7.541
 3408WAT     H114338   5.430   3.176   7.519
 3408WAT     H214339   5.395   3.054   7.467
 3408WAT    EPW14340   5.418   3.099   7.527
 3409WAT      O14341   6.381   3.082   7.483
 3409WAT     H114342   6.386   3.068   7.569
 3409WAT     H214343   6.419   3.012   7.448
 3409WAT    EPW14344   6.387   3.070   7.490
 3410WAT      O14345   5.385   3.502   7.668
 3410WAT     H114346   5.421   3.449   7.608
 3410WAT     H214347   5.315   3.458   7.695
 3410WAT    EPW14348   5.380   3.488   7.663
 3411WAT      O14349   6.658   4.238   7.070
 3411WAT     H114350   6.652   4.185   7.139
 3411WAT     H214351   6.743   4.244   7.055
 3411WAT    EPW14352   6.669   4.231   7.078
 3412WAT      O14353   5.502   4.153   7.647
 3412WAT     H114354   5.547   4.171   7.575
 3412WAT     H214355   5.435   4.104   7.618
 3412WAT    EPW14356   5.499   4.148   7.632
 3413WAT      O14357   5.293   4.805   7.760
 3413WAT     H114358   5.222   4.781   7.716
 3413WAT     H214359   5.340   4.848   7.700
 3413WAT    EPW14360   5.290   4.808   7.744
 3414WAT      O14361   6.455   3.904   6.992
 3414WAT     H114362   6.448   3.987   6.966
 3414WAT     H214363   6.424   3.906   7.073
 3414WAT    EPW14364   6.449   3.917   7.000
 3415WAT      O14365   5.622   4.199   7.398
 3415WAT     H114366   5.688   4.254   7.386
 3415WAT     H214367   5.643   4.130   7.349
 3415WAT    EPW14368   5.635   4.197   7.389
 3416WAT      O14369   6.793   3.366   6.969
 3416WAT     H114370   6.835   3.312   6.915
 3416WAT     H214371   6.755   3.423   6.914
 3416WAT    EPW14372   6.793   3.367   6.953
 3417WAT      O14373   5.120   4.301   7.727
 3417WAT     H114374   5.077   4.369   7.761
 3417WAT     H214375   5.204   4.326   7.731
 3417WAT    EPW14376   5.126   4.315   7.732
 3418WAT      O14377   5.148   4.014   7.321
 3418WAT     H114378   5.118   3.932   7.309
 3418WAT     H214379   5.220   4.016   7.271
 3418WAT    EPW14380   5.154   4.002   7.312
 3419WAT      O14381   6.672   3.255   7.196
 3419WAT     H114382   6.746   3.217   7.223
 3419WAT     H214383   6.697   3.301   7.126
 3419WAT    EPW14384   6.687   3.256   7.190
 3420WAT      O14385   6.003   4.561   7.671
 3420WAT     H114386   5.979   4.645   7.671
 3420WAT     H214387   6.036   4.549   7.590
 3420WAT    EPW14388   6.004   4.572   7.659
 3421WAT      O14389   5.026   4.461   7.261
 3421WAT     H114390   5.084   4.519   7.289
 3421WAT     H214391   5.030   4.397   7.320
 3421WAT    EPW14392   5.035   4.460   7.274
 3422WAT      O14393   6.336   3.508   7.680
 3422WAT     H114394   6.358   3.458   7.748
 3422WAT     H214395   6.275   3.461   7.639
 3422WAT    EPW14396   6.330   3.494   7.684
 3423WAT      O14397   5.033   4.296   7.029
 3423WAT     H114398   5.106   4.249   7.026
 3423WAT     H214399   5.046   4.350   7.097
 3423WAT    EPW14400   5.046   4.297   7.039
 3424WAT      O14401   5.102   4.025   7.742
 3424WAT     H114402   5.165   4.006   7.686
 3424WAT     H214403   5.112   4.111   7.756
 3424WAT    EPW14404   5.112   4.035   7.736
 3425WAT      O14405   5.764   3.445   7.146
 3425WAT     H114406   5.760   3.431   7.060
 3425WAT     H214407   5.750   3.531   7.153
 3425WAT    EPW14408   5.762   3.456   7.134
 3426WAT      O14409   5.545   4.519   7.574
 3426WAT     H114410   5.569   4.602   7.582
 3426WAT     H214411   5.615   4.475   7.603
 3426WAT    EPW14412   5.559   4.525   7.579
 3427WAT      O14413   5.408   3.727   7.096
 3427WAT     H114414   5.388   3.672   7.160
 3427WAT     H214415   5.364   3.695   7.028
 3427WAT    EPW14416   5.398   3.714   7.095
 3428WAT      O14417   5.675   3.976   7.777
 3428WAT     H114418   5.617   4.032   7.743
 3428WAT     H214419   5.644   3.898   7.755
 3428WAT    EPW14420   5.662   3.973   7.768
 3429WAT      O14421   6.330   3.455   7.279
 3429WAT     H114422   6.382   3.523   7.296
 3429WAT     H214423   6.250   3.489   7.279
 3429WAT    EPW14424   6.326   3.470   7.282
 3430WAT      O14425   6.131   3.891   7.103
 3430WAT     H114426   6.108   3.944   7.038
 3430WAT     H214427   6.070   3.906   7.164
 3430WAT    EPW14428   6.119   3.901   7.103
 3431WAT      O14429   6.666   4.241   7.492
 3431WAT     H114430   6.672   4.192   7.564
 3431WAT     H214431   6.641   4.185   7.431
 3431WAT    EPW14432   6.664   4.226   7.494
 3432WAT      O14433   6.097   4.339   7.832
 3432WAT     H114434   6.072   4.412   7.791
 3432WAT     H214435   6.110   4.365   7.914
 3432WAT    EPW14436   6.095   4.354   7.838
 3433WAT      O14437   5.646   4.824   7.270
 3433WAT     H114438   5.659   4.768   7.335
 3433WAT     H214439   5.705   4.800   7.210
 3433WAT    EPW14440   5.657   4.812   7.271
 3434WAT      O14441   5.584   3.149   7.049
 3434WAT     H114442   5.590   3.129   7.134
 3434WAT     H214443   5.537   3.222   7.048
 3434WAT    EPW14444   5.578   3.157   7.061
 3435WAT      O14445   5.850   4.777   7.090
 3435WAT     H114446   5.914   4.773   7.149
 3435WAT     H214447   5.859   4.857   7.055
 3435WAT    EPW14448   5.861   4.789   7.093
 3436WAT      O14449   5.391   3.993   7.184
 3436WAT     H114450   5.385   3.910   7.160
 3436WAT     H214451   5.462   3.995   7.234
 3436WAT    EPW14452   5.400   3.981   7.188
 3437WAT      O14453   5.022   3.131   7.289
 3437WAT     H114454   5.024   3.075   7.222
 3437WAT     H214455   4.989   3.084   7.355
 3437WAT    EPW14456   5.018   3.115   7.289
 3438WAT      O14457   5.962   3.934   7.319
 3438WAT     H114458   5.987   4.000   7.370
 3438WAT     H214459   5.966   3.865   7.371
 3438WAT    EPW14460   5.966   3.934   7.334
 3439WAT      O14461   5.449   3.386   7.016
 3439WAT     H114462   5.389   3.375   6.953
 3439WAT     H214463   5.518   3.418   6.973
 3439WAT    EPW14464   5.450   3.389   7.000
 3440WAT      O14465   5.890   4.150   7.715
 3440WAT     H114466   5.833   4.093   7.747
 3440WAT     H214467   5.935   4.175   7.785
 3440WAT    EPW14468   5.888   4.146   7.730
 3441WAT      O14469   5.539   4.770   6.881
 3441WAT     H114470   5.565   4.703   6.930
 3441WAT     H214471   5.551   4.839   6.933
 3441WAT    EPW14472   5.544   4.770   6.896
 3442WAT      O14473   5.572   3.718   7.681
 3442WAT     H114474   5.646   3.674   7.669
 3442WAT     H214475   5.513   3.656   7.696
 3442WAT    EPW14476   5.574   3.703   7.681
 3443WAT      O14477   6.851   4.815   7.065
 3443WAT     H114478   6.915   4.763   7.038
 3443WAT     H214479   6.799   4.761   7.111
 3443WAT    EPW14480   6.853   4.799   7.068
 3444WAT      O14481   5.083   3.743   7.282
 3444WAT     H114482   5.120   3.699   7.348
 3444WAT     H214483   5.083   3.686   7.217
 3444WAT    EPW14484   5.088   3.728   7.282
 3445WAT      O14485   5.559   3.896   6.899
 3445WAT     H114486   5.519   3.851   6.963
 3445WAT     H214487   5.507   3.883   6.830
 3445WAT    EPW14488   5.545   3.887   6.899
 3446WAT      O14489   6.701   4.097   7.728
 3446WAT     H114490   6.700   4.160   7.788
 3446WAT     H214491   6.784   4.069   7.729
 3446WAT    EPW14492   6.713   4.102   7.737
 3447WAT      O14493   5.686   3.720   7.134
 3447WAT     H114494   5.697   3.796   7.174
 3447WAT     H214495   5.599   3.710   7.130
 3447WAT    EPW14496   5.675   3.730   7.139
 3448WAT      O14497   5.136   3.380   7.706
 3448WAT     H114498   5.069   3.405   7.657
 3448WAT     H214499   5.127   3.294   7.711
 3448WAT    EPW14500   5.125   3.371   7.699
 3449WAT      O14501   6.913   4.552   7.858
 3449WAT     H114502   6.914   4.597   7.783
 3449WAT     H214503   6.986   4.575   7.898
 3449WAT    EPW14504   6.924   4.562   7.853
 3450WAT      O14505   6.523   4.480   7.073
 3450WAT     H114506   6.561   4.401   7.076
 3450WAT     H214507   6.450   4.469   7.119
 3450WAT    EPW14508   6.517   4.467   7.080
 3451WAT      O14509   6.583   3.616   7.591
 3451WAT     H114510   6.512   3.576   7.620
 3451WAT     H214511   6.578   3.695   7.628
 3451WAT    EPW14512   6.572   3.622   7.601
 3452WAT      O14513   6.202   4.306   6.994
 3452WAT     H114514   6.274   4.259   6.986
 3452WAT     H214515   6.170   4.310   6.913
 3452WAT    EPW14516   6.208   4.300   6.981
 3453WAT      O14517   5.910   4.887   7.613
 3453WAT     H114518   5.886   4.967   7.640
 3453WAT     H214519   5.976   4.903   7.558
 3453WAT    EPW14520   5.916   4.901   7.609
 3454WAT      O14521   6.707   3.795   6.961
 3454WAT     H114522   6.756   3.850   6.915
 3454WAT     H214523   6.628   3.831   6.960
 3454WAT    EPW14524   6.703   3.808   6.954
 3455WAT      O14525   5.767   4.065   6.969
 3455WAT     H114526   5.705   4.015   6.934
 3455WAT     H214527   5.738   4.146   6.956
 3455WAT    EPW14528   5.754   4.070   6.962
 3456WAT      O14529   6.480   3.684   7.343
 3456WAT     H114530   6.509   3.660   7.422
 3456WAT     H214531   6.551   3.714   7.303
 3456WAT    EPW14532   6.494   3.684   7.349
 3457WAT      O14533   6.605   3.254   7.468
 3457WAT     H114534   6.526   3.219   7.475
 3457WAT     H214535   6.613   3.273   7.384
 3457WAT    EPW14536   6.595   3.251   7.457
 3458WAT      O14537   6.600   4.069   7.286
 3458WAT     H114538   6.644   3.994   7.278
 3458WAT     H214539   6.516   4.044   7.279
 3458WAT    EPW14540   6.594   4.054   7.284
 3459WAT      O14541   5.357   3.500   7.254
 3459WAT     H114542   5.378   3.457   7.181
 3459WAT     H214543   5.276   3.472   7.270
 3459WAT    EPW14544   5.348   3.489   7.245
 3460WAT      O14545   6.252   4.258   7.590
 3460WAT     H114546   6.220   4.271   7.671
 3460WAT     H214547   6.280   4.175   7.592
 3460WAT    EPW14548   6.252   4.248   7.603
 3461WAT      O14549   6.017   4.162   7.471
 3461WAT     H114550   5.975   4.153   7.547
 3461WAT     H214551   6.093   4.198   7.493
 3461WAT    EPW14552   6.022   4.166   7.485
 3462WAT      O14553   6.422   4.885   7.763
 3462WAT     H114554   6.366   4.853   7.822
 3462WAT     H214555   6.498   4.847   7.783
 3462WAT    EPW14556   6.425   4.875   7.775
 3463WAT      O14557   6.698   3.815   7.238
 3463WAT     H114558   6.707   3.809   7.151
 3463WAT     H214559   6.775   3.787   7.268
 3463WAT    EPW14560   6.710   3.810   7.229
 3464WAT      O14561   6.073   4.515   7.403
 3464WAT     H114562   6.061   4.592   7.362
 3464WAT     H214563   6.003   4.468   7.378
 3464WAT    EPW14564   6.061   4.520   7.393
 3465WAT      O14565   5.258   3.635   6.879
 3465WAT     H114566   5.183   3.631   6.924
 3465WAT     H214567   5.267   3.555   6.847
 3465WAT    EPW14568   5.248   3.623   6.881
 3466WAT      O14569   6.122   3.361   7.581
 3466WAT     H114570   6.037   3.356   7.600
 3466WAT     H214571   6.136   3.293   7.529
 3466WAT    EPW14572   6.112   3.351   7.576
 3467WAT      O14573   5.579   4.546   7.051
 3467WAT     H114574   5.613   4.550   7.131
 3467WAT     H214575   5.496   4.522   7.065
 3467WAT    EPW14576   5.572   4.543   7.065
 3468WAT      O14577   6.531   3.875   7.685
 3468WAT     H114578   6.588   3.939   7.704
 3468WAT     H214579   6.471   3.916   7.637
 3468WAT    EPW14580   6.531   3.891   7.680
 3469WAT      O14581   6.530   4.699   7.425
 3469WAT     H114582   6.506   4.621   7.457
 3469WAT     H214583   6.574   4.678   7.353
 3469WAT    EPW14584   6.533   4.684   7.419
 3470WAT      O14585   5.325   4.447   7.097
 3470WAT     H114586   5.331   4.429   7.183
 3470WAT     H214587   5.335   4.369   7.059
 3470WAT    EPW14588   5.327   4.433   7.104
 3471WAT      O14589   5.622   4.300   6.914
 3471WAT     H114590   5.543   4.268   6.931
 3471WAT     H214591   5.623   4.376   6.957
 3471WAT    EPW14592   5.610   4.307   6.923
 3472WAT      O14593   5.858   3.173   7.003
 3472WAT     H114594   5.871   3.178   6.917
 3472WAT     H214595   5.772   3.181   7.012
 3472WAT    EPW14596   5.847   3.175   6.992
 3473WAT      O14597   6.201   3.751   7.641
 3473WAT     H114598   6.250   3.679   7.648
 3473WAT     H214599   6.189   3.776   7.724
 3473WAT    EPW14600   6.206   3.744   7.655
 3474WAT      O14601   5.212   3.656   7.514
 3474WAT     H114602   5.159   3.686   7.575
 3474WAT     H214603   5.261   3.597   7.556
 3474WAT    EPW14604   5.212   3.652   7.529
 3475WAT      O14605   6.356   3.921   7.264
 3475WAT     H114606   6.380   3.841   7.287
 3475WAT     H214607   6.281   3.909   7.221
 3475WAT    EPW14608   6.348   3.908   7.261
 3476WAT      O14609   5.370   4.822   7.281
 3476WAT     H114610   5.342   4.854   7.205
 3476WAT     H214611   5.456   4.813   7.269
 3476WAT    EPW14612   5.378   4.825   7.268
 3477WAT      O14613   5.707   3.988   7.229
 3477WAT     H114614   5.724   4.019   7.149
 3477WAT     H214615   5.786   3.973   7.263
 3477WAT    EPW14616   5.721   3.991   7.222
 3478WAT      O14617   6.637   4.862   6.891
 3478WAT     H114618   6.710   4.853   6.938
 3478WAT     H214619   6.618   4.781   6.867
 3478WAT    EPW14620   6.645   4.849   6.894
 3479WAT      O14621   6.278   4.480   7.202
 3479WAT     H114622   6.229   4.474   7.273
 3479WAT     H214623   6.238   4.427   7.145
 3479WAT    EPW14624   6.265   4.471   7.204
 3480WAT      O14625   5.295   4.587   7.941
 3480WAT     H114626   5.331   4.524   7.892
 3480WAT     H214627   5.306   4.659   7.893
 3480WAT    EPW14628   5.302   4.589   7.927
 3481WAT      O14629   5.935   4.341   7.071
 3481WAT     H114630   6.015   4.314   7.053
 3481WAT     H214631   5.924   4.412   7.020
 3481WAT    EPW14632   5.945   4.348   7.061
 3482WAT      O14633   6.128   3.171   5.560
 3482WAT     H114634   6.118   3.212   5.484
 3482WAT     H214635   6.214   3.156   5.564
 3482WAT    EPW14636   6.140   3.175   5.550
 3483WAT      O14637   6.088   3.809   5.998
 3483WAT     H114638   6.051   3.883   6.024
 3483WAT     H214639   6.143   3.789   6.062
 3483WAT    EPW14640   6.090   3.817   6.011
 3484WAT      O14641   4.959   4.260   5.553
 3484WAT     H114642   4.999   4.274   5.630
 3484WAT     H214643   4.994   4.184   5.526
 3484WAT    EPW14644   4.970   4.251   5.560
 3485WAT      O14645   6.681   4.648   5.337
 3485WAT     H114646   6.748   4.596   5.354
 3485WAT     H214647   6.630   4.601   5.284
 3485WAT    EPW14648   6.683   4.634   5.332
 3486WAT      O14649   5.013   3.644   5.160
 3486WAT     H114650   4.940   3.685   5.133
 3486WAT     H214651   4.983   3.567   5.189
 3486WAT    EPW14652   4.998   3.639   5.160
 3487WAT      O14653   5.317   4.180   5.065
 3487WAT     H114654   5.277   4.150   4.994
 3487WAT     H214655   5.318   4.112   5.119
 3487WAT    EPW14656   5.311   4.166   5.063
 3488WAT      O14657   6.335   3.977   5.639
 3488WAT     H114658   6.340   3.960   5.553
 3488WAT     H214659   6.281   3.916   5.669
 3488WAT    EPW14660   6.328   3.966   5.631
 3489WAT      O14661   5.333   4.405   5.457
 3489WAT     H114662   5.362   4.351   5.519
 3489WAT     H214663   5.253   4.376   5.441
 3489WAT    EPW14664   5.326   4.393   5.464
 3490WAT      O14665   5.699   3.274   5.444
 3490WAT     H114666   5.726   3.339   5.393
 3490WAT     H214667   5.710   3.203   5.394
 3490WAT    EPW14668   5.705   3.273   5.429
 3491WAT      O14669   5.213   4.641   5.078
 3491WAT     H114670   5.247   4.650   4.998
 3491WAT     H214671   5.252   4.570   5.109
 3491WAT    EPW14672   5.223   4.632   5.071
 3492WAT      O14673   5.064   4.511   6.203
 3492WAT     H114674   5.095   4.483   6.280
 3492WAT     H214675   5.004   4.451   6.182
 3492WAT    EPW14676   5.059   4.498   6.211
 3493WAT      O14677   5.715   4.335   6.650
 3493WAT     H114678   5.695   4.321   6.733
 3493WAT     H214679   5.644   4.306   6.607
 3493WAT    EPW14680   5.701   4.329   6.656
 3494WAT      O14681   5.252   4.004   5.661
 3494WAT     H114682   5.205   4.009   5.587
 3494WAT     H214683   5.294   3.929   5.653
 3494WAT    EPW14684   5.251   3.994   5.649
 3495WAT      O14685   5.705   3.620   6.229
 3495WAT     H114686   5.770   3.623   6.171
 3495WAT     H214687   5.675   3.538   6.221
 3495WAT    EPW14688   5.710   3.608   6.219
 3496WAT      O14689   5.694   4.612   6.387
 3496WAT     H114690   5.698   4.679   6.331
 3496WAT     H214691   5.778   4.595   6.405
 3496WAT    EPW14692   5.707   4.619   6.381
 3497WAT      O14693   5.394   3.769   5.676
 3497WAT     H114694   5.462   3.718   5.697
 3497WAT     H214695   5.327   3.713   5.672
 3497WAT    EPW14696   5.394   3.753   5.679
 3498WAT      O14697   5.834   4.440   5.821
 3498WAT     H114698   5.860   4.358   5.838
 3498WAT     H214699   5.909   4.484   5.813
 3498WAT    EPW14700   5.849   4.434   5.822
 3499WAT      O14701   5.883   4.347   5.456
 3499WAT     H114702   5.927   4.287   5.501
 3499WAT     H214703   5.905   4.332   5.373
 3499WAT    EPW14704   5.892   4.336   5.450
 3500WAT      O14705   6.030   3.843   6.676
 3500WAT     H114706   5.948   3.838   6.647
 3500WAT     H214707   6.026   3.902   6.740
 3500WAT    EPW14708   6.018   3.851   6.681
 3501WAT      O14709   5.429   3.315   5.506
 3501WAT     H114710   5.387   3.372   5.454
 3501WAT     H214711   5.511   3.317   5.477
 3501WAT    EPW14712   5.435   3.324   5.494
 3502WAT      O14713   6.484   3.085   6.484
 3502WAT     H114714   6.456   3.153   6.436
 3502WAT     H214715   6.412   3.057   6.523
 3502WAT    EPW14716   6.469   3.091   6.483
 3503WAT      O14717   5.810   3.253   5.705
 3503WAT     H114718   5.818   3.338   5.726
 3503WAT     H214719   5.768   3.256   5.628
 3503WAT    EPW14720   5.805   3.266   5.697
 3504WAT      O14721   6.208   3.475   4.973
 3504WAT     H114722   6.162   3.534   5.018
 3504WAT     H214723   6.233   3.419   5.035
 3504WAT    EPW14724   6.205   3.476   4.989
 3505WAT      O14725   5.092   3.784   5.911
 3505WAT     H114726   5.087   3.871   5.915
 3505WAT     H214727   5.015   3.758   5.943
 3505WAT    EPW14728   5.080   3.793   5.916
 3506WAT      O14729   5.020   4.726   5.709
 3506WAT     H114730   4.945   4.752   5.672
 3506WAT     H214731   5.065   4.692   5.642
 3506WAT    EPW14732   5.016   4.725   5.693
 3507WAT      O14733   5.654   4.500   5.415
 3507WAT     H114734   5.609   4.488   5.489
 3507WAT     H214735   5.730   4.459   5.430
 3507WAT    EPW14736   5.659   4.492   5.428
 3508WAT      O14737   6.237   4.752   5.229
 3508WAT     H114738   6.308   4.803   5.235
 3508WAT     H214739   6.266   4.673   5.252
 3508WAT    EPW14740   6.252   4.748   5.233
 3509WAT      O14741   6.048   4.788   5.426
 3509WAT     H114742   6.073   4.859   5.470
 3509WAT     H214743   6.108   4.781   5.363
 3509WAT    EPW14744   6.061   4.797   5.423
 3510WAT      O14745   5.328   3.246   5.960
 3510WAT     H114746   5.297   3.177   5.917
 3510WAT     H214747   5.388   3.211   6.014
 3510WAT    EPW14748   5.332   3.230   5.962
 3511WAT      O14749   5.681   3.448   6.865
 3511WAT     H114750   5.690   3.412   6.786
 3511WAT     H214751   5.720   3.525   6.858
 3511WAT    EPW14752   5.688   3.454   6.853
 3512WAT      O14753   5.181   4.636   5.501
 3512WAT     H114754   5.242   4.574   5.511
 3512WAT     H214755   5.215   4.689   5.442
 3512WAT    EPW14756   5.195   4.634   5.494
 3513WAT      O14757   6.813   3.432   5.679
 3513WAT     H114758   6.763   3.503   5.683
 3513WAT     H214759   6.756   3.367   5.663
 3513WAT    EPW14760   6.797   3.433   5.677
 3514WAT      O14761   6.286   4.773   6.225
 3514WAT     H114762   6.353   4.827   6.214
 3514WAT     H214763   6.273   4.739   6.145
 3514WAT    EPW14764   6.294   4.776   6.211
 3515WAT      O14765   5.275   3.367   6.799
 3515WAT     H114766   5.196   3.333   6.785
 3515WAT     H214767   5.324   3.331   6.736
 3515WAT    EPW14768   5.270   3.357   6.788
 3516WAT      O14769   5.347   4.452   5.852
 3516WAT     H114770   5.406   4.438   5.789
 3516WAT     H214771   5.370   4.397   5.915
 3516WAT    EPW14772   5.359   4.442   5.852
 3517WAT      O14773   5.620   4.755   5.763
 3517WAT     H114774   5.699   4.776   5.732
 3517WAT     H214775   5.566   4.798   5.709
 3517WAT    EPW14776   5.624   4.765   5.750
 3518WAT      O14777   5.882   3.184   6.729
 3518WAT     H114778   5.900   3.110   6.686
 3518WAT     H214779   5.817   3.219   6.683
 3518WAT    EPW14780   5.875   3.178   6.716
 3519WAT      O14781   5.978   3.713   5.586
 3519WAT     H114782   6.002   3.657   5.523
 3519WAT     H214783   6.052   3.726   5.630
 3519WAT    EPW14784   5.993   3.706   5.583
 3520WAT      O14785   6.054   3.652   5.127
 3520WAT     H114786   6.077   3.733   5.149
 3520WAT     H214787   5.973   3.660   5.097
 3520WAT    EPW14788   6.046   3.665   5.126
 3521WAT      O14789   6.451   4.934   5.214
 3521WAT     H114790   6.499   4.912   5.144
 3521WAT     H214791   6.508   4.977   5.264
 3521WAT    EPW14792   6.467   4.937   5.211
 3522WAT      O14793   5.494   4.841   6.337
 3522WAT     H114794   5.516   4.824   6.419
 3522WAT     H214795   5.425   4.789   6.323
 3522WAT    EPW14796   5.487   4.830   6.347
 3523WAT      O14797   6.705   3.382   6.115
 3523WAT     H114798   6.772   3.371   6.059
 3523WAT     H214799   6.718   3.319   6.174
 3523WAT    EPW14800   6.717   3.371   6.115
 3524WAT      O14801   4.999   3.483   6.536
 3524WAT     H114802   4.986   3.557   6.581
 3524WAT     H214803   5.062   3.504   6.479
 3524WAT    EPW14804   5.006   3.497   6.534
 3525WAT      O14805   6.177   4.558   6.601
 3525WAT     H114806   6.170   4.583   6.684
 3525WAT     H214807   6.263   4.547   6.590
 3525WAT    EPW14808   6.189   4.560   6.611
 3526WAT      O14809   5.945   4.567   5.045
 3526WAT     H114810   5.913   4.630   5.097
 3526WAT     H214811   6.018   4.603   5.013
 3526WAT    EPW14812   5.951   4.582   5.048
 3527WAT      O14813   6.273   3.294   5.173
 3527WAT     H114814   6.328   3.226   5.175
 3527WAT     H214815   6.297   3.342   5.241
 3527WAT    EPW14816   6.285   3.291   5.183
 3528WAT      O14817   4.990   3.424   5.346
 3528WAT     H114818   4.963   3.342   5.334
 3528WAT     H214819   4.936   3.455   5.408
 3528WAT    EPW14820   4.978   3.417   5.354
 3529WAT      O14821   5.260   4.714   6.223
 3529WAT     H114822   5.198   4.653   6.221
 3529WAT     H214823   5.295   4.711   6.144
 3529WAT    EPW14824   5.256   4.705   6.211
 3530WAT      O14825   6.055   3.541   5.382
 3530WAT     H114826   6.018   3.463   5.372
 3530WAT     H214827   6.049   3.577   5.303
 3530WAT    EPW14828   6.049   3.535   5.369
 3531WAT      O14829   6.038   4.826   6.325
 3531WAT     H114830   6.116   4.813   6.288
 3531WAT     H214831   5.982   4.823   6.258
 3531WAT    EPW14832   6.041   4.824   6.310
 3532WAT      O14833   6.031   3.264   5.311
 3532WAT     H114834   5.961   3.245   5.261
 3532WAT     H214835   6.097   3.266   5.253
 3532WAT    EPW14836   6.030   3.262   5.295
 3533WAT      O14837   6.753   4.852   5.611
 3533WAT     H114838   6.715   4.928   5.628
 3533WAT     H214839   6.687   4.797   5.602
 3533WAT    EPW14840   6.738   4.855   5.612
 3534WAT      O14841   5.869   3.526   5.760
 3534WAT     H114842   5.896   3.591   5.708
 3534WAT     H214843   5.877   3.560   5.840
 3534WAT    EPW14844   5.874   3.541   5.764
 3535WAT      O14845   6.502   4.433   5.687
 3535WAT     H114846   6.564   4.374   5.671
 3535WAT     H214847   6.428   4.388   5.677
 3535WAT    EPW14848   6.500   4.418   5.683
 3536WAT      O14849   5.439   4.538   6.505
 3536WAT     H114850   5.514   4.572   6.478
 3536WAT     H214851   5.422   4.580   6.579
 3536WAT    EPW14852   5.448   4.549   6.512
 3537WAT      O14853   5.430   3.050   5.596
 3537WAT     H114854   5.427   3.133   5.569
 3537WAT     H214855   5.407   3.004   5.526
 3537WAT    EPW14856   5.426   3.055   5.582
 3538WAT      O14857   5.639   4.133   5.938
 3538WAT     H114858   5.661   4.117   6.021
 3538WAT     H214859   5.585   4.068   5.918
 3538WAT    EPW14860   5.635   4.121   5.948
 3539WAT      O14861   6.205   3.490   6.326
 3539WAT     H114862   6.198   3.531   6.402
 3539WAT     H214863   6.142   3.429   6.330
 3539WAT    EPW14864   6.195   3.487   6.338
 3540WAT      O14865   5.734   4.141   6.202
 3540WAT     H114866   5.709   4.225   6.210
 3540WAT     H214867   5.707   4.105   6.276
 3540WAT    EPW14868   5.726   4.148   6.214
 3541WAT      O14869   6.347   4.205   6.215
 3541WAT     H114870   6.270   4.181   6.249
 3541WAT     H214871   6.344   4.293   6.220
 3541WAT    EPW14872   6.335   4.215   6.221
 3542WAT      O14873   6.391   3.084   5.633
 3542WAT     H114874   6.380   3.075   5.719
 3542WAT     H214875   6.424   3.008   5.608
 3542WAT    EPW14876   6.394   3.072   5.642
 3543WAT      O14877   4.967   4.491   6.831
 3543WAT     H114878   5.028   4.541   6.868
 3543WAT     H214879   4.978   4.413   6.870
 3543WAT    EPW14880   4.977   4.487   6.842
 3544WAT      O14881   6.591   3.541   6.427
 3544WAT     H114882   6.673   3.519   6.448
 3544WAT     H214883   6.548   3.532   6.502
 3544WAT    EPW14884   6.597   3.536   6.441
 3545WAT      O14885   5.494   3.366   5.773
 3545WAT     H114886   5.461   3.348   5.695
 3545WAT     H214887   5.439   3.328   5.829
 3545WAT    EPW14888   5.481   3.358   5.770
 3546WAT      O14889   6.655   4.243   5.201
 3546WAT     H114890   6.653   4.192   5.271
 3546WAT     H214891   6.740   4.252   5.183
 3546WAT    EPW14892   6.667   4.237   5.208
 3547WAT      O14893   5.415   4.228   5.650
 3547WAT     H114894   5.493   4.204   5.617
 3547WAT     H214895   5.373   4.153   5.659
 3547WAT    EPW14896   5.421   4.214   5.646
 3548WAT      O14897   5.242   4.870   5.790
 3548WAT     H114898   5.167   4.834   5.763
 3548WAT     H214899   5.292   4.868   5.719
 3548WAT    EPW14900   5.238   4.865   5.776
 3549WAT      O14901   5.251   3.654   6.106
 3549WAT     H114902   5.333   3.658   6.076
 3549WAT     H214903   5.204   3.686   6.040
 3549WAT    EPW14904   5.256   3.659   6.092
 3550WAT      O14905   6.851   4.644   6.575
 3550WAT     H114906   6.776   4.649   6.530
 3550WAT     H214907   6.831   4.597   6.645
 3550WAT    EPW14908   6.837   4.638   6.579
 3551WAT      O14909   6.463   3.892   5.096
 3551WAT     H114910   6.460   3.976   5.072
 3551WAT     H214911   6.433   3.894   5.178
 3551WAT    EPW14912   6.458   3.905   5.105
 3552WAT      O14913   5.650   4.169   5.508
 3552WAT     H114914   5.713   4.226   5.490
 3552WAT     H214915   5.662   4.106   5.447
 3552WAT    EPW14916   5.661   4.168   5.496
 3553WAT      O14917   6.782   3.361   5.078
 3553WAT     H114918   6.826   3.310   5.022
 3553WAT     H214919   6.737   3.414   5.026
 3553WAT    EPW14920   6.782   3.361   5.062
 3554WAT      O14921   5.093   4.336   5.796
 3554WAT     H114922   5.046   4.398   5.836
 3554WAT     H214923   5.175   4.366   5.800
 3554WAT    EPW14924   5.098   4.350   5.802
 3555WAT      O14925   5.807   3.695   6.877
 3555WAT     H114926   5.764   3.724   6.947
 3555WAT     H214927   5.783   3.751   6.814
 3555WAT    EPW14928   5.797   3.708   6.878
 3556WAT      O14929   6.899   3.777   6.318
 3556WAT     H114930   6.955   3.710   6.320
 3556WAT     H214931   6.840   3.753   6.259
 3556WAT    EPW14932   6.898   3.764   6.310
 3557WAT      O14933   5.103   4.032   5.433
 3557WAT     H114934   5.072   3.951   5.432
 3557WAT     H214935   5.167   4.030   5.374
 3557WAT    EPW14936   5.108   4.020   5.424
 3558WAT      O14937   6.663   3.251   5.314
 3558WAT     H114938   6.737   3.214   5.341
 3558WAT     H214939   6.687   3.294   5.242
 3558WAT    EPW14940   6.678   3.252   5.308
 3559WAT      O14941   6.055   4.605   5.781
 3559WAT     H114942   6.006   4.674   5.760
 3559WAT     H214943   6.082   4.575   5.704
 3559WAT    EPW14944   6.052   4.611   5.767
 3560WAT      O14945   5.072   4.415   5.357
 3560WAT     H114946   5.079   4.495   5.390
 3560WAT     H214947   5.027   4.372   5.418
 3560WAT    EPW14948   5.067   4.420   5.371
 3561WAT      O14949   5.436   4.284   6.053
 3561WAT     H114950   5.486   4.328   6.109
 3561WAT     H214951   5.493   4.239   6.005
 3561WAT    EPW14952   5.451   4.284   6.054
 3562WAT      O14953   6.350   3.525   5.770
 3562WAT     H114954   6.378   3.490   5.845
 3562WAT     H214955   6.283   3.473   5.747
 3562WAT    EPW14956   6.344   3.512   5.778
 3563WAT      O14957   5.029   4.297   5.108
 3563WAT     H114958   5.098   4.251   5.082
 3563WAT     H214959   5.056   4.333   5.183
 3563WAT    EPW14960   5.043   4.296   5.116
 3564WAT      O14961   5.105   4.072   5.885
 3564WAT     H114962   5.156   4.044   5.820
 3564WAT     H214963   5.099   4.158   5.870
 3564WAT    EPW14964   5.112   4.081   5.873
 3565WAT      O14965   5.762   3.468   5.259
 3565WAT     H114966   5.740   3.443   5.178
 3565WAT     H214967   5.722   3.545   5.267
 3565WAT    EPW14968   5.753   3.476   5.248
 3566WAT      O14969   6.611   4.679   6.421
 3566WAT     H114970   6.570   4.755   6.428
 3566WAT     H214971   6.613   4.664   6.335
 3566WAT    EPW14972   6.606   4.688   6.409
 3567WAT      O14973   5.585   4.493   5.688
 3567WAT     H114974   5.590   4.577   5.711
 3567WAT     H214975   5.657   4.457   5.724
 3567WAT    EPW14976   5.597   4.500   5.697
 3568WAT      O14977   5.351   3.840   6.718
 3568WAT     H114978   5.316   3.773   6.761
 3568WAT     H214979   5.364   3.808   6.638
 3568WAT    EPW14980   5.348   3.826   6.713
 3569WAT      O14981   5.339   3.716   5.163
 3569WAT     H114982   5.317   3.651   5.217
 3569WAT     H214983   5.288   3.704   5.094
 3569WAT    EPW14984   5.328   3.705   5.161
 3570WAT      O14985   5.453   3.935   5.902
 3570WAT     H114986   5.431   3.898   5.826
 3570WAT     H214987   5.476   3.867   5.952
 3570WAT    EPW14988   5.453   3.919   5.898
 3571WAT      O14989   5.438   3.900   6.256
 3571WAT     H114990   5.462   3.847   6.192
 3571WAT     H214991   5.380   3.953   6.219
 3571WAT    EPW14992   5.433   3.900   6.241
 3572WAT      O14993   6.488   3.703   6.037
 3572WAT     H114994   6.421   3.730   6.087
 3572WAT     H214995   6.484   3.756   5.968
 3572WAT    EPW14996   6.477   3.715   6.034
 3573WAT      O14997   5.810   4.806   6.166
 3573WAT     H114998   5.786   4.737   6.118
 3573WAT     H214999   5.797   4.873   6.111
 3573WAT    EPW15000   5.805   4.806   6.151
 3574WAT      O15001   6.054   3.257   6.398
 3574WAT     H115002   6.072   3.175   6.376
 3574WAT     H215003   6.084   3.263   6.480
 3574WAT    EPW15004   6.061   3.246   6.407
 3575WAT      O15005   6.317   3.447   5.396
 3575WAT     H115006   6.372   3.514   5.405
 3575WAT     H215007   6.238   3.484   5.402
 3575WAT    EPW15008   6.313   3.462   5.398
 3576WAT      O15009   5.219   4.072   6.787
 3576WAT     H115010   5.216   4.119   6.714
 3576WAT     H215011   5.263   4.001   6.764
 3576WAT    EPW15012   5.225   4.069   6.773
 3577WAT      O15013   6.379   4.261   6.661
 3577WAT     H115014   6.408   4.340   6.637
 3577WAT     H215015   6.410   4.208   6.598
 3577WAT    EPW15016   6.388   4.265   6.648
 3578WAT      O15017   5.798   4.605   6.678
 3578WAT     H115018   5.833   4.596   6.757
 3578WAT     H215019   5.769   4.525   6.659
 3578WAT    EPW15020   5.799   4.592   6.686
 3579WAT      O15021   5.890   3.616   6.021
 3579WAT     H115022   5.957   3.672   6.021
 3579WAT     H215023   5.925   3.542   6.050
 3579WAT    EPW15024   5.905   3.613   6.025
 3580WAT      O15025   6.127   3.904   5.220
 3580WAT     H115026   6.104   3.951   5.150
 3580WAT     H215027   6.065   3.924   5.279
 3580WAT    EPW15028   6.114   3.914   5.219
 3581WAT      O15029   6.679   4.221   5.644
 3581WAT     H115030   6.679   4.173   5.717
 3581WAT     H215031   6.649   4.166   5.583
 3581WAT    EPW15032   6.674   4.206   5.646
 3582WAT      O15033   6.252   4.646   5.979
 3582WAT     H115034   6.188   4.626   5.923
 3582WAT     H215035   6.290   4.716   5.942
 3582WAT    EPW15036   6.248   4.654   5.965
 3583WAT      O15037   6.256   4.277   5.958
 3583WAT     H115038   6.181   4.312   5.985
 3583WAT     H215039   6.282   4.229   6.026
 3583WAT    EPW15040   6.249   4.275   5.972
 3584WAT      O15041   5.617   4.761   5.338
 3584WAT     H115042   5.623   4.683   5.376
 3584WAT     H215043   5.693   4.768   5.295
 3584WAT    EPW15044   5.629   4.751   5.337
 3585WAT      O15045   5.526   3.118   5.167
 3585WAT     H115046   5.474   3.077   5.223
 3585WAT     H215047   5.481   3.189   5.144
 3585WAT    EPW15048   5.512   3.123   5.172
 3586WAT      O15049   5.864   4.772   5.215
 3586WAT     H115050   5.919   4.782   5.282
 3586WAT     H215051   5.868   4.850   5.175
 3586WAT    EPW15052   5.873   4.785   5.219
 3587WAT      O15053   6.466   4.109   6.446
 3587WAT     H115054   6.433   4.146   6.374
 3587WAT     H215055   6.551   4.125   6.440
 3587WAT    EPW15056   6.474   4.117   6.435
 3588WAT      O15057   6.176   4.693   6.850
 3588WAT     H115058   6.211   4.709   6.928
 3588WAT     H215059   6.206   4.758   6.801
 3588WAT    EPW15060   6.186   4.705   6.854
 3589WAT      O15061   6.595   3.217   6.700
 3589WAT     H115062   6.561   3.173   6.632
 3589WAT     H215063   6.598   3.157   6.763
 3589WAT    EPW15064   6.590   3.201   6.699
 3590WAT      O15065   5.330   3.981   5.263
 3590WAT     H115066   5.325   3.899   5.236
 3590WAT     H215067   5.407   3.985   5.304
 3590WAT    EPW15068   5.340   3.970   5.265
 3591WAT      O15069   6.110   4.124   6.331
 3591WAT     H115070   6.061   4.163   6.392
 3591WAT     H215071   6.141   4.053   6.372
 3591WAT    EPW15072   6.107   4.119   6.346
 3592WAT      O15073   4.861   3.170   5.349
 3592WAT     H115074   4.906   3.112   5.301
 3592WAT     H215075   4.861   3.134   5.429
 3592WAT    EPW15076   4.868   3.156   5.354
 3593WAT      O15077   5.953   3.946   5.435
 3593WAT     H115078   5.975   4.010   5.490
 3593WAT     H215079   5.954   3.875   5.486
 3593WAT    EPW15080   5.956   3.945   5.451
 3594WAT      O15081   6.506   4.414   5.978
 3594WAT     H115082   6.525   4.435   5.896
 3594WAT     H215083   6.426   4.379   5.972
 3594WAT    EPW15084   6.497   4.412   5.965
 3595WAT      O15085   5.396   3.354   5.089
 3595WAT     H115086   5.339   3.360   5.023
 3595WAT     H215087   5.465   3.399   5.060
 3595WAT    EPW15088   5.398   3.362   5.075
 3596WAT      O15089   5.901   4.169   5.850
 3596WAT     H115090   5.817   4.150   5.862
 3596WAT     H215091   5.940   4.137   5.922
 3596WAT    EPW15092   5.894   4.161   5.862
 3597WAT      O15093   5.537   4.756   4.965
 3597WAT     H115094   5.578   4.687   5.000
 3597WAT     H215095   5.552   4.820   5.022
 3597WAT    EPW15096   5.545   4.755   4.979
 3598WAT      O15097   5.256   4.084   6.134
 3598WAT     H115098   5.310   4.151   6.117
 3598WAT     H215099   5.223   4.064   6.056
 3598WAT    EPW15100   5.259   4.091   6.120
 3599WAT      O15101   5.597   3.614   5.797
 3599WAT     H115102   5.681   3.600   5.778
 3599WAT     H215103   5.561   3.535   5.793
 3599WAT    EPW15104   5.604   3.600   5.794
 3600WAT      O15105   6.834   4.815   5.179
 3600WAT     H115106   6.899   4.764   5.150
 3600WAT     H215107   6.786   4.761   5.228
 3600WAT    EPW15108   6.837   4.800   5.182
 3601WAT      O15109   5.043   3.758   5.434
 3601WAT     H115110   5.071   3.711   5.502
 3601WAT     H215111   5.061   3.706   5.365
 3601WAT    EPW15112   5.050   3.743   5.434
 3602WAT      O15113   6.585   4.049   6.143
 3602WAT     H115114   6.588   3.979   6.195
 3602WAT     H215115   6.506   4.083   6.159
 3602WAT    EPW15116   6.573   4.044   6.153
 3603WAT      O15117   5.603   3.879   4.977
 3603WAT     H115118   5.520   3.853   4.981
 3603WAT     H215119   5.617   3.891   4.891
 3603WAT    EPW15120   5.593   3.877   4.965
 3604WAT      O15121   5.212   4.200   6.542
 3604WAT     H115122   5.172   4.148   6.484
 3604WAT     H215123   5.188   4.280   6.518
 3604WAT    EPW15124   5.203   4.204   6.530
 3605WAT      O15125   6.689   4.061   5.880
 3605WAT     H115126   6.658   4.063   5.961
 3605WAT     H215127   6.775   4.054   5.891
 3605WAT    EPW15128   6.697   4.060   5.894
 3606WAT      O15129   5.615   3.706   5.257
 3606WAT     H115130   5.637   3.789   5.274
 3606WAT     H215131   5.535   3.712   5.225
 3606WAT    EPW15132   5.607   3.719   5.255
 3607WAT      O15133   6.471   3.472   6.677
 3607WAT     H115134   6.400   3.474   6.727
 3607WAT     H215135   6.500   3.390   6.686
 3607WAT    EPW15136   6.465   3.460   6.686
 3608WAT      O15137   5.132   3.415   5.844
 3608WAT     H115138   5.063   3.401   5.894
 3608WAT     H215139   5.196   3.372   5.885
 3608WAT    EPW15140   5.131   3.406   5.858
 3609WAT      O15141   6.827   4.574   5.962
 3609WAT     H115142   6.870   4.617   5.899
 3609WAT     H215143   6.887   4.563   6.024
 3609WAT    EPW15144   6.842   4.579   5.962
 3610WAT      O15145   6.332   3.808   6.759
 3610WAT     H115146   6.359   3.829   6.840
 3610WAT     H215147   6.250   3.838   6.757
 3610WAT    EPW15148   6.324   3.816   6.771
 3611WAT      O15149   6.565   3.861   6.614
 3611WAT     H115150   6.582   3.944   6.639
 3611WAT     H215151   6.492   3.842   6.658
 3611WAT    EPW15152   6.557   3.871   6.624
 3612WAT      O15153   6.528   4.488   5.179
 3612WAT     H115154   6.564   4.409   5.189
 3612WAT     H215155   6.452   4.482   5.222
 3612WAT    EPW15156   6.522   4.476   5.187
 3613WAT      O15157   6.597   3.617   5.681
 3613WAT     H115158   6.528   3.571   5.709
 3613WAT     H215159   6.588   3.694   5.721
 3613WAT    EPW15160   6.586   3.621   5.691
 3614WAT      O15161   6.868   3.945   6.796
 3614WAT     H115162   6.874   3.889   6.730
 3614WAT     H215163   6.948   3.980   6.801
 3614WAT    EPW15164   6.881   3.942   6.787
 3615WAT      O15165   6.733   4.193   6.430
 3615WAT     H115166   6.799   4.143   6.401
 3615WAT     H215167   6.723   4.252   6.367
 3615WAT    EPW15168   6.741   4.194   6.416
 3616WAT      O15169   6.210   4.291   5.119
 3616WAT     H115170   6.284   4.246   5.111
 3616WAT     H215171   6.179   4.295   5.037
 3616WAT    EPW15172   6.216   4.285   5.106
 3617WAT      O15173   5.644   4.411   6.196
 3617WAT     H115174   5.650   4.462   6.266
 3617WAT     H215175   5.662   4.464   6.130
 3617WAT    EPW15176   5.647   4.426   6.197
 3618WAT      O15177   5.483   4.260   6.508
 3618WAT     H115178   5.403   4.229   6.522
 3618WAT     H215179   5.471   4.345   6.497
 3618WAT    EPW15180   5.470   4.268   6.508
 3619WAT      O15181   6.432   3.323   6.339
 3619WAT     H115182   6.492   3.385   6.351
 3619WAT     H215183   6.357   3.368   6.330
 3619WAT    EPW15184   6.429   3.339   6.339
 3620WAT      O15185   5.977   4.049   6.099
 3620WAT     H115186   6.027   4.069   6.167
 3620WAT     H215187   5.896   4.064   6.128
 3620WAT    EPW15188   5.972   4.054   6.113
 3621WAT      O15189   5.647   3.602   6.501
 3621WAT     H115190   5.658   3.518   6.523
 3621WAT     H215191   5.675   3.605   6.418
 3621WAT    EPW15192   5.653   3.590   6.492
 3622WAT      O15193   5.885   4.810   5.681
 3622WAT     H115194   5.886   4.896   5.700
 3622WAT     H215195   5.909   4.808   5.597
 3622WAT    EPW15196   5.889   4.823   5.671
 3623WAT      O15197   6.490   3.121   6.150
 3623WAT     H115198   6.466   3.194   6.192
 3623WAT     H215199   6.574   3.111   6.173
 3623WAT    EPW15200   6.499   3.131   6.160
 3624WAT      O15201   5.780   3.200   6.356
 3624WAT     H115202   5.862   3.229   6.354
 3624WAT     H215203   5.783   3.127   6.309
 3624WAT    EPW15204   5.793   3.194   6.349
 3625WAT      O15205   5.705   4.604   6.002
 3625WAT     H115206   5.656   4.651   5.947
 3625WAT     H215207   5.751   4.553   5.950
 3625WAT    EPW15208   5.705   4.604   5.986
 3626WAT      O15209   6.113   4.251   6.735
 3626WAT     H115210   6.194   4.253   6.704
 3626WAT     H215211   6.064   4.271   6.666
 3626WAT    EPW15212   6.118   4.254   6.720
 3627WAT      O15213   6.455   4.522   6.594
 3627WAT     H115214   6.491   4.550   6.668
 3627WAT     H215215   6.502   4.563   6.532
 3627WAT    EPW15216   6.467   4.532   6.596
 3628WAT      O15217   6.710   3.773   5.077
 3628WAT     H115218   6.760   3.826   5.029
 3628WAT     H215219   6.632   3.812   5.076
 3628WAT    EPW15220   6.706   3.787   5.070
 3629WAT      O15221   5.818   4.100   5.093
 3629WAT     H115222   5.744   4.126   5.054
 3629WAT     H215223   5.852   4.173   5.124
 3629WAT    EPW15224   5.812   4.114   5.092
 3630WAT      O15225   5.522   3.710   6.048
 3630WAT     H115226   5.548   3.675   5.972
 3630WAT     H215227   5.581   3.682   6.105
 3630WAT    EPW15228   5.535   3.701   6.045
 3631WAT      O15229   6.201   3.660   6.549
 3631WAT     H115230   6.134   3.702   6.586
 3631WAT     H215231   6.261   3.658   6.613
 3631WAT    EPW15232   6.200   3.666   6.564
 3632WAT      O15233   6.262   3.734   6.195
 3632WAT     H115234   6.268   3.787   6.264
 3632WAT     H215235   6.245   3.657   6.231
 3632WAT    EPW15236   6.260   3.731   6.211
 3633WAT      O15237   5.964   4.818   6.595
 3633WAT     H115238   5.976   4.813   6.508
 3633WAT     H215239   5.921   4.745   6.614
 3633WAT    EPW15240   5.960   4.807   6.585
 3634WAT      O15241   6.483   3.673   5.435
 3634WAT     H115242   6.510   3.651   5.516
 3634WAT     H215243   6.555   3.707   5.399
 3634WAT    EPW15244   6.498   3.675   5.442
 3635WAT      O15245   5.765   3.196   5.983
 3635WAT     H115246   5.682   3.183   6.005
 3635WAT     H215247   5.762   3.206   5.896
 3635WAT    EPW15248   5.752   3.196   5.973
 3636WAT      O15249   6.615   3.251   5.595
 3636WAT     H115250   6.537   3.214   5.611
 3636WAT     H215251   6.612   3.269   5.510
 3636WAT    EPW15252   6.603   3.248   5.585
 3637WAT      O15253   6.606   4.067   5.417
 3637WAT     H115254   6.651   3.993   5.404
 3637WAT     H215255   6.523   4.043   5.404
 3637WAT    EPW15256   6.601   4.053   5.413
 3638WAT      O15257   5.953   4.288   6.504
 3638WAT     H115258   5.877   4.290   6.547
 3638WAT     H215259   5.959   4.368   6.471
 3638WAT    EPW15260   5.943   4.300   6.506
 3639WAT      O15261   5.027   3.262   6.708
 3639WAT     H115262   5.018   3.332   6.656
 3639WAT     H215263   4.956   3.214   6.690
 3639WAT    EPW15264   5.015   3.265   6.698
 3640WAT      O15265   5.494   4.942   6.070
 3640WAT     H115266   5.497   4.923   6.155
 3640WAT     H215267   5.472   4.866   6.032
 3640WAT    EPW15268   5.491   4.928   6.077
 3641WAT      O15269   5.280   3.479   5.314
 3641WAT     H115270   5.307   3.431   5.246
 3641WAT     H215271   5.197   3.455   5.325
 3641WAT    EPW15272   5.272   3.468   5.306
 3642WAT      O15273   6.281   4.247   5.683
 3642WAT     H115274   6.270   4.254   5.769
 3642WAT     H215275   6.308   4.165   5.673
 3642WAT    EPW15276   6.283   4.236   5.694
 3643WAT      O15277   6.025   4.163   5.601
 3643WAT     H115278   5.985   4.159   5.678
 3643WAT     H215279   6.104   4.193   5.620
 3643WAT    EPW15280   6.031   4.167   5.615
 3644WAT      O15281   5.978   4.557   6.411
 3644WAT     H115282   6.037   4.557   6.475
 3644WAT     H215283   6.002   4.623   6.360
 3644WAT    EPW15284   5.990   4.567   6.413
 3645WAT      O15285   6.828   3.767   6.586
 3645WAT     H115286   6.742   3.782   6.593
 3645WAT     H215287   6.845   3.778   6.501
 3645WAT    EPW15288   6.818   3.771   6.575
 3646WAT      O15289   6.262   3.905   6.416
 3646WAT     H115290   6.251   3.838   6.471
 3646WAT     H215291   6.337   3.940   6.441
 3646WAT    EPW15292   6.271   3.900   6.428
 3647WAT      O15293   5.156   4.860   6.611
 3647WAT     H115294   5.093   4.800   6.605
 3647WAT     H215295   5.116   4.930   6.644
 3647WAT    EPW15296   5.141   4.862   6.615
 3648WAT      O15297   6.030   4.028   6.882
 3648WAT     H115298   6.055   4.100   6.840
 3648WAT     H215299   5.948   4.045   6.906
 3648WAT    EPW15300   6.022   4.041   6.880
 3649WAT      O15301   6.352   4.902   5.917
 3649WAT     H115302   6.292   4.962   5.938
 3649WAT     H215303   6.414   4.913   5.977
 3649WAT    EPW15304   6.352   4.912   5.929
 3650WAT      O15305   6.042   4.380   6.106
 3650WAT     H115306   5.990   4.331   6.155
 3650WAT     H215307   6.096   4.417   6.163
 3650WAT    EPW15308   6.042   4.378   6.121
 3651WAT      O15309   6.583   4.598   6.830
 3651WAT     H115310   6.663   4.564   6.827
 3651WAT     H215311   6.548   4.562   6.901
 3651WAT    EPW15312   6.590   4.587   6.840
 3652WAT      O15313   5.395   3.722   6.469
 3652WAT     H115314   5.408   3.779   6.404
 3652WAT     H215315   5.473   3.683   6.478
 3652WAT    EPW15316   5.408   3.725   6.461
 3653WAT      O15317   5.202   3.560   6.356
 3653WAT     H115318   5.215   3.578   6.272
 3653WAT     H215319   5.263   3.607   6.396
 3653WAT    EPW15320   5.213   3.570   6.350
 3654WAT      O15321   6.707   3.816   5.352
 3654WAT     H115322   6.718   3.806   5.266
 3654WAT     H215323   6.781   3.785   5.385
 3654WAT    EPW15324   6.720   3.810   5.344
 3655WAT      O15325   5.413   3.231   6.601
 3655WAT     H115326   5.377   3.151   6.603
 3655WAT     H215327   5.393   3.260   6.522
 3655WAT    EPW15328   5.405   3.223   6.590
 3656WAT      O15329   6.093   4.526   5.514
 3656WAT     H115330   6.072   4.606   5.486
 3656WAT     H215331   6.022   4.479   5.499
 3656WAT    EPW15332   6.080   4.531   5.508
 3657WAT      O15333   6.578   3.826   6.333
 3657WAT     H115334   6.579   3.738   6.335
 3657WAT     H215335   6.570   3.848   6.417
 3657WAT    EPW15336   6.577   3.816   6.346
 3658WAT      O15337   5.083   4.043   6.350
 3658WAT     H115338   5.134   4.058   6.281
 3658WAT     H215339   5.067   3.958   6.345
 3658WAT    EPW15340   5.088   4.033   6.339
 3659WAT      O15341   5.149   3.649   4.918
 3659WAT     H115342   5.099   3.647   4.989
 3659WAT     H215343   5.171   3.565   4.907
 3659WAT    EPW15344   5.145   3.636   4.927
 3660WAT      O15345   6.137   3.274   6.666
 3660WAT     H115346   6.166   3.340   6.715
 3660WAT     H215347   6.057   3.258   6.698
 3660WAT    EPW15348   6.129   3.282   6.678
 3661WAT      O15349   6.115   3.376   5.747
 3661WAT     H115350   6.036   3.414   5.746
 3661WAT     H215351   6.107   3.311   5.690
 3661WAT    EPW15352   6.102   3.372   5.739
 3662WAT      O15353   5.606   4.510   5.125
 3662WAT     H115354   5.639   4.510   5.206
 3662WAT     H215355   5.521   4.494   5.138
 3662WAT    EPW15356   5.598   4.508   5.139
 3663WAT      O15357   6.440   3.430   6.016
 3663WAT     H115358   6.517   3.395   6.038
 3663WAT     H215359   6.451   3.515   6.035
 3663WAT    EPW15360   6.453   3.438   6.022
 3664WAT      O15361   5.623   4.023   6.431
 3664WAT     H115362   5.580   4.094   6.459
 3664WAT     H215363   5.565   3.983   6.379
 3664WAT    EPW15364   5.608   4.028   6.427
 3665WAT      O15365   6.525   3.856   5.803
 3665WAT     H115366   6.582   3.918   5.824
 3665WAT     H215367   6.468   3.896   5.751
 3665WAT    EPW15368   6.525   3.871   5.799
 3666WAT      O15369   6.528   4.691   5.569
 3666WAT     H115370   6.518   4.614   5.608
 3666WAT     H215371   6.564   4.671   5.492
 3666WAT    EPW15372   6.532   4.677   5.563
 3667WAT      O15373   5.352   4.430   5.181
 3667WAT     H115374   5.355   4.418   5.267
 3667WAT     H215375   5.337   4.350   5.150
 3667WAT    EPW15376   5.351   4.416   5.189
 3668WAT      O15377   5.596   4.251   5.006
 3668WAT     H115378   5.513   4.227   5.019
 3668WAT     H215379   5.601   4.329   5.045
 3668WAT    EPW15380   5.584   4.259   5.014
 3669WAT      O15381   5.596   3.372   6.234
 3669WAT     H115382   5.518   3.346   6.261
 3669WAT     H215383   5.650   3.310   6.263
 3669WAT    EPW15384   5.593   3.359   6.242
 3670WAT      O15385   6.732   3.165   6.296
 3670WAT     H115386   6.692   3.144   6.371
 3670WAT     H215387   6.814   3.139   6.308
 3670WAT    EPW15388   6.738   3.158   6.309
 3671WAT      O15389   5.959   3.363   6.100
 3671WAT     H115390   5.899   3.311   6.065
 3671WAT     H215391   6.035   3.326   6.077
 3671WAT    EPW15392   5.962   3.350   6.092
 3672WAT      O15393   6.290   4.481   6.209
 3672WAT     H115394   6.306   4.550   6.261
 3672WAT     H215395   6.290   4.516   6.129
 3672WAT    EPW15396   6.292   4.497   6.205
 3673WAT      O15397   6.244   4.876   6.643
 3673WAT     H115398   6.171   4.838   6.614
 3673WAT     H215399   6.220   4.958   6.658
 3673WAT    EPW15400   6.230   4.883   6.641
 3674WAT      O15401   5.755   3.833   6.617
 3674WAT     H115402   5.723   3.760   6.581
 3674WAT     H215403   5.720   3.897   6.568
 3674WAT    EPW15404   5.745   3.832   6.605
 3675WAT      O15405   5.804   3.165   5.151
 3675WAT     H115406   5.823   3.173   5.066
 3675WAT     H215407   5.717   3.162   5.153
 3675WAT    EPW15408   5.794   3.166   5.139
 3676WAT      O15409   6.702   4.309   6.170
 3676WAT     H115410   6.681   4.225   6.156
 3676WAT     H215411   6.650   4.352   6.114
 3676WAT    EPW15412   6.691   4.303   6.159
 3677WAT      O15413   5.593   4.810   6.609
 3677WAT     H115414   5.582   4.802   6.695
 3677WAT     H215415   5.659   4.755   6.592
 3677WAT    EPW15416   5.601   4.801   6.619
 3678WAT      O15417   6.607   4.630   6.140
 3678WAT     H115418   6.678   4.630   6.089
 3678WAT     H215419   6.554   4.573   6.100
 3678WAT    EPW15420   6.610   4.621   6.126
 3679WAT      O15421   5.345   3.317   6.350
 3679WAT     H115422   5.289   3.254   6.329
 3679WAT     H215423   5.298   3.390   6.344
 3679WAT    EPW15424   5.330   3.319   6.346
 3680WAT      O15425   6.201   3.274   5.990
 3680WAT     H115426   6.271   3.323   6.010
 3680WAT     H215427   6.175   3.307   5.914
 3680WAT    EPW15428   6.208   3.286   5.982
 3681WAT      O15429   5.326   4.672   6.732
 3681WAT     H115430   5.391   4.710   6.777
 3681WAT     H215431   5.285   4.740   6.695
 3681WAT    EPW15432   5.330   4.688   6.733
 3682WAT      O15433   6.199   3.761   5.746
 3682WAT     H115434   6.250   3.691   5.758
 3682WAT     H215435   6.166   3.777   5.825
 3682WAT    EPW15436   6.202   3.753   5.759
 3683WAT      O15437   5.144   3.641   5.677
 3683WAT     H115438   5.121   3.691   5.744
 3683WAT     H215439   5.142   3.560   5.709
 3683WAT    EPW15440   5.141   3.637   5.691
 3684WAT      O15441   5.170   4.462   6.455
 3684WAT     H115442   5.120   4.518   6.499
 3684WAT     H215443   5.250   4.495   6.463
 3684WAT    EPW15444   5.174   4.475   6.463
 3685WAT      O15445   6.364   3.915   5.365
 3685WAT     H115446   6.385   3.832   5.386
 3685WAT     H215447   6.286   3.908   5.327
 3685WAT    EPW15448   6.356   3.902   5.363
 3686WAT      O15449   5.339   4.775   5.315
 3686WAT     H115450   5.305   4.755   5.237
 3686WAT     H215451   5.424   4.758   5.306
 3686WAT    EPW15452   5.346   4.770   5.302
 3687WAT      O15453   5.701   3.970   5.314
 3687WAT     H115454   5.728   4.004   5.238
 3687WAT     H215455   5.776   3.953   5.356
 3687WAT    EPW15456   5.716   3.973   5.309
 3688WAT      O15457   6.621   4.865   5.006
 3688WAT     H115458   6.693   4.854   5.054
 3688WAT     H215459   6.603   4.785   4.977
 3688WAT    EPW15460   6.629   4.852   5.008
 3689WAT      O15461   6.667   4.110   6.697
 3689WAT     H115462   6.737   4.071   6.732
 3689WAT     H215463   6.699   4.149   6.625
 3689WAT    EPW15464   6.682   4.110   6.691
 3690WAT      O15465   6.283   4.489   5.305
 3690WAT     H115466   6.236   4.483   5.379
 3690WAT     H215467   6.247   4.428   5.254
 3690WAT    EPW15468   6.270   4.479   5.309
 3691WAT      O15469   6.697   3.562   6.805
 3691WAT     H115470   6.686   3.641   6.839
 3691WAT     H215471   6.622   3.546   6.765
 3691WAT    EPW15472   6.684   3.571   6.804
 3692WAT      O15473   6.752   3.661   6.108
 3692WAT     H115474   6.670   3.685   6.090
 3692WAT     H215475   6.748   3.575   6.116
 3692WAT    EPW15476   6.739   3.652   6.106
 3693WAT      O15477   5.678   3.322   6.590
 3693WAT     H115478   5.708   3.287   6.516
 3693WAT     H215479   5.598   3.287   6.598
 3693WAT    EPW15480   5.671   3.312   6.580
 3694WAT      O15481   6.433   4.168   6.922
 3694WAT     H115482   6.512   4.193   6.951
 3694WAT     H215483   6.435   4.190   6.837
 3694WAT    EPW15484   6.445   4.175   6.914
 3695WAT      O15485   5.368   4.705   5.970
 3695WAT     H115486   5.369   4.625   5.934
 3695WAT     H215487   5.326   4.753   5.911
 3695WAT    EPW15488   5.362   4.700   5.956
 3696WAT      O15489   5.946   4.326   5.189
 3696WAT     H115490   6.030   4.306   5.176
 3696WAT     H215491   5.935   4.399   5.142
 3696WAT    EPW15492   5.957   4.334   5.180
 3697WAT      O15493   5.159   4.943   6.346
 3697WAT     H115494   5.163   4.913   6.428
 3697WAT     H215495   5.186   4.875   6.298
 3697WAT    EPW15496   5.163   4.928   6.351
 3698WAT      O15497   6.123   3.159   3.664
 3698WAT     H115498   6.117   3.190   3.583
 3698WAT     H215499   6.206   3.131   3.670
 3698WAT    EPW15500   6.134   3.159   3.653
 3699WAT      O15501   5.040   4.032   3.729
 3699WAT     H115502   4.959   4.053   3.752
 3699WAT     H215503   5.028   3.974   3.665
 3699WAT    EPW15504   5.026   4.026   3.723
 3700WAT      O15505   6.663   4.646   3.440
 3700WAT     H115506   6.728   4.590   3.458
 3700WAT     H215507   6.608   4.598   3.392
 3700WAT    EPW15508   6.665   4.631   3.436
 3701WAT      O15509   5.322   4.206   3.222
 3701WAT     H115510   5.301   4.180   3.142
 3701WAT     H215511   5.290   4.143   3.273
 3701WAT    EPW15512   5.314   4.193   3.218
 3702WAT      O15513   6.310   3.978   3.747
 3702WAT     H115514   6.310   3.946   3.666
 3702WAT     H215515   6.239   3.943   3.784
 3702WAT    EPW15516   6.299   3.968   3.740
 3703WAT      O15517   5.096   4.430   3.547
 3703WAT     H115518   5.134   4.364   3.589
 3703WAT     H215519   5.021   4.396   3.518
 3703WAT    EPW15520   5.091   4.415   3.549
 3704WAT      O15521   5.680   3.257   3.581
 3704WAT     H115522   5.696   3.308   3.512
 3704WAT     H215523   5.692   3.176   3.550
 3704WAT    EPW15524   5.685   3.252   3.566
 3705WAT      O15525   4.987   4.472   4.306
 3705WAT     H115526   5.008   4.461   4.390
 3705WAT     H215527   4.904   4.445   4.302
 3705WAT    EPW15528   4.978   4.466   4.318
 3706WAT      O15529   5.679   4.324   4.751
 3706WAT     H115530   5.654   4.296   4.830
 3706WAT     H215531   5.609   4.310   4.701
 3706WAT    EPW15532   5.665   4.318   4.755
 3707WAT      O15533   5.608   3.615   4.295
 3707WAT     H115534   5.681   3.627   4.249
 3707WAT     H215535   5.602   3.529   4.302
 3707WAT    EPW15536   5.618   3.604   4.290
 3708WAT      O15537   5.684   4.606   4.496
 3708WAT     H115538   5.706   4.669   4.440
 3708WAT     H215539   5.761   4.579   4.526
 3708WAT    EPW15540   5.699   4.611   4.492
 3709WAT      O15541   5.327   3.511   3.685
 3709WAT     H115542   5.379   3.512   3.755
 3709WAT     H215543   5.247   3.509   3.719
 3709WAT    EPW15544   5.323   3.511   3.701
 3710WAT      O15545   5.829   4.413   3.925
 3710WAT     H115546   5.848   4.328   3.934
 3710WAT     H215547   5.907   4.449   3.908
 3710WAT    EPW15548   5.843   4.406   3.924
 3711WAT      O15549   5.894   4.394   3.538
 3711WAT     H115550   5.915   4.325   3.588
 3711WAT     H215551   5.897   4.361   3.457
 3711WAT    EPW15552   5.898   4.379   3.533
 3712WAT      O15553   5.936   3.812   4.781
 3712WAT     H115554   5.862   3.842   4.747
 3712WAT     H215555   5.965   3.878   4.830
 3712WAT    EPW15556   5.929   3.826   4.783
 3713WAT      O15557   5.408   3.240   3.640
 3713WAT     H115558   5.371   3.319   3.644
 3713WAT     H215559   5.491   3.256   3.618
 3713WAT    EPW15560   5.415   3.254   3.638
 3714WAT      O15561   6.447   3.069   4.644
 3714WAT     H115562   6.432   3.149   4.611
 3714WAT     H215563   6.378   3.055   4.695
 3714WAT    EPW15564   6.435   3.079   4.646
 3715WAT      O15565   5.799   3.271   3.833
 3715WAT     H115566   5.799   3.356   3.852
 3715WAT     H215567   5.760   3.267   3.755
 3715WAT    EPW15568   5.794   3.283   3.824
 3716WAT      O15569   6.169   3.443   3.061
 3716WAT     H115570   6.125   3.514   3.085
 3716WAT     H215571   6.218   3.425   3.130
 3716WAT    EPW15572   6.170   3.451   3.074
 3717WAT      O15573   4.963   3.676   3.991
 3717WAT     H115574   5.004   3.629   3.930
 3717WAT     H215575   4.880   3.650   3.984
 3717WAT    EPW15576   4.957   3.665   3.981
 3718WAT      O15577   4.874   4.851   3.770
 3718WAT     H115578   4.796   4.837   3.735
 3718WAT     H215579   4.928   4.804   3.720
 3718WAT    EPW15580   4.871   4.842   3.758
 3719WAT      O15581   5.628   4.457   3.560
 3719WAT     H115582   5.606   4.457   3.644
 3719WAT     H215583   5.713   4.437   3.560
 3719WAT    EPW15584   5.637   4.454   3.572
 3720WAT      O15585   6.252   4.790   3.362
 3720WAT     H115586   6.323   4.839   3.348
 3720WAT     H215587   6.239   4.750   3.286
 3720WAT    EPW15588   6.260   4.791   3.349
 3721WAT      O15589   6.044   4.798   3.535
 3721WAT     H115590   6.061   4.870   3.582
 3721WAT     H215591   6.108   4.797   3.476
 3721WAT    EPW15592   6.056   4.809   3.533
 3722WAT      O15593   5.200   3.183   4.059
 3722WAT     H115594   5.159   3.255   4.031
 3722WAT     H215595   5.169   3.120   4.007
 3722WAT    EPW15596   5.190   3.185   4.047
 3723WAT      O15597   5.643   3.460   4.989
 3723WAT     H115598   5.639   3.442   4.904
 3723WAT     H215599   5.691   3.533   4.992
 3723WAT    EPW15600   5.649   3.468   4.977
 3724WAT      O15601   5.094   4.695   3.651
 3724WAT     H115602   5.080   4.612   3.628
 3724WAT     H215603   5.156   4.721   3.596
 3724WAT    EPW15604   5.101   4.686   3.639
 3725WAT      O15605   6.819   3.442   3.783
 3725WAT     H115606   6.757   3.503   3.770
 3725WAT     H215607   6.773   3.368   3.794
 3725WAT    EPW15608   6.803   3.440   3.782
 3726WAT      O15609   6.283   4.771   4.318
 3726WAT     H115610   6.347   4.829   4.303
 3726WAT     H215611   6.256   4.749   4.238
 3726WAT    EPW15612   6.289   4.776   4.304
 3727WAT      O15613   5.209   3.380   4.875
 3727WAT     H115614   5.133   3.340   4.859
 3727WAT     H215615   5.258   3.359   4.806
 3727WAT    EPW15616   5.205   3.371   4.863
 3728WAT      O15617   5.307   4.409   3.915
 3728WAT     H115618   5.383   4.428   3.877
 3728WAT     H215619   5.330   4.364   3.986
 3728WAT    EPW15620   5.322   4.405   3.920
 3729WAT      O15621   5.621   4.736   3.875
 3729WAT     H115622   5.695   4.760   3.836
 3729WAT     H215623   5.561   4.787   3.838
 3729WAT    EPW15624   5.623   4.747   3.864
 3730WAT      O15625   5.849   3.176   4.875
 3730WAT     H115626   5.882   3.106   4.835
 3730WAT     H215627   5.771   3.186   4.838
 3730WAT    EPW15628   5.843   3.167   4.864
 3731WAT      O15629   5.844   3.738   3.654
 3731WAT     H115630   5.894   3.689   3.601
 3731WAT     H215631   5.899   3.766   3.715
 3731WAT    EPW15632   5.859   3.735   3.655
 3732WAT      O15633   6.031   3.670   3.189
 3732WAT     H115634   6.061   3.750   3.209
 3732WAT     H215635   5.958   3.687   3.145
 3732WAT    EPW15636   6.025   3.685   3.186
 3733WAT      O15637   6.465   4.960   3.300
 3733WAT     H115638   6.516   4.926   3.237
 3733WAT     H215639   6.520   5.003   3.351
 3733WAT    EPW15640   6.480   4.961   3.298
 3734WAT      O15641   5.441   4.817   4.460
 3734WAT     H115642   5.487   4.832   4.532
 3734WAT     H215643   5.409   4.737   4.472
 3734WAT    EPW15644   5.443   4.807   4.472
 3735WAT      O15645   6.714   3.379   4.222
 3735WAT     H115646   6.782   3.364   4.169
 3735WAT     H215647   6.731   3.328   4.291
 3735WAT    EPW15648   6.727   3.369   4.225
 3736WAT      O15649   4.875   3.490   4.650
 3736WAT     H115650   4.828   3.512   4.720
 3736WAT     H215651   4.815   3.480   4.588
 3736WAT    EPW15652   4.859   3.492   4.651
 3737WAT      O15653   6.178   4.614   4.687
 3737WAT     H115654   6.165   4.616   4.774
 3737WAT     H215655   6.259   4.581   4.680
 3737WAT    EPW15656   6.188   4.609   4.699
 3738WAT      O15657   5.857   4.522   3.164
 3738WAT     H115658   5.836   4.585   3.221
 3738WAT     H215659   5.938   4.541   3.140
 3738WAT    EPW15660   5.866   4.534   3.169
 3739WAT      O15661   6.336   3.379   3.275
 3739WAT     H115662   6.372   3.300   3.274
 3739WAT     H215663   6.405   3.433   3.283
 3739WAT    EPW15664   6.352   3.376   3.276
 3740WAT      O15665   5.107   4.715   4.237
 3740WAT     H115666   5.067   4.640   4.257
 3740WAT     H215667   5.181   4.688   4.198
 3740WAT    EPW15668   5.112   4.700   4.234
 3741WAT      O15669   5.968   3.582   3.447
 3741WAT     H115670   5.896   3.534   3.433
 3741WAT     H215671   5.985   3.616   3.368
 3741WAT    EPW15672   5.960   3.580   3.433
 3742WAT      O15673   6.048   4.841   4.452
 3742WAT     H115674   6.122   4.814   4.414
 3742WAT     H215675   5.986   4.816   4.396
 3742WAT    EPW15676   6.050   4.833   4.438
 3743WAT      O15677   6.083   3.257   3.404
 3743WAT     H115678   6.004   3.244   3.368
 3743WAT     H215679   6.138   3.246   3.338
 3743WAT    EPW15680   6.079   3.253   3.389
 3744WAT      O15681   6.735   4.853   3.718
 3744WAT     H115682   6.696   4.930   3.729
 3744WAT     H215683   6.668   4.797   3.708
 3744WAT    EPW15684   6.719   4.856   3.718
 3745WAT      O15685   5.756   3.548   3.864
 3745WAT     H115686   5.776   3.608   3.805
 3745WAT     H215687   5.785   3.583   3.939
 3745WAT    EPW15688   5.763   3.562   3.867
 3746WAT      O15689   6.448   4.430   3.783
 3746WAT     H115690   6.512   4.372   3.769
 3746WAT     H215691   6.375   4.386   3.761
 3746WAT    EPW15692   6.446   4.415   3.778
 3747WAT      O15693   5.417   4.559   4.582
 3747WAT     H115694   5.502   4.578   4.573
 3747WAT     H215695   5.397   4.587   4.662
 3747WAT    EPW15696   5.427   4.566   4.593
 3748WAT      O15697   5.586   4.092   4.044
 3748WAT     H115698   5.623   4.097   4.123
 3748WAT     H215699   5.523   4.034   4.055
 3748WAT    EPW15700   5.582   4.084   4.057
 3749WAT      O15701   6.206   3.493   4.473
 3749WAT     H115702   6.185   3.547   4.538
 3749WAT     H215703   6.140   3.436   4.472
 3749WAT    EPW15704   6.193   3.492   4.483
 3750WAT      O15705   5.712   4.170   4.280
 3750WAT     H115706   5.683   4.253   4.287
 3750WAT     H215707   5.687   4.134   4.355
 3750WAT    EPW15708   5.704   4.177   4.292
 3751WAT      O15709   6.343   4.225   4.352
 3751WAT     H115710   6.262   4.198   4.372
 3751WAT     H215711   6.335   4.311   4.341
 3751WAT    EPW15712   6.330   4.233   4.353
 3752WAT      O15713   6.384   3.065   3.710
 3752WAT     H115714   6.390   3.058   3.797
 3752WAT     H215715   6.417   2.990   3.681
 3752WAT    EPW15716   6.390   3.053   3.719
 3753WAT      O15717   4.975   4.534   4.963
 3753WAT     H115718   5.053   4.566   4.985
 3753WAT     H215719   4.977   4.452   4.992
 3753WAT    EPW15720   4.987   4.526   4.970
 3754WAT      O15721   6.606   3.533   4.545
 3754WAT     H115722   6.687   3.514   4.570
 3754WAT     H215723   6.582   3.597   4.600
 3754WAT    EPW15724   6.614   3.540   4.557
 3755WAT      O15725   5.450   3.194   3.913
 3755WAT     H115726   5.429   3.197   3.828
 3755WAT     H215727   5.373   3.192   3.954
 3755WAT    EPW15728   5.436   3.194   3.906
 3756WAT      O15729   6.648   4.236   3.310
 3756WAT     H115730   6.642   4.184   3.379
 3756WAT     H215731   6.734   4.242   3.297
 3756WAT    EPW15732   6.660   4.229   3.318
 3757WAT      O15733   5.246   4.232   3.680
 3757WAT     H115734   5.256   4.269   3.758
 3757WAT     H215735   5.189   4.167   3.696
 3757WAT    EPW15736   5.239   4.228   3.694
 3758WAT      O15737   5.182   4.801   3.892
 3758WAT     H115738   5.147   4.759   3.824
 3758WAT     H215739   5.252   4.840   3.858
 3758WAT    EPW15740   5.187   4.801   3.877
 3759WAT      O15741   5.119   3.666   4.219
 3759WAT     H115742   5.198   3.661   4.184
 3759WAT     H215743   5.065   3.660   4.150
 3759WAT    EPW15744   5.123   3.664   4.204
 3760WAT      O15745   6.861   4.656   4.677
 3760WAT     H115746   6.788   4.653   4.629
 3760WAT     H215747   6.841   4.609   4.748
 3760WAT    EPW15748   6.847   4.649   4.681
 3761WAT      O15749   6.451   3.894   3.222
 3761WAT     H115750   6.446   3.977   3.196
 3761WAT     H215751   6.418   3.896   3.302
 3761WAT    EPW15752   6.446   3.906   3.230
 3762WAT      O15753   5.510   4.201   3.517
 3762WAT     H115754   5.534   4.283   3.534
 3762WAT     H215755   5.432   4.194   3.556
 3762WAT    EPW15756   5.502   4.212   3.526
 3763WAT      O15757   6.774   3.382   3.179
 3763WAT     H115758   6.821   3.338   3.121
 3763WAT     H215759   6.724   3.435   3.130
 3763WAT    EPW15760   6.774   3.383   3.164
 3764WAT      O15761   5.013   4.385   3.973
 3764WAT     H115762   4.966   4.458   3.984
 3764WAT     H215763   5.093   4.415   3.951
 3764WAT    EPW15764   5.018   4.401   3.972
 3765WAT      O15765   5.809   3.687   4.995
 3765WAT     H115766   5.747   3.746   5.012
 3765WAT     H215767   5.846   3.716   4.922
 3765WAT    EPW15768   5.805   3.700   4.987
 3766WAT      O15769   6.827   3.793   4.417
 3766WAT     H115770   6.835   3.734   4.353
 3766WAT     H215771   6.743   3.816   4.412
 3766WAT    EPW15772   6.816   3.788   4.406
 3767WAT      O15773   6.647   3.286   3.413
 3767WAT     H115774   6.712   3.245   3.455
 3767WAT     H215775   6.686   3.320   3.343
 3767WAT    EPW15776   6.663   3.285   3.409
 3768WAT      O15777   6.050   4.579   3.863
 3768WAT     H115778   5.999   4.647   3.845
 3768WAT     H215779   6.088   4.560   3.787
 3768WAT    EPW15780   6.048   4.586   3.849
 3769WAT      O15781   5.413   4.292   4.137
 3769WAT     H115782   5.462   4.338   4.193
 3769WAT     H215783   5.468   4.233   4.105
 3769WAT    EPW15784   5.428   4.290   4.140
 3770WAT      O15785   6.382   3.491   3.895
 3770WAT     H115786   6.395   3.526   3.974
 3770WAT     H215787   6.314   3.437   3.907
 3770WAT    EPW15788   6.374   3.488   3.909
 3771WAT      O15789   5.084   3.945   3.995
 3771WAT     H115790   5.043   3.868   3.997
 3771WAT     H215791   5.079   3.968   3.911
 3771WAT    EPW15792   5.078   3.937   3.983
 3772WAT      O15793   5.722   3.458   3.380
 3772WAT     H115794   5.716   3.442   3.295
 3772WAT     H215795   5.661   3.519   3.394
 3772WAT    EPW15796   5.712   3.465   3.370
 3773WAT      O15797   6.618   4.662   4.514
 3773WAT     H115798   6.582   4.742   4.513
 3773WAT     H215799   6.611   4.635   4.432
 3773WAT    EPW15800   6.612   4.670   4.502
 3774WAT      O15801   5.569   4.471   3.826
 3774WAT     H115802   5.577   4.556   3.844
 3774WAT     H215803   5.640   4.436   3.862
 3774WAT    EPW15804   5.581   4.478   3.834
 3775WAT      O15805   5.280   3.726   3.508
 3775WAT     H115806   5.286   3.663   3.568
 3775WAT     H215807   5.197   3.754   3.515
 3775WAT    EPW15808   5.269   3.721   3.518
 3776WAT      O15809   5.360   3.920   4.090
 3776WAT     H115810   5.279   3.939   4.063
 3776WAT     H215811   5.367   3.834   4.078
 3776WAT    EPW15812   5.349   3.910   4.084
 3777WAT      O15813   5.444   3.878   4.355
 3777WAT     H115814   5.496   3.811   4.333
 3777WAT     H215815   5.408   3.903   4.280
 3777WAT    EPW15816   5.447   3.872   4.341
 3778WAT      O15817   6.468   3.674   4.096
 3778WAT     H115818   6.413   3.701   4.158
 3778WAT     H215819   6.467   3.738   4.037
 3778WAT    EPW15820   6.460   3.687   4.097
 3779WAT      O15821   5.819   4.780   4.306
 3779WAT     H115822   5.817   4.712   4.251
 3779WAT     H215823   5.793   4.847   4.257
 3779WAT    EPW15824   5.815   4.780   4.291
 3780WAT      O15825   6.019   3.276   4.524
 3780WAT     H115826   6.041   3.195   4.502
 3780WAT     H215827   6.044   3.282   4.607
 3780WAT    EPW15828   6.026   3.265   4.533
 3781WAT      O15829   5.157   4.102   4.853
 3781WAT     H115830   5.163   4.135   4.772
 3781WAT     H215831   5.075   4.074   4.858
 3781WAT    EPW15832   5.146   4.103   4.842
 3782WAT      O15833   6.388   4.268   4.784
 3782WAT     H115834   6.410   4.346   4.752
 3782WAT     H215835   6.412   4.213   4.721
 3782WAT    EPW15836   6.395   4.271   4.770
 3783WAT      O15837   5.784   4.587   4.815
 3783WAT     H115838   5.827   4.571   4.889
 3783WAT     H215839   5.752   4.509   4.792
 3783WAT    EPW15840   5.786   4.573   4.822
 3784WAT      O15841   5.848   3.623   4.119
 3784WAT     H115842   5.903   3.686   4.093
 3784WAT     H215843   5.900   3.553   4.127
 3784WAT    EPW15844   5.864   3.622   4.116
 3785WAT      O15845   6.103   3.913   3.335
 3785WAT     H115846   6.119   3.989   3.296
 3785WAT     H215847   6.031   3.930   3.382
 3785WAT    EPW15848   6.094   3.927   3.336
 3786WAT      O15849   6.645   4.228   3.742
 3786WAT     H115850   6.648   4.179   3.815
 3786WAT     H215851   6.620   4.171   3.681
 3786WAT    EPW15852   6.642   4.212   3.744
 3787WAT      O15853   6.227   4.679   4.063
 3787WAT     H115854   6.171   4.645   4.005
 3787WAT     H215855   6.257   4.750   4.022
 3787WAT    EPW15856   6.223   4.684   4.048
 3788WAT      O15857   6.188   4.182   4.037
 3788WAT     H115858   6.121   4.206   4.087
 3788WAT     H215859   6.177   4.096   4.028
 3788WAT    EPW15860   6.176   4.173   4.043
 3789WAT      O15861   5.623   4.734   3.523
 3789WAT     H115862   5.631   4.652   3.553
 3789WAT     H215863   5.686   4.739   3.462
 3789WAT    EPW15864   5.634   4.722   3.518
 3790WAT      O15865   5.571   3.109   3.308
 3790WAT     H115866   5.526   3.085   3.379
 3790WAT     H215867   5.524   3.175   3.276
 3790WAT    EPW15868   5.557   3.116   3.314
 3791WAT      O15869   5.839   4.736   3.350
 3791WAT     H115870   5.906   4.742   3.407
 3791WAT     H215871   5.836   4.814   3.313
 3791WAT    EPW15872   5.849   4.748   3.353
 3792WAT      O15873   6.452   4.103   4.573
 3792WAT     H115874   6.421   4.145   4.503
 3792WAT     H215875   6.538   4.111   4.565
 3792WAT    EPW15876   6.460   4.110   4.561
 3793WAT      O15877   6.180   4.707   4.959
 3793WAT     H115878   6.200   4.726   5.042
 3793WAT     H215879   6.224   4.766   4.913
 3793WAT    EPW15880   6.190   4.718   4.965
 3794WAT      O15881   6.683   3.113   4.779
 3794WAT     H115882   6.608   3.103   4.735
 3794WAT     H215883   6.665   3.079   4.858
 3794WAT    EPW15884   6.669   3.106   4.784
 3795WAT      O15885   5.222   3.981   3.368
 3795WAT     H115886   5.269   3.917   3.405
 3795WAT     H215887   5.142   3.968   3.400
 3795WAT    EPW15888   5.217   3.969   3.379
 3796WAT      O15889   6.094   4.143   4.450
 3796WAT     H115890   6.045   4.172   4.516
 3796WAT     H215891   6.120   4.064   4.476
 3796WAT    EPW15892   6.090   4.135   4.463
 3797WAT      O15893   5.877   3.973   3.497
 3797WAT     H115894   5.909   4.031   3.553
 3797WAT     H215895   5.859   3.904   3.547
 3797WAT    EPW15896   5.879   3.971   3.513
 3798WAT      O15897   6.411   4.391   4.065
 3798WAT     H115898   6.422   4.414   3.981
 3798WAT     H215899   6.359   4.322   4.061
 3798WAT    EPW15900   6.405   4.385   4.052
 3799WAT      O15901   5.447   3.329   3.201
 3799WAT     H115902   5.369   3.362   3.181
 3799WAT     H215903   5.503   3.384   3.162
 3799WAT    EPW15904   5.444   3.342   3.192
 3800WAT      O15905   5.838   4.129   3.916
 3800WAT     H115906   5.757   4.112   3.944
 3800WAT     H215907   5.882   4.057   3.936
 3800WAT    EPW15908   5.832   4.116   3.923
 3801WAT      O15909   5.524   4.752   3.119
 3801WAT     H115910   5.534   4.680   3.168
 3801WAT     H215911   5.526   4.817   3.178
 3801WAT    EPW15912   5.526   4.751   3.135
 3802WAT      O15913   5.488   3.477   3.911
 3802WAT     H115914   5.572   3.495   3.895
 3802WAT     H215915   5.488   3.390   3.917
 3802WAT    EPW15916   5.501   3.467   3.910
 3803WAT      O15917   6.841   4.809   3.300
 3803WAT     H115918   6.904   4.756   3.270
 3803WAT     H215919   6.787   4.755   3.342
 3803WAT    EPW15920   6.842   4.793   3.302
 3804WAT      O15921   6.568   4.093   4.237
 3804WAT     H115922   6.570   4.023   4.289
 3804WAT     H215923   6.491   4.130   4.256
 3804WAT    EPW15924   6.557   4.088   4.247
 3805WAT      O15925   5.583   3.857   3.216
 3805WAT     H115926   5.564   3.797   3.277
 3805WAT     H215927   5.515   3.852   3.161
 3805WAT    EPW15928   5.570   3.847   3.217
 3806WAT      O15929   5.168   4.208   4.590
 3806WAT     H115930   5.128   4.167   4.525
 3806WAT     H215931   5.131   4.287   4.591
 3806WAT    EPW15932   5.157   4.214   4.581
 3807WAT      O15933   6.667   4.061   3.972
 3807WAT     H115934   6.635   4.077   4.051
 3807WAT     H215935   6.753   4.054   3.985
 3807WAT    EPW15936   6.675   4.062   3.985
 3808WAT      O15937   5.552   3.684   3.436
 3808WAT     H115938   5.590   3.709   3.510
 3808WAT     H215939   5.467   3.688   3.455
 3808WAT    EPW15940   5.545   3.688   3.450
 3809WAT      O15941   6.416   3.538   4.798
 3809WAT     H115942   6.352   3.523   4.856
 3809WAT     H215943   6.409   3.470   4.744
 3809WAT    EPW15944   6.405   3.526   4.799
 3810WAT      O15945   6.825   4.563   4.071
 3810WAT     H115946   6.859   4.609   4.005
 3810WAT     H215947   6.889   4.563   4.131
 3810WAT    EPW15948   6.840   4.570   4.070
 3811WAT      O15949   6.294   3.834   4.879
 3811WAT     H115950   6.344   3.839   4.950
 3811WAT     H215951   6.223   3.880   4.901
 3811WAT    EPW15952   6.291   3.842   4.893
 3812WAT      O15953   6.547   3.819   4.702
 3812WAT     H115954   6.564   3.897   4.736
 3812WAT     H215955   6.476   3.792   4.746
 3812WAT    EPW15956   6.539   3.827   4.714
 3813WAT      O15957   6.509   4.474   3.292
 3813WAT     H115958   6.550   4.398   3.301
 3813WAT     H215959   6.427   4.456   3.314
 3813WAT    EPW15960   6.503   4.460   3.297
 3814WAT      O15961   6.587   3.602   3.748
 3814WAT     H115962   6.529   3.555   3.793
 3814WAT     H215963   6.579   3.682   3.782
 3814WAT    EPW15964   6.577   3.607   3.760
 3815WAT      O15965   6.872   3.921   4.911
 3815WAT     H115966   6.880   3.868   4.842
 3815WAT     H215967   6.948   3.964   4.912
 3815WAT    EPW15968   6.884   3.919   4.901
 3816WAT      O15969   6.729   4.159   4.558
 3816WAT     H115970   6.799   4.114   4.531
 3816WAT     H215971   6.723   4.224   4.499
 3816WAT    EPW15972   6.739   4.162   4.545
 3817WAT      O15973   6.143   4.179   3.237
 3817WAT     H115974   6.195   4.237   3.276
 3817WAT     H215975   6.163   4.187   3.153
 3817WAT    EPW15976   6.153   4.189   3.230
 3818WAT      O15977   5.612   4.429   4.288
 3818WAT     H115978   5.623   4.474   4.362
 3818WAT     H215979   5.643   4.482   4.227
 3818WAT    EPW15980   5.618   4.443   4.290
 3819WAT      O15981   5.441   4.281   4.595
 3819WAT     H115982   5.359   4.250   4.596
 3819WAT     H215983   5.431   4.366   4.579
 3819WAT    EPW15984   5.427   4.289   4.593
 3820WAT      O15985   6.412   3.345   4.589
 3820WAT     H115986   6.479   3.395   4.565
 3820WAT     H215987   6.343   3.382   4.550
 3820WAT    EPW15988   6.412   3.358   4.580
 3821WAT      O15989   5.978   4.233   4.216
 3821WAT     H115990   6.014   4.200   4.288
 3821WAT     H215991   5.895   4.208   4.221
 3821WAT    EPW15992   5.971   4.225   4.227
 3822WAT      O15993   5.570   3.651   4.586
 3822WAT     H115994   5.585   3.575   4.627
 3822WAT     H215995   5.593   3.635   4.504
 3822WAT    EPW15996   5.575   3.637   4.580
 3823WAT      O15997   5.881   4.794   3.781
 3823WAT     H115998   5.880   4.877   3.805
 3823WAT     H215999   5.908   4.797   3.698
 3823WAT    EPW16000   5.885   4.806   3.772
 3824WAT      O16001   6.491   3.108   4.327
 3824WAT     H116002   6.463   3.187   4.304
 3824WAT     H216003   6.569   3.123   4.362
 3824WAT    EPW16004   6.498   3.122   4.329
 3825WAT      O16005   5.737   3.238   4.540
 3825WAT     H116006   5.824   3.244   4.534
 3825WAT     H216007   5.725   3.161   4.581
 3825WAT    EPW16008   5.748   3.227   4.545
 3826WAT      O16009   5.727   4.600   4.105
 3826WAT     H116010   5.685   4.653   4.050
 3826WAT     H216011   5.769   4.545   4.053
 3826WAT    EPW16012   5.727   4.600   4.090
 3827WAT      O16013   6.123   4.245   4.859
 3827WAT     H116014   6.202   4.253   4.823
 3827WAT     H216015   6.068   4.262   4.793
 3827WAT    EPW16016   6.126   4.248   4.844
 3828WAT      O16017   6.446   4.529   4.696
 3828WAT     H116018   6.484   4.557   4.770
 3828WAT     H216019   6.498   4.561   4.634
 3828WAT    EPW16020   6.460   4.538   4.698
 3829WAT      O16021   6.703   3.795   3.176
 3829WAT     H116022   6.751   3.854   3.132
 3829WAT     H216023   6.625   3.833   3.182
 3829WAT    EPW16024   6.699   3.810   3.170
 3830WAT      O16025   5.855   4.050   3.119
 3830WAT     H116026   5.816   4.085   3.049
 3830WAT     H216027   5.889   4.120   3.160
 3830WAT    EPW16028   5.854   4.066   3.115
 3831WAT      O16029   5.388   3.642   4.116
 3831WAT     H116030   5.408   3.591   4.048
 3831WAT     H216031   5.454   3.629   4.171
 3831WAT    EPW16032   5.400   3.632   4.114
 3832WAT      O16033   6.162   3.689   4.669
 3832WAT     H116034   6.084   3.716   4.698
 3832WAT     H216035   6.214   3.697   4.738
 3832WAT    EPW16036   6.158   3.694   4.683
 3833WAT      O16037   6.327   3.717   4.338
 3833WAT     H116038   6.289   3.785   4.378
 3833WAT     H216039   6.285   3.648   4.371
 3833WAT    EPW16040   6.315   3.717   4.349
 3834WAT      O16041   5.862   4.813   4.668
 3834WAT     H116042   5.926   4.798   4.610
 3834WAT     H216043   5.850   4.736   4.706
 3834WAT    EPW16044   5.870   4.800   4.665
 3835WAT      O16045   6.459   3.636   3.494
 3835WAT     H116046   6.484   3.612   3.574
 3835WAT     H216047   6.527   3.683   3.465
 3835WAT    EPW16048   6.473   3.639   3.502
 3836WAT      O16049   5.751   3.207   4.145
 3836WAT     H116050   5.687   3.248   4.189
 3836WAT     H216051   5.720   3.203   4.063
 3836WAT    EPW16052   5.737   3.213   4.139
 3837WAT      O16053   6.421   3.316   3.584
 3837WAT     H116054   6.422   3.240   3.628
 3837WAT     H216055   6.496   3.316   3.540
 3837WAT    EPW16056   6.432   3.305   3.584
 3838WAT      O16057   6.582   4.059   3.524
 3838WAT     H116058   6.623   3.983   3.511
 3838WAT     H216059   6.498   4.039   3.517
 3838WAT    EPW16060   6.576   4.045   3.521
 3839WAT      O16061   5.941   4.275   4.650
 3839WAT     H116062   5.859   4.272   4.680
 3839WAT     H216063   5.947   4.355   4.615
 3839WAT    EPW16064   5.930   4.286   4.649
 3840WAT      O16065   4.994   3.248   4.729
 3840WAT     H116066   4.960   3.321   4.695
 3840WAT     H216067   4.928   3.191   4.726
 3840WAT    EPW16068   4.979   3.250   4.723
 3841WAT      O16069   5.498   4.858   4.187
 3841WAT     H116070   5.478   4.851   4.271
 3841WAT     H216071   5.454   4.793   4.150
 3841WAT    EPW16072   5.488   4.848   4.194
 3842WAT      O16073   6.227   4.242   3.769
 3842WAT     H116074   6.209   4.239   3.854
 3842WAT     H216075   6.265   4.165   3.753
 3842WAT    EPW16076   6.230   4.230   3.779
 3843WAT      O16077   5.972   4.169   3.675
 3843WAT     H116078   5.929   4.155   3.749
 3843WAT     H216079   6.052   4.191   3.701
 3843WAT    EPW16080   5.977   4.170   3.689
 3844WAT      O16081   5.953   4.529   4.544
 3844WAT     H116082   6.026   4.560   4.581
 3844WAT     H216083   5.972   4.526   4.459
 3844WAT    EPW16084   5.967   4.533   4.537
 3845WAT      O16085   6.824   3.751   4.694
 3845WAT     H116086   6.738   3.762   4.703
 3845WAT     H216087   6.837   3.763   4.608
 3845WAT    EPW16088   6.813   3.755   4.682
 3846WAT      O16089   6.238   3.914   4.520
 3846WAT     H116090   6.218   3.851   4.577
 3846WAT     H216091   6.307   3.953   4.556
 3846WAT    EPW16092   6.245   3.910   4.534
 3847WAT      O16093   5.119   4.829   4.702
 3847WAT     H116094   5.046   4.780   4.707
 3847WAT     H216095   5.093   4.907   4.732
 3847WAT    EPW16096   5.104   4.833   4.707
 3848WAT      O16097   6.042   4.001   4.962
 3848WAT     H116098   6.072   4.075   4.928
 3848WAT     H216099   5.965   4.024   4.997
 3848WAT    EPW16100   6.035   4.015   4.962
 3849WAT      O16101   6.334   4.932   4.003
 3849WAT     H116102   6.275   4.990   4.030
 3849WAT     H216103   6.396   4.936   4.065
 3849WAT    EPW16104   6.335   4.941   4.016
 3850WAT      O16105   6.009   4.504   4.278
 3850WAT     H116106   5.989   4.423   4.251
 3850WAT     H216107   6.096   4.505   4.276
 3850WAT    EPW16108   6.019   4.492   4.274
 3851WAT      O16109   6.580   4.602   4.931
 3851WAT     H116110   6.661   4.571   4.926
 3851WAT     H216111   6.548   4.565   5.004
 3851WAT    EPW16112   6.587   4.592   4.941
 3852WAT      O16113   5.308   3.759   4.573
 3852WAT     H116114   5.329   3.813   4.508
 3852WAT     H216115   5.385   3.726   4.599
 3852WAT    EPW16116   5.322   3.762   4.567
 3853WAT      O16117   5.182   3.544   4.461
 3853WAT     H116118   5.150   3.574   4.385
 3853WAT     H216119   5.233   3.609   4.488
 3853WAT    EPW16120   5.185   3.558   4.453
 3854WAT      O16121   6.679   3.807   3.454
 3854WAT     H116122   6.697   3.809   3.369
 3854WAT     H216123   6.754   3.780   3.490
 3854WAT    EPW16124   6.693   3.803   3.447
 3855WAT      O16125   5.365   3.273   4.672
 3855WAT     H116126   5.335   3.193   4.687
 3855WAT     H216127   5.344   3.288   4.588
 3855WAT    EPW16128   5.357   3.264   4.662
 3856WAT      O16129   6.126   4.535   3.592
 3856WAT     H116130   6.109   4.619   3.574
 3856WAT     H216131   6.051   4.494   3.575
 3856WAT    EPW16132   6.112   4.541   3.587
 3857WAT      O16133   6.561   3.863   4.413
 3857WAT     H116134   6.504   3.804   4.384
 3857WAT     H216135   6.545   3.866   4.499
 3857WAT    EPW16136   6.550   3.855   4.421
 3858WAT      O16137   5.003   4.088   4.385
 3858WAT     H116138   4.939   4.128   4.430
 3858WAT     H216139   4.987   4.003   4.398
 3858WAT    EPW16140   4.991   4.082   4.394
 3859WAT      O16141   6.087   3.301   4.793
 3859WAT     H116142   6.119   3.363   4.846
 3859WAT     H216143   6.012   3.279   4.831
 3859WAT    EPW16144   6.081   3.307   4.807
 3860WAT      O16145   6.152   3.327   3.890
 3860WAT     H116146   6.078   3.345   3.933
 3860WAT     H216147   6.126   3.275   3.826
 3860WAT    EPW16148   6.137   3.322   3.887
 3861WAT      O16149   5.542   4.526   3.292
 3861WAT     H116150   5.577   4.512   3.372
 3861WAT     H216151   5.458   4.508   3.303
 3861WAT    EPW16152   5.535   4.521   3.306
 3862WAT      O16153   6.434   3.372   4.236
 3862WAT     H116154   6.520   3.381   4.220
 3862WAT     H216155   6.416   3.438   4.290
 3862WAT    EPW16156   6.444   3.383   4.242
 3863WAT      O16157   5.592   4.061   4.507
 3863WAT     H116158   5.542   4.128   4.531
 3863WAT     H216159   5.537   4.011   4.461
 3863WAT    EPW16160   5.576   4.064   4.504
 3864WAT      O16161   6.517   3.846   3.878
 3864WAT     H116162   6.569   3.911   3.905
 3864WAT     H216163   6.452   3.887   3.837
 3864WAT    EPW16164   6.515   3.862   3.876
 3865WAT      O16165   6.509   4.693   3.674
 3865WAT     H116166   6.486   4.616   3.709
 3865WAT     H216167   6.541   4.672   3.596
 3865WAT    EPW16168   6.510   4.679   3.668
 3866WAT      O16169   5.279   4.465   3.342
 3866WAT     H116170   5.218   4.456   3.404
 3866WAT     H216171   5.280   4.387   3.302
 3866WAT    EPW16172   5.270   4.452   3.345
 3867WAT      O16173   5.586   4.280   3.166
 3867WAT     H116174   5.503   4.256   3.177
 3867WAT     H216175   5.588   4.362   3.197
 3867WAT    EPW16176   5.574   4.289   3.172
 3868WAT      O16177   5.577   3.338   4.328
 3868WAT     H116178   5.494   3.317   4.344
 3868WAT     H216179   5.620   3.303   4.394
 3868WAT    EPW16180   5.571   3.330   4.340
 3869WAT      O16181   6.734   3.203   4.443
 3869WAT     H116182   6.723   3.229   4.525
 3869WAT     H216183   6.812   3.165   4.443
 3869WAT    EPW16184   6.744   3.201   4.455
 3870WAT      O16185   5.980   3.366   4.116
 3870WAT     H116186   5.910   3.314   4.125
 3870WAT     H216187   6.043   3.323   4.158
 3870WAT    EPW16188   5.979   3.352   4.123
 3871WAT      O16189   6.287   4.491   4.300
 3871WAT     H116190   6.301   4.574   4.322
 3871WAT     H216191   6.308   4.489   4.215
 3871WAT    EPW16192   6.292   4.503   4.290
 3872WAT      O16193   6.294   4.867   4.744
 3872WAT     H116194   6.245   4.808   4.703
 3872WAT     H216195   6.242   4.937   4.749
 3872WAT    EPW16196   6.279   4.869   4.739
 3873WAT      O16197   5.676   3.882   4.704
 3873WAT     H116198   5.644   3.810   4.667
 3873WAT     H216199   5.655   3.945   4.648
 3873WAT    EPW16200   5.668   3.880   4.690
 3874WAT      O16201   5.841   3.181   3.257
 3874WAT     H116202   5.842   3.183   3.170
 3874WAT     H216203   5.757   3.171   3.276
 3874WAT    EPW16204   5.829   3.180   3.247
 3875WAT      O16205   6.717   4.316   4.327
 3875WAT     H116206   6.679   4.249   4.287
 3875WAT     H216207   6.670   4.385   4.303
 3875WAT    EPW16208   6.705   4.316   4.318
 3876WAT      O16209   5.582   4.848   4.706
 3876WAT     H116210   5.576   4.814   4.786
 3876WAT     H216211   5.663   4.828   4.680
 3876WAT    EPW16212   5.593   4.840   4.714
 3877WAT      O16213   6.597   4.547   4.236
 3877WAT     H116214   6.661   4.564   4.179
 3877WAT     H216215   6.535   4.511   4.187
 3877WAT    EPW16216   6.597   4.544   4.221
 3878WAT      O16217   5.299   3.302   4.405
 3878WAT     H116218   5.234   3.250   4.380
 3878WAT     H216219   5.261   3.379   4.416
 3878WAT    EPW16220   5.284   3.305   4.403
 3879WAT      O16221   6.247   3.203   4.120
 3879WAT     H116222   6.302   3.263   4.152
 3879WAT     H216223   6.223   3.237   4.043
 3879WAT    EPW16224   6.251   3.217   4.113
 3880WAT      O16225   5.315   4.667   4.822
 3880WAT     H116226   5.381   4.711   4.857
 3880WAT     H216227   5.265   4.729   4.787
 3880WAT    EPW16228   5.317   4.683   4.822
 3881WAT      O16229   6.229   3.647   3.723
 3881WAT     H116230   6.280   3.605   3.780
 3881WAT     H216231   6.176   3.694   3.773
 3881WAT    EPW16232   6.229   3.648   3.739
 3882WAT      O16233   5.076   3.519   3.793
 3882WAT     H116234   5.018   3.552   3.736
 3882WAT     H216235   5.062   3.433   3.789
 3882WAT    EPW16236   5.065   3.511   3.784
 3883WAT      O16237   5.080   4.477   4.574
 3883WAT     H116238   5.017   4.521   4.616
 3883WAT     H216239   5.150   4.528   4.582
 3883WAT    EPW16240   5.081   4.491   4.581
 3884WAT      O16241   6.338   3.893   3.482
 3884WAT     H116242   6.356   3.809   3.495
 3884WAT     H216243   6.260   3.891   3.443
 3884WAT    EPW16244   6.329   3.880   3.478
 3885WAT      O16245   5.348   4.732   3.493
 3885WAT     H116246   5.321   4.669   3.439
 3885WAT     H216247   5.435   4.722   3.494
 3885WAT    EPW16248   5.357   4.721   3.485
 3886WAT      O16249   6.647   4.869   3.112
 3886WAT     H116250   6.713   4.855   3.168
 3886WAT     H216251   6.621   4.789   3.091
 3886WAT    EPW16252   6.653   4.855   3.118
 3887WAT      O16253   6.652   4.056   4.811
 3887WAT     H116254   6.725   4.026   4.849
 3887WAT     H216255   6.682   4.103   4.744
 3887WAT    EPW16256   6.667   4.058   4.807
 3888WAT      O16257   6.246   4.415   3.360
 3888WAT     H116258   6.220   4.454   3.434
 3888WAT     H216259   6.218   4.470   3.298
 3888WAT    EPW16260   6.238   4.429   3.362
 3889WAT      O16261   6.669   3.548   4.911
 3889WAT     H116262   6.670   3.623   4.955
 3889WAT     H216263   6.588   3.544   4.879
 3889WAT    EPW16264   6.657   3.558   4.913
 3890WAT      O16265   6.738   3.653   4.174
 3890WAT     H116266   6.655   3.668   4.151
 3890WAT     H216267   6.738   3.568   4.195
 3890WAT    EPW16268   6.726   3.642   4.174
 3891WAT      O16269   5.606   3.404   4.716
 3891WAT     H116270   5.658   3.359   4.662
 3891WAT     H216271   5.529   3.363   4.709
 3891WAT    EPW16272   5.602   3.391   4.707
 3892WAT      O16273   6.442   4.160   5.043
 3892WAT     H116274   6.517   4.188   5.078
 3892WAT     H216275   6.447   4.186   4.960
 3892WAT    EPW16276   6.454   4.168   5.036
 3893WAT      O16277   5.327   4.655   4.074
 3893WAT     H116278   5.329   4.574   4.041
 3893WAT     H216279   5.284   4.700   4.013
 3893WAT    EPW16280   5.321   4.650   4.060
 3894WAT      O16281   5.892   4.276   3.288
 3894WAT     H116282   5.977   4.260   3.277
 3894WAT     H216283   5.880   4.349   3.241
 3894WAT    EPW16284   5.903   4.285   3.279
 3895WAT      O16285   5.120   4.919   4.434
 3895WAT     H116286   5.121   4.883   4.514
 3895WAT     H216287   5.131   4.852   4.380
 3895WAT    EPW16288   5.122   4.904   4.438
 3896WAT      O16289   6.237   3.129   1.695
 3896WAT     H116290   6.201   3.193   1.742
 3896WAT     H216291   6.303   3.101   1.744
 3896WAT    EPW16292   6.241   3.134   1.709
 3897WAT      O16293   6.049   3.792   2.224
 3897WAT     H116294   6.017   3.868   2.251
 3897WAT     H216295   6.119   3.780   2.274
 3897WAT    EPW16296   6.055   3.801   2.235
 3898WAT      O16297   5.048   4.253   1.756
 3898WAT     H116298   5.050   4.265   1.843
 3898WAT     H216299   5.047   4.166   1.747
 3898WAT    EPW16300   5.048   4.242   1.768
 3899WAT      O16301   6.693   4.639   1.536
 3899WAT     H116302   6.760   4.586   1.551
 3899WAT     H216303   6.640   4.590   1.485
 3899WAT    EPW16304   6.695   4.624   1.531
 3900WAT      O16305   5.010   3.619   1.372
 3900WAT     H116306   4.940   3.663   1.344
 3900WAT     H216307   4.993   3.537   1.347
 3900WAT    EPW16308   4.997   3.613   1.364
 3901WAT      O16309   5.317   4.198   1.323
 3901WAT     H116310   5.289   4.158   1.251
 3901WAT     H216311   5.318   4.135   1.383
 3901WAT    EPW16312   5.313   4.183   1.321
 3902WAT      O16313   6.330   3.987   1.856
 3902WAT     H116314   6.329   3.962   1.772
 3902WAT     H216315   6.272   3.935   1.894
 3902WAT    EPW16316   6.321   3.976   1.849
 3903WAT      O16317   5.301   4.365   1.713
 3903WAT     H116318   5.350   4.321   1.770
 3903WAT     H216319   5.223   4.326   1.718
 3903WAT    EPW16320   5.296   4.353   1.722
 3904WAT      O16321   5.715   3.302   1.624
 3904WAT     H116322   5.737   3.363   1.566
 3904WAT     H216323   5.792   3.275   1.656
 3904WAT    EPW16324   5.730   3.307   1.620
 3905WAT      O16325   5.213   4.661   1.319
 3905WAT     H116326   5.257   4.668   1.244
 3905WAT     H216327   5.243   4.586   1.353
 3905WAT    EPW16328   5.224   4.651   1.313
 3906WAT      O16329   5.074   4.489   2.565
 3906WAT     H116330   5.101   4.486   2.648
 3906WAT     H216331   4.997   4.448   2.567
 3906WAT    EPW16332   5.067   4.483   2.578
 3907WAT      O16333   5.735   4.222   2.932
 3907WAT     H116334   5.695   4.254   3.003
 3907WAT     H216335   5.669   4.201   2.879
 3907WAT    EPW16336   5.719   4.223   2.935
 3908WAT      O16337   5.235   3.962   1.925
 3908WAT     H116338   5.191   3.958   1.849
 3908WAT     H216339   5.281   3.887   1.926
 3908WAT    EPW16340   5.235   3.950   1.914
 3909WAT      O16341   5.673   3.540   2.432
 3909WAT     H116342   5.743   3.550   2.380
 3909WAT     H216343   5.660   3.454   2.433
 3909WAT    EPW16344   5.682   3.529   2.424
 3910WAT      O16345   5.710   4.592   2.591
 3910WAT     H116346   5.719   4.661   2.538
 3910WAT     H216347   5.790   4.579   2.622
 3910WAT    EPW16348   5.723   4.600   2.587
 3911WAT      O16349   5.346   3.692   1.856
 3911WAT     H116350   5.401   3.660   1.916
 3911WAT     H216351   5.375   3.658   1.781
 3911WAT    EPW16352   5.358   3.682   1.854
 3912WAT      O16353   5.835   4.424   2.035
 3912WAT     H116354   5.862   4.342   2.049
 3912WAT     H216355   5.909   4.468   2.026
 3912WAT    EPW16356   5.850   4.418   2.036
 3913WAT      O16357   5.915   4.364   1.666
 3913WAT     H116358   5.945   4.295   1.711
 3913WAT     H216359   5.929   4.341   1.583
 3913WAT    EPW16360   5.921   4.350   1.660
 3914WAT      O16361   6.014   3.739   2.819
 3914WAT     H116362   5.932   3.756   2.796
 3914WAT     H216363   6.033   3.803   2.876
 3914WAT    EPW16364   6.005   3.751   2.824
 3915WAT      O16365   5.490   3.342   1.797
 3915WAT     H116366   5.443   3.387   1.740
 3915WAT     H216367   5.567   3.331   1.757
 3915WAT    EPW16368   5.494   3.347   1.783
 3916WAT      O16369   6.487   3.070   2.711
 3916WAT     H116370   6.468   3.152   2.689
 3916WAT     H216371   6.421   3.046   2.762
 3916WAT    EPW16372   6.475   3.078   2.715
 3917WAT      O16373   5.833   3.241   1.954
 3917WAT     H116374   5.917   3.261   1.946
 3917WAT     H216375   5.793   3.318   1.961
 3917WAT    EPW16376   5.840   3.255   1.954
 3918WAT      O16377   6.190   3.463   1.226
 3918WAT     H116378   6.242   3.517   1.271
 3918WAT     H216379   6.197   3.388   1.269
 3918WAT    EPW16380   6.199   3.460   1.239
 3919WAT      O16381   5.039   4.687   1.951
 3919WAT     H116382   4.980   4.739   1.913
 3919WAT     H216383   5.084   4.654   1.883
 3919WAT    EPW16384   5.037   4.690   1.935
 3920WAT      O16385   5.640   4.387   1.663
 3920WAT     H116386   5.616   4.408   1.744
 3920WAT     H216387   5.727   4.378   1.669
 3920WAT    EPW16388   5.650   4.389   1.676
 3921WAT      O16389   6.252   4.754   1.438
 3921WAT     H116390   6.324   4.803   1.432
 3921WAT     H216391   6.283   4.676   1.463
 3921WAT    EPW16392   6.267   4.749   1.440
 3922WAT      O16393   6.068   4.789   1.641
 3922WAT     H116394   6.089   4.864   1.681
 3922WAT     H216395   6.125   4.784   1.576
 3922WAT    EPW16396   6.079   4.800   1.637
 3923WAT      O16397   5.665   3.465   3.085
 3923WAT     H116398   5.667   3.431   3.004
 3923WAT     H216399   5.700   3.544   3.075
 3923WAT    EPW16400   5.670   3.471   3.072
 3924WAT      O16401   5.197   4.622   1.726
 3924WAT     H116402   5.245   4.550   1.738
 3924WAT     H216403   5.248   4.674   1.679
 3924WAT    EPW16404   5.211   4.619   1.720
 3925WAT      O16405   6.822   3.430   1.886
 3925WAT     H116406   6.771   3.501   1.889
 3925WAT     H216407   6.766   3.366   1.866
 3925WAT    EPW16408   6.806   3.431   1.883
 3926WAT      O16409   6.301   4.755   2.430
 3926WAT     H116410   6.373   4.804   2.428
 3926WAT     H216411   6.290   4.732   2.346
 3926WAT    EPW16412   6.310   4.759   2.417
 3927WAT      O16413   5.348   4.447   2.075
 3927WAT     H116414   5.412   4.448   2.016
 3927WAT     H216415   5.372   4.384   2.131
 3927WAT    EPW16416   5.361   4.438   2.075
 3928WAT      O16417   5.626   4.740   1.966
 3928WAT     H116418   5.705   4.765   1.938
 3928WAT     H216419   5.571   4.790   1.922
 3928WAT    EPW16420   5.630   4.751   1.955
 3929WAT      O16421   5.828   3.156   2.978
 3929WAT     H116422   5.793   3.078   2.959
 3929WAT     H216423   5.772   3.213   2.943
 3929WAT    EPW16424   5.814   3.153   2.970
 3930WAT      O16425   5.996   3.643   1.822
 3930WAT     H116426   6.025   3.563   1.840
 3930WAT     H216427   6.045   3.695   1.872
 3930WAT    EPW16428   6.008   3.639   1.832
 3931WAT      O16429   6.462   4.936   1.387
 3931WAT     H116430   6.507   4.910   1.316
 3931WAT     H216431   6.521   4.982   1.432
 3931WAT    EPW16432   6.478   4.939   1.383
 3932WAT      O16433   5.485   4.839   2.575
 3932WAT     H116434   5.513   4.816   2.655
 3932WAT     H216435   5.414   4.790   2.563
 3932WAT    EPW16436   5.478   4.829   2.585
 3933WAT      O16437   6.716   3.413   2.349
 3933WAT     H116438   6.775   3.398   2.287
 3933WAT     H216439   6.733   3.352   2.409
 3933WAT    EPW16440   6.727   3.402   2.349
 3934WAT      O16441   6.224   4.498   2.781
 3934WAT     H116442   6.195   4.512   2.862
 3934WAT     H216443   6.310   4.505   2.788
 3934WAT    EPW16444   6.232   4.501   2.794
 3935WAT      O16445   5.935   4.561   1.271
 3935WAT     H116446   5.910   4.618   1.332
 3935WAT     H216447   6.009   4.596   1.240
 3935WAT    EPW16448   5.942   4.574   1.276
 3936WAT      O16449   6.260   3.259   1.396
 3936WAT     H116450   6.319   3.194   1.399
 3936WAT     H216451   6.299   3.323   1.441
 3936WAT    EPW16452   6.275   3.259   1.403
 3937WAT      O16453   5.105   3.408   1.620
 3937WAT     H116454   5.042   3.349   1.610
 3937WAT     H216455   5.099   3.432   1.703
 3937WAT    EPW16456   5.095   3.403   1.631
 3938WAT      O16457   5.248   4.703   2.500
 3938WAT     H116458   5.194   4.637   2.518
 3938WAT     H216459   5.267   4.691   2.416
 3938WAT    EPW16460   5.243   4.692   2.491
 3939WAT      O16461   6.062   3.555   1.557
 3939WAT     H116462   6.038   3.471   1.559
 3939WAT     H216463   6.041   3.584   1.636
 3939WAT    EPW16464   6.055   3.547   1.569
 3940WAT      O16465   6.054   4.811   2.547
 3940WAT     H116466   6.127   4.794   2.504
 3940WAT     H216467   5.992   4.804   2.486
 3940WAT    EPW16468   6.055   4.807   2.532
 3941WAT      O16469   6.004   3.282   1.532
 3941WAT     H116470   5.954   3.252   1.468
 3941WAT     H216471   6.083   3.249   1.514
 3941WAT    EPW16472   6.008   3.273   1.520
 3942WAT      O16473   6.746   4.860   1.801
 3942WAT     H116474   6.706   4.937   1.807
 3942WAT     H216475   6.681   4.803   1.793
 3942WAT    EPW16476   6.731   4.863   1.801
 3943WAT      O16477   5.781   3.524   1.987
 3943WAT     H116478   5.834   3.569   1.935
 3943WAT     H216479   5.815   3.537   2.067
 3943WAT    EPW16480   5.793   3.532   1.991
 3944WAT      O16481   6.494   4.442   1.901
 3944WAT     H116482   6.557   4.385   1.881
 3944WAT     H216483   6.421   4.395   1.893
 3944WAT    EPW16484   6.493   4.427   1.897
 3945WAT      O16485   5.535   4.468   2.774
 3945WAT     H116486   5.576   4.510   2.710
 3945WAT     H216487   5.469   4.521   2.794
 3945WAT    EPW16488   5.531   4.482   2.768
 3946WAT      O16489   5.433   3.079   1.904
 3946WAT     H116490   5.446   3.164   1.889
 3946WAT     H216491   5.426   3.045   1.824
 3946WAT    EPW16492   5.434   3.086   1.890
 3947WAT      O16493   5.643   4.096   2.137
 3947WAT     H116494   5.664   4.089   2.221
 3947WAT     H216495   5.593   4.026   2.122
 3947WAT    EPW16496   5.639   4.085   2.147
 3948WAT      O16497   6.257   3.494   2.504
 3948WAT     H116498   6.256   3.545   2.575
 3948WAT     H216499   6.190   3.439   2.517
 3948WAT    EPW16500   6.247   3.493   2.517
 3949WAT      O16501   5.718   4.122   2.401
 3949WAT     H116502   5.700   4.206   2.416
 3949WAT     H216503   5.687   4.082   2.472
 3949WAT    EPW16504   5.711   4.129   2.413
 3950WAT      O16505   6.332   4.228   2.412
 3950WAT     H116506   6.257   4.198   2.446
 3950WAT     H216507   6.332   4.313   2.433
 3950WAT    EPW16508   6.321   4.236   2.420
 3951WAT      O16509   6.446   3.050   1.859
 3951WAT     H116510   6.433   3.038   1.944
 3951WAT     H216511   6.477   2.973   1.831
 3951WAT    EPW16512   6.449   3.037   1.867
 3952WAT      O16513   6.604   3.565   2.650
 3952WAT     H116514   6.682   3.542   2.680
 3952WAT     H216515   6.579   3.629   2.703
 3952WAT    EPW16516   6.612   3.571   2.662
 3953WAT      O16517   6.662   4.227   1.407
 3953WAT     H116518   6.658   4.178   1.479
 3953WAT     H216519   6.747   4.233   1.390
 3953WAT    EPW16520   6.674   4.220   1.415
 3954WAT      O16521   5.412   4.179   1.887
 3954WAT     H116522   5.465   4.144   1.828
 3954WAT     H216523   5.362   4.111   1.911
 3954WAT    EPW16524   5.412   4.164   1.882
 3955WAT      O16525   5.250   4.851   2.018
 3955WAT     H116526   5.180   4.807   1.991
 3955WAT     H216527   5.301   4.853   1.947
 3955WAT    EPW16528   5.247   4.845   2.003
 3956WAT      O16529   6.867   4.654   2.804
 3956WAT     H116530   6.789   4.670   2.768
 3956WAT     H216531   6.848   4.606   2.874
 3956WAT    EPW16532   6.853   4.649   2.809
 3957WAT      O16533   6.481   3.898   1.334
 3957WAT     H116534   6.474   3.980   1.306
 3957WAT     H216535   6.447   3.900   1.414
 3957WAT    EPW16536   6.475   3.910   1.341
 3958WAT      O16537   5.541   4.125   1.641
 3958WAT     H116538   5.569   4.208   1.638
 3958WAT     H216539   5.612   4.079   1.619
 3958WAT    EPW16540   5.556   4.130   1.637
 3959WAT      O16541   6.779   3.362   1.267
 3959WAT     H116542   6.825   3.312   1.212
 3959WAT     H216543   6.733   3.413   1.214
 3959WAT    EPW16544   6.779   3.362   1.251
 3960WAT      O16545   5.094   4.330   2.026
 3960WAT     H116546   5.048   4.386   2.074
 3960WAT     H216547   5.176   4.361   2.032
 3960WAT    EPW16548   5.099   4.343   2.034
 3961WAT      O16549   5.779   3.720   3.065
 3961WAT     H116550   5.727   3.773   3.111
 3961WAT     H216551   5.773   3.751   2.984
 3961WAT    EPW16552   5.770   3.733   3.060
 3962WAT      O16553   6.904   3.792   2.543
 3962WAT     H116554   6.961   3.726   2.545
 3962WAT     H216555   6.849   3.771   2.479
 3962WAT    EPW16556   6.905   3.779   2.534
 3963WAT      O16557   5.094   3.978   1.687
 3963WAT     H116558   5.071   3.895   1.674
 3963WAT     H216559   5.160   3.990   1.630
 3963WAT    EPW16560   5.101   3.968   1.676
 3964WAT      O16561   6.668   3.249   1.509
 3964WAT     H116562   6.744   3.215   1.535
 3964WAT     H216563   6.689   3.293   1.437
 3964WAT    EPW16564   6.682   3.250   1.502
 3965WAT      O16565   6.048   4.599   1.998
 3965WAT     H116566   6.001   4.669   1.975
 3965WAT     H216567   6.084   4.573   1.922
 3965WAT    EPW16568   6.047   4.605   1.983
 3966WAT      O16569   5.019   4.464   1.580
 3966WAT     H116570   5.073   4.518   1.621
 3966WAT     H216571   5.010   4.398   1.636
 3966WAT    EPW16572   5.026   4.462   1.594
 3967WAT      O16573   5.441   4.255   2.247
 3967WAT     H116574   5.490   4.297   2.306
 3967WAT     H216575   5.499   4.213   2.198
 3967WAT    EPW16576   5.457   4.255   2.249
 3968WAT      O16577   6.360   3.595   2.001
 3968WAT     H116578   6.389   3.588   2.083
 3968WAT     H216579   6.313   3.523   1.989
 3968WAT    EPW16580   6.357   3.583   2.011
 3969WAT      O16581   5.048   4.314   1.343
 3969WAT     H116582   5.124   4.273   1.343
 3969WAT     H216583   5.050   4.361   1.417
 3969WAT    EPW16584   5.059   4.315   1.354
 3970WAT      O16585   5.060   4.066   2.116
 3970WAT     H116586   5.110   4.024   2.058
 3970WAT     H216587   5.068   4.150   2.094
 3970WAT    EPW16588   5.068   4.072   2.104
 3971WAT      O16589   5.775   3.488   1.421
 3971WAT     H116590   5.727   3.476   1.349
 3971WAT     H216591   5.740   3.559   1.457
 3971WAT    EPW16592   5.763   3.497   1.416
 3972WAT      O16593   6.625   4.720   2.670
 3972WAT     H116594   6.570   4.782   2.695
 3972WAT     H216595   6.623   4.723   2.583
 3972WAT    EPW16596   6.617   4.730   2.661
 3973WAT      O16597   5.581   4.473   1.916
 3973WAT     H116598   5.591   4.559   1.926
 3973WAT     H216599   5.651   4.440   1.956
 3973WAT    EPW16600   5.593   4.481   1.924
 3974WAT      O16601   5.372   3.842   3.022
 3974WAT     H116602   5.299   3.800   3.046
 3974WAT     H216603   5.386   3.813   2.941
 3974WAT    EPW16604   5.363   3.831   3.013
 3975WAT      O16605   5.387   3.745   1.448
 3975WAT     H116606   5.370   3.682   1.506
 3975WAT     H216607   5.345   3.720   1.376
 3975WAT    EPW16608   5.378   3.732   1.446
 3976WAT      O16609   5.461   3.890   2.125
 3976WAT     H116610   5.396   3.929   2.169
 3976WAT     H216611   5.475   3.817   2.171
 3976WAT    EPW16612   5.453   3.885   2.139
 3977WAT      O16613   5.401   3.850   2.483
 3977WAT     H116614   5.417   3.784   2.428
 3977WAT     H216615   5.354   3.905   2.435
 3977WAT    EPW16616   5.397   3.848   2.468
 3978WAT      O16617   6.504   3.717   2.218
 3978WAT     H116618   6.435   3.742   2.265
 3978WAT     H216619   6.504   3.773   2.151
 3978WAT    EPW16620   6.493   3.729   2.215
 3979WAT      O16621   5.824   4.776   2.390
 3979WAT     H116622   5.796   4.720   2.329
 3979WAT     H216623   5.809   4.854   2.355
 3979WAT    EPW16624   5.818   4.779   2.376
 3980WAT      O16625   6.107   3.284   2.624
 3980WAT     H116626   6.113   3.206   2.586
 3980WAT     H216627   6.110   3.265   2.709
 3980WAT    EPW16628   6.108   3.270   2.631
 3981WAT      O16629   6.326   3.535   1.466
 3981WAT     H116630   6.388   3.567   1.518
 3981WAT     H216631   6.252   3.547   1.511
 3981WAT    EPW16632   6.324   3.541   1.480
 3982WAT      O16633   5.305   4.105   2.960
 3982WAT     H116634   5.224   4.098   2.927
 3982WAT     H216635   5.327   4.023   2.980
 3982WAT    EPW16636   5.296   4.092   2.958
 3983WAT      O16637   6.420   4.256   2.883
 3983WAT     H116638   6.450   4.335   2.860
 3983WAT     H216639   6.438   4.206   2.814
 3983WAT    EPW16640   6.427   4.261   2.869
 3984WAT      O16641   5.763   4.582   2.906
 3984WAT     H116642   5.784   4.560   2.988
 3984WAT     H216643   5.699   4.526   2.886
 3984WAT    EPW16644   5.757   4.571   2.915
 3985WAT      O16645   5.881   3.564   2.243
 3985WAT     H116646   5.936   3.631   2.243
 3985WAT     H216647   5.931   3.496   2.265
 3985WAT    EPW16648   5.896   3.563   2.247
 3986WAT      O16649   6.127   3.853   1.429
 3986WAT     H116650   6.116   3.916   1.370
 3986WAT     H216651   6.080   3.880   1.497
 3986WAT    EPW16652   6.119   3.866   1.430
 3987WAT      O16653   6.679   4.240   1.841
 3987WAT     H116654   6.683   4.195   1.916
 3987WAT     H216655   6.650   4.181   1.783
 3987WAT    EPW16656   6.676   4.225   1.844
 3988WAT      O16657   6.261   4.656   2.174
 3988WAT     H116658   6.189   4.630   2.133
 3988WAT     H216659   6.291   4.720   2.123
 3988WAT    EPW16660   6.255   4.662   2.160
 3989WAT      O16661   6.204   4.294   2.166
 3989WAT     H116662   6.144   4.343   2.206
 3989WAT     H216663   6.253   4.264   2.231
 3989WAT    EPW16664   6.202   4.297   2.181
 3990WAT      O16665   5.614   4.640   1.556
 3990WAT     H116666   5.627   4.563   1.595
 3990WAT     H216667   5.694   4.672   1.545
 3990WAT    EPW16668   5.628   4.633   1.560
 3991WAT      O16669   5.560   3.156   1.439
 3991WAT     H116670   5.604   3.189   1.507
 3991WAT     H216671   5.511   3.223   1.412
 3991WAT    EPW16672   5.559   3.170   1.445
 3992WAT      O16673   5.857   4.739   1.469
 3992WAT     H116674   5.922   4.755   1.525
 3992WAT     H216675   5.845   4.816   1.429
 3992WAT    EPW16676   5.865   4.753   1.471
 3993WAT      O16677   6.458   4.124   2.640
 3993WAT     H116678   6.423   4.165   2.572
 3993WAT     H216679   6.544   4.137   2.630
 3993WAT    EPW16680   6.465   4.132   2.628
 3994WAT      O16681   6.711   3.100   2.869
 3994WAT     H116682   6.640   3.088   2.819
 3994WAT     H216683   6.686   3.070   2.947
 3994WAT    EPW16684   6.696   3.094   2.873
 3995WAT      O16685   5.318   4.008   1.524
 3995WAT     H116686   5.340   3.925   1.509
 3995WAT     H216687   5.386   4.041   1.567
 3995WAT    EPW16688   5.331   4.001   1.528
 3996WAT      O16689   6.105   4.135   2.543
 3996WAT     H116690   6.060   4.169   2.609
 3996WAT     H216691   6.140   4.063   2.578
 3996WAT    EPW16692   6.104   4.129   2.558
 3997WAT      O16693   4.900   3.219   1.612
 3997WAT     H116694   4.929   3.153   1.563
 3997WAT     H216695   4.881   3.182   1.688
 3997WAT    EPW16696   4.901   3.204   1.616
 3998WAT      O16697   5.999   3.918   1.667
 3998WAT     H116698   6.015   3.986   1.718
 3998WAT     H216699   5.991   3.851   1.723
 3998WAT    EPW16700   6.000   3.918   1.683
 3999WAT      O16701   6.486   4.485   2.185
 3999WAT     H116702   6.500   4.468   2.101
 3999WAT     H216703   6.403   4.511   2.188
 3999WAT    EPW16704   6.476   4.487   2.173
 4000WAT      O16705   5.427   3.384   1.355
 4000WAT     H116706   5.357   3.376   1.303
 4000WAT     H216707   5.485   3.426   1.305
 4000WAT    EPW16708   5.425   3.389   1.340
 4001WAT      O16709   5.902   4.154   2.057
 4001WAT     H116710   5.820   4.129   2.071
 4001WAT     H216711   5.943   4.130   2.130
 4001WAT    EPW16712   5.896   4.147   2.070
 4002WAT      O16713   5.574   4.781   1.165
 4002WAT     H116714   5.594   4.703   1.199
 4002WAT     H216715   5.566   4.832   1.235
 4002WAT    EPW16716   5.576   4.777   1.181
 4003WAT      O16717   5.281   4.027   2.293
 4003WAT     H116718   5.319   4.105   2.287
 4003WAT     H216719   5.204   4.039   2.253
 4003WAT    EPW16720   5.275   4.040   2.286
 4004WAT      O16721   5.505   3.524   2.015
 4004WAT     H116722   5.591   3.537   2.012
 4004WAT     H216723   5.491   3.458   1.960
 4004WAT    EPW16724   5.515   3.516   2.007
 4005WAT      O16725   6.843   4.808   1.379
 4005WAT     H116726   6.909   4.758   1.352
 4005WAT     H216727   6.794   4.754   1.427
 4005WAT    EPW16728   6.845   4.793   1.382
 4006WAT      O16729   5.028   3.707   1.652
 4006WAT     H116730   5.044   3.653   1.719
 4006WAT     H216731   5.038   3.656   1.582
 4006WAT    EPW16732   5.032   3.691   1.652
 4007WAT      O16733   6.573   4.096   2.330
 4007WAT     H116734   6.582   4.027   2.383
 4007WAT     H216735   6.492   4.124   2.345
 4007WAT    EPW16736   6.562   4.090   2.340
 4008WAT      O16737   5.541   3.924   1.265
 4008WAT     H116738   5.496   3.885   1.328
 4008WAT     H216739   5.494   3.908   1.193
 4008WAT    EPW16740   5.528   3.916   1.264
 4009WAT      O16741   6.692   4.089   2.076
 4009WAT     H116742   6.658   4.095   2.156
 4009WAT     H216743   6.777   4.075   2.092
 4009WAT    EPW16744   6.700   4.088   2.090
 4010WAT      O16745   5.661   3.718   1.508
 4010WAT     H116746   5.688   3.799   1.527
 4010WAT     H216747   5.576   3.729   1.492
 4010WAT    EPW16748   5.652   3.732   1.508
 4011WAT      O16749   6.393   3.503   2.903
 4011WAT     H116750   6.321   3.483   2.948
 4011WAT     H216751   6.399   3.439   2.845
 4011WAT    EPW16752   6.384   3.491   2.901
 4012WAT      O16753   6.833   4.594   2.138
 4012WAT     H116754   6.885   4.628   2.077
 4012WAT     H216755   6.886   4.586   2.208
 4012WAT    EPW16756   6.849   4.597   2.140
 4013WAT      O16757   6.340   3.815   2.980
 4013WAT     H116758   6.372   3.833   3.059
 4013WAT     H216759   6.259   3.846   2.982
 4013WAT    EPW16760   6.333   3.822   2.992
 4014WAT      O16761   6.548   3.826   2.789
 4014WAT     H116762   6.575   3.907   2.807
 4014WAT     H216763   6.479   3.815   2.842
 4014WAT    EPW16764   6.542   3.836   2.799
 4015WAT      O16765   6.535   4.472   1.392
 4015WAT     H116766   6.570   4.393   1.403
 4015WAT     H216767   6.461   4.468   1.436
 4015WAT    EPW16768   6.529   4.459   1.400
 4016WAT      O16769   6.612   3.623   1.884
 4016WAT     H116770   6.539   3.591   1.919
 4016WAT     H216771   6.614   3.706   1.912
 4016WAT    EPW16772   6.602   3.631   1.893
 4017WAT      O16773   6.870   3.949   3.019
 4017WAT     H116774   6.876   3.892   2.954
 4017WAT     H216775   6.947   3.990   3.018
 4017WAT    EPW16776   6.882   3.947   3.009
 4018WAT      O16777   6.726   4.210   2.614
 4018WAT     H116778   6.793   4.165   2.581
 4018WAT     H216779   6.713   4.274   2.556
 4018WAT    EPW16780   6.734   4.213   2.601
 4019WAT      O16781   6.222   4.296   1.322
 4019WAT     H116782   6.296   4.250   1.313
 4019WAT     H216783   6.190   4.298   1.240
 4019WAT    EPW16784   6.228   4.289   1.308
 4020WAT      O16785   5.640   4.400   2.395
 4020WAT     H116786   5.652   4.448   2.466
 4020WAT     H216787   5.656   4.455   2.330
 4020WAT    EPW16788   5.644   4.415   2.396
 4021WAT      O16789   5.505   4.187   2.780
 4021WAT     H116790   5.440   4.168   2.835
 4021WAT     H216791   5.502   4.274   2.772
 4021WAT    EPW16792   5.495   4.197   2.787
 4022WAT      O16793   6.437   3.344   2.672
 4022WAT     H116794   6.495   3.408   2.658
 4022WAT     H216795   6.369   3.367   2.621
 4022WAT    EPW16796   6.435   3.357   2.662
 4023WAT      O16797   5.970   4.047   2.313
 4023WAT     H116798   6.020   4.077   2.378
 4023WAT     H216799   5.889   4.063   2.342
 4023WAT    EPW16800   5.965   4.054   2.327
 4024WAT      O16801   5.608   3.574   2.702
 4024WAT     H116802   5.618   3.494   2.735
 4024WAT     H216803   5.628   3.565   2.618
 4024WAT    EPW16804   5.612   3.561   2.695
 4025WAT      O16805   5.890   4.812   1.892
 4025WAT     H116806   5.882   4.895   1.915
 4025WAT     H216807   5.927   4.816   1.813
 4025WAT    EPW16808   5.894   4.825   1.884
 4026WAT      O16809   6.525   3.115   2.374
 4026WAT     H116810   6.495   3.195   2.360
 4026WAT     H216811   6.598   3.128   2.419
 4026WAT    EPW16812   6.531   3.128   2.379
 4027WAT      O16813   5.836   3.203   2.648
 4027WAT     H116814   5.910   3.244   2.627
 4027WAT     H216815   5.864   3.131   2.689
 4027WAT    EPW16816   5.851   3.199   2.651
 4028WAT      O16817   5.708   4.600   2.206
 4028WAT     H116818   5.667   4.649   2.147
 4028WAT     H216819   5.756   4.546   2.158
 4028WAT    EPW16820   5.709   4.599   2.190
 4029WAT      O16821   6.156   4.201   2.951
 4029WAT     H116822   6.235   4.227   2.927
 4029WAT     H216823   6.104   4.237   2.891
 4029WAT    EPW16824   6.160   4.210   2.939
 4030WAT      O16825   6.497   4.517   2.813
 4030WAT     H116826   6.515   4.548   2.892
 4030WAT     H216827   6.538   4.572   2.759
 4030WAT    EPW16828   6.505   4.529   2.817
 4031WAT      O16829   6.714   3.764   1.274
 4031WAT     H116830   6.761   3.823   1.229
 4031WAT     H216831   6.637   3.805   1.286
 4031WAT    EPW16832   6.710   3.779   1.269
 4032WAT      O16833   5.832   4.084   1.308
 4032WAT     H116834   5.753   4.107   1.278
 4032WAT     H216835   5.866   4.159   1.335
 4032WAT    EPW16836   5.825   4.098   1.308
 4033WAT      O16837   5.480   3.657   2.274
 4033WAT     H116838   5.472   3.602   2.206
 4033WAT     H216839   5.541   3.619   2.324
 4033WAT    EPW16840   5.488   3.643   2.272
 4034WAT      O16841   6.256   3.663   2.718
 4034WAT     H116842   6.176   3.679   2.749
 4034WAT     H216843   6.300   3.633   2.787
 4034WAT    EPW16844   6.251   3.661   2.733
 4035WAT      O16845   6.275   3.749   2.374
 4035WAT     H116846   6.279   3.804   2.442
 4035WAT     H216847   6.266   3.671   2.412
 4035WAT    EPW16848   6.275   3.745   2.390
 4036WAT      O16849   5.901   4.814   2.831
 4036WAT     H116850   5.987   4.804   2.821
 4036WAT     H216851   5.874   4.734   2.853
 4036WAT    EPW16852   5.910   4.801   2.833
 4037WAT      O16853   6.509   3.671   1.630
 4037WAT     H116854   6.532   3.644   1.710
 4037WAT     H216855   6.581   3.710   1.600
 4037WAT    EPW16856   6.523   3.673   1.638
 4038WAT      O16857   5.816   3.131   2.215
 4038WAT     H116858   5.731   3.112   2.226
 4038WAT     H216859   5.820   3.159   2.133
 4038WAT    EPW16860   5.804   3.132   2.205
 4039WAT      O16861   6.637   3.242   1.795
 4039WAT     H116862   6.565   3.199   1.819
 4039WAT     H216863   6.624   3.259   1.710
 4039WAT    EPW16864   6.624   3.238   1.786
 4040WAT      O16865   6.606   4.064   1.631
 4040WAT     H116866   6.653   3.992   1.615
 4040WAT     H216867   6.523   4.036   1.627
 4040WAT    EPW16868   6.601   4.049   1.628
 4041WAT      O16869   5.959   4.276   2.758
 4041WAT     H116870   5.890   4.260   2.809
 4041WAT     H216871   5.948   4.359   2.734
 4041WAT    EPW16872   5.948   4.286   2.762
 4042WAT      O16873   5.484   4.912   2.299
 4042WAT     H116874   5.496   4.902   2.385
 4042WAT     H216875   5.450   4.836   2.275
 4042WAT    EPW16876   5.481   4.899   2.308
 4043WAT      O16877   5.362   3.508   1.598
 4043WAT     H116878   5.392   3.469   1.527
 4043WAT     H216879   5.279   3.480   1.604
 4043WAT    EPW16880   5.354   3.498   1.589
 4044WAT      O16881   6.276   4.259   1.900
 4044WAT     H116882   6.253   4.269   1.984
 4044WAT     H216883   6.304   4.176   1.897
 4044WAT    EPW16884   6.277   4.248   1.912
 4045WAT      O16885   6.030   4.157   1.811
 4045WAT     H116886   5.988   4.152   1.888
 4045WAT     H216887   6.107   4.192   1.832
 4045WAT    EPW16888   6.035   4.161   1.826
 4046WAT      O16889   5.988   4.557   2.646
 4046WAT     H116890   6.060   4.538   2.692
 4046WAT     H216891   6.004   4.638   2.618
 4046WAT    EPW16892   6.001   4.566   2.649
 4047WAT      O16893   6.826   3.770   2.810
 4047WAT     H116894   6.740   3.783   2.811
 4047WAT     H216895   6.849   3.788   2.728
 4047WAT    EPW16896   6.817   3.775   2.798
 4048WAT      O16897   6.271   3.916   2.600
 4048WAT     H116898   6.273   3.847   2.653
 4048WAT     H216899   6.340   3.963   2.625
 4048WAT    EPW16900   6.281   3.913   2.612
 4049WAT      O16901   6.083   3.939   2.998
 4049WAT     H116902   6.113   4.018   2.974
 4049WAT     H216903   6.010   3.957   3.042
 4049WAT    EPW16904   6.077   3.953   3.001
 4050WAT      O16905   6.392   4.878   2.068
 4050WAT     H116906   6.361   4.941   2.120
 4050WAT     H216907   6.466   4.853   2.107
 4050WAT    EPW16908   6.398   4.884   2.081
 4051WAT      O16909   6.052   4.449   2.347
 4051WAT     H116910   5.986   4.450   2.403
 4051WAT     H216911   6.122   4.465   2.397
 4051WAT    EPW16912   6.053   4.451   2.363
 4052WAT      O16913   6.586   4.606   3.058
 4052WAT     H116914   6.665   4.569   3.060
 4052WAT     H216915   6.544   4.568   3.124
 4052WAT    EPW16916   6.592   4.595   3.068
 4053WAT      O16917   5.400   3.755   2.758
 4053WAT     H116918   5.378   3.784   2.679
 4053WAT     H216919   5.458   3.693   2.742
 4053WAT    EPW16920   5.405   3.750   2.744
 4054WAT      O16921   6.725   3.825   1.551
 4054WAT     H116922   6.734   3.812   1.466
 4054WAT     H216923   6.798   3.792   1.585
 4054WAT    EPW16924   6.737   3.818   1.544
 4055WAT      O16925   5.442   3.148   2.750
 4055WAT     H116926   5.408   3.102   2.816
 4055WAT     H216927   5.373   3.191   2.718
 4055WAT    EPW16928   5.427   3.148   2.755
 4056WAT      O16929   6.121   4.533   1.736
 4056WAT     H116930   6.101   4.613   1.707
 4056WAT     H216931   6.051   4.486   1.716
 4056WAT    EPW16932   6.108   4.538   1.729
 4057WAT      O16933   6.589   3.870   2.503
 4057WAT     H116934   6.610   3.790   2.476
 4057WAT     H216935   6.566   3.859   2.586
 4057WAT    EPW16936   6.589   3.857   2.511
 4058WAT      O16937   5.243   3.661   1.226
 4058WAT     H116938   5.166   3.661   1.268
 4058WAT     H216939   5.250   3.580   1.195
 4058WAT    EPW16940   5.233   3.649   1.227
 4059WAT      O16941   6.093   3.220   2.898
 4059WAT     H116942   6.111   3.289   2.948
 4059WAT     H216943   6.013   3.197   2.922
 4059WAT    EPW16944   6.084   3.227   2.909
 4060WAT      O16945   5.565   4.528   1.308
 4060WAT     H116946   5.604   4.560   1.380
 4060WAT     H216947   5.486   4.503   1.337
 4060WAT    EPW16948   5.559   4.529   1.323
 4061WAT      O16949   6.437   3.378   2.315
 4061WAT     H116950   6.520   3.406   2.319
 4061WAT     H216951   6.396   3.426   2.375
 4061WAT    EPW16952   6.444   3.389   2.325
 4062WAT      O16953   5.612   3.985   2.618
 4062WAT     H116954   5.571   4.044   2.667
 4062WAT     H216955   5.547   3.941   2.581
 4062WAT    EPW16956   5.597   3.987   2.620
 4063WAT      O16957   6.548   3.875   1.988
 4063WAT     H116958   6.597   3.943   2.013
 4063WAT     H216959   6.481   3.912   1.946
 4063WAT    EPW16960   6.545   3.891   1.986
 4064WAT      O16961   6.531   4.687   1.756
 4064WAT     H116962   6.517   4.613   1.801
 4064WAT     H216963   6.574   4.660   1.685
 4064WAT    EPW16964   6.535   4.672   1.752
 4065WAT      O16965   5.335   4.444   1.441
 4065WAT     H116966   5.337   4.425   1.526
 4065WAT     H216967   5.330   4.365   1.403
 4065WAT    EPW16968   5.334   4.429   1.448
 4066WAT      O16969   5.607   4.254   1.246
 4066WAT     H116970   5.529   4.221   1.267
 4066WAT     H216971   5.602   4.338   1.270
 4066WAT    EPW16972   5.595   4.261   1.252
 4067WAT      O16973   5.631   3.271   2.465
 4067WAT     H116974   5.607   3.207   2.411
 4067WAT     H216975   5.696   3.237   2.511
 4067WAT    EPW16976   5.637   3.257   2.464
 4068WAT      O16977   6.745   3.200   2.531
 4068WAT     H116978   6.722   3.203   2.615
 4068WAT     H216979   6.826   3.166   2.533
 4068WAT    EPW16980   6.754   3.195   2.544
 4069WAT      O16981   5.999   3.322   2.315
 4069WAT     H116982   5.938   3.263   2.293
 4069WAT     H216983   6.073   3.287   2.286
 4069WAT    EPW16984   6.001   3.308   2.308
 4070WAT      O16985   6.283   4.487   2.504
 4070WAT     H116986   6.262   4.485   2.588
 4070WAT     H216987   6.299   4.571   2.488
 4070WAT    EPW16988   6.282   4.499   2.514
 4071WAT      O16989   6.195   4.842   2.849
 4071WAT     H116990   6.199   4.782   2.912
 4071WAT     H216991   6.177   4.916   2.892
 4071WAT    EPW16992   6.192   4.844   2.865
 4072WAT      O16993   5.743   3.798   2.793
 4072WAT     H116994   5.701   3.727   2.764
 4072WAT     H216995   5.709   3.863   2.744
 4072WAT    EPW16996   5.732   3.797   2.781
 4073WAT      O16997   5.829   3.168   1.340
 4073WAT     H116998   5.837   3.166   1.254
 4073WAT     H216999   5.743   3.173   1.353
 4073WAT    EPW17000   5.818   3.169   1.329
 4074WAT      O17001   6.668   4.358   2.371
 4074WAT     H117002   6.650   4.275   2.352
 4074WAT     H217003   6.614   4.403   2.319
 4074WAT    EPW17004   6.657   4.353   2.361
 4075WAT      O17005   5.560   4.790   2.847
 4075WAT     H117006   5.538   4.781   2.931
 4075WAT     H217007   5.633   4.743   2.840
 4075WAT    EPW17008   5.567   4.781   2.858
 4076WAT      O17009   6.602   4.739   2.204
 4076WAT     H117010   6.681   4.714   2.178
 4076WAT     H217011   6.556   4.664   2.205
 4076WAT    EPW17012   6.607   4.724   2.200
 4077WAT      O17013   6.236   3.221   2.203
 4077WAT     H117014   6.297   3.276   2.231
 4077WAT     H217015   6.212   3.254   2.126
 4077WAT    EPW17016   6.241   3.234   2.196
 4078WAT      O17017   6.168   3.795   1.972
 4078WAT     H117018   6.229   3.733   1.983
 4078WAT     H217019   6.130   3.800   2.050
 4078WAT    EPW17020   6.172   3.787   1.985
 4079WAT      O17021   5.121   3.528   1.866
 4079WAT     H117022   5.191   3.579   1.881
 4079WAT     H217023   5.127   3.466   1.928
 4079WAT    EPW17024   5.132   3.526   1.878
 4080WAT      O17025   6.360   3.899   1.587
 4080WAT     H117026   6.396   3.822   1.607
 4080WAT     H217027   6.287   3.878   1.545
 4080WAT    EPW17028   6.355   3.885   1.584
 4081WAT      O17029   5.371   4.770   1.550
 4081WAT     H117030   5.327   4.746   1.478
 4081WAT     H217031   5.443   4.721   1.547
 4081WAT    EPW17032   5.375   4.759   1.539
 4082WAT      O17033   5.754   3.974   1.550
 4082WAT     H117034   5.778   4.007   1.472
 4082WAT     H217035   5.830   3.962   1.591
 4082WAT    EPW17036   5.769   3.977   1.545
 4083WAT      O17037   6.641   4.848   1.190
 4083WAT     H117038   6.709   4.842   1.245
 4083WAT     H217039   6.621   4.764   1.174
 4083WAT    EPW17040   6.648   4.835   1.196
 4084WAT      O17041   6.674   4.061   2.854
 4084WAT     H117042   6.739   4.050   2.911
 4084WAT     H217043   6.706   4.121   2.799
 4084WAT    EPW17044   6.688   4.069   2.854
 4085WAT      O17045   6.293   4.489   1.517
 4085WAT     H117046   6.250   4.485   1.593
 4085WAT     H217047   6.253   4.429   1.467
 4085WAT    EPW17048   6.281   4.480   1.521
 4086WAT      O17049   6.638   3.561   3.023
 4086WAT     H117050   6.639   3.642   3.055
 4086WAT     H217051   6.559   3.553   2.988
 4086WAT    EPW17052   6.627   3.571   3.023
 4087WAT      O17053   6.752   3.688   2.328
 4087WAT     H117054   6.677   3.703   2.287
 4087WAT     H217055   6.751   3.602   2.344
 4087WAT    EPW17056   6.741   3.677   2.324
 4088WAT      O17057   5.656   3.321   2.825
 4088WAT     H117058   5.714   3.295   2.764
 4088WAT     H217059   5.586   3.271   2.808
 4088WAT    EPW17060   5.655   3.310   2.813
 4089WAT      O17061   6.446   4.150   3.139
 4089WAT     H117062   6.514   4.188   3.179
 4089WAT     H217063   6.449   4.184   3.058
 4089WAT    EPW17064   6.456   4.161   3.133
 4090WAT      O17065   5.318   4.682   2.227
 4090WAT     H117066   5.336   4.608   2.185
 4090WAT     H217067   5.293   4.736   2.163
 4090WAT    EPW17068   5.317   4.679   2.211
 4091WAT      O17069   5.958   4.313   1.398
 4091WAT     H117070   6.042   4.298   1.382
 4091WAT     H217071   5.941   4.387   1.355
 4091WAT    EPW17072   5.968   4.321   1.389
 4092WAT      O17073   5.167   4.968   2.547
 4092WAT     H117074   5.130   4.977   2.626
 4092WAT     H217075   5.182   4.883   2.541
 4092WAT    EPW17076   5.164   4.957   2.558
 4093WAT      O17077   6.052   3.805   0.342
 4093WAT     H117078   6.033   3.887   0.364
 4093WAT     H217079   6.116   3.783   0.398
 4093WAT    EPW17080   6.059   3.814   0.354
 4094WAT      O17081   5.099   4.478   0.520
 4094WAT     H117082   5.117   4.466   0.605
 4094WAT     H217083   5.036   4.420   0.504
 4094WAT    EPW17084   5.092   4.468   0.530
 4095WAT      O17085   5.718   4.300   0.994
 4095WAT     H117086   5.690   4.280   1.074
 4095WAT     H217087   5.648   4.288   0.944
 4095WAT    EPW17088   5.704   4.295   0.998
 4096WAT      O17089   5.672   3.574   0.541
 4096WAT     H117090   5.743   3.578   0.491
 4096WAT     H217091   5.656   3.488   0.547
 4096WAT    EPW17092   5.680   3.562   0.534
 4097WAT      O17093   5.700   4.609   0.730
 4097WAT     H117094   5.721   4.664   0.666
 4097WAT     H217095   5.777   4.575   0.754
 4097WAT    EPW17096   5.715   4.612   0.724
 4098WAT      O17097   6.015   3.758   1.047
 4098WAT     H117098   5.948   3.774   0.994
 4098WAT     H217099   6.034   3.836   1.082
 4098WAT    EPW17100   6.008   3.772   1.045
 4099WAT      O17101   6.438   3.056   0.817
 4099WAT     H117102   6.424   3.138   0.791
 4099WAT     H217103   6.373   3.040   0.872
 4099WAT    EPW17104   6.426   3.066   0.821
 4100WAT      O17105   5.064   3.809   0.327
 4100WAT     H117106   5.027   3.887   0.334
 4100WAT     H217107   5.004   3.755   0.360
 4100WAT    EPW17108   5.050   3.812   0.333
 4101WAT      O17109   5.322   3.233   0.386
 4101WAT     H117110   5.342   3.288   0.321
 4101WAT     H217111   5.379   3.167   0.376
 4101WAT    EPW17112   5.334   3.231   0.375
 4102WAT      O17113   5.618   3.502   1.194
 4102WAT     H117114   5.608   3.471   1.113
 4102WAT     H217115   5.647   3.583   1.181
 4102WAT    EPW17116   5.621   3.509   1.180
 4103WAT      O17117   6.288   4.765   0.601
 4103WAT     H117118   6.345   4.802   0.655
 4103WAT     H217119   6.318   4.786   0.521
 4103WAT    EPW17120   6.301   4.774   0.597
 4104WAT      O17121   5.232   3.393   1.152
 4104WAT     H117122   5.146   3.385   1.157
 4104WAT     H217123   5.252   3.358   1.074
 4104WAT    EPW17124   5.222   3.386   1.141
 4105WAT      O17125   5.869   3.158   1.069
 4105WAT     H117126   5.895   3.080   1.040
 4105WAT     H217127   5.816   3.186   1.006
 4105WAT    EPW17128   5.865   3.151   1.055
 4106WAT      O17129   5.496   4.844   0.634
 4106WAT     H117130   5.519   4.840   0.717
 4106WAT     H217131   5.427   4.790   0.629
 4106WAT    EPW17132   5.489   4.835   0.645
 4107WAT      O17133   6.780   3.354   0.451
 4107WAT     H117134   6.848   3.321   0.407
 4107WAT     H217135   6.776   3.306   0.523
 4107WAT    EPW17136   6.789   3.342   0.455
 4108WAT      O17137   5.045   3.500   0.867
 4108WAT     H117138   5.029   3.577   0.904
 4108WAT     H217139   5.102   3.519   0.804
 4108WAT    EPW17140   5.051   3.514   0.863
 4109WAT      O17141   6.177   4.564   0.915
 4109WAT     H117142   6.169   4.584   1.000
 4109WAT     H217143   6.261   4.545   0.906
 4109WAT    EPW17144   6.188   4.564   0.926
 4110WAT      O17145   5.280   4.694   0.521
 4110WAT     H117146   5.225   4.626   0.526
 4110WAT     H217147   5.316   4.684   0.442
 4110WAT    EPW17148   5.277   4.682   0.510
 4111WAT      O17149   6.032   4.831   0.675
 4111WAT     H117150   6.109   4.802   0.647
 4111WAT     H217151   5.976   4.800   0.616
 4111WAT    EPW17152   6.035   4.822   0.662
 4112WAT      O17153   5.440   4.543   0.840
 4112WAT     H117154   5.515   4.577   0.813
 4112WAT     H217155   5.424   4.585   0.915
 4112WAT    EPW17156   5.449   4.554   0.847
 4113WAT      O17157   5.674   4.214   0.249
 4113WAT     H117158   5.687   4.178   0.327
 4113WAT     H217159   5.668   4.146   0.195
 4113WAT    EPW17160   5.675   4.199   0.253
 4114WAT      O17161   6.195   3.478   0.667
 4114WAT     H117162   6.186   3.528   0.738
 4114WAT     H217163   6.125   3.426   0.669
 4114WAT    EPW17164   6.183   3.478   0.678
 4115WAT      O17165   5.735   4.147   0.513
 4115WAT     H117166   5.722   4.231   0.532
 4115WAT     H217167   5.713   4.105   0.587
 4115WAT    EPW17168   5.730   4.153   0.527
 4116WAT      O17169   6.343   4.248   0.565
 4116WAT     H117170   6.269   4.206   0.586
 4116WAT     H217171   6.318   4.332   0.564
 4116WAT    EPW17172   6.328   4.254   0.568
 4117WAT      O17173   5.010   4.529   1.161
 4117WAT     H117174   5.068   4.578   1.205
 4117WAT     H217175   5.015   4.451   1.200
 4117WAT    EPW17176   5.019   4.525   1.174
 4118WAT      O17177   6.628   3.503   0.805
 4118WAT     H117178   6.711   3.479   0.795
 4118WAT     H217179   6.622   3.520   0.891
 4118WAT    EPW17180   6.639   3.502   0.816
 4119WAT      O17181   5.273   3.639   0.401
 4119WAT     H117182   5.350   3.675   0.382
 4119WAT     H217183   5.215   3.695   0.367
 4119WAT    EPW17184   5.276   3.652   0.393
 4120WAT      O17185   6.861   4.650   0.903
 4120WAT     H117186   6.783   4.657   0.864
 4120WAT     H217187   6.844   4.601   0.973
 4120WAT    EPW17188   6.847   4.644   0.907
 4121WAT      O17189   5.744   3.750   1.188
 4121WAT     H117190   5.690   3.807   1.226
 4121WAT     H217191   5.755   3.782   1.108
 4121WAT    EPW17192   5.738   3.763   1.182
 4122WAT      O17193   6.898   3.763   0.655
 4122WAT     H117194   6.962   3.704   0.650
 4122WAT     H217195   6.838   3.733   0.599
 4122WAT    EPW17196   6.899   3.750   0.646
 4123WAT      O17197   5.447   4.342   0.366
 4123WAT     H117198   5.495   4.363   0.436
 4123WAT     H217199   5.504   4.304   0.313
 4123WAT    EPW17200   5.462   4.340   0.369
 4124WAT      O17201   6.611   4.673   0.771
 4124WAT     H117202   6.562   4.745   0.778
 4124WAT     H217203   6.604   4.652   0.687
 4124WAT    EPW17204   6.603   4.681   0.760
 4125WAT      O17205   5.367   3.847   1.059
 4125WAT     H117206   5.323   3.783   1.098
 4125WAT     H217207   5.370   3.822   0.975
 4125WAT    EPW17208   5.361   3.834   1.052
 4126WAT      O17209   5.443   3.932   0.576
 4126WAT     H117210   5.472   3.881   0.511
 4126WAT     H217211   5.393   3.990   0.536
 4126WAT    EPW17212   5.440   3.933   0.561
 4127WAT      O17213   6.477   3.638   0.384
 4127WAT     H117214   6.412   3.665   0.436
 4127WAT     H217215   6.465   3.682   0.310
 4127WAT    EPW17216   6.466   3.648   0.381
 4128WAT      O17217   5.809   4.764   0.522
 4128WAT     H117218   5.801   4.708   0.456
 4128WAT     H217219   5.792   4.841   0.486
 4128WAT    EPW17220   5.805   4.767   0.507
 4129WAT      O17221   6.007   3.271   0.750
 4129WAT     H117222   6.029   3.192   0.718
 4129WAT     H217223   6.050   3.275   0.825
 4129WAT    EPW17224   6.016   3.260   0.756
 4130WAT      O17225   5.216   4.071   1.105
 4130WAT     H117226   5.215   4.118   1.031
 4130WAT     H217227   5.266   4.002   1.085
 4130WAT    EPW17228   5.223   4.067   1.091
 4131WAT      O17229   6.390   4.234   0.972
 4131WAT     H117230   6.415   4.315   0.949
 4131WAT     H217231   6.423   4.184   0.909
 4131WAT    EPW17232   6.399   4.239   0.959
 4132WAT      O17233   5.794   4.574   1.031
 4132WAT     H117234   5.832   4.567   1.110
 4132WAT     H217235   5.773   4.491   1.012
 4132WAT    EPW17236   5.796   4.560   1.040
 4133WAT      O17237   5.876   3.588   0.361
 4133WAT     H117238   5.934   3.652   0.349
 4133WAT     H217239   5.924   3.516   0.354
 4133WAT    EPW17240   5.892   3.587   0.358
 4134WAT      O17241   6.344   4.519   0.244
 4134WAT     H117242   6.284   4.511   0.182
 4134WAT     H217243   6.356   4.606   0.250
 4134WAT    EPW17244   6.337   4.531   0.236
 4135WAT      O17245   6.145   4.380   0.068
 4135WAT     H117246   6.080   4.363   0.123
 4135WAT     H217247   6.198   4.311   0.077
 4135WAT    EPW17248   6.143   4.367   0.077
 4136WAT      O17249   6.475   4.087   0.745
 4136WAT     H117250   6.438   4.146   0.693
 4136WAT     H217251   6.559   4.108   0.745
 4136WAT    EPW17252   6.482   4.099   0.738
 4137WAT      O17253   6.168   4.687   1.180
 4137WAT     H117254   6.199   4.709   1.258
 4137WAT     H217255   6.186   4.756   1.130
 4137WAT    EPW17256   6.175   4.700   1.184
 4138WAT      O17257   6.677   3.124   0.943
 4138WAT     H117258   6.599   3.111   0.906
 4138WAT     H217259   6.669   3.085   1.021
 4138WAT    EPW17260   6.664   3.116   0.950
 4139WAT      O17261   6.119   4.113   0.658
 4139WAT     H117262   6.067   4.145   0.721
 4139WAT     H217263   6.152   4.040   0.693
 4139WAT    EPW17264   6.116   4.107   0.673
 4140WAT      O17265   6.529   4.350   0.377
 4140WAT     H117266   6.481   4.395   0.319
 4140WAT     H217267   6.469   4.309   0.425
 4140WAT    EPW17268   6.513   4.351   0.375
 4141WAT      O17269   5.949   4.304   0.263
 4141WAT     H117270   5.864   4.289   0.246
 4141WAT     H217271   5.974   4.232   0.306
 4141WAT    EPW17272   5.940   4.291   0.267
 4142WAT      O17273   5.276   4.121   0.445
 4142WAT     H117274   5.318   4.195   0.428
 4142WAT     H217275   5.225   4.109   0.375
 4142WAT    EPW17276   5.275   4.130   0.432
 4143WAT      O17277   6.614   3.954   0.494
 4143WAT     H117278   6.608   3.885   0.548
 4143WAT     H217279   6.552   4.007   0.522
 4143WAT    EPW17280   6.604   3.951   0.506
 4144WAT      O17281   5.225   4.205   0.865
 4144WAT     H117282   5.191   4.154   0.803
 4144WAT     H217283   5.196   4.284   0.845
 4144WAT    EPW17284   5.216   4.209   0.853
 4145WAT      O17285   6.838   4.043   0.357
 4145WAT     H117286   6.770   4.010   0.402
 4145WAT     H217287   6.806   4.053   0.276
 4145WAT    EPW17288   6.823   4.040   0.352
 4146WAT      O17289   6.388   3.486   1.025
 4146WAT     H117290   6.329   3.461   1.084
 4146WAT     H217291   6.384   3.424   0.963
 4146WAT    EPW17292   6.379   3.473   1.024
 4147WAT      O17293   6.815   4.678   0.389
 4147WAT     H117294   6.865   4.714   0.327
 4147WAT     H217295   6.870   4.624   0.431
 4147WAT    EPW17296   6.831   4.675   0.386
 4148WAT      O17297   6.323   3.825   1.122
 4148WAT     H117298   6.367   3.837   1.196
 4148WAT     H217299   6.257   3.882   1.128
 4148WAT    EPW17300   6.320   3.836   1.134
 4149WAT      O17301   6.552   3.840   0.958
 4149WAT     H117302   6.575   3.922   0.973
 4149WAT     H217303   6.478   3.830   1.003
 4149WAT    EPW17304   6.544   3.850   0.967
 4150WAT      O17305   6.866   3.935   1.121
 4150WAT     H117306   6.875   3.879   1.055
 4150WAT     H217307   6.945   3.973   1.126
 4150WAT    EPW17308   6.879   3.933   1.112
 4151WAT      O17309   6.738   4.175   0.748
 4151WAT     H117310   6.805   4.121   0.734
 4151WAT     H217311   6.742   4.231   0.681
 4151WAT    EPW17312   6.748   4.175   0.736
 4152WAT      O17313   5.660   4.415   0.533
 4152WAT     H117314   5.667   4.466   0.604
 4152WAT     H217315   5.695   4.462   0.469
 4152WAT    EPW17316   5.666   4.429   0.534
 4153WAT      O17317   5.494   4.267   0.832
 4153WAT     H117318   5.414   4.235   0.846
 4153WAT     H217319   5.482   4.353   0.826
 4153WAT    EPW17320   5.481   4.275   0.833
 4154WAT      O17321   6.405   3.333   0.786
 4154WAT     H117322   6.477   3.380   0.773
 4154WAT     H217323   6.345   3.372   0.735
 4154WAT    EPW17324   6.407   3.346   0.776
 4155WAT      O17325   5.987   4.074   0.420
 4155WAT     H117326   6.036   4.085   0.491
 4155WAT     H217327   5.905   4.084   0.450
 4155WAT    EPW17328   5.982   4.077   0.435
 4156WAT      O17329   5.625   3.635   0.805
 4156WAT     H117330   5.611   3.557   0.842
 4156WAT     H217331   5.648   3.615   0.723
 4156WAT    EPW17332   5.626   3.620   0.799
 4157WAT      O17333   6.532   3.107   0.516
 4157WAT     H117334   6.516   3.189   0.491
 4157WAT     H217335   6.607   3.113   0.560
 4157WAT    EPW17336   6.541   3.120   0.519
 4158WAT      O17337   5.743   3.211   0.824
 4158WAT     H117338   5.824   3.218   0.792
 4158WAT     H217339   5.729   3.125   0.826
 4158WAT    EPW17340   5.753   3.199   0.819
 4159WAT      O17341   5.717   4.586   0.317
 4159WAT     H117342   5.635   4.599   0.290
 4159WAT     H217343   5.760   4.570   0.243
 4159WAT    EPW17344   5.711   4.585   0.302
 4160WAT      O17345   6.133   4.231   1.065
 4160WAT     H117346   6.212   4.234   1.028
 4160WAT     H217347   6.078   4.244   0.998
 4160WAT    EPW17348   6.137   4.234   1.050
 4161WAT      O17349   6.451   4.502   0.919
 4161WAT     H117350   6.486   4.526   0.995
 4161WAT     H217351   6.498   4.546   0.860
 4161WAT    EPW17352   6.463   4.512   0.922
 4162WAT      O17353   5.531   3.749   0.381
 4162WAT     H117354   5.577   3.749   0.307
 4162WAT     H217355   5.573   3.692   0.432
 4162WAT    EPW17356   5.544   3.741   0.378
 4163WAT      O17357   6.214   3.654   0.882
 4163WAT     H117358   6.154   3.683   0.939
 4163WAT     H217359   6.276   3.619   0.934
 4163WAT    EPW17360   6.214   3.653   0.898
 4164WAT      O17361   6.249   3.715   0.521
 4164WAT     H117362   6.258   3.769   0.588
 4164WAT     H217363   6.225   3.640   0.558
 4164WAT    EPW17364   6.247   3.712   0.536
 4165WAT      O17365   5.936   4.798   0.933
 4165WAT     H117366   5.960   4.787   0.849
 4165WAT     H217367   5.902   4.721   0.954
 4165WAT    EPW17368   5.935   4.785   0.923
 4166WAT      O17369   5.769   3.162   0.406
 4166WAT     H117370   5.732   3.215   0.463
 4166WAT     H217371   5.702   3.127   0.363
 4166WAT    EPW17372   5.754   3.164   0.408
 4167WAT      O17373   5.956   4.245   0.852
 4167WAT     H117374   5.880   4.243   0.896
 4167WAT     H217375   5.958   4.326   0.819
 4167WAT    EPW17376   5.945   4.257   0.853
 4168WAT      O17377   4.991   3.225   0.905
 4168WAT     H117378   5.010   3.311   0.905
 4168WAT     H217379   4.931   3.218   0.968
 4168WAT    EPW17380   4.985   3.237   0.914
 4169WAT      O17381   5.514   4.877   0.356
 4169WAT     H117382   5.518   4.868   0.443
 4169WAT     H217383   5.491   4.798   0.328
 4169WAT    EPW17384   5.511   4.864   0.365
 4170WAT      O17385   5.954   4.503   0.757
 4170WAT     H117386   6.029   4.528   0.795
 4170WAT     H217387   5.975   4.500   0.672
 4170WAT    EPW17388   5.968   4.506   0.750
 4171WAT      O17389   6.825   3.748   0.921
 4171WAT     H117390   6.739   3.757   0.929
 4171WAT     H217391   6.839   3.762   0.836
 4171WAT    EPW17392   6.815   3.752   0.910
 4172WAT      O17393   6.263   3.890   0.740
 4172WAT     H117394   6.260   3.823   0.796
 4172WAT     H217395   6.341   3.926   0.756
 4172WAT    EPW17396   6.274   3.885   0.751
 4173WAT      O17397   5.179   4.883   0.933
 4173WAT     H117398   5.121   4.819   0.922
 4173WAT     H217399   5.131   4.950   0.962
 4173WAT    EPW17400   5.163   4.884   0.935
 4174WAT      O17401   6.066   3.993   1.187
 4174WAT     H117402   6.093   4.066   1.147
 4174WAT     H217403   5.986   4.014   1.215
 4174WAT    EPW17404   6.058   4.007   1.185
 4175WAT      O17405   6.374   4.787   0.331
 4175WAT     H117406   6.336   4.864   0.316
 4175WAT     H217407   6.449   4.809   0.371
 4175WAT    EPW17408   6.379   4.802   0.335
 4176WAT      O17409   5.990   4.485   0.481
 4176WAT     H117410   5.975   4.431   0.414
 4176WAT     H217411   6.077   4.492   0.482
 4176WAT    EPW17412   6.000   4.478   0.471
 4177WAT      O17413   6.588   4.580   1.147
 4177WAT     H117414   6.670   4.549   1.141
 4177WAT     H217415   6.558   4.546   1.221
 4177WAT    EPW17416   6.596   4.571   1.157
 4178WAT      O17417   5.384   3.764   0.792
 4178WAT     H117418   5.395   3.824   0.729
 4178WAT     H217419   5.462   3.725   0.796
 4178WAT    EPW17420   5.397   3.767   0.783
 4179WAT      O17421   5.223   3.583   0.662
 4179WAT     H117422   5.238   3.598   0.578
 4179WAT     H217423   5.279   3.636   0.703
 4179WAT    EPW17424   5.234   3.593   0.656
 4180WAT      O17425   5.332   3.266   0.915
 4180WAT     H117426   5.305   3.183   0.920
 4180WAT     H217427   5.328   3.283   0.830
 4180WAT    EPW17428   5.327   3.256   0.903
 4181WAT      O17429   6.573   3.758   0.692
 4181WAT     H117430   6.587   3.674   0.709
 4181WAT     H217431   6.558   3.793   0.771
 4181WAT    EPW17432   6.573   3.751   0.706
 4182WAT      O17433   5.113   4.048   0.666
 4182WAT     H117434   5.157   4.068   0.593
 4182WAT     H217435   5.092   3.964   0.656
 4182WAT    EPW17436   5.116   4.039   0.654
 4183WAT      O17437   6.106   3.287   1.014
 4183WAT     H117438   6.122   3.352   1.069
 4183WAT     H217439   6.031   3.254   1.043
 4183WAT    EPW17440   6.097   3.292   1.027
 4184WAT      O17441   6.500   3.359   0.390
 4184WAT     H117442   6.588   3.355   0.390
 4184WAT     H217443   6.483   3.444   0.393
 4184WAT    EPW17444   6.511   3.371   0.390
 4185WAT      O17445   5.638   4.034   0.750
 4185WAT     H117446   5.598   4.106   0.779
 4185WAT     H217447   5.577   3.996   0.700
 4185WAT    EPW17448   5.623   4.039   0.747
 4186WAT      O17449   5.620   3.308   0.593
 4186WAT     H117450   5.533   3.305   0.605
 4186WAT     H217451   5.652   3.274   0.666
 4186WAT    EPW17452   5.612   3.303   0.605
 4187WAT      O17453   6.763   3.176   0.667
 4187WAT     H117454   6.746   3.160   0.751
 4187WAT     H217455   6.841   3.139   0.656
 4187WAT    EPW17456   6.772   3.168   0.678
 4188WAT      O17457   6.003   3.335   0.360
 4188WAT     H117458   5.943   3.272   0.366
 4188WAT     H217459   6.078   3.291   0.353
 4188WAT    EPW17460   6.005   3.319   0.360
 4189WAT      O17461   6.262   4.504   0.510
 4189WAT     H117462   6.281   4.580   0.549
 4189WAT     H217463   6.290   4.516   0.428
 4189WAT    EPW17464   6.269   4.517   0.503
 4190WAT      O17465   6.204   4.886   0.984
 4190WAT     H117466   6.133   4.846   0.955
 4190WAT     H217467   6.178   4.969   0.994
 4190WAT    EPW17468   6.190   4.893   0.981
 4191WAT      O17469   5.775   3.835   0.920
 4191WAT     H117470   5.732   3.770   0.881
 4191WAT     H217471   5.747   3.907   0.878
 4191WAT    EPW17472   5.764   3.836   0.908
 4192WAT      O17473   6.776   4.286   0.488
 4192WAT     H117474   6.800   4.213   0.447
 4192WAT     H217475   6.703   4.310   0.447
 4192WAT    EPW17476   6.769   4.279   0.476
 4193WAT      O17477   5.625   4.825   0.892
 4193WAT     H117478   5.619   4.816   0.978
 4193WAT     H217479   5.666   4.752   0.866
 4193WAT    EPW17480   5.631   4.813   0.901
 4194WAT      O17481   6.580   4.597   0.509
 4194WAT     H117482   6.647   4.631   0.465
 4194WAT     H217483   6.566   4.520   0.469
 4194WAT    EPW17484   6.588   4.590   0.497
 4195WAT      O17485   5.344   3.329   0.647
 4195WAT     H117486   5.321   3.291   0.572
 4195WAT     H217487   5.304   3.407   0.643
 4195WAT    EPW17488   5.335   3.335   0.635
 4196WAT      O17489   6.266   3.223   0.296
 4196WAT     H117490   6.334   3.266   0.330
 4196WAT     H217491   6.266   3.247   0.212
 4196WAT    EPW17492   6.276   3.233   0.289
 4197WAT      O17493   5.336   4.690   1.069
 4197WAT     H117494   5.410   4.728   1.095
 4197WAT     H217495   5.294   4.755   1.028
 4197WAT    EPW17496   5.341   4.705   1.067
 4198WAT      O17497   5.174   4.468   0.785
 4198WAT     H117498   5.123   4.528   0.823
 4198WAT     H217499   5.255   4.500   0.796
 4198WAT    EPW17500   5.178   4.482   0.792
 4199WAT      O17501   6.663   4.090   1.013
 4199WAT     H117502   6.733   4.055   1.052
 4199WAT     H217503   6.695   4.131   0.944
 4199WAT    EPW17504   6.678   4.091   1.009
 4200WAT      O17505   6.649   3.541   1.098
 4200WAT     H117506   6.658   3.617   1.142
 4200WAT     H217507   6.562   3.531   1.093
 4200WAT    EPW17508   6.637   3.551   1.104
 4201WAT      O17509   6.749   3.633   0.456
 4201WAT     H117510   6.663   3.642   0.441
 4201WAT     H217511   6.761   3.547   0.455
 4201WAT    EPW17512   6.738   3.622   0.453
 4202WAT      O17513   5.576   3.397   0.941
 4202WAT     H117514   5.630   3.339   0.906
 4202WAT     H217515   5.498   3.358   0.938
 4202WAT    EPW17516   5.572   3.383   0.935
 4203WAT      O17517   6.449   4.154   1.244
 4203WAT     H117518   6.525   4.183   1.278
 4203WAT     H217519   6.458   4.171   1.159
 4203WAT    EPW17520   6.462   4.161   1.236
 4204WAT      O17521   5.431   4.610   0.275
 4204WAT     H117522   5.423   4.527   0.301
 4204WAT     H217523   5.395   4.611   0.195
 4204WAT    EPW17524   5.424   4.598   0.267
 4205WAT      O17525   5.121   4.902   0.649
 4205WAT     H117526   5.161   4.896   0.726
 4205WAT     H217527   5.165   4.847   0.598
 4205WAT    EPW17528   5.133   4.893   0.652
 4206WAT      O17529   6.113   1.288   7.423
 4206WAT     H117530   6.103   1.335   7.349
 4206WAT     H217531   6.199   1.279   7.429
 4206WAT    EPW17532   6.124   1.294   7.413
 4207WAT      O17533   5.057   2.399   7.407
 4207WAT     H117534   4.977   2.396   7.441
 4207WAT     H217535   5.064   2.324   7.363
 4207WAT    EPW17536   5.046   2.388   7.406
 4208WAT      O17537   6.694   2.795   7.202
 4208WAT     H117538   6.759   2.741   7.222
 4208WAT     H217539   6.639   2.745   7.155
 4208WAT    EPW17540   6.696   2.780   7.198
 4209WAT      O17541   5.046   1.759   7.035
 4209WAT     H117542   4.981   1.808   7.005
 4209WAT     H217543   5.014   1.678   7.031
 4209WAT    EPW17544   5.032   1.754   7.030
 4210WAT      O17545   5.359   2.343   7.006
 4210WAT     H117546   5.331   2.303   6.933
 4210WAT     H217547   5.376   2.277   7.060
 4210WAT    EPW17548   5.357   2.328   7.003
 4211WAT      O17549   6.318   2.134   7.532
 4211WAT     H117550   6.328   2.122   7.446
 4211WAT     H217551   6.273   2.064   7.558
 4211WAT    EPW17552   6.312   2.122   7.523
 4212WAT      O17553   5.319   2.518   7.398
 4212WAT     H117554   5.383   2.486   7.447
 4212WAT     H217555   5.250   2.469   7.421
 4212WAT    EPW17556   5.318   2.506   7.409
 4213WAT      O17557   5.726   1.410   7.326
 4213WAT     H117558   5.746   1.473   7.269
 4213WAT     H217559   5.786   1.348   7.312
 4213WAT    EPW17560   5.738   1.410   7.316
 4214WAT      O17561   5.192   2.789   6.985
 4214WAT     H117562   5.241   2.797   6.914
 4214WAT     H217563   5.232   2.728   7.032
 4214WAT    EPW17564   5.205   2.781   6.981
 4215WAT      O17565   5.273   2.178   7.531
 4215WAT     H117566   5.220   2.183   7.462
 4215WAT     H217567   5.326   2.111   7.512
 4215WAT    EPW17568   5.273   2.169   7.518
 4216WAT      O17569   5.435   1.977   7.439
 4216WAT     H117570   5.491   1.954   7.502
 4216WAT     H217571   5.370   1.920   7.447
 4216WAT    EPW17572   5.434   1.965   7.450
 4217WAT      O17573   5.771   2.570   7.652
 4217WAT     H117574   5.801   2.489   7.665
 4217WAT     H217575   5.843   2.619   7.657
 4217WAT    EPW17576   5.786   2.565   7.655
 4218WAT      O17577   5.857   2.495   7.326
 4218WAT     H117578   5.905   2.434   7.365
 4218WAT     H217579   5.877   2.485   7.241
 4218WAT    EPW17580   5.867   2.485   7.319
 4219WAT      O17581   5.488   1.503   7.449
 4219WAT     H117582   5.447   1.546   7.386
 4219WAT     H217583   5.563   1.479   7.413
 4219WAT    EPW17584   5.493   1.506   7.435
 4220WAT      O17585   5.830   1.471   7.585
 4220WAT     H117586   5.804   1.551   7.608
 4220WAT     H217587   5.795   1.459   7.506
 4220WAT    EPW17588   5.821   1.481   7.577
 4221WAT      O17589   6.243   1.618   6.847
 4221WAT     H117590   6.192   1.680   6.881
 4221WAT     H217591   6.260   1.566   6.915
 4221WAT    EPW17592   6.238   1.619   6.862
 4222WAT      O17593   5.076   1.919   7.726
 4222WAT     H117594   5.080   2.004   7.744
 4222WAT     H217595   5.070   1.881   7.804
 4222WAT    EPW17596   5.076   1.926   7.740
 4223WAT      O17597   5.073   2.872   7.639
 4223WAT     H117598   5.010   2.920   7.604
 4223WAT     H217599   5.113   2.836   7.569
 4223WAT    EPW17600   5.070   2.874   7.623
 4224WAT      O17601   5.672   2.705   7.314
 4224WAT     H117602   5.624   2.699   7.387
 4224WAT     H217603   5.732   2.643   7.324
 4224WAT    EPW17604   5.674   2.695   7.326
 4225WAT      O17605   6.272   2.890   7.098
 4225WAT     H117606   6.342   2.942   7.110
 4225WAT     H217607   6.297   2.814   7.133
 4225WAT    EPW17608   6.286   2.887   7.105
 4226WAT      O17609   6.055   2.906   7.265
 4226WAT     H117610   6.070   2.975   7.316
 4226WAT     H217611   6.123   2.907   7.210
 4226WAT    EPW17612   6.067   2.917   7.264
 4227WAT      O17613   5.212   2.775   7.415
 4227WAT     H117614   5.260   2.702   7.428
 4227WAT     H217615   5.269   2.830   7.379
 4227WAT    EPW17616   5.228   2.772   7.412
 4228WAT      O17617   6.813   1.578   7.560
 4228WAT     H117618   6.773   1.653   7.578
 4228WAT     H217619   6.748   1.524   7.538
 4228WAT    EPW17620   6.798   1.581   7.560
 4229WAT      O17621   5.393   2.563   7.761
 4229WAT     H117622   5.425   2.619   7.702
 4229WAT     H217623   5.429   2.487   7.739
 4229WAT    EPW17624   5.403   2.560   7.749
 4230WAT      O17625   5.662   2.944   7.551
 4230WAT     H117626   5.737   2.976   7.581
 4230WAT     H217627   5.604   3.007   7.572
 4230WAT    EPW17628   5.664   2.958   7.559
 4231WAT      O17629   5.985   1.851   7.464
 4231WAT     H117630   6.009   1.797   7.400
 4231WAT     H217631   6.058   1.859   7.512
 4231WAT    EPW17632   5.999   1.844   7.462
 4232WAT      O17633   6.066   1.798   6.980
 4232WAT     H117634   6.091   1.877   7.008
 4232WAT     H217635   5.990   1.813   6.940
 4232WAT    EPW17636   6.059   1.812   6.978
 4233WAT      O17637   6.477   3.084   7.096
 4233WAT     H117638   6.521   3.061   7.025
 4233WAT     H217639   6.533   3.133   7.141
 4233WAT    EPW17640   6.491   3.088   7.092
 4234WAT      O17641   5.932   2.724   6.917
 4234WAT     H117642   5.897   2.783   6.971
 4234WAT     H217643   6.010   2.758   6.897
 4234WAT    EPW17644   5.939   2.738   6.922
 4235WAT      O17645   6.290   1.449   7.064
 4235WAT     H117646   6.346   1.382   7.067
 4235WAT     H217647   6.314   1.498   7.132
 4235WAT    EPW17648   6.302   1.446   7.074
 4236WAT      O17649   5.104   1.549   7.319
 4236WAT     H117650   5.083   1.465   7.309
 4236WAT     H217651   5.053   1.576   7.384
 4236WAT    EPW17652   5.093   1.541   7.327
 4237WAT      O17653   6.060   1.695   7.243
 4237WAT     H117654   6.030   1.613   7.232
 4237WAT     H217655   6.057   1.729   7.163
 4237WAT    EPW17656   6.055   1.688   7.230
 4238WAT      O17657   6.042   1.415   7.185
 4238WAT     H117658   5.982   1.391   7.127
 4238WAT     H217659   6.115   1.420   7.138
 4238WAT    EPW17660   6.044   1.412   7.170
 4239WAT      O17661   6.745   3.014   7.489
 4239WAT     H117662   6.705   3.091   7.494
 4239WAT     H217663   6.680   2.958   7.470
 4239WAT    EPW17664   6.729   3.017   7.487
 4240WAT      O17665   5.804   1.744   7.644
 4240WAT     H117666   5.855   1.778   7.582
 4240WAT     H217667   5.850   1.758   7.718
 4240WAT    EPW17668   5.819   1.751   7.646
 4241WAT      O17669   6.471   2.595   7.506
 4241WAT     H117670   6.537   2.538   7.502
 4241WAT     H217671   6.400   2.545   7.513
 4241WAT    EPW17672   6.470   2.579   7.506
 4242WAT      O17673   5.434   1.244   7.548
 4242WAT     H117674   5.444   1.329   7.530
 4242WAT     H217675   5.410   1.209   7.472
 4242WAT    EPW17676   5.432   1.251   7.535
 4243WAT      O17677   6.378   1.246   7.479
 4243WAT     H117678   6.381   1.231   7.565
 4243WAT     H217679   6.414   1.174   7.444
 4243WAT    EPW17680   6.384   1.233   7.486
 4244WAT      O17681   5.392   1.658   7.662
 4244WAT     H117682   5.429   1.605   7.603
 4244WAT     H217683   5.322   1.613   7.688
 4244WAT    EPW17684   5.387   1.644   7.657
 4245WAT      O17685   6.659   2.389   7.070
 4245WAT     H117686   6.654   2.336   7.139
 4245WAT     H217687   6.745   2.395   7.055
 4245WAT    EPW17688   6.671   2.382   7.078
 4246WAT      O17689   5.484   2.329   7.630
 4246WAT     H117690   5.536   2.333   7.560
 4246WAT     H217691   5.415   2.283   7.602
 4246WAT    EPW17692   5.482   2.323   7.616
 4247WAT      O17693   5.303   2.965   7.767
 4247WAT     H117694   5.228   2.941   7.728
 4247WAT     H217695   5.345   3.009   7.704
 4247WAT    EPW17696   5.298   2.968   7.752
 4248WAT      O17697   6.457   2.053   6.990
 4248WAT     H117698   6.451   2.137   6.964
 4248WAT     H217699   6.427   2.055   7.071
 4248WAT    EPW17700   6.452   2.066   6.998
 4249WAT      O17701   5.626   2.341   7.393
 4249WAT     H117702   5.689   2.398   7.375
 4249WAT     H217703   5.644   2.273   7.342
 4249WAT    EPW17704   5.638   2.340   7.383
 4250WAT      O17705   6.795   1.520   6.965
 4250WAT     H117706   6.836   1.463   6.913
 4250WAT     H217707   6.758   1.576   6.909
 4250WAT    EPW17708   6.795   1.520   6.949
 4251WAT      O17709   5.135   2.464   7.820
 4251WAT     H117710   5.093   2.537   7.841
 4251WAT     H217711   5.214   2.492   7.798
 4251WAT    EPW17712   5.140   2.479   7.820
 4252WAT      O17713   5.130   2.159   7.291
 4252WAT     H117714   5.104   2.075   7.290
 4252WAT     H217715   5.206   2.156   7.248
 4252WAT    EPW17716   5.137   2.146   7.284
 4253WAT      O17717   6.674   1.417   7.195
 4253WAT     H117718   6.746   1.376   7.222
 4253WAT     H217719   6.699   1.460   7.124
 4253WAT    EPW17720   6.688   1.417   7.189
 4254WAT      O17721   6.004   2.730   7.657
 4254WAT     H117722   5.983   2.814   7.657
 4254WAT     H217723   6.031   2.715   7.576
 4254WAT    EPW17724   6.005   2.740   7.645
 4255WAT      O17725   5.044   2.624   7.251
 4255WAT     H117726   5.098   2.678   7.292
 4255WAT     H217727   5.040   2.554   7.302
 4255WAT    EPW17728   5.051   2.621   7.264
 4256WAT      O17729   6.329   1.660   7.681
 4256WAT     H117730   6.349   1.609   7.749
 4256WAT     H217731   6.266   1.615   7.640
 4256WAT    EPW17732   6.322   1.646   7.685
 4257WAT      O17733   5.058   2.447   7.026
 4257WAT     H117734   5.135   2.405   7.023
 4257WAT     H217735   5.070   2.505   7.090
 4257WAT    EPW17736   5.071   2.450   7.035
 4258WAT      O17737   5.096   2.200   7.744
 4258WAT     H117738   5.152   2.194   7.677
 4258WAT     H217739   5.111   2.280   7.776
 4258WAT    EPW17740   5.107   2.211   7.739
 4259WAT      O17741   5.764   1.603   7.136
 4259WAT     H117742   5.753   1.590   7.051
 4259WAT     H217743   5.749   1.689   7.146
 4259WAT    EPW17744   5.760   1.614   7.125
 4260WAT      O17745   5.544   2.693   7.564
 4260WAT     H117746   5.570   2.776   7.570
 4260WAT     H217747   5.612   2.648   7.594
 4260WAT    EPW17748   5.558   2.699   7.569
 4261WAT      O17749   5.405   1.863   7.081
 4261WAT     H117750   5.385   1.806   7.144
 4261WAT     H217751   5.365   1.831   7.011
 4261WAT    EPW17752   5.396   1.850   7.080
 4262WAT      O17753   5.660   2.149   7.761
 4262WAT     H117754   5.599   2.203   7.729
 4262WAT     H217755   5.630   2.070   7.740
 4262WAT    EPW17756   5.646   2.145   7.753
 4263WAT      O17757   6.323   1.605   7.286
 4263WAT     H117758   6.376   1.672   7.301
 4263WAT     H217759   6.244   1.642   7.284
 4263WAT    EPW17760   6.319   1.621   7.288
 4264WAT      O17761   6.134   2.043   7.098
 4264WAT     H117762   6.109   2.096   7.033
 4264WAT     H217763   6.074   2.057   7.159
 4264WAT    EPW17764   6.121   2.053   7.097
 4265WAT      O17765   6.670   2.394   7.490
 4265WAT     H117766   6.673   2.346   7.563
 4265WAT     H217767   6.643   2.337   7.430
 4265WAT    EPW17768   6.666   2.379   7.492
 4266WAT      O17769   6.120   2.501   7.783
 4266WAT     H117770   6.085   2.574   7.750
 4266WAT     H217771   6.160   2.529   7.856
 4266WAT    EPW17772   6.120   2.516   7.789
 4267WAT      O17773   5.663   3.017   7.284
 4267WAT     H117774   5.671   2.980   7.363
 4267WAT     H217775   5.713   2.967   7.233
 4267WAT    EPW17776   5.671   3.004   7.288
 4268WAT      O17777   5.573   1.305   7.096
 4268WAT     H117778   5.595   1.325   7.178
 4268WAT     H217779   5.529   1.375   7.069
 4268WAT    EPW17780   5.569   1.318   7.104
 4269WAT      O17781   5.841   2.914   7.096
 4269WAT     H117782   5.908   2.908   7.152
 4269WAT     H217783   5.852   2.992   7.059
 4269WAT    EPW17784   5.852   2.924   7.099
 4270WAT      O17785   5.383   2.124   7.183
 4270WAT     H117786   5.377   2.044   7.148
 4270WAT     H217787   5.432   2.112   7.254
 4270WAT    EPW17788   5.389   2.110   7.188
 4271WAT      O17789   5.017   1.279   7.285
 4271WAT     H117790   5.016   1.223   7.218
 4271WAT     H217791   4.982   1.234   7.350
 4271WAT    EPW17792   5.011   1.264   7.285
 4272WAT      O17793   5.967   2.083   7.313
 4272WAT     H117794   5.987   2.151   7.365
 4272WAT     H217795   5.968   2.015   7.368
 4272WAT    EPW17796   5.971   2.083   7.329
 4273WAT      O17797   5.439   1.523   6.999
 4273WAT     H117798   5.380   1.508   6.936
 4273WAT     H217799   5.506   1.560   6.956
 4273WAT    EPW17800   5.440   1.527   6.983
 4274WAT      O17801   5.878   2.316   7.702
 4274WAT     H117802   5.817   2.259   7.728
 4274WAT     H217803   5.925   2.330   7.775
 4274WAT    EPW17804   5.876   2.309   7.717
 4275WAT      O17805   5.549   2.927   6.887
 4275WAT     H117806   5.573   2.861   6.938
 4275WAT     H217807   5.562   2.998   6.937
 4275WAT    EPW17808   5.555   2.928   6.902
 4276WAT      O17809   5.567   1.887   7.670
 4276WAT     H117810   5.641   1.842   7.657
 4276WAT     H217811   5.508   1.825   7.686
 4276WAT    EPW17812   5.569   1.871   7.671
 4277WAT      O17813   6.852   2.969   7.061
 4277WAT     H117814   6.917   2.917   7.034
 4277WAT     H217815   6.800   2.915   7.106
 4277WAT    EPW17816   6.854   2.953   7.064
 4278WAT      O17817   5.078   1.886   7.285
 4278WAT     H117818   5.119   1.846   7.351
 4278WAT     H217819   5.085   1.829   7.219
 4278WAT    EPW17820   5.085   1.871   7.285
 4279WAT      O17821   5.557   2.045   6.892
 4279WAT     H117822   5.516   2.000   6.954
 4279WAT     H217823   5.512   2.026   6.820
 4279WAT    EPW17824   5.544   2.036   6.891
 4280WAT      O17825   6.695   2.251   7.728
 4280WAT     H117826   6.689   2.312   7.790
 4280WAT     H217827   6.779   2.226   7.732
 4280WAT    EPW17828   6.707   2.256   7.738
 4281WAT      O17829   5.681   1.872   7.131
 4281WAT     H117830   5.690   1.950   7.169
 4281WAT     H217831   5.594   1.863   7.124
 4281WAT    EPW17832   5.669   1.883   7.135
 4282WAT      O17833   5.145   1.531   7.699
 4282WAT     H117834   5.076   1.557   7.653
 4282WAT     H217835   5.136   1.444   7.704
 4282WAT    EPW17836   5.134   1.522   7.693
 4283WAT      O17837   6.908   2.711   7.851
 4283WAT     H117838   6.909   2.756   7.776
 4283WAT     H217839   6.981   2.736   7.891
 4283WAT    EPW17840   6.919   2.721   7.846
 4284WAT      O17841   6.523   2.629   7.071
 4284WAT     H117842   6.561   2.551   7.074
 4284WAT     H217843   6.450   2.618   7.117
 4284WAT    EPW17844   6.518   2.616   7.078
 4285WAT      O17845   6.578   1.768   7.592
 4285WAT     H117846   6.507   1.727   7.622
 4285WAT     H217847   6.573   1.847   7.629
 4285WAT    EPW17848   6.567   1.774   7.602
 4286WAT      O17849   6.203   2.452   6.994
 4286WAT     H117850   6.276   2.406   6.985
 4286WAT     H217851   6.172   2.458   6.913
 4286WAT    EPW17852   6.209   2.446   6.981
 4287WAT      O17853   5.924   3.035   7.615
 4287WAT     H117854   5.902   3.113   7.647
 4287WAT     H217855   5.983   3.053   7.553
 4287WAT    EPW17856   5.929   3.049   7.610
 4288WAT      O17857   6.709   1.943   6.960
 4288WAT     H117858   6.758   1.999   6.915
 4288WAT     H217859   6.629   1.979   6.959
 4288WAT    EPW17860   6.704   1.956   6.953
 4289WAT      O17861   5.765   2.214   6.964
 4289WAT     H117862   5.702   2.166   6.929
 4289WAT     H217863   5.735   2.296   6.955
 4289WAT    EPW17864   5.751   2.219   6.958
 4290WAT      O17865   6.479   1.832   7.342
 4290WAT     H117866   6.507   1.809   7.422
 4290WAT     H217867   6.551   1.862   7.303
 4290WAT    EPW17868   6.494   1.833   7.348
 4291WAT      O17869   6.603   1.415   7.466
 4291WAT     H117870   6.523   1.382   7.472
 4291WAT     H217871   6.611   1.435   7.381
 4291WAT    EPW17872   6.592   1.413   7.454
 4292WAT      O17873   6.601   2.219   7.285
 4292WAT     H117874   6.645   2.144   7.278
 4292WAT     H217875   6.517   2.195   7.278
 4292WAT    EPW17876   6.595   2.205   7.283
 4293WAT      O17877   5.357   1.637   7.242
 4293WAT     H117878   5.373   1.595   7.167
 4293WAT     H217879   5.275   1.613   7.262
 4293WAT    EPW17880   5.347   1.627   7.234
 4294WAT      O17881   6.257   2.410   7.553
 4294WAT     H117882   6.224   2.429   7.631
 4294WAT     H217883   6.283   2.327   7.562
 4294WAT    EPW17884   6.256   2.400   7.566
 4295WAT      O17885   6.012   2.313   7.461
 4295WAT     H117886   5.971   2.310   7.538
 4295WAT     H217887   6.090   2.348   7.480
 4295WAT    EPW17888   6.017   2.318   7.475
 4296WAT      O17889   6.425   3.016   7.749
 4296WAT     H117890   6.380   2.952   7.788
 4296WAT     H217891   6.508   2.995   7.764
 4296WAT    EPW17892   6.431   3.004   7.757
 4297WAT      O17893   6.697   1.964   7.237
 4297WAT     H117894   6.707   1.959   7.150
 4297WAT     H217895   6.774   1.937   7.268
 4297WAT    EPW17896   6.710   1.960   7.229
 4298WAT      O17897   6.069   2.666   7.395
 4298WAT     H117898   6.060   2.741   7.352
 4298WAT     H217899   6.000   2.619   7.370
 4298WAT    EPW17900   6.058   2.670   7.385
 4299WAT      O17901   5.260   1.767   6.861
 4299WAT     H117902   5.187   1.766   6.909
 4299WAT     H217903   5.263   1.686   6.828
 4299WAT    EPW17904   5.250   1.755   6.864
 4300WAT      O17905   6.108   1.523   7.579
 4300WAT     H117906   6.022   1.518   7.590
 4300WAT     H217907   6.127   1.453   7.531
 4300WAT    EPW17908   6.098   1.512   7.574
 4301WAT      O17909   5.579   2.701   7.052
 4301WAT     H117910   5.622   2.709   7.127
 4301WAT     H217911   5.500   2.674   7.076
 4301WAT    EPW17912   5.574   2.698   7.067
 4302WAT      O17913   6.529   2.028   7.684
 4302WAT     H117914   6.585   2.092   7.703
 4302WAT     H217915   6.469   2.067   7.634
 4302WAT    EPW17916   6.528   2.043   7.679
 4303WAT      O17917   6.527   2.854   7.413
 4303WAT     H117918   6.505   2.776   7.446
 4303WAT     H217919   6.573   2.834   7.342
 4303WAT    EPW17920   6.531   2.839   7.407
 4304WAT      O17921   5.337   2.592   7.126
 4304WAT     H117922   5.335   2.573   7.211
 4304WAT     H217923   5.344   2.514   7.088
 4304WAT    EPW17924   5.338   2.578   7.133
 4305WAT      O17925   5.617   2.451   6.920
 4305WAT     H117926   5.538   2.419   6.941
 4305WAT     H217927   5.619   2.528   6.961
 4305WAT    EPW17928   5.605   2.457   6.930
 4306WAT      O17929   5.842   1.314   7.015
 4306WAT     H117930   5.852   1.324   6.928
 4306WAT     H217931   5.756   1.320   7.027
 4306WAT    EPW17932   5.831   1.316   7.004
 4307WAT      O17933   6.198   1.904   7.640
 4307WAT     H117934   6.247   1.832   7.649
 4307WAT     H217935   6.187   1.931   7.722
 4307WAT    EPW17936   6.203   1.898   7.653
 4308WAT      O17937   5.220   1.817   7.512
 4308WAT     H117938   5.170   1.849   7.577
 4308WAT     H217939   5.269   1.757   7.553
 4308WAT    EPW17940   5.220   1.813   7.528
 4309WAT      O17941   6.358   2.070   7.259
 4309WAT     H117942   6.381   1.989   7.282
 4309WAT     H217943   6.283   2.058   7.216
 4309WAT    EPW17944   6.350   2.056   7.256
 4310WAT      O17945   5.386   2.954   7.290
 4310WAT     H117946   5.356   2.970   7.210
 4310WAT     H217947   5.473   2.954   7.280
 4310WAT    EPW17948   5.394   2.956   7.277
 4311WAT      O17949   5.713   2.134   7.225
 4311WAT     H117950   5.728   2.166   7.145
 4311WAT     H217951   5.793   2.119   7.256
 4311WAT    EPW17952   5.727   2.137   7.218
 4312WAT      O17953   6.640   3.015   6.885
 4312WAT     H117954   6.713   3.006   6.932
 4312WAT     H217955   6.620   2.933   6.862
 4312WAT    EPW17956   6.648   3.002   6.888
 4313WAT      O17957   6.278   2.628   7.199
 4313WAT     H117958   6.228   2.622   7.270
 4313WAT     H217959   6.240   2.574   7.142
 4313WAT    EPW17960   6.265   2.619   7.201
 4314WAT      O17961   5.324   2.761   7.962
 4314WAT     H117962   5.353   2.696   7.912
 4314WAT     H217963   5.330   2.831   7.911
 4314WAT    EPW17964   5.329   2.762   7.947
 4315WAT      O17965   5.934   2.486   7.065
 4315WAT     H117966   6.015   2.459   7.049
 4315WAT     H217967   5.926   2.557   7.015
 4315WAT    EPW17968   5.945   2.492   7.055
 4316WAT      O17969   6.159   1.358   5.550
 4316WAT     H117970   6.184   1.424   5.497
 4316WAT     H217971   6.235   1.326   5.579
 4316WAT    EPW17972   6.174   1.363   5.546
 4317WAT      O17973   6.080   1.948   5.996
 4317WAT     H117974   6.047   2.025   6.020
 4317WAT     H217975   6.136   1.929   6.059
 4317WAT    EPW17976   6.083   1.957   6.009
 4318WAT      O17977   5.060   2.456   5.582
 4318WAT     H117978   5.043   2.456   5.668
 4318WAT     H217979   5.068   2.371   5.563
 4318WAT    EPW17980   5.059   2.444   5.592
 4319WAT      O17981   6.685   2.790   5.344
 4319WAT     H117982   6.753   2.737   5.361
 4319WAT     H217983   6.634   2.741   5.293
 4319WAT    EPW17984   6.688   2.775   5.339
 4320WAT      O17985   5.035   1.819   5.182
 4320WAT     H117986   4.973   1.865   5.142
 4320WAT     H217987   5.001   1.739   5.188
 4320WAT    EPW17988   5.021   1.814   5.177
 4321WAT      O17989   5.410   2.317   4.988
 4321WAT     H117990   5.346   2.304   4.931
 4321WAT     H217991   5.372   2.365   5.050
 4321WAT    EPW17992   5.395   2.323   4.989
 4322WAT      O17993   6.322   2.131   5.649
 4322WAT     H117994   6.328   2.117   5.563
 4322WAT     H217995   6.268   2.068   5.676
 4322WAT    EPW17996   6.315   2.119   5.640
 4323WAT      O17997   5.301   2.594   5.622
 4323WAT     H117998   5.365   2.535   5.620
 4323WAT     H217999   5.230   2.549   5.599
 4323WAT    EPW18000   5.300   2.579   5.618
 4324WAT      O18001   5.745   1.431   5.419
 4324WAT     H118002   5.744   1.505   5.372
 4324WAT     H218003   5.823   1.397   5.401
 4324WAT    EPW18004   5.756   1.437   5.409
 4325WAT      O18005   5.188   2.846   5.060
 4325WAT     H118006   5.239   2.854   4.989
 4325WAT     H218007   5.212   2.769   5.094
 4325WAT    EPW18008   5.199   2.836   5.054
 4326WAT      O18009   5.061   2.655   6.216
 4326WAT     H118010   5.097   2.628   6.291
 4326WAT     H218011   4.998   2.597   6.202
 4326WAT    EPW18012   5.057   2.643   6.225
 4327WAT      O18013   5.717   2.472   6.657
 4327WAT     H118014   5.695   2.462   6.741
 4327WAT     H218015   5.647   2.444   6.613
 4327WAT    EPW18016   5.703   2.466   6.663
 4328WAT      O18017   5.240   2.179   5.670
 4328WAT     H118018   5.193   2.179   5.597
 4328WAT     H218019   5.297   2.114   5.658
 4328WAT    EPW18020   5.242   2.170   5.658
 4329WAT      O18021   5.697   1.775   6.221
 4329WAT     H118022   5.761   1.776   6.162
 4329WAT     H218023   5.666   1.694   6.217
 4329WAT    EPW18024   5.702   1.763   6.212
 4330WAT      O18025   5.691   2.719   6.386
 4330WAT     H118026   5.666   2.796   6.354
 4330WAT     H218027   5.776   2.729   6.400
 4330WAT    EPW18028   5.700   2.732   6.383
 4331WAT      O18029   5.416   1.966   5.663
 4331WAT     H118030   5.483   1.913   5.681
 4331WAT     H218031   5.348   1.912   5.658
 4331WAT    EPW18032   5.416   1.950   5.665
 4332WAT      O18033   5.841   2.599   5.845
 4332WAT     H118034   5.866   2.516   5.848
 4332WAT     H218035   5.915   2.642   5.827
 4332WAT    EPW18036   5.856   2.593   5.843
 4333WAT      O18037   5.917   2.519   5.439
 4333WAT     H118038   5.943   2.451   5.486
 4333WAT     H218039   5.929   2.493   5.356
 4333WAT    EPW18040   5.923   2.505   5.433
 4334WAT      O18041   6.027   1.994   6.673
 4334WAT     H118042   5.945   1.990   6.645
 4334WAT     H218043   6.024   2.053   6.737
 4334WAT    EPW18044   6.015   2.002   6.679
 4335WAT      O18045   5.493   1.492   5.543
 4335WAT     H118046   5.452   1.542   5.484
 4335WAT     H218047   5.574   1.485   5.510
 4335WAT    EPW18048   5.499   1.499   5.529
 4336WAT      O18049   6.471   1.226   6.481
 4336WAT     H118050   6.447   1.296   6.435
 4336WAT     H218051   6.398   1.204   6.524
 4336WAT    EPW18052   6.457   1.233   6.481
 4337WAT      O18053   5.801   1.391   5.707
 4337WAT     H118054   5.813   1.475   5.729
 4337WAT     H218055   5.772   1.396   5.625
 4337WAT    EPW18056   5.798   1.404   5.698
 4338WAT      O18057   6.239   1.628   4.954
 4338WAT     H118058   6.187   1.693   4.982
 4338WAT     H218059   6.246   1.576   5.024
 4338WAT    EPW18060   6.232   1.630   4.969
 4339WAT      O18061   5.076   1.921   5.920
 4339WAT     H118062   5.077   2.008   5.928
 4339WAT     H218063   5.007   1.897   5.967
 4339WAT    EPW18064   5.066   1.930   5.928
 4340WAT      O18065   5.019   2.894   5.735
 4340WAT     H118066   4.959   2.945   5.698
 4340WAT     H218067   5.067   2.866   5.668
 4340WAT    EPW18068   5.018   2.897   5.720
 4341WAT      O18069   5.650   2.579   5.407
 4341WAT     H118070   5.623   2.591   5.489
 4341WAT     H218071   5.734   2.558   5.415
 4341WAT    EPW18072   5.658   2.578   5.420
 4342WAT      O18073   6.247   2.903   5.246
 4342WAT     H118074   6.318   2.954   5.247
 4342WAT     H218075   6.277   2.824   5.268
 4342WAT    EPW18076   6.262   2.899   5.250
 4343WAT      O18077   6.046   2.943   5.431
 4343WAT     H118078   6.069   3.014   5.476
 4343WAT     H218079   6.108   2.937   5.370
 4343WAT    EPW18080   6.059   2.953   5.428
 4344WAT      O18081   5.384   1.441   5.970
 4344WAT     H118082   5.337   1.372   5.944
 4344WAT     H218083   5.432   1.409   6.035
 4344WAT    EPW18084   5.384   1.426   5.976
 4345WAT      O18085   5.673   1.605   6.862
 4345WAT     H118086   5.684   1.571   6.782
 4345WAT     H218087   5.713   1.682   6.856
 4345WAT    EPW18088   5.681   1.611   6.849
 4346WAT      O18089   5.196   2.835   5.529
 4346WAT     H118090   5.239   2.762   5.550
 4346WAT     H218091   5.237   2.862   5.456
 4346WAT    EPW18092   5.209   2.828   5.521
 4347WAT      O18093   6.820   1.597   5.682
 4347WAT     H118094   6.769   1.667   5.683
 4347WAT     H218095   6.765   1.530   5.671
 4347WAT    EPW18096   6.805   1.597   5.681
 4348WAT      O18097   6.297   2.933   6.228
 4348WAT     H118098   6.363   2.988   6.211
 4348WAT     H218099   6.281   2.897   6.150
 4348WAT    EPW18100   6.304   2.936   6.214
 4349WAT      O18101   5.263   1.494   6.781
 4349WAT     H118102   5.182   1.466   6.761
 4349WAT     H218103   5.312   1.459   6.718
 4349WAT    EPW18104   5.258   1.485   6.769
 4350WAT      O18105   5.303   2.611   5.899
 4350WAT     H118106   5.320   2.609   5.814
 4350WAT     H218107   5.358   2.553   5.933
 4350WAT    EPW18108   5.313   2.602   5.892
 4351WAT      O18109   5.619   2.917   5.767
 4351WAT     H118110   5.698   2.941   5.739
 4351WAT     H218111   5.565   2.963   5.715
 4351WAT    EPW18112   5.622   2.928   5.755
 4352WAT      O18113   5.872   1.338   6.741
 4352WAT     H118114   5.890   1.265   6.698
 4352WAT     H218115   5.808   1.375   6.694
 4352WAT    EPW18116   5.865   1.333   6.728
 4353WAT      O18117   5.967   1.857   5.576
 4353WAT     H118118   5.992   1.817   5.503
 4353WAT     H218119   6.042   1.868   5.619
 4353WAT    EPW18120   5.982   1.853   5.571
 4354WAT      O18121   6.058   1.819   5.069
 4354WAT     H118122   6.084   1.897   5.097
 4354WAT     H218123   5.981   1.835   5.032
 4354WAT    EPW18124   6.051   1.833   5.068
 4355WAT      O18125   6.457   3.087   5.215
 4355WAT     H118126   6.505   3.059   5.147
 4355WAT     H218127   6.514   3.135   5.261
 4355WAT    EPW18128   6.473   3.090   5.212
 4356WAT      O18129   5.531   2.953   6.345
 4356WAT     H118130   5.545   2.960   6.431
 4356WAT     H218131   5.451   2.917   6.341
 4356WAT    EPW18132   5.521   2.948   6.357
 4357WAT      O18133   6.715   1.538   6.099
 4357WAT     H118134   6.784   1.527   6.046
 4357WAT     H218135   6.728   1.479   6.162
 4357WAT    EPW18136   6.727   1.528   6.100
 4358WAT      O18137   4.981   1.642   6.518
 4358WAT     H118138   4.976   1.718   6.562
 4358WAT     H218139   5.042   1.658   6.457
 4358WAT    EPW18140   4.990   1.656   6.516
 4359WAT      O18141   6.179   2.701   6.588
 4359WAT     H118142   6.169   2.724   6.672
 4359WAT     H218143   6.265   2.691   6.579
 4359WAT    EPW18144   6.190   2.703   6.599
 4360WAT      O18145   5.929   2.717   5.047
 4360WAT     H118146   5.896   2.773   5.105
 4360WAT     H218147   6.006   2.752   5.027
 4360WAT    EPW18148   5.935   2.731   5.053
 4361WAT      O18149   6.255   1.456   5.176
 4361WAT     H118150   6.315   1.393   5.180
 4361WAT     H218151   6.270   1.502   5.248
 4361WAT    EPW18152   6.266   1.454   5.187
 4362WAT      O18153   5.115   1.553   5.449
 4362WAT     H118154   5.088   1.471   5.434
 4362WAT     H218155   5.065   1.579   5.516
 4362WAT    EPW18156   5.104   1.545   5.457
 4363WAT      O18157   5.261   2.869   6.246
 4363WAT     H118158   5.201   2.806   6.242
 4363WAT     H218159   5.297   2.869   6.167
 4363WAT    EPW18160   5.258   2.860   6.234
 4364WAT      O18161   6.026   1.725   5.332
 4364WAT     H118162   5.954   1.677   5.319
 4364WAT     H218163   6.042   1.760   5.254
 4364WAT    EPW18164   6.017   1.723   5.318
 4365WAT      O18165   6.046   2.978   6.325
 4365WAT     H118166   6.125   2.967   6.289
 4365WAT     H218167   5.993   2.984   6.256
 4365WAT    EPW18168   6.050   2.977   6.310
 4366WAT      O18169   5.998   1.396   5.282
 4366WAT     H118170   5.946   1.376   5.214
 4366WAT     H218171   6.075   1.411   5.245
 4366WAT    EPW18172   6.002   1.395   5.267
 4367WAT      O18173   6.754   3.011   5.611
 4367WAT     H118174   6.714   3.088   5.622
 4367WAT     H218175   6.688   2.955   5.603
 4367WAT    EPW18176   6.738   3.014   5.611
 4368WAT      O18177   5.852   1.668   5.750
 4368WAT     H118178   5.877   1.732   5.698
 4368WAT     H218179   5.860   1.702   5.830
 4368WAT    EPW18180   5.857   1.682   5.754
 4369WAT      O18181   6.501   2.587   5.692
 4369WAT     H118182   6.561   2.527   5.674
 4369WAT     H218183   6.425   2.544   5.686
 4369WAT    EPW18184   6.499   2.572   5.688
 4370WAT      O18185   5.441   2.677   6.523
 4370WAT     H118186   5.519   2.705   6.494
 4370WAT     H218187   5.429   2.723   6.596
 4370WAT    EPW18188   5.451   2.688   6.529
 4371WAT      O18189   5.459   1.234   5.644
 4371WAT     H118190   5.467   1.317   5.620
 4371WAT     H218191   5.439   1.193   5.570
 4371WAT    EPW18192   5.458   1.240   5.629
 4372WAT      O18193   5.653   2.254   5.930
 4372WAT     H118194   5.669   2.242   6.014
 4372WAT     H218195   5.587   2.199   5.913
 4372WAT    EPW18196   5.645   2.245   5.940
 4373WAT      O18197   6.203   1.639   6.329
 4373WAT     H118198   6.198   1.682   6.405
 4373WAT     H218199   6.140   1.579   6.335
 4373WAT    EPW18200   6.193   1.637   6.342
 4374WAT      O18201   5.736   2.267   6.194
 4374WAT     H118202   5.726   2.353   6.200
 4374WAT     H218203   5.710   2.238   6.272
 4374WAT    EPW18204   5.731   2.275   6.206
 4375WAT      O18205   6.347   2.367   6.222
 4375WAT     H118206   6.270   2.343   6.254
 4375WAT     H218207   6.348   2.453   6.231
 4375WAT    EPW18208   6.336   2.376   6.228
 4376WAT      O18209   6.397   1.256   5.644
 4376WAT     H118210   6.391   1.239   5.730
 4376WAT     H218211   6.424   1.180   5.610
 4376WAT    EPW18212   6.400   1.242   5.652
 4377WAT      O18213   4.993   2.656   6.841
 4377WAT     H118214   5.051   2.703   6.885
 4377WAT     H218215   5.003   2.575   6.872
 4377WAT    EPW18216   5.003   2.651   6.852
 4378WAT      O18217   6.587   1.691   6.426
 4378WAT     H118218   6.670   1.673   6.447
 4378WAT     H218219   6.545   1.684   6.502
 4378WAT    EPW18220   6.593   1.687   6.440
 4379WAT      O18221   5.360   1.615   5.758
 4379WAT     H118222   5.391   1.566   5.693
 4379WAT     H218223   5.364   1.563   5.828
 4379WAT    EPW18224   5.365   1.600   5.759
 4380WAT      O18225   6.655   2.374   5.199
 4380WAT     H118226   6.653   2.326   5.271
 4380WAT     H218227   6.741   2.385   5.184
 4380WAT    EPW18228   6.668   2.368   5.207
 4381WAT      O18229   5.450   2.362   5.649
 4381WAT     H118230   5.483   2.340   5.572
 4381WAT     H218231   5.384   2.306   5.660
 4381WAT    EPW18232   5.445   2.350   5.639
 4382WAT      O18233   5.254   3.025   5.811
 4382WAT     H118234   5.177   2.993   5.786
 4382WAT     H218235   5.300   3.028   5.737
 4382WAT    EPW18236   5.249   3.021   5.797
 4383WAT      O18237   5.241   1.748   6.063
 4383WAT     H118238   5.324   1.769   6.050
 4383WAT     H218239   5.197   1.809   6.018
 4383WAT    EPW18240   5.247   1.760   6.054
 4384WAT      O18241   6.850   2.798   6.577
 4384WAT     H118242   6.776   2.803   6.532
 4384WAT     H218243   6.830   2.750   6.646
 4384WAT    EPW18244   6.836   2.792   6.581
 4385WAT      O18245   6.466   2.046   5.107
 4385WAT     H118246   6.460   2.128   5.080
 4385WAT     H218247   6.435   2.049   5.189
 4385WAT    EPW18248   6.460   2.058   5.115
 4386WAT      O18249   5.534   2.313   5.388
 4386WAT     H118250   5.556   2.396   5.372
 4386WAT     H218251   5.605   2.268   5.364
 4386WAT    EPW18252   5.547   2.318   5.382
 4387WAT      O18253   6.792   1.521   5.103
 4387WAT     H118254   6.832   1.458   5.058
 4387WAT     H218255   6.760   1.574   5.040
 4387WAT    EPW18256   6.793   1.520   5.087
 4388WAT      O18257   5.058   2.485   5.867
 4388WAT     H118258   5.002   2.547   5.892
 4388WAT     H218259   5.136   2.522   5.879
 4388WAT    EPW18260   5.062   2.500   5.872
 4389WAT      O18261   5.805   1.849   6.875
 4389WAT     H118262   5.762   1.879   6.945
 4389WAT     H218263   5.782   1.904   6.812
 4389WAT    EPW18264   5.795   1.861   6.876
 4390WAT      O18265   6.898   1.934   6.316
 4390WAT     H118266   6.952   1.865   6.317
 4390WAT     H218267   6.837   1.911   6.258
 4390WAT    EPW18268   6.897   1.920   6.307
 4391WAT      O18269   5.072   2.191   5.453
 4391WAT     H118270   5.055   2.106   5.456
 4391WAT     H218271   5.139   2.197   5.397
 4391WAT    EPW18272   5.079   2.180   5.445
 4392WAT      O18273   6.657   1.412   5.326
 4392WAT     H118274   6.730   1.369   5.347
 4392WAT     H218275   6.682   1.462   5.259
 4392WAT    EPW18276   6.672   1.413   5.319
 4393WAT      O18277   6.054   2.767   5.787
 4393WAT     H118278   6.007   2.837   5.765
 4393WAT     H218279   6.085   2.738   5.711
 4393WAT    EPW18280   6.052   2.773   5.773
 4394WAT      O18281   4.989   2.583   5.344
 4394WAT     H118282   5.072   2.589   5.317
 4394WAT     H218283   4.996   2.548   5.424
 4394WAT    EPW18284   5.002   2.579   5.352
 4395WAT      O18285   5.465   2.431   6.037
 4395WAT     H118286   5.523   2.472   6.088
 4395WAT     H218287   5.514   2.384   5.983
 4395WAT    EPW18288   5.481   2.430   6.037
 4396WAT      O18289   6.348   1.675   5.769
 4396WAT     H118290   6.378   1.642   5.844
 4396WAT     H218291   6.277   1.626   5.753
 4396WAT    EPW18292   6.342   1.663   5.778
 4397WAT      O18293   4.947   2.473   5.089
 4397WAT     H118294   5.026   2.438   5.074
 4397WAT     H218295   4.956   2.507   5.169
 4397WAT    EPW18296   4.960   2.473   5.099
 4398WAT      O18297   5.098   2.212   5.907
 4398WAT     H118298   5.148   2.198   5.837
 4398WAT     H218299   5.088   2.299   5.908
 4398WAT    EPW18300   5.104   2.223   5.897
 4399WAT      O18301   5.759   1.644   5.247
 4399WAT     H118302   5.748   1.623   5.163
 4399WAT     H218303   5.732   1.727   5.251
 4399WAT    EPW18304   5.753   1.654   5.235
 4400WAT      O18305   6.613   2.832   6.422
 4400WAT     H118306   6.570   2.908   6.427
 4400WAT     H218307   6.615   2.816   6.336
 4400WAT    EPW18308   6.607   2.841   6.410
 4401WAT      O18309   5.622   2.655   5.671
 4401WAT     H118310   5.610   2.737   5.698
 4401WAT     H218311   5.686   2.625   5.722
 4401WAT    EPW18312   5.629   2.662   5.683
 4402WAT      O18313   5.359   1.973   6.704
 4402WAT     H118314   5.322   1.907   6.747
 4402WAT     H218315   5.366   1.943   6.622
 4402WAT    EPW18316   5.354   1.959   6.698
 4403WAT      O18317   5.394   1.901   5.234
 4403WAT     H118318   5.379   1.831   5.284
 4403WAT     H218319   5.358   1.881   5.157
 4403WAT    EPW18320   5.387   1.888   5.230
 4404WAT      O18321   5.435   2.088   5.912
 4404WAT     H118322   5.426   2.060   5.830
 4404WAT     H218323   5.455   2.015   5.956
 4404WAT    EPW18324   5.437   2.073   5.907
 4405WAT      O18325   5.438   2.051   6.254
 4405WAT     H118326   5.463   2.002   6.186
 4405WAT     H218327   5.386   2.111   6.218
 4405WAT    EPW18328   5.434   2.053   6.239
 4406WAT      O18329   6.486   1.857   6.037
 4406WAT     H118330   6.419   1.882   6.087
 4406WAT     H218331   6.481   1.910   5.968
 4406WAT    EPW18332   6.475   1.869   6.034
 4407WAT      O18333   5.833   2.987   6.151
 4407WAT     H118334   5.796   2.917   6.114
 4407WAT     H218335   5.821   3.051   6.093
 4407WAT    EPW18336   5.825   2.986   6.137
 4408WAT      O18337   6.050   1.410   6.403
 4408WAT     H118338   6.069   1.327   6.385
 4408WAT     H218339   6.076   1.419   6.486
 4408WAT    EPW18340   6.057   1.399   6.413
 4409WAT      O18341   6.259   1.596   5.414
 4409WAT     H118342   6.321   1.657   5.422
 4409WAT     H218343   6.187   1.642   5.393
 4409WAT    EPW18344   6.257   1.611   5.412
 4410WAT      O18345   5.250   2.214   6.787
 4410WAT     H118346   5.239   2.261   6.715
 4410WAT     H218347   5.291   2.142   6.759
 4410WAT    EPW18348   5.255   2.210   6.772
 4411WAT      O18349   6.381   2.410   6.661
 4411WAT     H118350   6.409   2.489   6.636
 4411WAT     H218351   6.411   2.357   6.598
 4411WAT    EPW18352   6.390   2.414   6.648
 4412WAT      O18353   5.817   2.736   6.667
 4412WAT     H118354   5.849   2.731   6.748
 4412WAT     H218355   5.783   2.657   6.654
 4412WAT    EPW18356   5.816   2.724   6.677
 4413WAT      O18357   5.879   1.756   6.011
 4413WAT     H118358   5.944   1.814   6.012
 4413WAT     H218359   5.915   1.684   6.044
 4413WAT    EPW18360   5.894   1.754   6.016
 4414WAT      O18361   6.138   2.052   5.205
 4414WAT     H118362   6.120   2.107   5.140
 4414WAT     H218363   6.081   2.074   5.267
 4414WAT    EPW18364   6.127   2.064   5.205
 4415WAT      O18365   6.675   2.372   5.647
 4415WAT     H118366   6.674   2.325   5.720
 4415WAT     H218367   6.647   2.317   5.586
 4415WAT    EPW18368   6.671   2.357   5.648
 4416WAT      O18369   6.250   2.805   5.986
 4416WAT     H118370   6.185   2.784   5.932
 4416WAT     H218371   6.290   2.872   5.946
 4416WAT    EPW18372   6.247   2.812   5.972
 4417WAT      O18373   6.237   2.453   5.978
 4417WAT     H118374   6.165   2.490   6.010
 4417WAT     H218375   6.268   2.407   6.045
 4417WAT    EPW18376   6.231   2.452   5.993
 4418WAT      O18377   5.615   2.855   5.375
 4418WAT     H118378   5.624   2.772   5.399
 4418WAT     H218379   5.688   2.871   5.329
 4418WAT    EPW18380   5.627   2.845   5.372
 4419WAT      O18381   5.555   1.306   5.222
 4419WAT     H118382   5.601   1.336   5.290
 4419WAT     H218383   5.513   1.377   5.193
 4419WAT    EPW18384   5.556   1.321   5.228
 4420WAT      O18385   5.849   2.907   5.237
 4420WAT     H118386   5.909   2.917   5.299
 4420WAT     H218387   5.840   2.987   5.203
 4420WAT    EPW18388   5.857   2.920   5.241
 4421WAT      O18389   6.465   2.256   6.446
 4421WAT     H118390   6.431   2.297   6.377
 4421WAT     H218391   6.550   2.274   6.440
 4421WAT    EPW18392   6.473   2.265   6.435
 4422WAT      O18393   6.179   2.837   6.842
 4422WAT     H118394   6.215   2.853   6.920
 4422WAT     H218395   6.209   2.901   6.792
 4422WAT    EPW18396   6.189   2.849   6.846
 4423WAT      O18397   6.592   1.364   6.689
 4423WAT     H118398   6.555   1.317   6.625
 4423WAT     H218399   6.597   1.308   6.755
 4423WAT    EPW18400   6.587   1.349   6.689
 4424WAT      O18401   5.305   2.163   5.312
 4424WAT     H118402   5.340   2.086   5.289
 4424WAT     H218403   5.375   2.214   5.326
 4424WAT    EPW18404   5.321   2.159   5.311
 4425WAT      O18405   6.112   2.273   6.328
 4425WAT     H118406   6.061   2.312   6.387
 4425WAT     H218407   6.140   2.202   6.370
 4425WAT    EPW18408   6.109   2.269   6.343
 4426WAT      O18409   5.018   1.288   5.396
 4426WAT     H118410   5.017   1.232   5.329
 4426WAT     H218411   4.992   1.239   5.463
 4426WAT    EPW18412   5.014   1.272   5.396
 4427WAT      O18413   5.987   2.104   5.435
 4427WAT     H118414   6.003   2.168   5.491
 4427WAT     H218415   5.969   2.035   5.486
 4427WAT    EPW18416   5.987   2.103   5.451
 4428WAT      O18417   6.507   2.566   5.979
 4428WAT     H118418   6.522   2.585   5.895
 4428WAT     H218419   6.422   2.545   5.980
 4428WAT    EPW18420   6.496   2.566   5.967
 4429WAT      O18421   5.434   1.530   5.110
 4429WAT     H118422   5.369   1.530   5.051
 4429WAT     H218423   5.500   1.568   5.068
 4429WAT    EPW18424   5.434   1.535   5.095
 4430WAT      O18425   5.908   2.328   5.852
 4430WAT     H118426   5.825   2.301   5.861
 4430WAT     H218427   5.948   2.294   5.921
 4430WAT    EPW18428   5.901   2.319   5.864
 4431WAT      O18429   5.584   2.918   4.975
 4431WAT     H118430   5.602   2.844   5.018
 4431WAT     H218431   5.570   2.976   5.039
 4431WAT    EPW18432   5.585   2.916   4.991
 4432WAT      O18433   5.273   2.247   6.137
 4432WAT     H118434   5.330   2.309   6.113
 4432WAT     H218435   5.236   2.222   6.062
 4432WAT    EPW18436   5.276   2.252   6.123
 4433WAT      O18437   5.583   1.775   5.789
 4433WAT     H118438   5.657   1.733   5.769
 4433WAT     H218439   5.522   1.714   5.777
 4433WAT    EPW18440   5.585   1.760   5.784
 4434WAT      O18441   6.847   2.956   5.194
 4434WAT     H118442   6.910   2.904   5.163
 4434WAT     H218443   6.798   2.902   5.242
 4434WAT    EPW18444   6.849   2.940   5.197
 4435WAT      O18445   5.028   1.916   5.452
 4435WAT     H118446   5.072   1.875   5.515
 4435WAT     H218447   5.054   1.877   5.379
 4435WAT    EPW18448   5.038   1.905   5.451
 4436WAT      O18449   6.581   2.205   6.144
 4436WAT     H118450   6.583   2.136   6.196
 4436WAT     H218451   6.503   2.241   6.160
 4436WAT    EPW18452   6.570   2.200   6.154
 4437WAT      O18453   5.559   2.082   4.973
 4437WAT     H118454   5.509   2.150   4.995
 4437WAT     H218455   5.514   2.044   4.909
 4437WAT    EPW18456   5.545   2.086   4.967
 4438WAT      O18457   5.215   2.346   6.548
 4438WAT     H118458   5.177   2.298   6.486
 4438WAT     H218459   5.192   2.427   6.528
 4438WAT    EPW18460   5.206   2.351   6.536
 4439WAT      O18461   6.685   2.211   5.880
 4439WAT     H118462   6.654   2.216   5.961
 4439WAT     H218463   6.772   2.207   5.892
 4439WAT    EPW18464   6.694   2.211   5.894
 4440WAT      O18465   5.672   1.907   5.225
 4440WAT     H118466   5.695   1.985   5.256
 4440WAT     H218467   5.585   1.911   5.223
 4440WAT    EPW18468   5.662   1.919   5.229
 4441WAT      O18469   6.469   1.621   6.677
 4441WAT     H118470   6.398   1.624   6.728
 4441WAT     H218471   6.496   1.539   6.683
 4441WAT    EPW18472   6.462   1.609   6.685
 4442WAT      O18473   5.051   1.551   5.927
 4442WAT     H118474   5.034   1.576   5.845
 4442WAT     H218475   5.126   1.592   5.945
 4442WAT    EPW18476   5.060   1.561   5.917
 4443WAT      O18477   6.825   2.730   5.964
 4443WAT     H118478   6.867   2.774   5.901
 4443WAT     H218479   6.886   2.720   6.026
 4443WAT    EPW18480   6.841   2.735   5.964
 4444WAT      O18481   6.332   1.959   6.758
 4444WAT     H118482   6.360   1.980   6.838
 4444WAT     H218483   6.252   1.993   6.756
 4444WAT    EPW18484   6.324   1.967   6.770
 4445WAT      O18485   6.567   2.011   6.615
 4445WAT     H118486   6.584   2.093   6.639
 4445WAT     H218487   6.493   1.992   6.657
 4445WAT    EPW18488   6.559   2.020   6.625
 4446WAT      O18489   6.535   2.622   5.191
 4446WAT     H118490   6.567   2.542   5.200
 4446WAT     H218491   6.457   2.617   5.230
 4446WAT    EPW18492   6.528   2.610   5.198
 4447WAT      O18493   6.594   1.771   5.678
 4447WAT     H118494   6.527   1.725   5.709
 4447WAT     H218495   6.584   1.849   5.716
 4447WAT    EPW18496   6.582   1.776   5.688
 4448WAT      O18497   6.871   2.095   6.797
 4448WAT     H118498   6.877   2.040   6.730
 4448WAT     H218499   6.950   2.131   6.803
 4448WAT    EPW18500   6.883   2.092   6.788
 4449WAT      O18501   6.731   2.345   6.430
 4449WAT     H118502   6.798   2.297   6.401
 4449WAT     H218503   6.720   2.405   6.368
 4449WAT    EPW18504   6.739   2.347   6.417
 4450WAT      O18505   6.211   2.449   5.096
 4450WAT     H118506   6.284   2.403   5.087
 4450WAT     H218507   6.180   2.454   5.014
 4450WAT    EPW18508   6.217   2.443   5.083
 4451WAT      O18509   5.691   2.549   6.168
 4451WAT     H118510   5.686   2.591   6.245
 4451WAT     H218511   5.690   2.613   6.109
 4451WAT    EPW18512   5.690   2.565   6.171
 4452WAT      O18513   5.486   2.401   6.513
 4452WAT     H118514   5.405   2.371   6.526
 4452WAT     H218515   5.475   2.488   6.506
 4452WAT    EPW18516   5.473   2.410   6.514
 4453WAT      O18517   6.429   1.474   6.342
 4453WAT     H118518   6.487   1.537   6.356
 4453WAT     H218519   6.354   1.517   6.334
 4453WAT    EPW18520   6.426   1.489   6.343
 4454WAT      O18521   5.984   2.195   6.092
 4454WAT     H118522   6.034   2.224   6.157
 4454WAT     H218523   5.903   2.206   6.121
 4454WAT    EPW18524   5.980   2.201   6.106
 4455WAT      O18525   5.643   1.760   6.495
 4455WAT     H118526   5.658   1.677   6.519
 4455WAT     H218527   5.672   1.763   6.413
 4455WAT    EPW18528   5.649   1.748   6.486
 4456WAT      O18529   5.884   2.975   5.686
 4456WAT     H118530   5.884   3.062   5.698
 4456WAT     H218531   5.902   2.965   5.602
 4456WAT    EPW18532   5.887   2.986   5.676
 4457WAT      O18533   6.503   1.277   6.156
 4457WAT     H118534   6.473   1.348   6.196
 4457WAT     H218535   6.586   1.273   6.182
 4457WAT    EPW18536   6.511   1.287   6.166
 4458WAT      O18537   5.776   1.367   6.361
 4458WAT     H118538   5.860   1.391   6.358
 4458WAT     H218539   5.776   1.285   6.334
 4458WAT    EPW18540   5.788   1.359   6.357
 4459WAT      O18541   5.707   2.778   6.007
 4459WAT     H118542   5.655   2.822   5.953
 4459WAT     H218543   5.756   2.729   5.952
 4459WAT    EPW18544   5.707   2.777   5.991
 4460WAT      O18545   6.115   2.403   6.733
 4460WAT     H118546   6.196   2.405   6.702
 4460WAT     H218547   6.066   2.421   6.664
 4460WAT    EPW18548   6.120   2.406   6.719
 4461WAT      O18549   6.458   2.670   6.592
 4461WAT     H118550   6.492   2.700   6.666
 4461WAT     H218551   6.504   2.712   6.530
 4461WAT    EPW18552   6.470   2.681   6.594
 4462WAT      O18553   6.719   1.940   5.079
 4462WAT     H118554   6.765   1.996   5.030
 4462WAT     H218555   6.638   1.973   5.079
 4462WAT    EPW18556   6.714   1.953   5.072
 4463WAT      O18557   5.805   2.202   5.030
 4463WAT     H118558   5.734   2.158   5.005
 4463WAT     H218559   5.782   2.285   5.020
 4463WAT    EPW18560   5.791   2.208   5.025
 4464WAT      O18561   5.505   1.855   6.043
 4464WAT     H118562   5.536   1.827   5.967
 4464WAT     H218563   5.566   1.829   6.101
 4464WAT    EPW18564   5.519   1.847   6.041
 4465WAT      O18565   6.200   1.810   6.552
 4465WAT     H118566   6.132   1.853   6.586
 4465WAT     H218567   6.259   1.810   6.617
 4465WAT    EPW18568   6.199   1.816   6.567
 4466WAT      O18569   6.258   1.881   6.193
 4466WAT     H118570   6.263   1.936   6.260
 4466WAT     H218571   6.241   1.804   6.231
 4466WAT    EPW18572   6.256   1.877   6.209
 4467WAT      O18573   5.975   2.960   6.593
 4467WAT     H118574   5.984   2.962   6.506
 4467WAT     H218575   5.936   2.884   6.608
 4467WAT    EPW18576   5.970   2.949   6.582
 4468WAT      O18577   6.461   1.808   5.435
 4468WAT     H118578   6.491   1.792   5.515
 4468WAT     H218579   6.531   1.837   5.392
 4468WAT    EPW18580   6.476   1.810   5.441
 4469WAT      O18581   5.773   1.321   6.007
 4469WAT     H118582   5.691   1.317   6.037
 4469WAT     H218583   5.763   1.324   5.920
 4469WAT    EPW18584   5.759   1.321   5.998
 4470WAT      O18585   6.625   1.411   5.605
 4470WAT     H118586   6.546   1.377   5.623
 4470WAT     H218587   6.621   1.429   5.520
 4470WAT    EPW18588   6.613   1.409   5.595
 4471WAT      O18589   6.604   2.210   5.424
 4471WAT     H118590   6.644   2.134   5.412
 4471WAT     H218591   6.520   2.191   5.414
 4471WAT    EPW18592   6.598   2.196   5.421
 4472WAT      O18593   5.953   2.435   6.505
 4472WAT     H118594   5.877   2.436   6.548
 4472WAT     H218595   5.956   2.514   6.468
 4472WAT    EPW18596   5.942   2.447   6.506
 4473WAT      O18597   4.996   1.420   6.689
 4473WAT     H118598   4.998   1.492   6.639
 4473WAT     H218599   4.912   1.399   6.692
 4473WAT    EPW18600   4.984   1.428   6.682
 4474WAT      O18601   5.522   3.082   6.091
 4474WAT     H118602   5.534   3.055   6.174
 4474WAT     H218603   5.493   3.011   6.051
 4474WAT    EPW18604   5.519   3.068   6.098
 4475WAT      O18605   5.359   1.647   5.355
 4475WAT     H118606   5.371   1.609   5.278
 4475WAT     H218607   5.279   1.623   5.378
 4475WAT    EPW18608   5.349   1.638   5.347
 4476WAT      O18609   6.279   2.405   5.704
 4476WAT     H118610   6.262   2.415   5.789
 4476WAT     H218611   6.302   2.321   5.698
 4476WAT    EPW18612   6.280   2.394   5.715
 4477WAT      O18613   6.029   2.323   5.602
 4477WAT     H118614   5.986   2.320   5.678
 4477WAT     H218615   6.107   2.355   5.625
 4477WAT    EPW18616   6.034   2.328   5.617
 4478WAT      O18617   5.991   2.703   6.384
 4478WAT     H118618   6.051   2.698   6.448
 4478WAT     H218619   6.007   2.780   6.347
 4478WAT    EPW18620   6.002   2.714   6.388
 4479WAT      O18621   6.830   1.920   6.585
 4479WAT     H118622   6.745   1.934   6.593
 4479WAT     H218623   6.846   1.934   6.500
 4479WAT    EPW18624   6.820   1.924   6.574
 4480WAT      O18625   6.261   2.051   6.413
 4480WAT     H118626   6.251   1.986   6.470
 4480WAT     H218627   6.336   2.089   6.437
 4480WAT    EPW18628   6.271   2.047   6.425
 4481WAT      O18629   5.179   3.029   6.622
 4481WAT     H118630   5.121   2.964   6.613
 4481WAT     H218631   5.131   3.094   6.656
 4481WAT    EPW18632   5.163   3.029   6.626
 4482WAT      O18633   6.029   2.179   6.879
 4482WAT     H118634   6.054   2.252   6.837
 4482WAT     H218635   5.947   2.197   6.903
 4482WAT    EPW18636   6.020   2.193   6.876
 4483WAT      O18637   6.356   3.055   5.910
 4483WAT     H118638   6.295   3.115   5.932
 4483WAT     H218639   6.418   3.068   5.970
 4483WAT    EPW18640   6.356   3.066   5.922
 4484WAT      O18641   6.015   2.555   6.127
 4484WAT     H118642   5.929   2.547   6.118
 4484WAT     H218643   6.025   2.592   6.205
 4484WAT    EPW18644   6.004   2.560   6.137
 4485WAT      O18645   6.584   2.750   6.828
 4485WAT     H118646   6.664   2.715   6.826
 4485WAT     H218647   6.547   2.713   6.899
 4485WAT    EPW18648   6.590   2.739   6.838
 4486WAT      O18649   5.386   1.860   6.450
 4486WAT     H118650   5.401   1.924   6.391
 4486WAT     H218651   5.464   1.825   6.463
 4486WAT    EPW18652   5.400   1.865   6.443
 4487WAT      O18653   5.184   1.714   6.329
 4487WAT     H118654   5.201   1.721   6.244
 4487WAT     H218655   5.251   1.757   6.366
 4487WAT    EPW18656   5.197   1.722   6.322
 4488WAT      O18657   6.690   1.954   5.356
 4488WAT     H118658   6.708   1.954   5.271
 4488WAT     H218659   6.765   1.929   5.393
 4488WAT    EPW18660   6.704   1.950   5.349
 4489WAT      O18661   5.423   1.391   6.577
 4489WAT     H118662   5.438   1.309   6.550
 4489WAT     H218663   5.392   1.430   6.505
 4489WAT    EPW18664   5.421   1.385   6.562
 4490WAT      O18665   6.115   2.691   5.524
 4490WAT     H118666   6.092   2.770   5.496
 4490WAT     H218667   6.047   2.640   5.501
 4490WAT    EPW18668   6.101   2.695   5.516
 4491WAT      O18669   6.579   1.977   6.333
 4491WAT     H118670   6.576   1.889   6.335
 4491WAT     H218671   6.571   2.000   6.416
 4491WAT    EPW18672   6.577   1.967   6.345
 4492WAT      O18673   5.086   2.210   6.343
 4492WAT     H118674   5.139   2.229   6.276
 4492WAT     H218675   5.069   2.125   6.332
 4492WAT    EPW18676   5.092   2.200   6.331
 4493WAT      O18677   5.251   1.814   5.002
 4493WAT     H118678   5.181   1.819   5.053
 4493WAT     H218679   5.246   1.733   4.969
 4493WAT    EPW18680   5.240   1.803   5.004
 4494WAT      O18681   6.124   1.436   6.671
 4494WAT     H118682   6.155   1.500   6.722
 4494WAT     H218683   6.046   1.419   6.707
 4494WAT    EPW18684   6.117   1.443   6.684
 4495WAT      O18685   6.108   1.534   5.758
 4495WAT     H118686   6.029   1.571   5.751
 4495WAT     H218687   6.109   1.476   5.692
 4495WAT    EPW18688   6.097   1.531   5.747
 4496WAT      O18689   5.595   2.665   5.123
 4496WAT     H118690   5.627   2.650   5.203
 4496WAT     H218691   5.512   2.640   5.129
 4496WAT    EPW18692   5.588   2.659   5.136
 4497WAT      O18693   6.445   1.584   6.014
 4497WAT     H118694   6.523   1.551   6.032
 4497WAT     H218695   6.453   1.669   6.034
 4497WAT    EPW18696   6.458   1.592   6.020
 4498WAT      O18697   5.623   2.168   6.431
 4498WAT     H118698   5.581   2.240   6.459
 4498WAT     H218699   5.565   2.129   6.379
 4498WAT    EPW18700   5.608   2.173   6.428
 4499WAT      O18701   6.519   2.008   5.802
 4499WAT     H118702   6.576   2.071   5.823
 4499WAT     H218703   6.460   2.050   5.754
 4499WAT    EPW18704   6.519   2.024   5.798
 4500WAT      O18705   6.532   2.845   5.571
 4500WAT     H118706   6.519   2.769   5.612
 4500WAT     H218707   6.569   2.822   5.496
 4500WAT    EPW18708   6.536   2.830   5.566
 4501WAT      O18709   5.660   2.439   4.970
 4501WAT     H118710   5.582   2.401   4.972
 4501WAT     H218711   5.651   2.510   5.018
 4501WAT    EPW18712   5.647   2.444   4.977
 4502WAT      O18713   5.585   1.531   6.233
 4502WAT     H118714   5.505   1.506   6.259
 4502WAT     H218715   5.637   1.469   6.265
 4502WAT    EPW18716   5.581   1.518   6.242
 4503WAT      O18717   6.745   1.333   6.291
 4503WAT     H118718   6.715   1.336   6.373
 4503WAT     H218719   6.827   1.304   6.301
 4503WAT    EPW18720   6.753   1.330   6.305
 4504WAT      O18721   5.959   1.510   6.102
 4504WAT     H118722   5.902   1.450   6.075
 4504WAT     H218723   6.036   1.476   6.083
 4504WAT    EPW18724   5.962   1.496   6.095
 4505WAT      O18725   6.319   2.644   6.221
 4505WAT     H118726   6.334   2.720   6.262
 4505WAT     H218727   6.290   2.669   6.143
 4505WAT    EPW18728   6.317   2.659   6.216
 4506WAT      O18729   6.253   3.023   6.638
 4506WAT     H118730   6.181   2.984   6.607
 4506WAT     H218731   6.226   3.104   6.656
 4506WAT    EPW18732   6.238   3.029   6.636
 4507WAT      O18733   5.751   1.985   6.618
 4507WAT     H118734   5.719   1.913   6.581
 4507WAT     H218735   5.718   2.049   6.570
 4507WAT    EPW18736   5.742   1.984   6.606
 4508WAT      O18737   5.813   1.305   5.100
 4508WAT     H118738   5.824   1.322   5.015
 4508WAT     H218739   5.728   1.315   5.112
 4508WAT    EPW18740   5.802   1.309   5.089
 4509WAT      O18741   6.703   2.463   6.170
 4509WAT     H118742   6.679   2.380   6.157
 4509WAT     H218743   6.650   2.507   6.117
 4509WAT    EPW18744   6.691   2.457   6.160
 4510WAT      O18745   5.617   2.929   6.615
 4510WAT     H118746   5.599   2.944   6.699
 4510WAT     H218747   5.681   2.870   6.618
 4510WAT    EPW18748   5.624   2.923   6.628
 4511WAT      O18749   6.608   2.783   6.143
 4511WAT     H118750   6.676   2.781   6.088
 4511WAT     H218751   6.551   2.727   6.106
 4511WAT    EPW18752   6.610   2.774   6.129
 4512WAT      O18753   5.328   1.476   6.335
 4512WAT     H118754   5.275   1.408   6.321
 4512WAT     H218755   5.276   1.545   6.327
 4512WAT    EPW18756   5.313   1.476   6.331
 4513WAT      O18757   6.206   1.429   5.996
 4513WAT     H118758   6.274   1.480   6.015
 4513WAT     H218759   6.175   1.463   5.922
 4513WAT    EPW18760   6.211   1.442   5.987
 4514WAT      O18761   5.334   2.826   6.749
 4514WAT     H118762   5.403   2.863   6.788
 4514WAT     H218763   5.294   2.893   6.711
 4514WAT    EPW18764   5.339   2.841   6.749
 4515WAT      O18765   6.187   1.905   5.741
 4515WAT     H118766   6.243   1.840   5.754
 4515WAT     H218767   6.153   1.920   5.820
 4515WAT    EPW18768   6.190   1.898   5.754
 4516WAT      O18769   5.181   1.822   5.675
 4516WAT     H118770   5.142   1.848   5.748
 4516WAT     H218771   5.218   1.746   5.697
 4516WAT    EPW18772   5.181   1.814   5.689
 4517WAT      O18773   5.175   2.610   6.466
 4517WAT     H118774   5.128   2.670   6.508
 4517WAT     H218775   5.257   2.638   6.474
 4517WAT    EPW18776   5.180   2.623   6.473
 4518WAT      O18777   6.360   2.063   5.375
 4518WAT     H118778   6.377   1.980   5.395
 4518WAT     H218779   6.285   2.057   5.330
 4518WAT    EPW18780   6.351   2.050   5.372
 4519WAT      O18781   5.361   2.938   5.317
 4519WAT     H118782   5.324   2.896   5.249
 4519WAT     H218783   5.436   2.896   5.329
 4519WAT    EPW18784   5.366   2.926   5.309
 4520WAT      O18785   5.751   2.163   5.301
 4520WAT     H118786   5.777   2.186   5.220
 4520WAT     H218787   5.826   2.152   5.344
 4520WAT    EPW18788   5.766   2.165   5.295
 4521WAT      O18789   6.634   2.998   5.022
 4521WAT     H118790   6.704   2.990   5.073
 4521WAT     H218791   6.616   2.916   4.999
 4521WAT    EPW18792   6.642   2.985   5.026
 4522WAT      O18793   6.668   2.259   6.697
 4522WAT     H118794   6.739   2.221   6.731
 4522WAT     H218795   6.699   2.299   6.626
 4522WAT    EPW18796   6.683   2.259   6.691
 4523WAT      O18797   6.286   2.633   5.305
 4523WAT     H118798   6.239   2.631   5.379
 4523WAT     H218799   6.242   2.578   5.252
 4523WAT    EPW18800   6.272   2.625   5.308
 4524WAT      O18801   6.699   1.713   6.798
 4524WAT     H118802   6.688   1.791   6.834
 4524WAT     H218803   6.621   1.696   6.761
 4524WAT    EPW18804   6.686   1.722   6.798
 4525WAT      O18805   6.752   1.818   6.103
 4525WAT     H118806   6.670   1.842   6.088
 4525WAT     H218807   6.748   1.731   6.108
 4525WAT    EPW18808   6.739   1.809   6.101
 4526WAT      O18809   5.680   1.489   6.593
 4526WAT     H118810   5.714   1.455   6.520
 4526WAT     H218811   5.599   1.459   6.594
 4526WAT    EPW18812   5.673   1.480   6.582
 4527WAT      O18813   6.436   2.317   6.921
 4527WAT     H118814   6.514   2.343   6.950
 4527WAT     H218815   6.437   2.340   6.837
 4527WAT    EPW18816   6.447   2.324   6.913
 4528WAT      O18817   5.374   2.861   5.995
 4528WAT     H118818   5.361   2.780   5.967
 4528WAT     H218819   5.336   2.910   5.933
 4528WAT    EPW18820   5.367   2.856   5.982
 4529WAT      O18821   5.944   2.465   5.172
 4529WAT     H118822   6.027   2.445   5.152
 4529WAT     H218823   5.929   2.538   5.128
 4529WAT    EPW18824   5.954   2.473   5.163
 4530WAT      O18825   5.161   3.107   6.352
 4530WAT     H118826   5.164   3.080   6.435
 4530WAT     H218827   5.187   3.037   6.307
 4530WAT    EPW18828   5.165   3.093   6.358
 4531WAT      O18829   6.113   1.320   3.659
 4531WAT     H118830   6.106   1.360   3.582
 4531WAT     H218831   6.199   1.310   3.669
 4531WAT    EPW18832   6.124   1.324   3.649
 4532WAT      O18833   6.065   1.960   4.104
 4532WAT     H118834   6.029   2.035   4.130
 4532WAT     H218835   6.121   1.941   4.167
 4532WAT    EPW18836   6.068   1.968   4.117
 4533WAT      O18837   6.683   2.779   3.434
 4533WAT     H118838   6.751   2.726   3.450
 4533WAT     H218839   6.633   2.732   3.381
 4533WAT    EPW18840   6.686   2.764   3.429
 4534WAT      O18841   5.068   1.833   3.234
 4534WAT     H118842   4.996   1.878   3.217
 4534WAT     H218843   5.046   1.750   3.216
 4534WAT    EPW18844   5.054   1.827   3.229
 4535WAT      O18845   5.403   2.258   3.157
 4535WAT     H118846   5.339   2.254   3.097
 4535WAT     H218847   5.362   2.241   3.232
 4535WAT    EPW18848   5.387   2.255   3.159
 4536WAT      O18849   6.324   2.127   3.744
 4536WAT     H118850   6.329   2.110   3.659
 4536WAT     H218851   6.269   2.066   3.774
 4536WAT    EPW18852   6.317   2.115   3.736
 4537WAT      O18853   5.331   2.468   3.428
 4537WAT     H118854   5.345   2.469   3.514
 4537WAT     H218855   5.244   2.472   3.422
 4537WAT    EPW18856   5.320   2.469   3.440
 4538WAT      O18857   5.754   1.442   3.518
 4538WAT     H118858   5.747   1.522   3.485
 4538WAT     H218859   5.834   1.417   3.492
 4538WAT    EPW18860   5.765   1.450   3.509
 4539WAT      O18861   4.865   2.882   4.149
 4539WAT     H118862   4.829   2.941   4.203
 4539WAT     H218863   4.857   2.919   4.071
 4539WAT    EPW18864   4.858   2.896   4.146
 4540WAT      O18865   5.717   2.499   4.707
 4540WAT     H118866   5.702   2.473   4.789
 4540WAT     H218867   5.639   2.490   4.668
 4540WAT    EPW18868   5.703   2.494   4.714
 4541WAT      O18869   5.257   2.187   3.767
 4541WAT     H118870   5.194   2.194   3.707
 4541WAT     H218871   5.310   2.126   3.733
 4541WAT    EPW18872   5.255   2.179   3.753
 4542WAT      O18873   5.659   1.781   4.306
 4542WAT     H118874   5.729   1.783   4.253
 4542WAT     H218875   5.636   1.697   4.305
 4542WAT    EPW18876   5.666   1.769   4.298
 4543WAT      O18877   5.706   2.808   4.506
 4543WAT     H118878   5.729   2.861   4.441
 4543WAT     H218879   5.782   2.773   4.532
 4543WAT    EPW18880   5.721   2.811   4.500
 4544WAT      O18881   5.422   1.962   3.700
 4544WAT     H118882   5.483   1.937   3.757
 4544WAT     H218883   5.351   1.918   3.726
 4544WAT    EPW18884   5.421   1.952   3.712
 4545WAT      O18885   5.827   2.618   3.934
 4545WAT     H118886   5.856   2.537   3.950
 4545WAT     H218887   5.901   2.663   3.920
 4545WAT    EPW18888   5.842   2.613   3.934
 4546WAT      O18889   5.859   2.518   3.563
 4546WAT     H118890   5.902   2.458   3.609
 4546WAT     H218891   5.885   2.502   3.481
 4546WAT    EPW18892   5.869   2.507   3.557
 4547WAT      O18893   5.996   2.001   4.718
 4547WAT     H118894   5.909   2.000   4.709
 4547WAT     H218895   6.008   2.052   4.788
 4547WAT    EPW18896   5.985   2.009   4.727
 4548WAT      O18897   5.498   1.504   3.664
 4548WAT     H118898   5.453   1.550   3.605
 4548WAT     H218899   5.577   1.498   3.629
 4548WAT    EPW18900   5.503   1.510   3.650
 4549WAT      O18901   6.466   1.235   4.588
 4549WAT     H118902   6.442   1.304   4.541
 4549WAT     H218903   6.395   1.214   4.633
 4549WAT    EPW18904   6.452   1.242   4.588
 4550WAT      O18905   5.798   1.403   3.796
 4550WAT     H118906   5.801   1.486   3.822
 4550WAT     H218907   5.784   1.408   3.710
 4550WAT    EPW18908   5.796   1.416   3.787
 4551WAT      O18909   6.225   1.624   3.071
 4551WAT     H118910   6.178   1.691   3.100
 4551WAT     H218911   6.235   1.573   3.141
 4551WAT    EPW18912   6.220   1.626   3.085
 4552WAT      O18913   5.073   1.963   4.028
 4552WAT     H118914   5.069   2.050   4.031
 4552WAT     H218915   5.001   1.938   4.069
 4552WAT    EPW18916   5.062   1.972   4.034
 4553WAT      O18917   5.644   2.704   3.555
 4553WAT     H118918   5.609   2.694   3.634
 4553WAT     H218919   5.714   2.652   3.558
 4553WAT    EPW18920   5.649   2.695   3.567
 4554WAT      O18921   6.269   2.923   3.343
 4554WAT     H118922   6.339   2.976   3.339
 4554WAT     H218923   6.302   2.848   3.371
 4554WAT    EPW18924   6.284   2.920   3.347
 4555WAT      O18925   6.059   2.929   3.520
 4555WAT     H118926   6.067   2.994   3.577
 4555WAT     H218927   6.129   2.937   3.469
 4555WAT    EPW18928   6.070   2.940   3.521
 4556WAT      O18929   5.377   1.449   4.087
 4556WAT     H118930   5.325   1.384   4.059
 4556WAT     H218931   5.435   1.407   4.137
 4556WAT    EPW18932   5.378   1.433   4.090
 4557WAT      O18933   5.667   1.615   4.971
 4557WAT     H118934   5.675   1.580   4.891
 4557WAT     H218935   5.702   1.695   4.962
 4557WAT    EPW18936   5.673   1.622   4.957
 4558WAT      O18937   6.813   1.594   3.782
 4558WAT     H118938   6.761   1.664   3.784
 4558WAT     H218939   6.758   1.527   3.770
 4558WAT    EPW18940   6.797   1.594   3.780
 4559WAT      O18941   6.274   2.927   4.334
 4559WAT     H118942   6.342   2.982   4.335
 4559WAT     H218943   6.264   2.910   4.249
 4559WAT    EPW18944   6.283   2.933   4.321
 4560WAT      O18945   5.239   1.546   4.903
 4560WAT     H118946   5.159   1.522   4.877
 4560WAT     H218947   5.291   1.515   4.841
 4560WAT    EPW18948   5.235   1.538   4.890
 4561WAT      O18949   5.280   2.561   3.932
 4561WAT     H118950   5.326   2.541   3.860
 4561WAT     H218951   5.328   2.528   3.997
 4561WAT    EPW18952   5.294   2.553   3.931
 4562WAT      O18953   5.607   2.950   3.934
 4562WAT     H118954   5.680   2.971   3.892
 4562WAT     H218955   5.558   3.021   3.928
 4562WAT    EPW18956   5.610   2.963   3.927
 4563WAT      O18957   5.860   1.356   4.834
 4563WAT     H118958   5.881   1.281   4.794
 4563WAT     H218959   5.796   1.389   4.785
 4563WAT    EPW18960   5.854   1.350   4.821
 4564WAT      O18961   5.960   1.868   3.694
 4564WAT     H118962   5.987   1.827   3.621
 4564WAT     H218963   6.034   1.879   3.739
 4564WAT    EPW18964   5.975   1.863   3.690
 4565WAT      O18965   6.059   1.827   3.187
 4565WAT     H118966   6.085   1.905   3.217
 4565WAT     H218967   5.985   1.845   3.145
 4565WAT    EPW18968   6.052   1.841   3.185
 4566WAT      O18969   6.458   3.125   3.290
 4566WAT     H118970   6.505   3.091   3.225
 4566WAT     H218971   6.519   3.164   3.340
 4566WAT    EPW18972   6.474   3.126   3.288
 4567WAT      O18973   6.709   1.540   4.201
 4567WAT     H118974   6.778   1.528   4.148
 4567WAT     H218975   6.721   1.480   4.263
 4567WAT    EPW18976   6.721   1.529   4.202
 4568WAT      O18977   4.951   1.664   4.597
 4568WAT     H118978   4.948   1.738   4.642
 4568WAT     H218979   5.014   1.678   4.539
 4568WAT    EPW18980   4.960   1.677   4.595
 4569WAT      O18981   6.182   2.719   4.729
 4569WAT     H118982   6.175   2.743   4.812
 4569WAT     H218983   6.268   2.707   4.718
 4569WAT    EPW18984   6.193   2.721   4.739
 4570WAT      O18985   5.952   2.718   3.143
 4570WAT     H118986   5.918   2.778   3.196
 4570WAT     H218987   6.033   2.748   3.127
 4570WAT    EPW18988   5.959   2.731   3.149
 4571WAT      O18989   6.257   1.458   3.292
 4571WAT     H118990   6.318   1.395   3.297
 4571WAT     H218991   6.272   1.507   3.362
 4571WAT    EPW18992   6.268   1.456   3.303
 4572WAT      O18993   5.092   1.565   3.560
 4572WAT     H118994   5.068   1.484   3.536
 4572WAT     H218995   5.040   1.582   3.628
 4572WAT    EPW18996   5.080   1.555   3.566
 4573WAT      O18997   5.084   2.762   4.272
 4573WAT     H118998   5.012   2.801   4.242
 4573WAT     H218999   5.138   2.761   4.203
 4573WAT    EPW19000   5.082   2.767   4.257
 4574WAT      O19001   6.012   1.742   3.449
 4574WAT     H119002   5.929   1.717   3.441
 4574WAT     H219003   6.033   1.768   3.368
 4574WAT    EPW19004   6.002   1.742   3.436
 4575WAT      O19005   6.038   3.001   4.452
 4575WAT     H119006   6.113   2.986   4.411
 4575WAT     H219007   5.979   2.998   4.389
 4575WAT    EPW19008   6.041   2.998   4.437
 4576WAT      O19009   6.008   1.388   3.397
 4576WAT     H119010   5.960   1.356   3.332
 4576WAT     H219011   6.082   1.413   3.358
 4576WAT    EPW19012   6.012   1.387   3.382
 4577WAT      O19013   6.727   2.996   3.738
 4577WAT     H119014   6.696   3.030   3.812
 4577WAT     H219015   6.664   2.941   3.713
 4577WAT    EPW19016   6.713   2.993   3.745
 4578WAT      O19017   5.839   1.676   3.858
 4578WAT     H119018   5.871   1.740   3.808
 4578WAT     H219019   5.849   1.706   3.939
 4578WAT    EPW19020   5.845   1.690   3.862
 4579WAT      O19021   6.492   2.573   3.774
 4579WAT     H119022   6.554   2.513   3.762
 4579WAT     H219023   6.418   2.528   3.765
 4579WAT    EPW19024   6.490   2.557   3.771
 4580WAT      O19025   5.425   2.764   4.579
 4580WAT     H119026   5.509   2.787   4.566
 4580WAT     H219027   5.412   2.783   4.663
 4580WAT    EPW19028   5.436   2.770   4.589
 4581WAT      O19029   5.460   1.247   3.769
 4581WAT     H119030   5.472   1.330   3.744
 4581WAT     H219031   5.451   1.205   3.693
 4581WAT    EPW19032   5.460   1.253   3.754
 4582WAT      O19033   5.633   2.308   4.050
 4582WAT     H119034   5.654   2.293   4.133
 4582WAT     H219035   5.575   2.245   4.032
 4582WAT    EPW19036   5.627   2.297   4.059
 4583WAT      O19037   6.201   1.649   4.442
 4583WAT     H119038   6.198   1.692   4.518
 4583WAT     H219039   6.136   1.591   4.450
 4583WAT    EPW19040   6.191   1.647   4.455
 4584WAT      O19041   5.721   2.313   4.314
 4584WAT     H119042   5.699   2.397   4.324
 4584WAT     H219043   5.690   2.275   4.386
 4584WAT    EPW19044   5.713   2.320   4.326
 4585WAT      O19045   6.344   2.365   4.313
 4585WAT     H119046   6.268   2.339   4.346
 4585WAT     H219047   6.339   2.452   4.316
 4585WAT    EPW19048   6.332   2.374   4.318
 4586WAT      O19049   6.380   1.258   3.728
 4586WAT     H119050   6.376   1.244   3.814
 4586WAT     H219051   6.411   1.183   3.696
 4586WAT    EPW19052   6.384   1.245   3.736
 4587WAT      O19053   4.978   2.709   4.925
 4587WAT     H119054   5.041   2.748   4.970
 4587WAT     H219055   4.968   2.633   4.966
 4587WAT    EPW19056   4.986   2.703   4.938
 4588WAT      O19057   6.582   1.693   4.535
 4588WAT     H119058   6.665   1.674   4.556
 4588WAT     H219059   6.540   1.687   4.612
 4588WAT    EPW19060   6.588   1.689   4.550
 4589WAT      O19061   5.372   1.631   3.881
 4589WAT     H119062   5.402   1.580   3.817
 4589WAT     H219063   5.370   1.579   3.951
 4589WAT    EPW19064   5.376   1.616   3.882
 4590WAT      O19065   6.649   2.378   3.292
 4590WAT     H119066   6.648   2.330   3.365
 4590WAT     H219067   6.734   2.388   3.275
 4590WAT    EPW19068   6.661   2.372   3.300
 4591WAT      O19069   5.380   2.430   3.699
 4591WAT     H119070   5.463   2.410   3.681
 4591WAT     H219071   5.346   2.354   3.726
 4591WAT    EPW19072   5.388   2.416   3.700
 4592WAT      O19073   5.128   2.984   3.885
 4592WAT     H119074   5.044   2.962   3.882
 4592WAT     H219075   5.138   3.038   3.817
 4592WAT    EPW19076   5.117   2.989   3.874
 4593WAT      O19077   5.213   1.758   4.153
 4593WAT     H119078   5.297   1.778   4.144
 4593WAT     H219079   5.172   1.829   4.124
 4593WAT    EPW19080   5.219   1.771   4.147
 4594WAT      O19081   6.856   2.801   4.686
 4594WAT     H119082   6.777   2.817   4.651
 4594WAT     H219083   6.838   2.752   4.756
 4594WAT    EPW19084   6.842   2.796   4.691
 4595WAT      O19085   6.453   2.052   3.198
 4595WAT     H119086   6.445   2.134   3.170
 4595WAT     H219087   6.424   2.055   3.280
 4595WAT    EPW19088   6.448   2.064   3.206
 4596WAT      O19089   5.626   2.353   3.591
 4596WAT     H119090   5.692   2.409   3.584
 4596WAT     H219091   5.649   2.286   3.541
 4596WAT    EPW19092   5.639   2.351   3.583
 4597WAT      O19093   6.787   1.522   3.189
 4597WAT     H119094   6.826   1.463   3.139
 4597WAT     H219095   6.750   1.577   3.132
 4597WAT    EPW19096   6.787   1.522   3.174
 4598WAT      O19097   5.003   2.510   3.937
 4598WAT     H119098   4.966   2.535   3.862
 4598WAT     H219099   5.087   2.533   3.927
 4598WAT    EPW19100   5.010   2.517   3.924
 4599WAT      O19101   5.789   1.867   4.970
 4599WAT     H119102   5.744   1.898   5.038
 4599WAT     H219103   5.761   1.916   4.903
 4599WAT    EPW19104   5.778   1.879   4.970
 4600WAT      O19105   6.890   1.940   4.423
 4600WAT     H119106   6.943   1.871   4.423
 4600WAT     H219107   6.827   1.917   4.366
 4600WAT    EPW19108   6.888   1.926   4.414
 4601WAT      O19109   5.075   2.229   3.547
 4601WAT     H119110   5.008   2.177   3.528
 4601WAT     H219111   5.048   2.308   3.520
 4601WAT    EPW19112   5.061   2.233   3.540
 4602WAT      O19113   6.666   1.419   3.423
 4602WAT     H119114   6.738   1.376   3.445
 4602WAT     H219115   6.690   1.464   3.352
 4602WAT    EPW19116   6.680   1.419   3.416
 4603WAT      O19117   6.039   2.789   3.878
 4603WAT     H119118   5.988   2.856   3.854
 4603WAT     H219119   6.064   2.754   3.802
 4603WAT    EPW19120   6.035   2.794   3.863
 4604WAT      O19121   5.433   2.470   4.151
 4604WAT     H119122   5.479   2.516   4.209
 4604WAT     H219123   5.493   2.424   4.109
 4604WAT    EPW19124   5.449   2.470   4.153
 4605WAT      O19125   6.337   1.679   3.869
 4605WAT     H119126   6.367   1.643   3.942
 4605WAT     H219127   6.271   1.626   3.846
 4605WAT    EPW19128   6.331   1.666   3.876
 4606WAT      O19129   5.050   2.495   3.407
 4606WAT     H119130   5.063   2.577   3.378
 4606WAT     H219131   4.973   2.500   3.449
 4606WAT    EPW19132   5.041   2.508   3.409
 4607WAT      O19133   5.105   2.247   4.012
 4607WAT     H119134   5.151   2.240   3.938
 4607WAT     H219135   5.057   2.319   3.999
 4607WAT    EPW19136   5.105   2.257   3.999
 4608WAT      O19137   5.735   1.691   3.405
 4608WAT     H119138   5.722   1.680   3.320
 4608WAT     H219139   5.684   1.759   3.426
 4608WAT    EPW19140   5.726   1.700   3.396
 4609WAT      O19141   6.605   2.854   4.551
 4609WAT     H119142   6.557   2.923   4.573
 4609WAT     H219143   6.603   2.855   4.463
 4609WAT    EPW19144   6.597   2.864   4.541
 4610WAT      O19145   5.576   2.691   3.821
 4610WAT     H119146   5.569   2.770   3.857
 4610WAT     H219147   5.649   2.658   3.856
 4610WAT    EPW19148   5.586   2.698   3.831
 4611WAT      O19149   5.346   1.991   4.801
 4611WAT     H119150   5.312   1.936   4.859
 4611WAT     H219151   5.343   1.947   4.726
 4611WAT    EPW19152   5.341   1.976   4.798
 4612WAT      O19153   5.428   2.131   4.009
 4612WAT     H119154   5.364   2.131   3.949
 4612WAT     H219155   5.427   2.050   4.040
 4612WAT    EPW19156   5.418   2.119   4.004
 4613WAT      O19157   5.410   2.070   4.358
 4613WAT     H119158   5.435   2.027   4.287
 4613WAT     H219159   5.356   2.132   4.328
 4613WAT    EPW19160   5.406   2.073   4.343
 4614WAT      O19161   6.478   1.857   4.144
 4614WAT     H119162   6.410   1.882   4.192
 4614WAT     H219163   6.473   1.909   4.074
 4614WAT    EPW19164   6.467   1.869   4.141
 4615WAT      O19165   5.813   2.972   4.294
 4615WAT     H119166   5.793   2.909   4.237
 4615WAT     H219167   5.791   3.045   4.252
 4615WAT    EPW19168   5.807   2.974   4.279
 4616WAT      O19169   6.042   1.420   4.511
 4616WAT     H119170   6.063   1.338   4.493
 4616WAT     H219171   6.068   1.430   4.594
 4616WAT    EPW19172   6.049   1.410   4.521
 4617WAT      O19173   6.260   1.617   3.514
 4617WAT     H119174   6.320   1.681   3.520
 4617WAT     H219175   6.185   1.661   3.503
 4617WAT    EPW19176   6.258   1.633   3.513
 4618WAT      O19177   5.214   2.237   4.798
 4618WAT     H119178   5.214   2.269   4.717
 4618WAT     H219179   5.257   2.161   4.790
 4618WAT    EPW19180   5.221   2.230   4.785
 4619WAT      O19181   6.390   2.413   4.770
 4619WAT     H119182   6.416   2.493   4.747
 4619WAT     H219183   6.418   2.363   4.704
 4619WAT    EPW19184   6.398   2.417   4.757
 4620WAT      O19185   5.817   2.749   4.793
 4620WAT     H119186   5.843   2.733   4.875
 4620WAT     H219187   5.786   2.672   4.766
 4620WAT    EPW19188   5.816   2.735   4.801
 4621WAT      O19189   5.866   1.766   4.117
 4621WAT     H119190   5.930   1.825   4.119
 4621WAT     H219191   5.903   1.694   4.150
 4621WAT    EPW19192   5.881   1.764   4.122
 4622WAT      O19193   6.127   2.063   3.322
 4622WAT     H119194   6.110   2.121   3.258
 4622WAT     H219195   6.068   2.082   3.383
 4622WAT    EPW19196   6.116   2.074   3.321
 4623WAT      O19197   6.676   2.367   3.751
 4623WAT     H119198   6.674   2.315   3.821
 4623WAT     H219199   6.655   2.313   3.685
 4623WAT    EPW19200   6.673   2.351   3.751
 4624WAT      O19201   6.244   2.812   4.072
 4624WAT     H119202   6.176   2.802   4.019
 4624WAT     H219203   6.296   2.867   4.029
 4624WAT    EPW19204   6.242   2.819   4.058
 4625WAT      O19205   6.240   2.426   4.058
 4625WAT     H119206   6.166   2.463   4.087
 4625WAT     H219207   6.270   2.382   4.127
 4625WAT    EPW19208   6.234   2.425   4.072
 4626WAT      O19209   5.721   2.972   3.545
 4626WAT     H119210   5.682   2.896   3.560
 4626WAT     H219211   5.764   2.959   3.470
 4626WAT    EPW19212   5.722   2.959   3.536
 4627WAT      O19213   5.574   1.300   3.344
 4627WAT     H119214   5.626   1.336   3.404
 4627WAT     H219215   5.529   1.367   3.313
 4627WAT    EPW19216   5.575   1.315   3.348
 4628WAT      O19217   5.873   2.915   3.319
 4628WAT     H119218   5.936   2.917   3.380
 4628WAT     H219219   5.870   2.997   3.290
 4628WAT    EPW19220   5.882   2.928   3.324
 4629WAT      O19221   6.464   2.268   4.545
 4629WAT     H119222   6.430   2.307   4.474
 4629WAT     H219223   6.550   2.285   4.538
 4629WAT    EPW19224   6.472   2.277   4.533
 4630WAT      O19225   6.172   2.844   4.986
 4630WAT     H119226   6.198   2.862   5.067
 4630WAT     H219227   6.193   2.915   4.941
 4630WAT    EPW19228   6.179   2.857   4.991
 4631WAT      O19229   6.591   1.367   4.799
 4631WAT     H119230   6.554   1.323   4.733
 4631WAT     H219231   6.589   1.310   4.865
 4631WAT    EPW19232   6.585   1.352   4.799
 4632WAT      O19233   5.308   2.177   3.410
 4632WAT     H119234   5.229   2.190   3.444
 4632WAT     H219235   5.353   2.248   3.432
 4632WAT    EPW19236   5.303   2.189   3.418
 4633WAT      O19237   6.110   2.276   4.424
 4633WAT     H119238   6.065   2.320   4.485
 4633WAT     H219239   6.139   2.206   4.467
 4633WAT    EPW19240   6.107   2.272   4.440
 4634WAT      O19241   5.004   1.304   3.490
 4634WAT     H119242   5.004   1.245   3.426
 4634WAT     H219243   4.959   1.265   3.554
 4634WAT    EPW19244   4.998   1.289   3.490
 4635WAT      O19245   5.966   2.108   3.548
 4635WAT     H119246   5.981   2.175   3.601
 4635WAT     H219247   5.958   2.040   3.602
 4635WAT    EPW19248   5.967   2.107   3.564
 4636WAT      O19249   6.492   2.560   4.057
 4636WAT     H119250   6.506   2.568   3.971
 4636WAT     H219251   6.411   2.528   4.061
 4636WAT    EPW19252   6.482   2.557   4.045
 4637WAT      O19253   5.451   1.528   3.251
 4637WAT     H119254   5.391   1.528   3.187
 4637WAT     H219255   5.517   1.573   3.216
 4637WAT    EPW19256   5.452   1.535   3.236
 4638WAT      O19257   5.893   2.344   3.961
 4638WAT     H119258   5.808   2.328   3.973
 4638WAT     H219259   5.931   2.309   4.031
 4638WAT    EPW19260   5.886   2.336   3.973
 4639WAT      O19261   5.509   2.890   3.143
 4639WAT     H119262   5.506   2.819   3.194
 4639WAT     H219263   5.528   2.954   3.199
 4639WAT    EPW19264   5.511   2.889   3.159
 4640WAT      O19265   5.253   2.284   4.264
 4640WAT     H119266   5.309   2.343   4.231
 4640WAT     H219267   5.201   2.266   4.197
 4640WAT    EPW19268   5.254   2.290   4.249
 4641WAT      O19269   5.579   1.811   3.882
 4641WAT     H119270   5.656   1.770   3.873
 4641WAT     H219271   5.521   1.746   3.879
 4641WAT    EPW19272   5.582   1.795   3.880
 4642WAT      O19273   6.836   2.965   3.304
 4642WAT     H119274   6.902   2.918   3.270
 4642WAT     H219275   6.789   2.905   3.345
 4642WAT    EPW19276   6.839   2.949   3.305
 4643WAT      O19277   5.095   1.852   3.547
 4643WAT     H119278   5.115   1.852   3.632
 4643WAT     H219279   5.076   1.768   3.531
 4643WAT    EPW19280   5.095   1.840   3.557
 4644WAT      O19281   6.581   2.203   4.247
 4644WAT     H119282   6.584   2.134   4.301
 4644WAT     H219283   6.501   2.236   4.261
 4644WAT    EPW19284   6.570   2.198   4.257
 4645WAT      O19285   5.591   2.075   3.069
 4645WAT     H119286   5.533   2.127   3.107
 4645WAT     H219287   5.546   2.041   3.002
 4645WAT    EPW19288   5.576   2.078   3.064
 4646WAT      O19289   5.215   2.364   4.538
 4646WAT     H119290   5.215   2.332   4.457
 4646WAT     H219291   5.161   2.433   4.532
 4646WAT    EPW19292   5.207   2.370   4.525
 4647WAT      O19293   6.688   2.203   3.985
 4647WAT     H119294   6.657   2.208   4.067
 4647WAT     H219295   6.774   2.200   3.995
 4647WAT    EPW19296   6.696   2.204   3.998
 4648WAT      O19297   5.569   1.913   3.463
 4648WAT     H119298   5.614   1.986   3.447
 4648WAT     H219299   5.535   1.927   3.542
 4648WAT    EPW19300   5.570   1.926   3.472
 4649WAT      O19301   6.475   1.627   4.793
 4649WAT     H119302   6.401   1.631   4.839
 4649WAT     H219303   6.499   1.543   4.798
 4649WAT    EPW19304   6.468   1.615   4.800
 4650WAT      O19305   5.031   1.566   4.010
 4650WAT     H119306   5.009   1.597   3.931
 4650WAT     H219307   5.100   1.615   4.033
 4650WAT    EPW19308   5.038   1.578   4.001
 4651WAT      O19309   6.833   2.716   4.028
 4651WAT     H119310   6.884   2.759   3.972
 4651WAT     H219311   6.881   2.710   4.100
 4651WAT    EPW19312   6.847   2.721   4.030
 4652WAT      O19313   6.313   1.984   4.880
 4652WAT     H119314   6.353   1.988   4.957
 4652WAT     H219315   6.241   2.031   4.892
 4652WAT    EPW19316   6.308   1.991   4.893
 4653WAT      O19317   6.546   2.019   4.720
 4653WAT     H119318   6.569   2.100   4.742
 4653WAT     H219319   6.473   2.005   4.766
 4653WAT    EPW19320   6.538   2.029   4.730
 4654WAT      O19321   6.523   2.624   3.279
 4654WAT     H119322   6.556   2.544   3.287
 4654WAT     H219323   6.450   2.621   3.327
 4654WAT    EPW19324   6.517   2.612   3.287
 4655WAT      O19325   6.587   1.769   3.781
 4655WAT     H119326   6.518   1.723   3.809
 4655WAT     H219327   6.578   1.846   3.821
 4655WAT    EPW19328   6.575   1.774   3.791
 4656WAT      O19329   6.863   2.096   4.903
 4656WAT     H119330   6.865   2.042   4.835
 4656WAT     H219331   6.943   2.132   4.904
 4656WAT    EPW19332   6.875   2.093   4.893
 4657WAT      O19333   6.730   2.355   4.526
 4657WAT     H119334   6.796   2.307   4.494
 4657WAT     H219335   6.717   2.415   4.464
 4657WAT    EPW19336   6.738   2.357   4.512
 4658WAT      O19337   6.216   2.466   3.223
 4658WAT     H119338   6.283   2.414   3.205
 4658WAT     H219339   6.186   2.488   3.144
 4658WAT    EPW19340   6.221   2.462   3.209
 4659WAT      O19341   5.639   2.586   4.316
 4659WAT     H119342   5.644   2.633   4.389
 4659WAT     H219343   5.663   2.642   4.253
 4659WAT    EPW19344   5.643   2.601   4.317
 4660WAT      O19345   5.465   2.477   4.582
 4660WAT     H119346   5.387   2.440   4.572
 4660WAT     H219347   5.448   2.563   4.578
 4660WAT    EPW19348   5.451   2.485   4.580
 4661WAT      O19349   6.423   1.478   4.444
 4661WAT     H119350   6.483   1.540   4.461
 4661WAT     H219351   6.348   1.522   4.439
 4661WAT    EPW19352   6.421   1.494   4.446
 4662WAT      O19353   5.959   2.205   4.203
 4662WAT     H119354   6.013   2.225   4.268
 4662WAT     H219355   5.880   2.224   4.235
 4662WAT    EPW19356   5.955   2.211   4.217
 4663WAT      O19357   5.613   1.765   4.583
 4663WAT     H119358   5.629   1.683   4.608
 4663WAT     H219359   5.640   1.767   4.500
 4663WAT    EPW19360   5.619   1.753   4.575
 4664WAT      O19361   5.850   2.991   3.797
 4664WAT     H119362   5.860   3.076   3.810
 4664WAT     H219363   5.819   2.986   3.715
 4664WAT    EPW19364   5.847   3.003   3.787
 4665WAT      O19365   6.493   1.282   4.253
 4665WAT     H119366   6.463   1.353   4.294
 4665WAT     H219367   6.576   1.277   4.279
 4665WAT    EPW19368   6.501   1.292   4.263
 4666WAT      O19369   5.768   1.363   4.466
 4666WAT     H119370   5.851   1.392   4.466
 4666WAT     H219371   5.774   1.286   4.425
 4666WAT    EPW19372   5.781   1.356   4.460
 4667WAT      O19373   5.714   2.776   4.129
 4667WAT     H119374   5.666   2.828   4.078
 4667WAT     H219375   5.756   2.725   4.072
 4667WAT    EPW19376   5.713   2.776   4.113
 4668WAT      O19377   6.124   2.397   4.833
 4668WAT     H119378   6.206   2.404   4.803
 4668WAT     H219379   6.075   2.423   4.765
 4668WAT    EPW19380   6.129   2.402   4.818
 4669WAT      O19381   6.458   2.677   4.712
 4669WAT     H119382   6.495   2.699   4.787
 4669WAT     H219383   6.502   2.725   4.653
 4669WAT    EPW19384   6.470   2.687   4.714
 4670WAT      O19385   6.704   1.936   3.177
 4670WAT     H119386   6.751   1.989   3.126
 4670WAT     H219387   6.625   1.974   3.177
 4670WAT    EPW19388   6.699   1.950   3.170
 4671WAT      O19389   5.793   2.235   3.174
 4671WAT     H119390   5.736   2.187   3.128
 4671WAT     H219391   5.756   2.314   3.176
 4671WAT    EPW19392   5.779   2.239   3.167
 4672WAT      O19393   5.473   1.880   4.131
 4672WAT     H119394   5.511   1.859   4.055
 4672WAT     H219395   5.528   1.849   4.191
 4672WAT    EPW19396   5.487   1.872   4.128
 4673WAT      O19397   6.202   1.829   4.662
 4673WAT     H119398   6.127   1.870   4.677
 4673WAT     H219399   6.247   1.842   4.736
 4673WAT    EPW19400   6.198   1.837   4.675
 4674WAT      O19401   6.248   1.887   4.297
 4674WAT     H119402   6.258   1.943   4.363
 4674WAT     H219403   6.232   1.811   4.336
 4674WAT    EPW19404   6.247   1.884   4.312
 4675WAT      O19405   5.968   2.974   4.723
 4675WAT     H119406   5.983   2.971   4.637
 4675WAT     H219407   5.927   2.898   4.739
 4675WAT    EPW19408   5.964   2.962   4.713
 4676WAT      O19409   6.462   1.821   3.538
 4676WAT     H119410   6.490   1.800   3.618
 4676WAT     H219411   6.534   1.850   3.498
 4676WAT    EPW19412   6.477   1.822   3.544
 4677WAT      O19413   5.783   1.334   4.081
 4677WAT     H119414   5.702   1.316   4.106
 4677WAT     H219415   5.777   1.339   3.994
 4677WAT    EPW19416   5.770   1.332   4.072
 4678WAT      O19417   6.615   1.409   3.701
 4678WAT     H119418   6.535   1.378   3.714
 4678WAT     H219419   6.616   1.430   3.616
 4678WAT    EPW19420   6.603   1.408   3.690
 4679WAT      O19421   6.606   2.215   3.519
 4679WAT     H119422   6.647   2.139   3.507
 4679WAT     H219423   6.522   2.195   3.510
 4679WAT    EPW19424   6.600   2.201   3.516
 4680WAT      O19425   5.971   2.451   4.598
 4680WAT     H119426   5.890   2.450   4.628
 4680WAT     H219427   5.982   2.533   4.571
 4680WAT    EPW19428   5.961   2.463   4.598
 4681WAT      O19429   5.003   1.448   4.769
 4681WAT     H119430   4.995   1.518   4.717
 4681WAT     H219431   4.921   1.425   4.786
 4681WAT    EPW19432   4.990   1.455   4.764
 4682WAT      O19433   5.371   2.996   4.228
 4682WAT     H119434   5.342   3.069   4.189
 4682WAT     H219435   5.355   2.934   4.169
 4682WAT    EPW19436   5.364   2.998   4.213
 4683WAT      O19437   5.347   1.645   3.479
 4683WAT     H119438   5.368   1.600   3.407
 4683WAT     H219439   5.268   1.613   3.500
 4683WAT    EPW19440   5.338   1.634   3.471
 4684WAT      O19441   6.269   2.396   3.783
 4684WAT     H119442   6.256   2.405   3.869
 4684WAT     H219443   6.293   2.313   3.774
 4684WAT    EPW19444   6.271   2.385   3.794
 4685WAT      O19445   6.006   2.334   3.708
 4685WAT     H119446   5.969   2.331   3.787
 4685WAT     H219447   6.088   2.361   3.724
 4685WAT    EPW19448   6.013   2.337   3.722
 4686WAT      O19449   5.994   2.725   4.526
 4686WAT     H119450   6.048   2.725   4.594
 4686WAT     H219451   6.017   2.795   4.481
 4686WAT    EPW19452   6.005   2.735   4.530
 4687WAT      O19453   6.811   1.924   4.690
 4687WAT     H119454   6.726   1.939   4.697
 4687WAT     H219455   6.828   1.938   4.606
 4687WAT    EPW19456   6.801   1.928   4.679
 4688WAT      O19457   6.265   2.061   4.513
 4688WAT     H119458   6.252   1.999   4.572
 4688WAT     H219459   6.338   2.101   4.540
 4688WAT    EPW19460   6.274   2.058   4.526
 4689WAT      O19461   5.186   3.048   4.689
 4689WAT     H119462   5.135   2.978   4.700
 4689WAT     H219463   5.131   3.115   4.696
 4689WAT    EPW19464   5.170   3.048   4.692
 4690WAT      O19465   6.064   2.152   4.947
 4690WAT     H119466   6.086   2.229   4.912
 4690WAT     H219467   5.981   2.165   4.973
 4690WAT    EPW19468   6.055   2.165   4.946
 4691WAT      O19469   6.417   3.018   3.984
 4691WAT     H119470   6.380   3.071   4.043
 4691WAT     H219471   6.476   2.974   4.031
 4691WAT    EPW19472   6.420   3.019   4.000
 4692WAT      O19473   6.032   2.539   4.208
 4692WAT     H119474   5.977   2.504   4.266
 4692WAT     H219475   6.091   2.580   4.257
 4692WAT    EPW19476   6.033   2.540   4.224
 4693WAT      O19477   6.590   2.737   4.947
 4693WAT     H119478   6.671   2.705   4.941
 4693WAT     H219479   6.559   2.699   5.020
 4693WAT    EPW19480   6.597   2.727   4.957
 4694WAT      O19481   5.354   1.868   4.548
 4694WAT     H119482   5.368   1.934   4.492
 4694WAT     H219483   5.434   1.833   4.557
 4694WAT    EPW19484   5.368   1.873   4.541
 4695WAT      O19485   5.171   1.697   4.425
 4695WAT     H119486   5.176   1.715   4.339
 4695WAT     H219487   5.224   1.756   4.461
 4695WAT    EPW19488   5.179   1.708   4.417
 4696WAT      O19489   6.692   1.959   3.454
 4696WAT     H119490   6.706   1.955   3.368
 4696WAT     H219491   6.767   1.932   3.489
 4696WAT    EPW19492   6.705   1.954   3.447
 4697WAT      O19493   5.386   1.408   4.708
 4697WAT     H119494   5.341   1.334   4.716
 4697WAT     H219495   5.369   1.434   4.627
 4697WAT    EPW19496   5.377   1.401   4.697
 4698WAT      O19497   6.085   2.678   3.624
 4698WAT     H119498   6.070   2.756   3.589
 4698WAT     H219499   6.012   2.633   3.607
 4698WAT    EPW19500   6.072   2.683   3.616
 4699WAT      O19501   6.577   1.978   4.439
 4699WAT     H119502   6.572   1.891   4.442
 4699WAT     H219503   6.561   2.002   4.521
 4699WAT    EPW19504   6.574   1.968   4.452
 4700WAT      O19505   5.304   1.837   3.094
 4700WAT     H119506   5.221   1.845   3.117
 4700WAT     H219507   5.311   1.753   3.071
 4700WAT    EPW19508   5.293   1.826   3.094
 4701WAT      O19509   6.118   1.448   4.778
 4701WAT     H119510   6.150   1.512   4.828
 4701WAT     H219511   6.039   1.433   4.812
 4701WAT    EPW19512   6.111   1.455   4.791
 4702WAT      O19513   6.100   1.528   3.849
 4702WAT     H119514   6.020   1.563   3.849
 4702WAT     H219515   6.093   1.463   3.790
 4702WAT    EPW19516   6.087   1.523   3.840
 4703WAT      O19517   5.511   2.654   3.312
 4703WAT     H119518   5.555   2.674   3.385
 4703WAT     H219519   5.447   2.602   3.341
 4703WAT    EPW19520   5.508   2.650   3.327
 4704WAT      O19521   6.439   1.585   4.110
 4704WAT     H119522   6.517   1.551   4.129
 4704WAT     H219523   6.448   1.669   4.132
 4704WAT    EPW19524   6.452   1.593   4.116
 4705WAT      O19525   5.592   2.197   4.535
 4705WAT     H119526   5.551   2.269   4.563
 4705WAT     H219527   5.533   2.158   4.485
 4705WAT    EPW19528   5.577   2.202   4.532
 4706WAT      O19529   6.514   2.005   3.907
 4706WAT     H119530   6.573   2.067   3.928
 4706WAT     H219531   6.457   2.048   3.857
 4706WAT    EPW19532   6.515   2.021   3.903
 4707WAT      O19533   6.523   2.827   3.653
 4707WAT     H119534   6.508   2.751   3.694
 4707WAT     H219535   6.567   2.804   3.581
 4707WAT    EPW19536   6.527   2.813   3.649
 4708WAT      O19537   5.609   2.449   3.143
 4708WAT     H119538   5.539   2.398   3.150
 4708WAT     H219539   5.591   2.516   3.194
 4708WAT    EPW19540   5.596   2.451   3.152
 4709WAT      O19541   5.580   1.524   4.334
 4709WAT     H119542   5.502   1.499   4.364
 4709WAT     H219543   5.635   1.465   4.367
 4709WAT    EPW19544   5.576   1.512   4.343
 4710WAT      O19545   6.736   1.331   4.390
 4710WAT     H119546   6.705   1.328   4.472
 4710WAT     H219547   6.818   1.304   4.399
 4710WAT    EPW19548   6.743   1.326   4.403
 4711WAT      O19549   5.956   1.521   4.198
 4711WAT     H119550   5.901   1.462   4.166
 4711WAT     H219551   6.035   1.486   4.180
 4711WAT    EPW19552   5.960   1.507   4.191
 4712WAT      O19553   6.282   2.641   4.298
 4712WAT     H119554   6.290   2.710   4.352
 4712WAT     H219555   6.283   2.677   4.219
 4712WAT    EPW19556   6.283   2.657   4.294
 4713WAT      O19557   6.220   3.053   4.806
 4713WAT     H119558   6.149   3.016   4.771
 4713WAT     H219559   6.197   3.137   4.815
 4713WAT    EPW19560   6.206   3.060   4.802
 4714WAT      O19561   5.717   1.992   4.710
 4714WAT     H119562   5.685   1.922   4.670
 4714WAT     H219563   5.681   2.059   4.668
 4714WAT    EPW19564   5.707   1.991   4.698
 4715WAT      O19565   5.829   1.285   3.213
 4715WAT     H119566   5.841   1.304   3.128
 4715WAT     H219567   5.744   1.297   3.225
 4715WAT    EPW19568   5.818   1.290   3.202
 4716WAT      O19569   6.681   2.471   4.262
 4716WAT     H119570   6.664   2.386   4.254
 4716WAT     H219571   6.629   2.508   4.203
 4716WAT    EPW19572   6.671   2.464   4.252
 4717WAT      O19573   5.654   3.010   4.707
 4717WAT     H119574   5.647   2.978   4.788
 4717WAT     H219575   5.680   2.942   4.659
 4717WAT    EPW19576   5.657   2.996   4.712
 4718WAT      O19577   6.583   2.824   4.098
 4718WAT     H119578   6.665   2.800   4.077
 4718WAT     H219579   6.539   2.748   4.095
 4718WAT    EPW19580   6.589   2.809   4.094
 4719WAT      O19581   5.329   1.470   4.448
 4719WAT     H119582   5.277   1.403   4.425
 4719WAT     H219583   5.279   1.540   4.434
 4719WAT    EPW19584   5.314   1.470   4.442
 4720WAT      O19585   6.200   1.432   4.091
 4720WAT     H119586   6.269   1.483   4.108
 4720WAT     H219587   6.170   1.464   4.016
 4720WAT    EPW19588   6.206   1.444   4.082
 4721WAT      O19589   5.353   2.866   4.834
 4721WAT     H119590   5.427   2.886   4.876
 4721WAT     H219591   5.326   2.943   4.804
 4721WAT    EPW19592   5.360   2.881   4.836
 4722WAT      O19593   6.181   1.914   3.852
 4722WAT     H119594   6.234   1.845   3.864
 4722WAT     H219595   6.148   1.929   3.931
 4722WAT    EPW19596   6.184   1.906   3.865
 4723WAT      O19597   5.198   1.841   3.806
 4723WAT     H119598   5.155   1.875   3.874
 4723WAT     H219599   5.235   1.769   3.839
 4723WAT    EPW19600   5.197   1.835   3.821
 4724WAT      O19601   5.049   2.594   4.503
 4724WAT     H119602   5.037   2.662   4.557
 4724WAT     H219603   5.052   2.630   4.424
 4724WAT    EPW19604   5.048   2.609   4.500
 4725WAT      O19605   6.360   2.071   3.471
 4725WAT     H119606   6.378   1.988   3.490
 4725WAT     H219607   6.282   2.066   3.431
 4725WAT    EPW19608   6.351   2.058   3.467
 4726WAT      O19609   5.721   2.145   3.427
 4726WAT     H119610   5.743   2.174   3.348
 4726WAT     H219611   5.797   2.131   3.467
 4726WAT    EPW19612   5.735   2.147   3.422
 4727WAT      O19613   6.635   3.004   3.115
 4727WAT     H119614   6.702   2.993   3.170
 4727WAT     H219615   6.613   2.922   3.093
 4727WAT    EPW19616   6.642   2.990   3.120
 4728WAT      O19617   6.666   2.260   4.793
 4728WAT     H119618   6.735   2.222   4.831
 4728WAT     H219619   6.701   2.302   4.725
 4728WAT    EPW19620   6.682   2.261   4.789
 4729WAT      O19621   6.286   2.650   3.422
 4729WAT     H119622   6.237   2.643   3.494
 4729WAT     H219623   6.249   2.594   3.366
 4729WAT    EPW19624   6.274   2.641   3.424
 4730WAT      O19625   6.708   1.706   4.920
 4730WAT     H119626   6.699   1.785   4.955
 4730WAT     H219627   6.632   1.693   4.880
 4730WAT    EPW19628   6.696   1.716   4.919
 4731WAT      O19629   6.746   1.820   4.207
 4731WAT     H119630   6.663   1.844   4.193
 4731WAT     H219631   6.743   1.733   4.212
 4731WAT    EPW19632   6.734   1.811   4.205
 4732WAT      O19633   5.655   1.490   4.691
 4732WAT     H119634   5.685   1.451   4.619
 4732WAT     H219635   5.575   1.458   4.700
 4732WAT    EPW19636   5.648   1.479   4.682
 4733WAT      O19637   6.443   2.308   5.030
 4733WAT     H119638   6.518   2.334   5.066
 4733WAT     H219639   6.450   2.333   4.947
 4733WAT    EPW19640   6.455   2.315   5.023
 4734WAT      O19641   5.258   2.807   4.055
 4734WAT     H119642   5.275   2.734   4.011
 4734WAT     H219643   5.220   2.859   3.995
 4734WAT    EPW19644   5.255   2.804   4.040
 4735WAT      O19645   5.948   2.489   3.305
 4735WAT     H119646   6.029   2.461   3.290
 4735WAT     H219647   5.940   2.558   3.253
 4735WAT    EPW19648   5.959   2.495   3.295
 4736WAT      O19649   5.092   3.124   4.321
 4736WAT     H119650   5.005   3.125   4.328
 4736WAT     H219651   5.106   3.139   4.237
 4736WAT    EPW19652   5.081   3.127   4.310
 4737WAT      O19653   6.199   1.377   1.753
 4737WAT     H119654   6.235   1.439   1.704
 4737WAT     H219655   6.267   1.335   1.787
 4737WAT    EPW19656   6.214   1.380   1.751
 4738WAT      O19657   6.059   2.003   2.209
 4738WAT     H119658   6.028   2.077   2.243
 4738WAT     H219659   6.122   1.980   2.266
 4738WAT    EPW19660   6.064   2.010   2.222
 4739WAT      O19661   5.045   2.431   1.734
 4739WAT     H119662   4.978   2.423   1.790
 4739WAT     H219663   5.057   2.350   1.704
 4739WAT    EPW19664   5.037   2.418   1.738
 4740WAT      O19665   6.705   2.790   1.521
 4740WAT     H119666   6.774   2.741   1.541
 4740WAT     H219667   6.653   2.734   1.477
 4740WAT    EPW19668   6.707   2.774   1.517
 4741WAT      O19669   5.026   1.776   1.379
 4741WAT     H119670   4.958   1.823   1.350
 4741WAT     H219671   5.001   1.693   1.368
 4741WAT    EPW19672   5.012   1.771   1.373
 4742WAT      O19673   5.292   2.384   1.328
 4742WAT     H119674   5.272   2.339   1.256
 4742WAT     H219675   5.311   2.322   1.387
 4742WAT    EPW19676   5.292   2.368   1.326
 4743WAT      O19677   6.333   2.133   1.851
 4743WAT     H119678   6.342   2.110   1.767
 4743WAT     H219679   6.276   2.075   1.883
 4743WAT    EPW19680   6.326   2.121   1.843
 4744WAT      O19681   5.293   2.567   1.718
 4744WAT     H119682   5.348   2.525   1.771
 4744WAT     H219683   5.218   2.522   1.727
 4744WAT    EPW19684   5.290   2.554   1.727
 4745WAT      O19685   5.790   1.517   1.663
 4745WAT     H119686   5.776   1.578   1.602
 4745WAT     H219687   5.858   1.472   1.632
 4745WAT    EPW19688   5.798   1.520   1.650
 4746WAT      O19689   5.167   2.835   1.302
 4746WAT     H119690   5.220   2.843   1.234
 4746WAT     H219691   5.207   2.777   1.353
 4746WAT    EPW19692   5.180   2.828   1.300
 4747WAT      O19693   5.061   2.747   2.448
 4747WAT     H119694   5.078   2.726   2.531
 4747WAT     H219695   5.012   2.681   2.420
 4747WAT    EPW19696   5.056   2.734   2.456
 4748WAT      O19697   5.706   2.451   2.880
 4748WAT     H119698   5.681   2.446   2.963
 4748WAT     H219699   5.631   2.463   2.837
 4748WAT    EPW19700   5.691   2.452   2.886
 4749WAT      O19701   5.238   2.202   1.909
 4749WAT     H119702   5.192   2.194   1.835
 4749WAT     H219703   5.293   2.134   1.906
 4749WAT    EPW19704   5.239   2.191   1.897
 4750WAT      O19705   5.693   1.643   2.330
 4750WAT     H119706   5.765   1.687   2.304
 4750WAT     H219707   5.696   1.649   2.417
 4750WAT    EPW19708   5.704   1.651   2.339
 4751WAT      O19709   5.413   1.986   1.892
 4751WAT     H119710   5.482   1.933   1.898
 4751WAT     H219711   5.346   1.931   1.883
 4751WAT    EPW19712   5.413   1.970   1.892
 4752WAT      O19713   5.844   2.604   2.043
 4752WAT     H119714   5.875   2.523   2.053
 4752WAT     H219715   5.915   2.651   2.024
 4752WAT    EPW19716   5.859   2.599   2.041
 4753WAT      O19717   5.916   2.526   1.646
 4753WAT     H119718   5.940   2.457   1.694
 4753WAT     H219719   5.929   2.499   1.564
 4753WAT    EPW19720   5.921   2.512   1.641
 4754WAT      O19721   6.091   2.009   2.896
 4754WAT     H119722   6.014   2.003   2.856
 4754WAT     H219723   6.078   2.071   2.956
 4754WAT    EPW19724   6.078   2.017   2.899
 4755WAT      O19725   5.523   1.496   1.734
 4755WAT     H119726   5.482   1.548   1.678
 4755WAT     H219727   5.607   1.502   1.710
 4755WAT    EPW19728   5.529   1.505   1.722
 4756WAT      O19729   6.464   1.185   2.718
 4756WAT     H119730   6.441   1.245   2.659
 4756WAT     H219731   6.391   1.172   2.764
 4756WAT    EPW19732   6.450   1.192   2.716
 4757WAT      O19733   5.775   1.396   1.958
 4757WAT     H119734   5.797   1.478   1.936
 4757WAT     H219735   5.695   1.387   1.924
 4757WAT    EPW19736   5.767   1.407   1.950
 4758WAT      O19737   6.219   1.623   1.167
 4758WAT     H119738   6.174   1.687   1.205
 4758WAT     H219739   6.235   1.567   1.231
 4758WAT    EPW19740   6.215   1.624   1.182
 4759WAT      O19741   5.079   1.890   2.125
 4759WAT     H119742   5.073   1.974   2.147
 4759WAT     H219743   5.015   1.852   2.170
 4759WAT    EPW19744   5.069   1.897   2.135
 4760WAT      O19745   5.061   3.023   1.973
 4760WAT     H119746   4.985   3.047   1.937
 4760WAT     H219747   5.100   2.977   1.910
 4760WAT    EPW19748   5.056   3.020   1.958
 4761WAT      O19749   5.655   2.608   1.631
 4761WAT     H119750   5.631   2.618   1.714
 4761WAT     H219751   5.738   2.581   1.637
 4761WAT    EPW19752   5.664   2.605   1.644
 4762WAT      O19753   6.305   2.852   1.400
 4762WAT     H119754   6.367   2.912   1.413
 4762WAT     H219755   6.332   2.784   1.448
 4762WAT    EPW19756   6.318   2.851   1.409
 4763WAT      O19757   6.105   2.922   1.574
 4763WAT     H119758   6.137   2.990   1.618
 4763WAT     H219759   6.166   2.905   1.515
 4763WAT    EPW19760   6.119   2.929   1.572
 4764WAT      O19761   5.311   1.438   2.131
 4764WAT     H119762   5.283   1.370   2.085
 4764WAT     H219763   5.381   1.407   2.174
 4764WAT    EPW19764   5.317   1.423   2.131
 4765WAT      O19765   5.675   1.649   3.132
 4765WAT     H119766   5.665   1.598   3.062
 4765WAT     H219767   5.714   1.720   3.100
 4765WAT    EPW19768   5.679   1.652   3.117
 4766WAT      O19769   5.208   2.836   1.742
 4766WAT     H119770   5.248   2.760   1.760
 4766WAT     H219771   5.271   2.882   1.702
 4766WAT    EPW19772   5.223   2.831   1.739
 4767WAT      O19773   6.812   1.608   1.874
 4767WAT     H119774   6.756   1.674   1.888
 4767WAT     H219775   6.760   1.540   1.857
 4767WAT    EPW19776   6.796   1.608   1.873
 4768WAT      O19777   6.334   2.919   2.440
 4768WAT     H119778   6.396   2.979   2.429
 4768WAT     H219779   6.311   2.898   2.359
 4768WAT    EPW19780   6.340   2.925   2.427
 4769WAT      O19781   5.268   1.563   3.049
 4769WAT     H119782   5.182   1.552   3.063
 4769WAT     H219783   5.283   1.513   2.979
 4769WAT    EPW19784   5.257   1.554   3.041
 4770WAT      O19785   5.345   2.634   2.075
 4770WAT     H119786   5.381   2.588   2.010
 4770WAT     H219787   5.392   2.609   2.145
 4770WAT    EPW19788   5.358   2.623   2.076
 4771WAT      O19789   5.633   2.915   2.018
 4771WAT     H119790   5.708   2.937   1.980
 4771WAT     H219791   5.576   2.974   1.987
 4771WAT    EPW19792   5.635   2.927   2.008
 4772WAT      O19793   5.862   1.350   2.948
 4772WAT     H119794   5.872   1.276   2.902
 4772WAT     H219795   5.786   1.381   2.920
 4772WAT    EPW19796   5.853   1.343   2.937
 4773WAT      O19797   5.975   1.857   1.782
 4773WAT     H119798   6.006   1.809   1.717
 4773WAT     H219799   6.045   1.873   1.832
 4773WAT    EPW19800   5.990   1.853   1.780
 4774WAT      O19801   6.062   1.813   1.301
 4774WAT     H119802   6.091   1.891   1.328
 4774WAT     H219803   5.987   1.832   1.261
 4774WAT    EPW19804   6.055   1.828   1.299
 4775WAT      O19805   6.477   3.074   1.399
 4775WAT     H119806   6.523   3.059   1.326
 4775WAT     H219807   6.531   3.122   1.448
 4775WAT    EPW19808   6.492   3.079   1.395
 4776WAT      O19809   5.508   2.937   2.574
 4776WAT     H119810   5.493   3.010   2.620
 4776WAT     H219811   5.435   2.927   2.527
 4776WAT    EPW19812   5.495   2.946   2.574
 4777WAT      O19813   6.690   1.565   2.302
 4777WAT     H119814   6.754   1.552   2.244
 4777WAT     H219815   6.706   1.505   2.364
 4777WAT    EPW19816   6.702   1.554   2.303
 4778WAT      O19817   4.974   1.660   2.716
 4778WAT     H119818   4.973   1.740   2.751
 4778WAT     H219819   5.041   1.662   2.661
 4778WAT    EPW19820   4.984   1.672   2.713
 4779WAT      O19821   6.161   2.745   2.786
 4779WAT     H119822   6.139   2.702   2.858
 4779WAT     H219823   6.247   2.731   2.779
 4779WAT    EPW19824   6.171   2.736   2.795
 4780WAT      O19825   5.929   2.719   1.257
 4780WAT     H119826   5.905   2.780   1.315
 4780WAT     H219827   6.006   2.748   1.227
 4780WAT    EPW19828   5.937   2.732   1.261
 4781WAT      O19829   6.266   1.444   1.376
 4781WAT     H119830   6.325   1.380   1.370
 4781WAT     H219831   6.294   1.490   1.444
 4781WAT    EPW19832   6.279   1.441   1.385
 4782WAT      O19833   5.111   1.565   1.658
 4782WAT     H119834   5.087   1.483   1.638
 4782WAT     H219835   5.060   1.584   1.727
 4782WAT    EPW19836   5.100   1.556   1.665
 4783WAT      O19837   5.294   2.894   2.411
 4783WAT     H119838   5.221   2.848   2.421
 4783WAT     H219839   5.300   2.904   2.324
 4783WAT    EPW19840   5.284   2.889   2.399
 4784WAT      O19841   6.065   1.709   1.562
 4784WAT     H119842   6.027   1.630   1.551
 4784WAT     H219843   6.057   1.745   1.483
 4784WAT    EPW19844   6.058   1.702   1.548
 4785WAT      O19845   6.097   3.022   2.525
 4785WAT     H119846   6.173   2.990   2.498
 4785WAT     H219847   6.040   2.990   2.467
 4785WAT    EPW19848   6.100   3.013   2.512
 4786WAT      O19849   6.008   1.439   1.496
 4786WAT     H119850   5.948   1.406   1.441
 4786WAT     H219851   6.083   1.426   1.454
 4786WAT    EPW19852   6.010   1.432   1.482
 4787WAT      O19853   6.780   3.004   1.797
 4787WAT     H119854   6.738   3.079   1.812
 4787WAT     H219855   6.716   2.946   1.787
 4787WAT    EPW19856   6.765   3.007   1.798
 4788WAT      O19857   5.860   1.668   1.953
 4788WAT     H119858   5.887   1.729   1.896
 4788WAT     H219859   5.878   1.703   2.031
 4788WAT    EPW19860   5.867   1.683   1.956
 4789WAT      O19861   6.499   2.574   1.863
 4789WAT     H119862   6.561   2.514   1.849
 4789WAT     H219863   6.425   2.530   1.852
 4789WAT    EPW19864   6.497   2.559   1.859
 4790WAT      O19865   5.377   2.774   2.765
 4790WAT     H119866   5.416   2.821   2.703
 4790WAT     H219867   5.365   2.831   2.829
 4790WAT    EPW19868   5.381   2.789   2.765
 4791WAT      O19869   5.410   1.245   1.761
 4791WAT     H119870   5.446   1.323   1.747
 4791WAT     H219871   5.403   1.211   1.681
 4791WAT    EPW19872   5.414   1.252   1.747
 4792WAT      O19873   5.658   2.329   2.193
 4792WAT     H119874   5.680   2.311   2.276
 4792WAT     H219875   5.610   2.260   2.169
 4792WAT    EPW19876   5.654   2.316   2.202
 4793WAT      O19877   6.245   1.665   2.489
 4793WAT     H119878   6.238   1.690   2.572
 4793WAT     H219879   6.176   1.612   2.478
 4793WAT    EPW19880   6.234   1.661   2.500
 4794WAT      O19881   5.748   2.323   2.457
 4794WAT     H119882   5.728   2.402   2.487
 4794WAT     H219883   5.722   2.270   2.521
 4794WAT    EPW19884   5.742   2.327   2.471
 4795WAT      O19885   6.346   2.363   2.395
 4795WAT     H119886   6.283   2.334   2.448
 4795WAT     H219887   6.346   2.449   2.409
 4795WAT    EPW19888   6.336   2.371   2.405
 4796WAT      O19889   6.419   1.245   1.851
 4796WAT     H119890   6.416   1.225   1.936
 4796WAT     H219891   6.443   1.171   1.813
 4796WAT    EPW19892   6.422   1.231   1.858
 4797WAT      O19893   6.596   1.561   2.665
 4797WAT     H119894   6.675   1.596   2.681
 4797WAT     H219895   6.551   1.578   2.738
 4797WAT    EPW19896   6.601   1.568   2.678
 4798WAT      O19897   5.386   1.621   1.942
 4798WAT     H119898   5.419   1.570   1.879
 4798WAT     H219899   5.364   1.564   2.004
 4798WAT    EPW19900   5.388   1.605   1.942
 4799WAT      O19901   6.675   2.354   1.390
 4799WAT     H119902   6.673   2.306   1.463
 4799WAT     H219903   6.760   2.369   1.378
 4799WAT    EPW19904   6.687   2.349   1.399
 4800WAT      O19905   5.426   2.407   1.896
 4800WAT     H119906   5.482   2.374   1.838
 4800WAT     H219907   5.368   2.343   1.906
 4800WAT    EPW19908   5.426   2.392   1.889
 4801WAT      O19909   5.265   1.789   2.311
 4801WAT     H119910   5.346   1.797   2.278
 4801WAT     H219911   5.214   1.807   2.243
 4801WAT    EPW19912   5.270   1.793   2.296
 4802WAT      O19913   6.857   2.790   2.776
 4802WAT     H119914   6.782   2.798   2.731
 4802WAT     H219915   6.833   2.746   2.848
 4802WAT    EPW19916   6.842   2.785   2.780
 4803WAT      O19917   6.474   2.044   1.318
 4803WAT     H119918   6.468   2.126   1.290
 4803WAT     H219919   6.446   2.048   1.400
 4803WAT    EPW19920   6.469   2.057   1.326
 4804WAT      O19921   5.557   2.337   1.651
 4804WAT     H119922   5.581   2.418   1.629
 4804WAT     H219923   5.622   2.287   1.621
 4804WAT    EPW19924   5.570   2.342   1.643
 4805WAT      O19925   6.797   1.509   1.280
 4805WAT     H119926   6.838   1.453   1.227
 4805WAT     H219927   6.756   1.562   1.225
 4805WAT    EPW19928   6.797   1.509   1.264
 4806WAT      O19929   5.075   2.570   2.128
 4806WAT     H119930   5.033   2.646   2.124
 4806WAT     H219931   5.158   2.593   2.110
 4806WAT    EPW19932   5.081   2.585   2.125
 4807WAT      O19933   5.805   1.888   3.059
 4807WAT     H119934   5.742   1.943   3.081
 4807WAT     H219935   5.818   1.904   2.974
 4807WAT    EPW19936   5.798   1.898   3.049
 4808WAT      O19937   6.907   1.935   2.520
 4808WAT     H119938   6.957   1.863   2.522
 4808WAT     H219939   6.849   1.917   2.457
 4808WAT    EPW19940   6.906   1.921   2.511
 4809WAT      O19941   5.114   2.171   1.661
 4809WAT     H119942   5.093   2.086   1.655
 4809WAT     H219943   5.186   2.177   1.612
 4809WAT    EPW19944   5.121   2.159   1.653
 4810WAT      O19945   6.667   1.407   1.509
 4810WAT     H119946   6.739   1.368   1.537
 4810WAT     H219947   6.693   1.450   1.438
 4810WAT    EPW19948   6.681   1.407   1.503
 4811WAT      O19949   6.052   2.776   1.982
 4811WAT     H119950   6.003   2.844   1.957
 4811WAT     H219951   6.088   2.748   1.907
 4811WAT    EPW19952   6.050   2.782   1.967
 4812WAT      O19953   5.041   2.662   1.584
 4812WAT     H119954   5.095   2.716   1.627
 4812WAT     H219955   5.034   2.594   1.638
 4812WAT    EPW19956   5.048   2.660   1.599
 4813WAT      O19957   5.519   2.552   2.276
 4813WAT     H119958   5.573   2.619   2.260
 4813WAT     H219959   5.559   2.484   2.239
 4813WAT    EPW19960   5.533   2.552   2.268
 4814WAT      O19961   6.333   1.717   2.028
 4814WAT     H119962   6.358   1.689   2.107
 4814WAT     H219963   6.272   1.660   2.004
 4814WAT    EPW19964   6.327   1.704   2.036
 4815WAT      O19965   5.028   2.493   1.358
 4815WAT     H119966   5.104   2.452   1.347
 4815WAT     H219967   5.044   2.549   1.423
 4815WAT    EPW19968   5.041   2.495   1.366
 4816WAT      O19969   5.100   2.286   2.135
 4816WAT     H119970   5.140   2.260   2.062
 4816WAT     H219971   5.091   2.372   2.123
 4816WAT    EPW19972   5.105   2.295   2.123
 4817WAT      O19973   5.742   1.690   1.456
 4817WAT     H119974   5.726   1.658   1.377
 4817WAT     H219975   5.718   1.774   1.450
 4817WAT    EPW19976   5.736   1.698   1.444
 4818WAT      O19977   6.614   2.827   2.617
 4818WAT     H119978   6.577   2.905   2.627
 4818WAT     H219979   6.612   2.813   2.531
 4818WAT    EPW19980   6.609   2.837   2.606
 4819WAT      O19981   5.615   2.667   1.894
 4819WAT     H119982   5.606   2.746   1.929
 4819WAT     H219983   5.683   2.633   1.937
 4819WAT    EPW19984   5.624   2.674   1.906
 4820WAT      O19985   5.393   1.998   2.886
 4820WAT     H119986   5.364   1.942   2.946
 4820WAT     H219987   5.392   1.951   2.812
 4820WAT    EPW19988   5.388   1.983   2.884
 4821WAT      O19989   5.386   1.913   1.461
 4821WAT     H119990   5.377   1.844   1.513
 4821WAT     H219991   5.346   1.889   1.387
 4821WAT    EPW19992   5.378   1.899   1.458
 4822WAT      O19993   5.514   2.106   2.127
 4822WAT     H119994   5.480   2.081   2.050
 4822WAT     H219995   5.530   2.030   2.168
 4822WAT    EPW19996   5.511   2.091   2.122
 4823WAT      O19997   5.466   2.048   2.449
 4823WAT     H119998   5.487   1.992   2.386
 4823WAT     H219999   5.417   2.108   2.409
 4823WAT    EPW20000   5.462   2.048   2.434
 4824WAT      O20001   6.508   1.948   2.279
 4824WAT     H120002   6.425   1.931   2.301
 4824WAT     H220003   6.503   1.973   2.196
 4824WAT    EPW20004   6.495   1.949   2.270
 4825WAT      O20005   5.862   2.918   2.395
 4825WAT     H120006   5.827   2.855   2.346
 4825WAT     H220007   5.855   2.989   2.345
 4825WAT    EPW20008   5.856   2.919   2.380
 4826WAT      O20009   6.130   1.408   2.613
 4826WAT     H120010   6.107   1.324   2.605
 4826WAT     H220011   6.122   1.423   2.698
 4826WAT    EPW20012   6.126   1.398   2.624
 4827WAT      O20013   6.310   1.591   1.606
 4827WAT     H120014   6.373   1.650   1.618
 4827WAT     H220015   6.238   1.640   1.596
 4827WAT    EPW20016   6.309   1.607   1.606
 4828WAT      O20017   5.225   2.210   2.949
 4828WAT     H120018   5.224   2.269   2.885
 4828WAT     H220019   5.275   2.146   2.917
 4828WAT    EPW20020   5.232   2.209   2.935
 4829WAT      O20021   6.382   2.435   2.865
 4829WAT     H120022   6.407   2.515   2.843
 4829WAT     H220023   6.410   2.385   2.800
 4829WAT    EPW20024   6.390   2.439   2.852
 4830WAT      O20025   5.837   2.696   2.895
 4830WAT     H120026   5.874   2.697   2.973
 4830WAT     H220027   5.799   2.618   2.891
 4830WAT    EPW20028   5.837   2.685   2.906
 4831WAT      O20029   5.917   1.760   2.206
 4831WAT     H120030   5.958   1.837   2.215
 4831WAT     H220031   5.972   1.704   2.243
 4831WAT    EPW20032   5.932   1.763   2.213
 4832WAT      O20033   6.148   2.049   1.425
 4832WAT     H120034   6.131   2.102   1.358
 4832WAT     H220035   6.089   2.072   1.485
 4832WAT    EPW20036   6.137   2.060   1.424
 4833WAT      O20037   6.688   2.376   1.824
 4833WAT     H120038   6.694   2.333   1.899
 4833WAT     H220039   6.664   2.315   1.767
 4833WAT    EPW20040   6.685   2.361   1.827
 4834WAT      O20041   6.242   2.796   2.193
 4834WAT     H120042   6.177   2.791   2.134
 4834WAT     H220043   6.299   2.850   2.155
 4834WAT    EPW20044   6.241   2.803   2.179
 4835WAT      O20045   6.228   2.448   2.149
 4835WAT     H120046   6.160   2.489   2.184
 4835WAT     H220047   6.261   2.402   2.215
 4835WAT    EPW20048   6.223   2.448   2.164
 4836WAT      O20049   5.705   2.887   1.661
 4836WAT     H120050   5.695   2.801   1.663
 4836WAT     H220051   5.751   2.900   1.588
 4836WAT    EPW20052   5.710   2.876   1.650
 4837WAT      O20053   5.536   1.281   1.346
 4837WAT     H120054   5.490   1.239   1.407
 4837WAT     H220055   5.499   1.360   1.344
 4837WAT    EPW20056   5.523   1.287   1.355
 4838WAT      O20057   5.867   2.916   1.442
 4838WAT     H120058   5.943   2.921   1.485
 4838WAT     H220059   5.859   2.995   1.406
 4838WAT    EPW20060   5.877   2.928   1.443
 4839WAT      O20061   6.474   2.303   2.641
 4839WAT     H120062   6.450   2.318   2.558
 4839WAT     H220063   6.561   2.311   2.639
 4839WAT    EPW20064   6.483   2.306   2.628
 4840WAT      O20065   6.200   2.830   3.089
 4840WAT     H120066   6.224   2.863   3.166
 4840WAT     H220067   6.233   2.887   3.032
 4840WAT    EPW20068   6.208   2.844   3.092
 4841WAT      O20069   6.590   1.342   2.913
 4841WAT     H120070   6.557   1.295   2.847
 4841WAT     H220071   6.591   1.286   2.980
 4841WAT    EPW20072   6.585   1.327   2.913
 4842WAT      O20073   5.349   2.192   1.520
 4842WAT     H120074   5.370   2.108   1.509
 4842WAT     H220075   5.416   2.224   1.566
 4842WAT    EPW20076   5.362   2.185   1.525
 4843WAT      O20077   6.141   2.274   2.565
 4843WAT     H120078   6.088   2.302   2.629
 4843WAT     H220079   6.180   2.205   2.600
 4843WAT    EPW20080   6.139   2.268   2.580
 4844WAT      O20081   5.011   1.304   1.594
 4844WAT     H120082   5.013   1.248   1.527
 4844WAT     H220083   4.974   1.258   1.658
 4844WAT    EPW20084   5.006   1.289   1.594
 4845WAT      O20085   5.984   2.100   1.645
 4845WAT     H120086   5.998   2.163   1.703
 4845WAT     H220087   5.974   2.028   1.694
 4845WAT    EPW20088   5.984   2.099   1.660
 4846WAT      O20089   6.477   2.590   2.144
 4846WAT     H120090   6.498   2.594   2.060
 4846WAT     H220091   6.394   2.562   2.143
 4846WAT    EPW20092   6.468   2.587   2.131
 4847WAT      O20093   5.432   1.538   1.327
 4847WAT     H120094   5.371   1.540   1.264
 4847WAT     H220095   5.500   1.580   1.291
 4847WAT    EPW20096   5.433   1.544   1.312
 4848WAT      O20097   5.908   2.334   2.070
 4848WAT     H120098   5.825   2.324   2.095
 4848WAT     H220099   5.954   2.309   2.140
 4848WAT    EPW20100   5.903   2.329   2.084
 4849WAT      O20101   5.562   2.956   1.225
 4849WAT     H120102   5.582   2.881   1.264
 4849WAT     H220103   5.557   3.013   1.291
 4849WAT    EPW20104   5.564   2.953   1.241
 4850WAT      O20105   5.302   2.269   2.337
 4850WAT     H120106   5.347   2.343   2.324
 4850WAT     H220107   5.246   2.268   2.270
 4850WAT    EPW20108   5.300   2.280   2.325
 4851WAT      O20109   5.599   1.791   1.975
 4851WAT     H120110   5.675   1.749   1.961
 4851WAT     H220111   5.539   1.728   1.963
 4851WAT    EPW20112   5.601   1.775   1.971
 4852WAT      O20113   6.855   2.971   1.377
 4852WAT     H120114   6.921   2.921   1.351
 4852WAT     H220115   6.805   2.916   1.423
 4852WAT    EPW20116   6.857   2.956   1.380
 4853WAT      O20117   5.063   1.895   1.644
 4853WAT     H120118   5.101   1.857   1.713
 4853WAT     H220119   5.074   1.836   1.581
 4853WAT    EPW20120   5.071   1.881   1.645
 4854WAT      O20121   6.613   2.297   2.314
 4854WAT     H120122   6.628   2.232   2.370
 4854WAT     H220123   6.528   2.313   2.322
 4854WAT    EPW20124   6.603   2.290   2.323
 4855WAT      O20125   5.567   2.150   1.212
 4855WAT     H120126   5.583   2.086   1.269
 4855WAT     H220127   5.514   2.113   1.154
 4855WAT    EPW20128   5.561   2.135   1.212
 4856WAT      O20129   5.222   2.388   2.734
 4856WAT     H120130   5.189   2.334   2.674
 4856WAT     H220131   5.174   2.461   2.724
 4856WAT    EPW20132   5.210   2.391   2.724
 4857WAT      O20133   6.710   2.233   2.061
 4857WAT     H120134   6.681   2.262   2.138
 4857WAT     H220135   6.795   2.221   2.074
 4857WAT    EPW20136   6.718   2.235   2.074
 4858WAT      O20137   5.648   1.951   1.397
 4858WAT     H120138   5.676   2.013   1.452
 4858WAT     H220139   5.567   1.935   1.423
 4858WAT    EPW20140   5.640   1.958   1.409
 4859WAT      O20141   6.456   1.593   2.909
 4859WAT     H120142   6.385   1.602   2.959
 4859WAT     H220143   6.481   1.511   2.925
 4859WAT    EPW20144   6.449   1.582   2.919
 4860WAT      O20145   5.047   1.559   2.138
 4860WAT     H120146   5.024   1.563   2.054
 4860WAT     H220147   5.127   1.524   2.135
 4860WAT    EPW20148   5.055   1.554   2.125
 4861WAT      O20149   6.852   2.730   2.176
 4861WAT     H120150   6.887   2.769   2.106
 4861WAT     H220151   6.919   2.723   2.231
 4861WAT    EPW20152   6.867   2.734   2.174
 4862WAT      O20153   6.363   1.941   2.955
 4862WAT     H120154   6.381   1.966   3.036
 4862WAT     H220155   6.280   1.966   2.944
 4862WAT    EPW20156   6.354   1.949   2.965
 4863WAT      O20157   6.549   2.029   2.768
 4863WAT     H120158   6.572   2.105   2.805
 4863WAT     H220159   6.495   1.994   2.826
 4863WAT    EPW20160   6.545   2.035   2.782
 4864WAT      O20161   6.551   2.600   1.400
 4864WAT     H120162   6.588   2.521   1.402
 4864WAT     H220163   6.480   2.590   1.449
 4864WAT    EPW20164   6.546   2.587   1.408
 4865WAT      O20165   6.581   1.777   1.910
 4865WAT     H120166   6.512   1.740   1.949
 4865WAT     H220167   6.582   1.858   1.942
 4865WAT    EPW20168   6.571   1.783   1.921
 4866WAT      O20169   6.853   2.084   3.000
 4866WAT     H120170   6.857   2.031   2.930
 4866WAT     H220171   6.933   2.119   3.003
 4866WAT    EPW20172   6.866   2.081   2.990
 4867WAT      O20173   6.749   2.353   2.653
 4867WAT     H120174   6.808   2.299   2.617
 4867WAT     H220175   6.747   2.420   2.598
 4867WAT    EPW20176   6.758   2.355   2.639
 4868WAT      O20177   6.223   2.446   1.318
 4868WAT     H120178   6.297   2.400   1.309
 4868WAT     H220179   6.194   2.455   1.236
 4868WAT    EPW20180   6.230   2.441   1.304
 4869WAT      O20181   5.635   2.572   2.531
 4869WAT     H120182   5.577   2.546   2.591
 4869WAT     H220183   5.589   2.571   2.457
 4869WAT    EPW20184   5.619   2.568   2.529
 4870WAT      O20185   5.470   2.511   2.743
 4870WAT     H120186   5.397   2.463   2.739
 4870WAT     H220187   5.441   2.591   2.763
 4870WAT    EPW20188   5.455   2.516   2.746
 4871WAT      O20189   6.400   1.393   2.544
 4871WAT     H120190   6.444   1.461   2.575
 4871WAT     H220191   6.317   1.414   2.562
 4871WAT    EPW20192   6.394   1.406   2.551
 4872WAT      O20193   5.990   2.255   2.337
 4872WAT     H120194   6.040   2.243   2.407
 4872WAT     H220195   5.911   2.268   2.371
 4872WAT    EPW20196   5.986   2.255   2.353
 4873WAT      O20197   5.864   2.966   1.881
 4873WAT     H120198   5.862   3.053   1.887
 4873WAT     H220199   5.824   2.950   1.805
 4873WAT    EPW20200   5.858   2.977   1.871
 4874WAT      O20201   6.528   1.233   2.361
 4874WAT     H120202   6.480   1.292   2.405
 4874WAT     H220203   6.610   1.250   2.386
 4874WAT    EPW20204   6.533   1.244   2.372
 4875WAT      O20205   5.803   1.321   2.598
 4875WAT     H120206   5.835   1.402   2.598
 4875WAT     H220207   5.839   1.285   2.528
 4875WAT    EPW20208   5.813   1.328   2.588
 4876WAT      O20209   5.707   2.749   2.233
 4876WAT     H120210   5.676   2.810   2.179
 4876WAT     H220211   5.758   2.700   2.183
 4876WAT    EPW20212   5.710   2.751   2.218
 4877WAT      O20213   6.124   2.458   2.957
 4877WAT     H120214   6.203   2.445   2.923
 4877WAT     H220215   6.070   2.441   2.890
 4877WAT    EPW20216   6.127   2.453   2.942
 4878WAT      O20217   6.438   2.701   2.795
 4878WAT     H120218   6.475   2.723   2.871
 4878WAT     H220219   6.493   2.732   2.735
 4878WAT    EPW20220   6.451   2.709   2.797
 4879WAT      O20221   6.718   1.923   1.280
 4879WAT     H120222   6.767   1.982   1.238
 4879WAT     H220223   6.639   1.961   1.285
 4879WAT    EPW20224   6.713   1.937   1.275
 4880WAT      O20225   5.834   2.232   1.275
 4880WAT     H120226   5.755   2.233   1.238
 4880WAT     H220227   5.849   2.317   1.293
 4880WAT    EPW20228   5.825   2.245   1.272
 4881WAT      O20229   5.533   1.848   2.239
 4881WAT     H120230   5.553   1.830   2.155
 4881WAT     H220231   5.576   1.786   2.283
 4881WAT    EPW20232   5.542   1.836   2.233
 4882WAT      O20233   6.232   1.795   2.738
 4882WAT     H120234   6.162   1.821   2.783
 4882WAT     H220235   6.292   1.783   2.800
 4882WAT    EPW20236   6.231   1.797   2.754
 4883WAT      O20237   6.254   1.919   2.382
 4883WAT     H120238   6.266   1.964   2.456
 4883WAT     H220239   6.246   1.836   2.410
 4883WAT    EPW20240   6.254   1.913   2.397
 4884WAT      O20241   5.950   2.953   2.742
 4884WAT     H120242   6.005   2.969   2.676
 4884WAT     H220243   5.987   2.886   2.783
 4884WAT    EPW20244   5.964   2.946   2.738
 4885WAT      O20245   6.487   1.807   1.653
 4885WAT     H120246   6.510   1.794   1.736
 4885WAT     H220247   6.561   1.834   1.615
 4885WAT    EPW20248   6.501   1.809   1.659
 4886WAT      O20249   5.811   1.406   2.238
 4886WAT     H120250   5.755   1.466   2.268
 4886WAT     H220251   5.791   1.401   2.153
 4886WAT    EPW20252   5.800   1.414   2.230
 4887WAT      O20253   6.633   1.411   1.791
 4887WAT     H120254   6.558   1.373   1.813
 4887WAT     H220255   6.624   1.424   1.705
 4887WAT    EPW20256   6.621   1.408   1.782
 4888WAT      O20257   6.622   2.197   1.618
 4888WAT     H120258   6.664   2.122   1.608
 4888WAT     H220259   6.538   2.175   1.613
 4888WAT    EPW20260   6.616   2.183   1.616
 4889WAT      O20261   5.955   2.405   2.742
 4889WAT     H120262   5.877   2.398   2.780
 4889WAT     H220263   5.950   2.481   2.698
 4889WAT    EPW20264   5.943   2.415   2.741
 4890WAT      O20265   4.942   1.394   2.792
 4890WAT     H120266   4.957   1.479   2.780
 4890WAT     H220267   4.874   1.392   2.847
 4890WAT    EPW20268   4.934   1.406   2.798
 4891WAT      O20269   5.562   3.046   2.304
 4891WAT     H120270   5.552   2.998   2.377
 4891WAT     H220271   5.503   3.013   2.250
 4891WAT    EPW20272   5.552   3.034   2.307
 4892WAT      O20273   5.362   1.655   1.572
 4892WAT     H120274   5.374   1.615   1.495
 4892WAT     H220275   5.283   1.628   1.597
 4892WAT    EPW20276   5.352   1.645   1.564
 4893WAT      O20277   6.272   2.402   1.877
 4893WAT     H120278   6.258   2.416   1.962
 4893WAT     H220279   6.300   2.320   1.874
 4893WAT    EPW20280   6.274   2.392   1.889
 4894WAT      O20281   6.014   2.323   1.810
 4894WAT     H120282   5.977   2.320   1.889
 4894WAT     H220283   6.095   2.352   1.825
 4894WAT    EPW20284   6.020   2.327   1.824
 4895WAT      O20285   5.964   2.645   2.600
 4895WAT     H120286   6.037   2.676   2.635
 4895WAT     H220287   5.986   2.626   2.518
 4895WAT    EPW20288   5.978   2.647   2.593
 4896WAT      O20289   6.809   1.920   2.778
 4896WAT     H120290   6.724   1.941   2.774
 4896WAT     H220291   6.837   1.933   2.697
 4896WAT    EPW20292   6.801   1.925   2.766
 4897WAT      O20293   6.293   2.049   2.625
 4897WAT     H120294   6.272   1.978   2.671
 4897WAT     H220295   6.368   2.075   2.660
 4897WAT    EPW20296   6.301   2.042   2.637
 4898WAT      O20297   6.055   2.208   3.091
 4898WAT     H120298   6.080   2.286   3.060
 4898WAT     H220299   5.972   2.222   3.114
 4898WAT    EPW20300   6.046   2.222   3.090
 4899WAT      O20301   6.405   3.014   2.133
 4899WAT     H120302   6.346   3.075   2.151
 4899WAT     H220303   6.468   3.028   2.192
 4899WAT    EPW20304   6.405   3.025   2.144
 4900WAT      O20305   6.043   2.540   2.351
 4900WAT     H120306   6.033   2.454   2.364
 4900WAT     H220307   6.123   2.556   2.382
 4900WAT    EPW20308   6.053   2.529   2.358
 4901WAT      O20309   6.575   2.745   3.035
 4901WAT     H120310   6.656   2.713   3.031
 4901WAT     H220311   6.541   2.706   3.105
 4901WAT    EPW20312   6.582   2.735   3.045
 4902WAT      O20313   5.397   1.860   2.647
 4902WAT     H120314   5.412   1.918   2.584
 4902WAT     H220315   5.471   1.814   2.652
 4902WAT    EPW20316   5.410   1.862   2.638
 4903WAT      O20317   5.209   1.676   2.556
 4903WAT     H120318   5.221   1.692   2.471
 4903WAT     H220319   5.267   1.729   2.595
 4903WAT    EPW20320   5.219   1.686   2.549
 4904WAT      O20321   6.712   1.941   1.559
 4904WAT     H120322   6.723   1.937   1.473
 4904WAT     H220323   6.790   1.917   1.590
 4904WAT    EPW20324   6.725   1.937   1.551
 4905WAT      O20325   5.351   1.397   2.840
 4905WAT     H120326   5.305   1.323   2.841
 4905WAT     H220327   5.356   1.417   2.755
 4905WAT    EPW20328   5.345   1.389   2.827
 4906WAT      O20329   6.124   2.691   1.725
 4906WAT     H120330   6.114   2.767   1.683
 4906WAT     H220331   6.054   2.645   1.702
 4906WAT    EPW20332   6.112   2.696   1.716
 4907WAT      O20333   6.631   2.083   2.490
 4907WAT     H120334   6.586   2.031   2.436
 4907WAT     H220335   6.598   2.063   2.568
 4907WAT    EPW20336   6.619   2.072   2.493
 4908WAT      O20337   5.122   2.214   2.541
 4908WAT     H120338   5.176   2.234   2.476
 4908WAT     H220339   5.105   2.129   2.527
 4908WAT    EPW20340   5.127   2.205   2.529
 4909WAT      O20341   5.254   1.816   1.228
 4909WAT     H120342   5.180   1.809   1.273
 4909WAT     H220343   5.260   1.740   1.186
 4909WAT    EPW20344   5.244   1.804   1.228
 4910WAT      O20345   6.119   1.439   2.890
 4910WAT     H120346   6.143   1.503   2.944
 4910WAT     H220347   6.037   1.422   2.913
 4910WAT    EPW20348   6.110   1.446   2.901
 4911WAT      O20349   6.124   1.544   1.962
 4911WAT     H120350   6.041   1.569   1.955
 4911WAT     H220351   6.135   1.491   1.893
 4911WAT    EPW20352   6.114   1.540   1.950
 4912WAT      O20353   5.575   2.709   1.373
 4912WAT     H120354   5.615   2.688   1.448
 4912WAT     H220355   5.490   2.697   1.391
 4912WAT    EPW20356   5.568   2.704   1.387
 4913WAT      O20357   6.412   1.598   2.266
 4913WAT     H120358   6.497   1.587   2.281
 4913WAT     H220359   6.380   1.615   2.346
 4913WAT    EPW20360   6.420   1.599   2.280
 4914WAT      O20361   5.645   2.147   2.649
 4914WAT     H120362   5.591   2.167   2.715
 4914WAT     H220363   5.594   2.107   2.592
 4914WAT    EPW20364   5.630   2.144   2.650
 4915WAT      O20365   6.534   2.030   2.013
 4915WAT     H120366   6.593   2.092   2.025
 4915WAT     H220367   6.473   2.068   1.963
 4915WAT    EPW20368   6.533   2.044   2.008
 4916WAT      O20369   6.571   2.824   1.760
 4916WAT     H120370   6.547   2.746   1.792
 4916WAT     H220371   6.602   2.805   1.681
 4916WAT    EPW20372   6.572   2.810   1.753
 4917WAT      O20373   5.318   2.638   1.440
 4917WAT     H120374   5.313   2.619   1.526
 4917WAT     H220375   5.312   2.559   1.402
 4917WAT    EPW20376   5.316   2.623   1.447
 4918WAT      O20377   5.625   2.457   1.255
 4918WAT     H120378   5.553   2.411   1.268
 4918WAT     H220379   5.606   2.535   1.288
 4918WAT    EPW20380   5.612   2.462   1.262
 4919WAT      O20381   5.556   1.282   2.478
 4919WAT     H120382   5.497   1.339   2.507
 4919WAT     H220383   5.627   1.300   2.525
 4919WAT    EPW20384   5.557   1.293   2.489
 4920WAT      O20385   6.739   1.367   2.493
 4920WAT     H120386   6.707   1.405   2.565
 4920WAT     H220387   6.817   1.337   2.518
 4920WAT    EPW20388   6.746   1.368   2.507
 4921WAT      O20389   6.043   1.538   2.314
 4921WAT     H120390   5.971   1.491   2.301
 4921WAT     H220391   6.107   1.487   2.282
 4921WAT    EPW20392   6.042   1.524   2.307
 4922WAT      O20393   6.296   2.634   2.415
 4922WAT     H120394   6.327   2.696   2.468
 4922WAT     H220395   6.288   2.674   2.338
 4922WAT    EPW20396   6.300   2.649   2.411
 4923WAT      O20397   6.268   3.001   2.873
 4923WAT     H120398   6.223   2.941   2.829
 4923WAT     H220399   6.212   3.067   2.881
 4923WAT    EPW20400   6.253   3.002   2.868
 4924WAT      O20401   5.834   1.973   2.787
 4924WAT     H120402   5.808   1.899   2.750
 4924WAT     H220403   5.786   2.034   2.747
 4924WAT    EPW20404   5.823   1.971   2.775
 4925WAT      O20405   5.813   1.316   1.343
 4925WAT     H120406   5.825   1.328   1.257
 4925WAT     H220407   5.726   1.313   1.351
 4925WAT    EPW20408   5.802   1.317   1.331
 4926WAT      O20409   6.730   2.520   2.431
 4926WAT     H120410   6.699   2.455   2.383
 4926WAT     H220411   6.685   2.590   2.402
 4926WAT    EPW20412   6.718   2.521   2.420
 4927WAT      O20413   5.680   2.921   2.921
 4927WAT     H120414   5.626   2.910   2.988
 4927WAT     H220415   5.731   2.850   2.924
 4927WAT    EPW20416   5.680   2.909   2.931
 4928WAT      O20417   6.615   2.749   2.329
 4928WAT     H120418   6.687   2.762   2.281
 4928WAT     H220419   6.561   2.708   2.275
 4928WAT    EPW20420   6.618   2.745   2.314
 4929WAT      O20421   5.337   1.432   2.566
 4929WAT     H120422   5.276   1.375   2.543
 4929WAT     H220423   5.297   1.509   2.557
 4929WAT    EPW20424   5.322   1.435   2.561
 4930WAT      O20425   6.239   1.402   2.174
 4930WAT     H120426   6.300   1.458   2.201
 4930WAT     H220427   6.202   1.442   2.106
 4930WAT    EPW20428   6.243   1.416   2.168
 4931WAT      O20429   5.332   2.980   2.946
 4931WAT     H120430   5.378   2.960   3.017
 4931WAT     H220431   5.253   2.997   2.977
 4931WAT    EPW20432   5.327   2.980   2.961
 4932WAT      O20433   6.174   1.935   1.961
 4932WAT     H120434   6.228   1.872   1.986
 4932WAT     H220435   6.135   1.960   2.035
 4932WAT    EPW20436   6.177   1.930   1.975
 4933WAT      O20437   5.195   1.816   1.879
 4933WAT     H120438   5.151   1.830   1.954
 4933WAT     H220439   5.241   1.744   1.895
 4933WAT    EPW20440   5.196   1.807   1.893
 4934WAT      O20441   5.128   2.659   2.708
 4934WAT     H120442   5.071   2.691   2.766
 4934WAT     H220443   5.202   2.700   2.728
 4934WAT    EPW20444   5.130   2.670   2.719
 4935WAT      O20445   6.375   2.053   1.584
 4935WAT     H120446   6.396   1.971   1.604
 4935WAT     H220447   6.299   2.046   1.542
 4935WAT    EPW20448   6.367   2.040   1.581
 4936WAT      O20449   5.440   2.976   1.642
 4936WAT     H120450   5.446   3.032   1.576
 4936WAT     H220451   5.520   2.942   1.649
 4936WAT    EPW20452   5.453   2.979   1.634
 4937WAT      O20453   5.745   2.172   1.530
 4937WAT     H120454   5.774   2.199   1.453
 4937WAT     H220455   5.818   2.149   1.573
 4937WAT    EPW20456   5.760   2.172   1.525
 4938WAT      O20457   6.651   3.006   1.191
 4938WAT     H120458   6.720   3.003   1.245
 4938WAT     H220459   6.629   2.923   1.181
 4938WAT    EPW20460   6.658   2.994   1.198
 4939WAT      O20461   6.655   2.252   2.900
 4939WAT     H120462   6.722   2.210   2.938
 4939WAT     H220463   6.693   2.296   2.835
 4939WAT    EPW20464   6.671   2.252   2.896
 4940WAT      O20465   6.315   2.606   1.537
 4940WAT     H120466   6.262   2.618   1.606
 4940WAT     H220467   6.266   2.557   1.483
 4940WAT    EPW20468   6.300   2.600   1.539
 4941WAT      O20469   6.687   1.706   3.013
 4941WAT     H120470   6.675   1.783   3.052
 4941WAT     H220471   6.608   1.686   2.983
 4941WAT    EPW20472   6.674   1.714   3.015
 4942WAT      O20473   6.760   1.836   2.300
 4942WAT     H120474   6.679   1.869   2.291
 4942WAT     H220475   6.746   1.750   2.306
 4942WAT    EPW20476   6.746   1.828   2.300
 4943WAT      O20477   5.619   1.486   2.910
 4943WAT     H120478   5.635   1.536   2.841
 4943WAT     H220479   5.545   1.445   2.890
 4943WAT    EPW20480   5.610   1.488   2.897
 4944WAT      O20481   6.432   2.317   3.126
 4944WAT     H120482   6.509   2.338   3.162
 4944WAT     H220483   6.442   2.341   3.043
 4944WAT    EPW20484   6.445   2.323   3.119
 4945WAT      O20485   5.348   2.918   2.138
 4945WAT     H120486   5.349   2.837   2.106
 4945WAT     H220487   5.349   2.968   2.066
 4945WAT    EPW20488   5.348   2.914   2.122
 4946WAT      O20489   5.951   2.468   1.379
 4946WAT     H120490   6.036   2.454   1.365
 4946WAT     H220491   5.936   2.543   1.337
 4946WAT    EPW20492   5.962   2.477   1.371
 4947WAT      O20493   6.061   1.950   0.348
 4947WAT     H120494   6.030   2.027   0.373
 4947WAT     H220495   6.127   1.935   0.403
 4947WAT    EPW20496   6.066   1.959   0.360
 4948WAT      O20497   5.114   2.637   0.531
 4948WAT     H120498   5.130   2.628   0.617
 4948WAT     H220499   5.057   2.572   0.515
 4948WAT    EPW20500   5.108   2.626   0.542
 4949WAT      O20501   5.720   2.461   0.996
 4949WAT     H120502   5.696   2.455   1.080
 4949WAT     H220503   5.647   2.443   0.952
 4949WAT    EPW20504   5.706   2.458   1.002
 4950WAT      O20505   5.671   1.738   0.559
 4950WAT     H120506   5.747   1.742   0.517
 4950WAT     H220507   5.648   1.654   0.551
 4950WAT    EPW20508   5.679   1.726   0.552
 4951WAT      O20509   5.693   2.747   0.727
 4951WAT     H120510   5.712   2.810   0.669
 4951WAT     H220511   5.771   2.720   0.755
 4951WAT    EPW20512   5.707   2.752   0.723
 4952WAT      O20513   6.011   2.030   0.925
 4952WAT     H120514   5.924   2.022   0.920
 4952WAT     H220515   6.023   2.073   1.000
 4952WAT    EPW20516   6.000   2.035   0.935
 4953WAT      O20517   6.426   1.207   0.826
 4953WAT     H120518   6.419   1.286   0.789
 4953WAT     H220519   6.361   1.206   0.884
 4953WAT    EPW20520   6.415   1.219   0.829
 4954WAT      O20521   5.057   1.992   0.343
 4954WAT     H120522   5.009   2.065   0.344
 4954WAT     H220523   5.001   1.929   0.366
 4954WAT    EPW20524   5.042   1.993   0.347
 4955WAT      O20525   5.327   1.376   0.381
 4955WAT     H120526   5.327   1.429   0.312
 4955WAT     H220527   5.386   1.315   0.360
 4955WAT    EPW20528   5.336   1.374   0.367
 4956WAT      O20529   5.657   1.642   1.190
 4956WAT     H120530   5.658   1.600   1.114
 4956WAT     H220531   5.705   1.713   1.174
 4956WAT    EPW20532   5.664   1.646   1.176
 4957WAT      O20533   6.285   2.936   0.594
 4957WAT     H120534   6.350   2.973   0.638
 4957WAT     H220535   6.311   2.943   0.511
 4957WAT    EPW20536   6.298   2.943   0.588
 4958WAT      O20537   5.256   1.557   1.112
 4958WAT     H120538   5.176   1.523   1.106
 4958WAT     H220539   5.298   1.521   1.044
 4958WAT    EPW20540   5.250   1.547   1.101
 4959WAT      O20541   5.849   1.356   1.073
 4959WAT     H120542   5.866   1.282   1.029
 4959WAT     H220543   5.776   1.386   1.035
 4959WAT    EPW20544   5.841   1.349   1.060
 4960WAT      O20545   5.504   2.983   0.654
 4960WAT     H120546   5.528   2.968   0.737
 4960WAT     H220547   5.448   2.919   0.637
 4960WAT    EPW20548   5.499   2.971   0.664
 4961WAT      O20549   6.780   1.516   0.459
 4961WAT     H120550   6.844   1.479   0.412
 4961WAT     H220551   6.778   1.467   0.531
 4961WAT    EPW20552   6.789   1.503   0.463
 4962WAT      O20553   4.991   1.663   0.873
 4962WAT     H120554   4.978   1.740   0.912
 4962WAT     H220555   5.053   1.680   0.814
 4962WAT    EPW20556   4.998   1.677   0.870
 4963WAT      O20557   6.207   2.691   0.904
 4963WAT     H120558   6.182   2.716   0.984
 4963WAT     H220559   6.293   2.677   0.913
 4963WAT    EPW20560   6.216   2.693   0.917
 4964WAT      O20561   5.321   2.818   0.507
 4964WAT     H120562   5.260   2.756   0.515
 4964WAT     H220563   5.352   2.805   0.427
 4964WAT    EPW20564   5.317   2.807   0.497
 4965WAT      O20565   6.030   3.002   0.676
 4965WAT     H120566   6.108   2.978   0.644
 4965WAT     H220567   5.973   2.967   0.621
 4965WAT    EPW20568   6.033   2.994   0.663
 4966WAT      O20569   5.444   2.702   0.856
 4966WAT     H120570   5.521   2.728   0.825
 4966WAT     H220571   5.434   2.747   0.930
 4966WAT    EPW20572   5.454   2.712   0.863
 4967WAT      O20573   5.657   2.338   0.257
 4967WAT     H120574   5.668   2.303   0.336
 4967WAT     H220575   5.659   2.270   0.203
 4967WAT    EPW20576   5.659   2.323   0.260
 4968WAT      O20577   6.217   1.653   0.672
 4968WAT     H120578   6.207   1.703   0.743
 4968WAT     H220579   6.148   1.601   0.674
 4968WAT    EPW20580   6.206   1.653   0.683
 4969WAT      O20581   5.713   2.282   0.525
 4969WAT     H120582   5.704   2.368   0.538
 4969WAT     H220583   5.690   2.247   0.601
 4969WAT    EPW20584   5.708   2.290   0.538
 4970WAT      O20585   6.289   2.427   0.494
 4970WAT     H120586   6.243   2.371   0.542
 4970WAT     H220587   6.285   2.501   0.539
 4970WAT    EPW20588   6.282   2.429   0.508
 4971WAT      O20589   4.947   2.708   1.187
 4971WAT     H120590   5.010   2.756   1.223
 4971WAT     H220591   4.961   2.628   1.220
 4971WAT    EPW20592   4.958   2.703   1.198
 4972WAT      O20593   6.627   1.669   0.772
 4972WAT     H120594   6.709   1.651   0.794
 4972WAT     H220595   6.588   1.681   0.850
 4972WAT    EPW20596   6.633   1.668   0.787
 4973WAT      O20597   5.253   1.807   0.426
 4973WAT     H120598   5.334   1.834   0.407
 4973WAT     H220599   5.202   1.869   0.392
 4973WAT    EPW20600   5.257   1.820   0.418
 4974WAT      O20601   6.872   2.801   0.907
 4974WAT     H120602   6.793   2.811   0.870
 4974WAT     H220603   6.856   2.753   0.978
 4974WAT    EPW20604   6.858   2.795   0.912
 4975WAT      O20605   5.811   1.876   1.180
 4975WAT     H120606   5.763   1.913   1.244
 4975WAT     H220607   5.790   1.922   1.110
 4975WAT    EPW20608   5.801   1.888   1.179
 4976WAT      O20609   6.895   1.923   0.657
 4976WAT     H120610   6.958   1.862   0.653
 4976WAT     H220611   6.836   1.895   0.599
 4976WAT    EPW20612   6.896   1.910   0.648
 4977WAT      O20613   5.439   2.486   0.359
 4977WAT     H120614   5.486   2.510   0.429
 4977WAT     H220615   5.495   2.441   0.310
 4977WAT    EPW20616   5.454   2.483   0.362
 4978WAT      O20617   6.619   2.834   0.786
 4978WAT     H120618   6.569   2.905   0.794
 4978WAT     H220619   6.609   2.812   0.702
 4978WAT    EPW20620   6.610   2.841   0.774
 4979WAT      O20621   5.367   2.012   1.064
 4979WAT     H120622   5.331   1.949   1.113
 4979WAT     H220623   5.367   1.978   0.984
 4979WAT    EPW20624   5.362   1.998   1.059
 4980WAT      O20625   5.424   2.072   0.596
 4980WAT     H120626   5.456   2.025   0.531
 4980WAT     H220627   5.375   2.132   0.555
 4980WAT    EPW20628   5.421   2.074   0.580
 4981WAT      O20629   6.483   1.796   0.370
 4981WAT     H120630   6.420   1.825   0.422
 4981WAT     H220631   6.450   1.807   0.290
 4981WAT    EPW20632   6.469   1.802   0.366
 4982WAT      O20633   5.811   2.915   0.531
 4982WAT     H120634   5.809   2.856   0.466
 4982WAT     H220635   5.795   2.990   0.490
 4982WAT    EPW20636   5.808   2.917   0.515
 4983WAT      O20637   6.026   1.439   0.705
 4983WAT     H120638   6.049   1.355   0.694
 4983WAT     H220639   6.045   1.453   0.789
 4983WAT    EPW20640   6.033   1.428   0.716
 4984WAT      O20641   5.207   2.231   1.114
 4984WAT     H120642   5.209   2.275   1.038
 4984WAT     H220643   5.260   2.163   1.100
 4984WAT    EPW20644   5.215   2.227   1.101
 4985WAT      O20645   6.391   2.384   0.951
 4985WAT     H120646   6.426   2.463   0.942
 4985WAT     H220647   6.420   2.341   0.880
 4985WAT    EPW20648   6.401   2.389   0.939
 4986WAT      O20649   5.781   2.736   1.024
 4986WAT     H120650   5.819   2.731   1.103
 4986WAT     H220651   5.763   2.652   1.005
 4986WAT    EPW20652   5.784   2.723   1.033
 4987WAT      O20653   5.895   1.734   0.403
 4987WAT     H120654   5.949   1.798   0.378
 4987WAT     H220655   5.943   1.662   0.394
 4987WAT    EPW20656   5.910   1.733   0.398
 4988WAT      O20657   6.407   2.702   0.216
 4988WAT     H120658   6.327   2.666   0.219
 4988WAT     H220659   6.394   2.782   0.248
 4988WAT    EPW20660   6.393   2.708   0.221
 4989WAT      O20661   6.181   2.539   0.261
 4989WAT     H120662   6.099   2.510   0.255
 4989WAT     H220663   6.215   2.492   0.327
 4989WAT    EPW20664   6.174   2.528   0.270
 4990WAT      O20665   6.501   2.249   0.729
 4990WAT     H120666   6.502   2.229   0.644
 4990WAT     H220667   6.583   2.274   0.745
 4990WAT    EPW20668   6.513   2.250   0.718
 4991WAT      O20669   6.175   2.812   1.160
 4991WAT     H120670   6.222   2.816   1.233
 4991WAT     H220671   6.195   2.885   1.118
 4991WAT    EPW20672   6.184   2.823   1.165
 4992WAT      O20673   6.673   1.277   0.938
 4992WAT     H120674   6.594   1.267   0.902
 4992WAT     H220675   6.666   1.240   1.016
 4992WAT    EPW20676   6.660   1.270   0.944
 4993WAT      O20677   6.117   2.274   0.657
 4993WAT     H120678   6.067   2.303   0.722
 4993WAT     H220679   6.159   2.206   0.692
 4993WAT    EPW20680   6.116   2.268   0.672
 4994WAT      O20681   6.532   2.525   0.389
 4994WAT     H120682   6.500   2.575   0.324
 4994WAT     H220683   6.461   2.484   0.419
 4994WAT    EPW20684   6.517   2.527   0.383
 4995WAT      O20685   5.921   2.440   0.306
 4995WAT     H120686   5.840   2.424   0.276
 4995WAT     H220687   5.944   2.365   0.343
 4995WAT    EPW20688   5.913   2.427   0.307
 4996WAT      O20689   5.271   2.262   0.452
 4996WAT     H120690   5.311   2.337   0.429
 4996WAT     H220691   5.237   2.234   0.377
 4996WAT    EPW20692   5.272   2.269   0.437
 4997WAT      O20693   6.542   2.119   0.480
 4997WAT     H120694   6.557   2.053   0.535
 4997WAT     H220695   6.467   2.097   0.442
 4997WAT    EPW20696   6.533   2.106   0.482
 4998WAT      O20697   5.221   2.354   0.869
 4998WAT     H120698   5.186   2.304   0.807
 4998WAT     H220699   5.195   2.434   0.848
 4998WAT    EPW20700   5.212   2.358   0.857
 4999WAT      O20701   6.774   2.209   0.352
 4999WAT     H120702   6.702   2.179   0.393
 4999WAT     H220703   6.743   2.238   0.276
 4999WAT    EPW20704   6.759   2.209   0.347
 5000WAT      O20705   6.438   1.643   0.994
 5000WAT     H120706   6.370   1.641   1.049
 5000WAT     H220707   6.418   1.581   0.935
 5000WAT    EPW20708   6.425   1.633   0.994
 5001WAT      O20709   6.809   2.838   0.396
 5001WAT     H120710   6.834   2.837   0.312
 5001WAT     H220711   6.863   2.782   0.434
 5001WAT    EPW20712   6.821   2.830   0.389
 5002WAT      O20713   6.313   1.980   1.100
 5002WAT     H120714   6.356   1.985   1.176
 5002WAT     H220715   6.242   2.030   1.114
 5002WAT    EPW20716   6.309   1.988   1.113
 5003WAT      O20717   6.550   2.006   0.944
 5003WAT     H120718   6.575   2.087   0.964
 5003WAT     H220719   6.477   1.995   0.990
 5003WAT    EPW20720   6.543   2.016   0.953
 5004WAT      O20721   6.871   2.094   1.128
 5004WAT     H120722   6.875   2.040   1.060
 5004WAT     H220723   6.949   2.133   1.128
 5004WAT    EPW20724   6.883   2.092   1.118
 5005WAT      O20725   6.759   2.342   0.764
 5005WAT     H120726   6.824   2.287   0.743
 5005WAT     H220727   6.756   2.397   0.697
 5005WAT    EPW20728   6.768   2.342   0.751
 5006WAT      O20729   5.653   2.556   0.529
 5006WAT     H120730   5.659   2.606   0.599
 5006WAT     H220731   5.690   2.604   0.466
 5006WAT    EPW20732   5.659   2.570   0.530
 5007WAT      O20733   5.488   2.423   0.847
 5007WAT     H120734   5.407   2.393   0.859
 5007WAT     H220735   5.477   2.510   0.843
 5007WAT    EPW20736   5.475   2.432   0.848
 5008WAT      O20737   6.417   1.481   0.762
 5008WAT     H120738   6.491   1.522   0.740
 5008WAT     H220739   6.355   1.528   0.723
 5008WAT    EPW20740   6.419   1.494   0.753
 5009WAT      O20741   5.965   2.201   0.441
 5009WAT     H120742   6.017   2.220   0.508
 5009WAT     H220743   5.885   2.211   0.473
 5009WAT    EPW20744   5.961   2.205   0.455
 5010WAT      O20745   5.617   1.768   0.828
 5010WAT     H120746   5.623   1.687   0.862
 5010WAT     H220747   5.643   1.757   0.745
 5010WAT    EPW20748   5.622   1.754   0.821
 5011WAT      O20749   6.526   1.260   0.530
 5011WAT     H120750   6.505   1.341   0.506
 5011WAT     H220751   6.604   1.270   0.568
 5011WAT    EPW20752   6.535   1.273   0.532
 5012WAT      O20753   5.756   1.354   0.755
 5012WAT     H120754   5.841   1.363   0.739
 5012WAT     H220755   5.747   1.269   0.774
 5012WAT    EPW20756   5.767   1.343   0.755
 5013WAT      O20757   5.725   2.731   0.321
 5013WAT     H120758   5.646   2.743   0.285
 5013WAT     H220759   5.776   2.712   0.254
 5013WAT    EPW20760   5.721   2.730   0.306
 5014WAT      O20761   6.139   2.398   1.057
 5014WAT     H120762   6.216   2.396   1.017
 5014WAT     H220763   6.081   2.407   0.992
 5014WAT    EPW20764   6.142   2.399   1.042
 5015WAT      O20765   6.478   2.648   0.934
 5015WAT     H120766   6.509   2.673   1.011
 5015WAT     H220767   6.522   2.697   0.877
 5015WAT    EPW20768   6.489   2.659   0.937
 5016WAT      O20769   5.518   1.898   0.397
 5016WAT     H120770   5.558   1.895   0.320
 5016WAT     H220771   5.567   1.846   0.447
 5016WAT    EPW20772   5.531   1.890   0.393
 5017WAT      O20773   6.200   1.838   0.879
 5017WAT     H120774   6.129   1.887   0.891
 5017WAT     H220775   6.245   1.847   0.953
 5017WAT    EPW20776   6.196   1.846   0.892
 5018WAT      O20777   6.270   1.882   0.520
 5018WAT     H120778   6.279   1.940   0.585
 5018WAT     H220779   6.249   1.808   0.561
 5018WAT    EPW20780   6.268   1.880   0.535
 5019WAT      O20781   5.964   2.934   0.935
 5019WAT     H120782   5.975   2.937   0.848
 5019WAT     H220783   5.920   2.860   0.947
 5019WAT    EPW20784   5.959   2.924   0.924
 5020WAT      O20785   5.764   1.332   0.375
 5020WAT     H120786   5.714   1.381   0.427
 5020WAT     H220787   5.707   1.293   0.322
 5020WAT    EPW20788   5.748   1.333   0.375
 5021WAT      O20789   5.954   2.404   0.851
 5021WAT     H120790   5.880   2.401   0.897
 5021WAT     H220791   5.955   2.485   0.820
 5021WAT    EPW20792   5.943   2.416   0.853
 5022WAT      O20793   5.010   1.430   1.024
 5022WAT     H120794   5.004   1.503   0.976
 5022WAT     H220795   4.937   1.387   1.006
 5022WAT    EPW20796   4.999   1.435   1.014
 5023WAT      O20797   5.520   3.031   0.372
 5023WAT     H120798   5.522   3.016   0.458
 5023WAT     H220799   5.503   2.953   0.337
 5023WAT    EPW20800   5.518   3.017   0.379
 5024WAT      O20801   5.958   2.667   0.769
 5024WAT     H120802   6.036   2.683   0.803
 5024WAT     H220803   5.973   2.663   0.683
 5024WAT    EPW20804   5.971   2.669   0.761
 5025WAT      O20805   6.822   1.915   0.923
 5025WAT     H120806   6.735   1.926   0.929
 5025WAT     H220807   6.838   1.927   0.838
 5025WAT    EPW20808   6.811   1.919   0.911
 5026WAT      O20809   6.283   2.063   0.728
 5026WAT     H120810   6.268   2.004   0.790
 5026WAT     H220811   6.357   2.102   0.755
 5026WAT    EPW20812   6.292   2.060   0.741
 5027WAT      O20813   5.180   3.023   0.914
 5027WAT     H120814   5.132   2.950   0.918
 5027WAT     H220815   5.122   3.087   0.915
 5027WAT    EPW20816   5.165   3.021   0.915
 5028WAT      O20817   6.077   2.154   1.169
 5028WAT     H120818   6.104   2.230   1.137
 5028WAT     H220819   5.997   2.170   1.198
 5028WAT    EPW20820   6.069   2.167   1.168
 5029WAT      O20821   6.374   2.961   0.332
 5029WAT     H120822   6.333   3.036   0.314
 5029WAT     H220823   6.445   2.987   0.376
 5029WAT    EPW20824   6.378   2.976   0.336
 5030WAT      O20825   5.987   2.645   0.496
 5030WAT     H120826   5.967   2.582   0.439
 5030WAT     H220827   6.074   2.648   0.493
 5030WAT    EPW20828   5.997   2.636   0.487
 5031WAT      O20829   6.598   2.736   1.166
 5031WAT     H120830   6.680   2.707   1.159
 5031WAT     H220831   6.568   2.696   1.237
 5031WAT    EPW20832   6.606   2.726   1.175
 5032WAT      O20833   5.372   1.896   0.808
 5032WAT     H120834   5.385   1.954   0.745
 5032WAT     H220835   5.449   1.855   0.815
 5032WAT    EPW20836   5.385   1.898   0.800
 5033WAT      O20837   5.196   1.727   0.680
 5033WAT     H120838   5.213   1.746   0.597
 5033WAT     H220839   5.254   1.774   0.725
 5033WAT    EPW20840   5.207   1.737   0.674
 5034WAT      O20841   5.373   1.408   0.905
 5034WAT     H120842   5.327   1.334   0.913
 5034WAT     H220843   5.362   1.430   0.822
 5034WAT    EPW20844   5.365   1.400   0.894
 5035WAT      O20845   6.575   1.927   0.675
 5035WAT     H120846   6.591   1.842   0.689
 5035WAT     H220847   6.562   1.958   0.756
 5035WAT    EPW20848   6.576   1.919   0.689
 5036WAT      O20849   5.100   2.201   0.672
 5036WAT     H120850   5.144   2.220   0.599
 5036WAT     H220851   5.078   2.117   0.662
 5036WAT    EPW20852   5.104   2.192   0.660
 5037WAT      O20853   6.082   1.474   0.976
 5037WAT     H120854   6.120   1.530   1.031
 5037WAT     H220855   6.009   1.450   1.018
 5037WAT    EPW20856   6.077   1.479   0.990
 5038WAT      O20857   6.499   1.520   0.417
 5038WAT     H120858   6.586   1.513   0.416
 5038WAT     H220859   6.485   1.605   0.408
 5038WAT    EPW20860   6.510   1.531   0.415
 5039WAT      O20861   5.612   2.184   0.765
 5039WAT     H120862   5.577   2.259   0.793
 5039WAT     H220863   5.549   2.149   0.717
 5039WAT    EPW20864   5.598   2.190   0.762
 5040WAT      O20865   5.607   1.473   0.555
 5040WAT     H120866   5.521   1.465   0.572
 5040WAT     H220867   5.644   1.428   0.619
 5040WAT    EPW20868   5.600   1.465   0.567
 5041WAT      O20869   6.766   1.328   0.667
 5041WAT     H120870   6.747   1.313   0.751
 5041WAT     H220871   6.845   1.292   0.658
 5041WAT    EPW20872   6.775   1.320   0.678
 5042WAT      O20873   6.013   1.475   0.418
 5042WAT     H120874   5.944   1.428   0.391
 5042WAT     H220875   6.010   1.467   0.504
 5042WAT    EPW20876   6.002   1.467   0.426
 5043WAT      O20877   6.251   2.664   0.624
 5043WAT     H120878   6.241   2.662   0.711
 5043WAT     H220879   6.275   2.746   0.608
 5043WAT    EPW20880   6.253   2.676   0.634
 5044WAT      O20881   6.221   3.031   0.990
 5044WAT     H120882   6.147   2.997   0.959
 5044WAT     H220883   6.200   3.114   1.008
 5044WAT    EPW20884   6.207   3.038   0.988
 5045WAT      O20885   5.735   1.996   0.936
 5045WAT     H120886   5.701   1.924   0.900
 5045WAT     H220887   5.698   2.061   0.892
 5045WAT    EPW20888   5.725   1.995   0.924
 5046WAT      O20889   6.772   2.446   0.500
 5046WAT     H120890   6.785   2.371   0.458
 5046WAT     H220891   6.698   2.476   0.466
 5046WAT    EPW20892   6.763   2.439   0.489
 5047WAT      O20893   5.630   2.964   0.936
 5047WAT     H120894   5.612   2.981   1.020
 5047WAT     H220895   5.677   2.891   0.939
 5047WAT    EPW20896   5.634   2.956   0.949
 5048WAT      O20897   6.575   2.769   0.525
 5048WAT     H120898   6.642   2.799   0.478
 5048WAT     H220899   6.555   2.693   0.486
 5048WAT    EPW20900   6.582   2.762   0.512
 5049WAT      O20901   5.338   1.482   0.643
 5049WAT     H120902   5.312   1.439   0.571
 5049WAT     H220903   5.287   1.552   0.645
 5049WAT    EPW20904   5.327   1.486   0.632
 5050WAT      O20905   6.266   1.362   0.337
 5050WAT     H120906   6.328   1.421   0.357
 5050WAT     H220907   6.192   1.403   0.356
 5050WAT    EPW20908   6.264   1.377   0.343
 5051WAT      O20909   5.343   2.857   1.082
 5051WAT     H120910   5.410   2.896   1.124
 5051WAT     H220911   5.308   2.922   1.035
 5051WAT    EPW20912   5.348   2.873   1.081
 5052WAT      O20913   5.182   2.619   0.797
 5052WAT     H120914   5.130   2.674   0.840
 5052WAT     H220915   5.262   2.652   0.811
 5052WAT    EPW20916   5.187   2.632   0.806
 5053WAT      O20917   6.668   2.248   1.018
 5053WAT     H120918   6.737   2.213   1.059
 5053WAT     H220919   6.703   2.292   0.951
 5053WAT    EPW20920   6.683   2.249   1.014
 5054WAT      O20921   6.682   1.693   1.115
 5054WAT     H120922   6.679   1.771   1.154
 5054WAT     H220923   6.601   1.681   1.087
 5054WAT    EPW20924   6.670   1.703   1.117
 5055WAT      O20925   6.756   1.796   0.444
 5055WAT     H120926   6.671   1.804   0.425
 5055WAT     H220927   6.768   1.710   0.451
 5055WAT    EPW20928   6.745   1.785   0.442
 5056WAT      O20929   5.632   1.505   0.943
 5056WAT     H120930   5.673   1.465   0.877
 5056WAT     H220931   5.552   1.471   0.941
 5056WAT    EPW20932   5.626   1.494   0.933
 5057WAT      O20933   6.450   2.304   1.231
 5057WAT     H120934   6.528   2.325   1.263
 5057WAT     H220935   6.459   2.316   1.145
 5057WAT    EPW20936   6.463   2.309   1.223
 5058WAT      O20937   5.446   2.753   0.255
 5058WAT     H120938   5.432   2.669   0.276
 5058WAT     H220939   5.412   2.759   0.175
 5058WAT    EPW20940   5.439   2.741   0.246
 5059WAT      O20941   5.144   3.011   0.627
 5059WAT     H120942   5.178   3.011   0.708
 5059WAT     H220943   5.200   2.963   0.581
 5059WAT    EPW20944   5.157   3.004   0.633
 5060WAT      O20945   5.118   0.579   7.454
 5060WAT     H120946   5.107   0.602   7.537
 5060WAT     H220947   5.089   0.497   7.450
 5060WAT    EPW20948   5.112   0.571   7.466
 5061WAT      O20949   6.693   0.940   7.207
 5061WAT     H120950   6.756   0.887   7.237
 5061WAT     H220951   6.647   0.889   7.153
 5061WAT    EPW20952   6.695   0.925   7.204
 5062WAT      O20953   5.316   0.527   7.018
 5062WAT     H120954   5.284   0.477   6.954
 5062WAT     H220955   5.323   0.473   7.086
 5062WAT    EPW20956   5.312   0.512   7.018
 5063WAT      O20957   6.416   0.202   7.510
 5063WAT     H120958   6.434   0.216   7.426
 5063WAT     H220959   6.422   0.116   7.518
 5063WAT    EPW20960   6.420   0.192   7.499
 5064WAT      O20961   5.342   0.741   7.399
 5064WAT     H120962   5.402   0.743   7.462
 5064WAT     H220963   5.288   0.677   7.424
 5064WAT    EPW20964   5.343   0.731   7.412
 5065WAT      O20965   5.160   0.942   6.956
 5065WAT     H120966   5.213   0.957   6.888
 5065WAT     H220967   5.209   0.894   7.010
 5065WAT    EPW20968   5.175   0.937   6.954
 5066WAT      O20969   5.236   0.280   7.594
 5066WAT     H120970   5.191   0.269   7.520
 5066WAT     H220971   5.250   0.199   7.621
 5066WAT    EPW20972   5.231   0.266   7.587
 5067WAT      O20973   5.792   0.716   7.672
 5067WAT     H120974   5.832   0.646   7.705
 5067WAT     H220975   5.850   0.780   7.685
 5067WAT    EPW20976   5.807   0.715   7.679
 5068WAT      O20977   5.917   0.664   7.341
 5068WAT     H120978   5.948   0.599   7.390
 5068WAT     H220979   5.946   0.645   7.260
 5068WAT    EPW20980   5.926   0.652   7.336
 5069WAT      O20981   5.069   1.059   7.634
 5069WAT     H120982   4.999   1.100   7.604
 5069WAT     H220983   5.106   1.025   7.563
 5069WAT    EPW20984   5.064   1.060   7.619
 5070WAT      O20985   5.661   0.763   7.319
 5070WAT     H120986   5.633   0.776   7.401
 5070WAT     H220987   5.742   0.734   7.330
 5070WAT    EPW20988   5.669   0.760   7.333
 5071WAT      O20989   6.280   1.047   7.104
 5071WAT     H120990   6.350   1.098   7.116
 5071WAT     H220991   6.306   0.970   7.136
 5071WAT    EPW20992   6.294   1.043   7.111
 5072WAT      O20993   6.066   1.062   7.273
 5072WAT     H120994   6.080   1.132   7.322
 5072WAT     H220995   6.135   1.059   7.219
 5072WAT    EPW20996   6.078   1.072   7.272
 5073WAT      O20997   5.189   0.968   7.399
 5073WAT     H120998   5.243   0.900   7.410
 5073WAT     H220999   5.240   1.028   7.360
 5073WAT    EPW21000   5.205   0.967   7.395
 5074WAT      O21001   5.398   0.718   7.782
 5074WAT     H121002   5.444   0.769   7.729
 5074WAT     H221003   5.415   0.638   7.753
 5074WAT    EPW21004   5.407   0.714   7.770
 5075WAT      O21005   5.649   1.070   7.605
 5075WAT     H121006   5.727   1.109   7.597
 5075WAT     H221007   5.592   1.135   7.589
 5075WAT    EPW21008   5.652   1.086   7.602
 5076WAT      O21009   6.479   1.245   7.097
 5076WAT     H121010   6.522   1.222   7.025
 5076WAT     H221011   6.536   1.295   7.140
 5076WAT    EPW21012   6.493   1.249   7.093
 5077WAT      O21013   5.961   0.863   6.929
 5077WAT     H121014   5.924   0.921   6.982
 5077WAT     H221015   6.035   0.902   6.904
 5077WAT    EPW21016   5.967   0.877   6.933
 5078WAT      O21017   6.734   1.171   7.481
 5078WAT     H121018   6.695   1.248   7.488
 5078WAT     H221019   6.669   1.116   7.463
 5078WAT    EPW21020   6.719   1.174   7.480
 5079WAT      O21021   6.415   0.753   7.449
 5079WAT     H121022   6.488   0.706   7.460
 5079WAT     H221023   6.360   0.717   7.507
 5079WAT    EPW21024   6.418   0.740   7.459
 5080WAT      O21025   6.661   0.532   7.059
 5080WAT     H121026   6.674   0.494   7.136
 5080WAT     H221027   6.742   0.553   7.033
 5080WAT    EPW21028   6.675   0.529   7.066
 5081WAT      O21029   5.423   0.493   7.613
 5081WAT     H121030   5.470   0.488   7.540
 5081WAT     H221031   5.369   0.424   7.607
 5081WAT    EPW21032   5.422   0.482   7.601
 5082WAT      O21033   5.304   1.119   7.773
 5082WAT     H121034   5.229   1.108   7.730
 5082WAT     H221035   5.354   1.160   7.714
 5082WAT    EPW21036   5.300   1.123   7.758
 5083WAT      O21037   6.409   0.127   6.982
 5083WAT     H121038   6.433   0.202   6.944
 5083WAT     H221039   6.334   0.147   7.022
 5083WAT    EPW21040   6.402   0.141   6.983
 5084WAT      O21041   5.551   0.495   7.356
 5084WAT     H121042   5.576   0.576   7.334
 5084WAT     H221043   5.618   0.446   7.329
 5084WAT    EPW21044   5.565   0.500   7.349
 5085WAT      O21045   5.132   0.665   7.721
 5085WAT     H121046   5.090   0.730   7.762
 5085WAT     H221047   5.216   0.682   7.737
 5085WAT    EPW21048   5.138   0.677   7.729
 5086WAT      O21049   5.092   0.290   7.347
 5086WAT     H121050   5.084   0.207   7.321
 5086WAT     H221051   5.163   0.318   7.305
 5086WAT    EPW21052   5.101   0.282   7.337
 5087WAT      O21053   5.988   0.920   7.703
 5087WAT     H121054   5.957   1.000   7.693
 5087WAT     H221055   6.024   0.901   7.626
 5087WAT    EPW21056   5.989   0.929   7.690
 5088WAT      O21057   5.027   0.777   7.273
 5088WAT     H121058   5.077   0.842   7.305
 5088WAT     H221059   5.034   0.714   7.333
 5088WAT    EPW21060   5.035   0.778   7.287
 5089WAT      O21061   5.041   0.639   7.027
 5089WAT     H121062   5.120   0.603   7.025
 5089WAT     H221063   5.043   0.686   7.101
 5089WAT    EPW21064   5.053   0.641   7.038
 5090WAT      O21065   5.059   0.402   7.772
 5090WAT     H121066   5.114   0.356   7.723
 5090WAT     H221067   5.090   0.484   7.767
 5090WAT    EPW21068   5.071   0.408   7.764
 5091WAT      O21069   5.559   0.814   7.572
 5091WAT     H121070   5.580   0.898   7.583
 5091WAT     H221071   5.627   0.772   7.609
 5091WAT    EPW21072   5.572   0.820   7.579
 5092WAT      O21073   5.269   0.027   7.710
 5092WAT     H121074   5.279   0.034   7.796
 5092WAT     H221075   5.280  -0.058   7.694
 5092WAT    EPW21076   5.272   0.016   7.720
 5093WAT      O21077   6.199   0.259   7.128
 5093WAT     H121078   6.155   0.282   7.056
 5093WAT     H221079   6.138   0.260   7.190
 5093WAT    EPW21080   6.184   0.263   7.127
 5094WAT      O21081   6.648   0.606   7.483
 5094WAT     H121082   6.657   0.569   7.562
 5094WAT     H221083   6.664   0.541   7.427
 5094WAT    EPW21084   6.651   0.591   7.487
 5095WAT      O21085   6.113   0.715   7.856
 5095WAT     H121086   6.077   0.787   7.824
 5095WAT     H221087   6.111   0.727   7.943
 5095WAT    EPW21088   6.107   0.727   7.864
 5096WAT      O21089   5.642   1.042   7.272
 5096WAT     H121090   5.652   0.961   7.304
 5096WAT     H221091   5.706   1.049   7.213
 5096WAT    EPW21092   5.653   1.031   7.268
 5097WAT      O21093   5.856   1.052   7.099
 5097WAT     H121094   5.921   1.053   7.157
 5097WAT     H221095   5.858   1.132   7.064
 5097WAT    EPW21096   5.866   1.064   7.102
 5098WAT      O21097   5.344   0.354   7.233
 5098WAT     H121098   5.390   0.284   7.209
 5098WAT     H221099   5.401   0.401   7.280
 5098WAT    EPW21100   5.359   0.351   7.237
 5099WAT      O21101   6.008   0.266   7.336
 5099WAT     H121102   6.024   0.333   7.391
 5099WAT     H221103   6.013   0.196   7.388
 5099WAT    EPW21104   6.011   0.266   7.352
 5100WAT      O21105   5.944   0.506   7.779
 5100WAT     H121106   5.925   0.458   7.849
 5100WAT     H221107   6.004   0.563   7.808
 5100WAT    EPW21108   5.950   0.507   7.793
 5101WAT      O21109   5.537   1.094   6.910
 5101WAT     H121110   5.562   1.020   6.949
 5101WAT     H221111   5.548   1.154   6.972
 5101WAT    EPW21112   5.542   1.092   6.925
 5102WAT      O21113   6.842   1.118   7.063
 5102WAT     H121114   6.906   1.067   7.032
 5102WAT     H221115   6.793   1.063   7.109
 5102WAT    EPW21116   6.844   1.102   7.065
 5103WAT      O21117   5.366   0.131   6.811
 5103WAT     H121118   5.352   0.048   6.837
 5103WAT     H221119   5.447   0.127   6.778
 5103WAT    EPW21120   5.376   0.118   6.810
 5104WAT      O21121   6.675   0.495   7.740
 5104WAT     H121122   6.685   0.563   7.794
 5104WAT     H221123   6.748   0.449   7.751
 5104WAT    EPW21124   6.687   0.499   7.750
 5105WAT      O21125   6.892   0.875   7.832
 5105WAT     H121126   6.896   0.927   7.763
 5105WAT     H221127   6.962   0.897   7.879
 5105WAT    EPW21128   6.903   0.886   7.829
 5106WAT      O21129   6.542   0.780   7.046
 5106WAT     H121130   6.575   0.699   7.049
 5106WAT     H221131   6.467   0.773   7.090
 5106WAT    EPW21132   6.536   0.767   7.053
 5107WAT      O21133   6.257   0.572   7.004
 5107WAT     H121134   6.317   0.509   7.000
 5107WAT     H221135   6.228   0.578   6.922
 5107WAT    EPW21136   6.262   0.563   6.992
 5108WAT      O21137   5.908   1.194   7.606
 5108WAT     H121138   5.881   1.274   7.627
 5108WAT     H221139   5.975   1.209   7.551
 5108WAT    EPW21140   5.914   1.208   7.601
 5109WAT      O21141   5.811   0.438   6.991
 5109WAT     H121142   5.739   0.480   6.964
 5109WAT     H221143   5.864   0.501   7.017
 5109WAT    EPW21144   5.808   0.453   6.991
 5110WAT      O21145   6.702   0.400   7.302
 5110WAT     H121146   6.771   0.348   7.310
 5110WAT     H221147   6.636   0.344   7.290
 5110WAT    EPW21148   6.702   0.384   7.302
 5111WAT      O21149   6.259   0.606   7.633
 5111WAT     H121150   6.226   0.642   7.705
 5111WAT     H221151   6.307   0.540   7.663
 5111WAT    EPW21152   6.261   0.602   7.648
 5112WAT      O21153   6.040   0.479   7.512
 5112WAT     H121154   5.997   0.474   7.588
 5112WAT     H221155   6.115   0.517   7.534
 5112WAT    EPW21156   6.044   0.484   7.527
 5113WAT      O21157   6.401   1.185   7.748
 5113WAT     H121158   6.342   1.136   7.790
 5113WAT     H221159   6.477   1.154   7.777
 5113WAT    EPW21160   6.404   1.173   7.758
 5114WAT      O21161   6.083   0.854   7.455
 5114WAT     H121162   6.084   0.917   7.395
 5114WAT     H221163   6.031   0.793   7.420
 5114WAT    EPW21164   6.075   0.855   7.441
 5115WAT      O21165   5.583   0.843   7.037
 5115WAT     H121166   5.628   0.837   7.111
 5115WAT     H221167   5.500   0.835   7.063
 5115WAT    EPW21168   5.577   0.841   7.051
 5116WAT      O21169   6.412   0.394   7.716
 5116WAT     H121170   6.496   0.416   7.726
 5116WAT     H221171   6.415   0.333   7.654
 5116WAT    EPW21172   6.425   0.388   7.709
 5117WAT      O21173   6.513   1.013   7.402
 5117WAT     H121174   6.478   0.937   7.428
 5117WAT     H221175   6.564   0.990   7.335
 5117WAT    EPW21176   6.515   0.998   7.396
 5118WAT      O21177   5.329   0.786   7.120
 5118WAT     H121178   5.332   0.775   7.207
 5118WAT     H221179   5.322   0.705   7.089
 5118WAT    EPW21180   5.328   0.772   7.128
 5119WAT      O21181   5.588   0.592   6.919
 5119WAT     H121182   5.508   0.566   6.939
 5119WAT     H221183   5.592   0.673   6.952
 5119WAT    EPW21184   5.577   0.600   6.927
 5120WAT      O21185   6.469   0.249   7.237
 5120WAT     H121186   6.485   0.194   7.171
 5120WAT     H221187   6.391   0.282   7.218
 5120WAT    EPW21188   6.460   0.245   7.225
 5121WAT      O21189   5.385   1.139   7.292
 5121WAT     H121190   5.375   1.188   7.221
 5121WAT     H221191   5.465   1.105   7.283
 5121WAT    EPW21192   5.395   1.142   7.281
 5122WAT      O21193   5.749   0.336   7.242
 5122WAT     H121194   5.766   0.361   7.160
 5122WAT     H221195   5.826   0.310   7.272
 5122WAT    EPW21196   5.763   0.336   7.234
 5123WAT      O21197   6.636   1.173   6.883
 5123WAT     H121198   6.707   1.159   6.932
 5123WAT     H221199   6.613   1.093   6.857
 5123WAT    EPW21200   6.643   1.159   6.886
 5124WAT      O21201   6.312   0.785   7.191
 5124WAT     H121202   6.330   0.764   7.274
 5124WAT     H221203   6.281   0.711   7.157
 5124WAT    EPW21204   6.310   0.771   7.198
 5125WAT      O21205   5.307   0.923   7.977
 5125WAT     H121206   5.341   0.856   7.933
 5125WAT     H221207   5.319   0.991   7.923
 5125WAT    EPW21208   5.314   0.923   7.963
 5126WAT      O21209   5.992   0.627   7.076
 5126WAT     H121210   6.073   0.600   7.059
 5126WAT     H221211   5.984   0.700   7.029
 5126WAT    EPW21212   6.003   0.634   7.066
 5127WAT      O21213   5.098   0.549   5.545
 5127WAT     H121214   5.097   0.579   5.627
 5127WAT     H221215   5.118   0.465   5.554
 5127WAT    EPW21216   5.101   0.541   5.559
 5128WAT      O21217   6.671   0.968   5.320
 5128WAT     H121218   6.744   0.927   5.344
 5128WAT     H221219   6.631   0.910   5.269
 5128WAT    EPW21220   6.675   0.954   5.316
 5129WAT      O21221   5.322   0.523   5.121
 5129WAT     H121222   5.286   0.473   5.059
 5129WAT     H221223   5.340   0.467   5.185
 5129WAT    EPW21224   5.319   0.508   5.121
 5130WAT      O21225   6.372   0.274   5.644
 5130WAT     H121226   6.410   0.257   5.567
 5130WAT     H221227   6.314   0.209   5.652
 5130WAT    EPW21228   6.369   0.262   5.633
 5131WAT      O21229   5.324   0.698   5.495
 5131WAT     H121230   5.373   0.664   5.559
 5131WAT     H221231   5.250   0.652   5.499
 5131WAT    EPW21232   5.320   0.686   5.505
 5132WAT      O21233   5.149   0.939   5.075
 5132WAT     H121234   5.204   0.960   5.010
 5132WAT     H221235   5.197   0.890   5.128
 5132WAT    EPW21236   5.164   0.935   5.073
 5133WAT      O21237   5.112   0.780   6.213
 5133WAT     H121238   5.135   0.765   6.296
 5133WAT     H221239   5.041   0.729   6.203
 5133WAT    EPW21240   5.105   0.770   6.224
 5134WAT      O21241   5.717   0.634   6.669
 5134WAT     H121242   5.686   0.616   6.749
 5134WAT     H221243   5.648   0.619   6.617
 5134WAT    EPW21244   5.702   0.629   6.673
 5135WAT      O21245   5.254   0.338   5.753
 5135WAT     H121246   5.242   0.295   5.678
 5135WAT     H221247   5.306   0.285   5.799
 5135WAT    EPW21248   5.260   0.324   5.749
 5136WAT      O21249   5.705   0.917   6.388
 5136WAT     H121250   5.720   0.982   6.333
 5136WAT     H221251   5.785   0.892   6.413
 5136WAT    EPW21252   5.719   0.923   6.384
 5137WAT      O21253   5.843   0.745   5.807
 5137WAT     H121254   5.866   0.664   5.830
 5137WAT     H221255   5.919   0.788   5.805
 5137WAT    EPW21256   5.857   0.740   5.810
 5138WAT      O21257   5.932   0.688   5.450
 5138WAT     H121258   5.953   0.618   5.498
 5138WAT     H221259   5.954   0.665   5.369
 5138WAT    EPW21260   5.938   0.674   5.445
 5139WAT      O21261   5.083   1.042   5.757
 5139WAT     H121262   5.017   1.085   5.719
 5139WAT     H221263   5.125   1.006   5.689
 5139WAT    EPW21264   5.079   1.043   5.741
 5140WAT      O21265   5.668   0.753   5.423
 5140WAT     H121266   5.638   0.767   5.503
 5140WAT     H221267   5.752   0.734   5.435
 5140WAT    EPW21268   5.676   0.752   5.436
 5141WAT      O21269   6.254   1.063   5.228
 5141WAT     H121270   6.324   1.115   5.233
 5141WAT     H221271   6.286   0.985   5.250
 5141WAT    EPW21272   6.269   1.059   5.232
 5142WAT      O21273   6.073   1.120   5.427
 5142WAT     H121274   6.092   1.199   5.457
 5142WAT     H221275   6.132   1.108   5.363
 5142WAT    EPW21276   6.085   1.130   5.422
 5143WAT      O21277   5.212   0.950   5.524
 5143WAT     H121278   5.259   0.876   5.530
 5143WAT     H221279   5.265   1.003   5.480
 5143WAT    EPW21280   5.227   0.947   5.519
 5144WAT      O21281   6.295   1.099   6.222
 5144WAT     H121282   6.364   1.152   6.212
 5144WAT     H221283   6.282   1.067   6.142
 5144WAT    EPW21284   6.303   1.102   6.209
 5145WAT      O21285   5.379   0.800   5.855
 5145WAT     H121286   5.441   0.794   5.793
 5145WAT     H221287   5.395   0.732   5.907
 5145WAT    EPW21288   5.390   0.789   5.853
 5146WAT      O21289   5.651   1.074   5.776
 5146WAT     H121290   5.728   1.093   5.739
 5146WAT     H221291   5.596   1.130   5.739
 5146WAT    EPW21292   5.654   1.085   5.765
 5147WAT      O21293   6.453   1.260   5.209
 5147WAT     H121294   6.498   1.235   5.139
 5147WAT     H221295   6.512   1.303   5.257
 5147WAT    EPW21296   6.468   1.262   5.206
 5148WAT      O21297   5.487   1.164   6.408
 5148WAT     H121298   5.536   1.133   6.473
 5148WAT     H221299   5.429   1.101   6.394
 5148WAT    EPW21300   5.485   1.150   6.416
 5149WAT      O21301   6.193   0.847   6.606
 5149WAT     H121302   6.192   0.881   6.686
 5149WAT     H221303   6.277   0.826   6.594
 5149WAT    EPW21304   6.205   0.849   6.616
 5150WAT      O21305   5.958   0.881   5.050
 5150WAT     H121306   5.928   0.938   5.108
 5150WAT     H221307   6.031   0.918   5.020
 5150WAT    EPW21308   5.964   0.895   5.054
 5151WAT      O21309   5.267   1.019   6.253
 5151WAT     H121310   5.216   0.949   6.246
 5151WAT     H221311   5.312   1.020   6.178
 5151WAT    EPW21312   5.266   1.009   6.241
 5152WAT      O21313   6.049   1.131   6.335
 5152WAT     H121314   6.126   1.124   6.296
 5152WAT     H221315   5.992   1.126   6.269
 5152WAT    EPW21316   6.052   1.129   6.320
 5153WAT      O21317   6.750   1.164   5.600
 5153WAT     H121318   6.715   1.242   5.615
 5153WAT     H221319   6.680   1.112   5.587
 5153WAT    EPW21320   6.734   1.168   5.600
 5154WAT      O21321   6.458   0.765   5.641
 5154WAT     H121322   6.520   0.714   5.608
 5154WAT     H221323   6.386   0.715   5.639
 5154WAT    EPW21324   6.456   0.750   5.636
 5155WAT      O21325   5.444   0.877   6.516
 5155WAT     H121326   5.524   0.903   6.493
 5155WAT     H221327   5.430   0.920   6.590
 5155WAT    EPW21328   5.454   0.887   6.524
 5156WAT      O21329   5.637   0.410   5.940
 5156WAT     H121330   5.655   0.413   6.025
 5156WAT     H221331   5.578   0.346   5.934
 5156WAT    EPW21332   5.631   0.401   5.952
 5157WAT      O21333   5.693   0.460   6.205
 5157WAT     H121334   5.676   0.545   6.210
 5157WAT     H221335   5.631   0.424   6.255
 5157WAT    EPW21336   5.681   0.467   6.213
 5158WAT      O21337   6.300   0.536   6.210
 5158WAT     H121338   6.244   0.501   6.267
 5158WAT     H221339   6.293   0.622   6.225
 5158WAT    EPW21340   6.291   0.543   6.220
 5159WAT      O21341   4.954   0.837   6.784
 5159WAT     H121342   5.012   0.840   6.849
 5159WAT     H221343   4.943   0.751   6.770
 5159WAT    EPW21344   4.961   0.824   6.792
 5160WAT      O21345   6.656   0.527   5.173
 5160WAT     H121346   6.670   0.479   5.244
 5160WAT     H221347   6.735   0.558   5.153
 5160WAT    EPW21348   6.670   0.525   5.180
 5161WAT      O21349   5.439   0.542   5.696
 5161WAT     H121350   5.495   0.506   5.640
 5161WAT     H221351   5.383   0.478   5.714
 5161WAT    EPW21352   5.439   0.528   5.690
 5162WAT      O21353   5.280   1.210   5.852
 5162WAT     H121354   5.210   1.168   5.822
 5162WAT     H221355   5.331   1.218   5.782
 5162WAT    EPW21356   5.277   1.205   5.838
 5163WAT      O21357   6.850   0.971   6.548
 5163WAT     H121358   6.773   0.968   6.507
 5163WAT     H221359   6.834   0.930   6.623
 5163WAT    EPW21360   6.836   0.965   6.553
 5164WAT      O21361   6.396   0.119   5.073
 5164WAT     H121362   6.425   0.196   5.043
 5164WAT     H221363   6.327   0.141   5.121
 5164WAT    EPW21364   6.390   0.134   5.075
 5165WAT      O21365   5.587   0.483   5.464
 5165WAT     H121366   5.610   0.564   5.439
 5165WAT     H221367   5.650   0.433   5.431
 5165WAT    EPW21368   5.600   0.488   5.456
 5166WAT      O21369   5.125   0.705   5.787
 5166WAT     H121370   5.073   0.762   5.828
 5166WAT     H221371   5.205   0.737   5.800
 5166WAT    EPW21372   5.129   0.718   5.795
 5167WAT      O21373   5.189   0.268   5.493
 5167WAT     H121374   5.164   0.190   5.463
 5167WAT     H221375   5.250   0.293   5.435
 5167WAT    EPW21376   5.194   0.260   5.480
 5168WAT      O21377   6.065   0.916   5.782
 5168WAT     H121378   6.018   0.987   5.762
 5168WAT     H221379   6.100   0.892   5.706
 5168WAT    EPW21380   6.063   0.923   5.768
 5169WAT      O21381   5.019   0.790   5.390
 5169WAT     H121382   5.075   0.843   5.432
 5169WAT     H221383   4.997   0.731   5.450
 5169WAT    EPW21384   5.024   0.789   5.405
 5170WAT      O21385   5.441   0.595   6.028
 5170WAT     H121386   5.489   0.638   6.086
 5170WAT     H221387   5.499   0.551   5.981
 5170WAT    EPW21388   5.457   0.595   6.030
 5171WAT      O21389   5.037   0.630   5.154
 5171WAT     H121390   5.117   0.595   5.150
 5171WAT     H221391   5.040   0.682   5.223
 5171WAT    EPW21392   5.049   0.632   5.163
 5172WAT      O21393   5.067   0.470   5.913
 5172WAT     H121394   5.111   0.416   5.860
 5172WAT     H221395   5.091   0.549   5.887
 5172WAT    EPW21396   5.077   0.474   5.902
 5173WAT      O21397   6.599   0.969   6.409
 5173WAT     H121398   6.558   1.046   6.414
 5173WAT     H221399   6.599   0.951   6.324
 5173WAT    EPW21400   6.593   0.978   6.397
 5174WAT      O21401   5.604   0.820   5.681
 5174WAT     H121402   5.612   0.904   5.701
 5174WAT     H221403   5.672   0.782   5.721
 5174WAT    EPW21404   5.615   0.827   5.690
 5175WAT      O21405   5.418   0.231   5.956
 5175WAT     H121406   5.368   0.276   6.012
 5175WAT     H221407   5.434   0.156   5.997
 5175WAT    EPW21408   5.413   0.227   5.970
 5176WAT      O21409   5.824   1.102   6.176
 5176WAT     H121410   5.805   1.034   6.125
 5176WAT     H221411   5.811   1.171   6.124
 5176WAT    EPW21412   5.820   1.102   6.161
 5177WAT      O21413   5.210   0.361   6.828
 5177WAT     H121414   5.219   0.404   6.753
 5177WAT     H221415   5.258   0.289   6.816
 5177WAT    EPW21416   5.218   0.357   6.815
 5178WAT      O21417   6.423   0.517   6.649
 5178WAT     H121418   6.445   0.599   6.627
 5178WAT     H221419   6.458   0.470   6.584
 5178WAT    EPW21420   6.432   0.523   6.636
 5179WAT      O21421   5.816   0.895   6.696
 5179WAT     H121422   5.858   0.884   6.771
 5179WAT     H221423   5.782   0.816   6.679
 5179WAT    EPW21424   5.817   0.882   6.704
 5180WAT      O21425   6.207   0.250   5.244
 5180WAT     H121426   6.164   0.279   5.174
 5180WAT     H221427   6.145   0.244   5.305
 5180WAT    EPW21428   6.191   0.253   5.243
 5181WAT      O21429   6.653   0.582   5.568
 5181WAT     H121430   6.655   0.548   5.648
 5181WAT     H221431   6.660   0.512   5.516
 5181WAT    EPW21432   6.654   0.567   5.572
 5182WAT      O21433   6.259   0.967   5.977
 5182WAT     H121434   6.195   0.946   5.921
 5182WAT     H221435   6.297   1.035   5.939
 5182WAT    EPW21436   6.255   0.974   5.963
 5183WAT      O21437   6.247   0.605   5.943
 5183WAT     H121438   6.176   0.652   5.962
 5183WAT     H221439   6.262   0.559   6.015
 5183WAT    EPW21440   6.239   0.605   5.956
 5184WAT      O21441   5.679   1.033   5.422
 5184WAT     H121442   5.681   0.947   5.431
 5184WAT     H221443   5.737   1.049   5.359
 5184WAT    EPW21444   5.688   1.023   5.414
 5185WAT      O21445   5.876   1.072   5.233
 5185WAT     H121446   5.938   1.097   5.289
 5185WAT     H221447   5.860   1.144   5.186
 5185WAT    EPW21448   5.883   1.086   5.235
 5186WAT      O21449   6.551   0.380   6.441
 5186WAT     H121450   6.538   0.377   6.355
 5186WAT     H221451   6.634   0.405   6.448
 5186WAT    EPW21452   6.561   0.383   6.429
 5187WAT      O21453   6.194   0.995   6.847
 5187WAT     H121454   6.228   1.012   6.925
 5187WAT     H221455   6.219   1.063   6.798
 5187WAT    EPW21456   6.203   1.007   6.851
 5188WAT      O21457   5.397   0.345   5.321
 5188WAT     H121458   5.448   0.283   5.288
 5188WAT     H221459   5.451   0.393   5.369
 5188WAT    EPW21460   5.412   0.343   5.323
 5189WAT      O21461   6.107   0.422   6.378
 5189WAT     H121462   6.061   0.474   6.430
 5189WAT     H221463   6.134   0.358   6.430
 5189WAT    EPW21464   6.104   0.420   6.393
 5190WAT      O21465   6.005   0.247   5.446
 5190WAT     H121466   6.011   0.318   5.495
 5190WAT     H221467   5.986   0.183   5.503
 5190WAT    EPW21468   6.003   0.248   5.461
 5191WAT      O21469   6.501   0.728   5.920
 5191WAT     H121470   6.495   0.759   5.839
 5191WAT     H221471   6.422   0.694   5.935
 5191WAT    EPW21472   6.488   0.728   5.910
 5192WAT      O21473   5.897   0.474   5.858
 5192WAT     H121474   5.814   0.448   5.870
 5192WAT     H221475   5.933   0.461   5.936
 5192WAT    EPW21476   5.890   0.468   5.871
 5193WAT      O21477   5.536   1.101   5.024
 5193WAT     H121478   5.562   1.027   5.063
 5193WAT     H221479   5.539   1.160   5.088
 5193WAT    EPW21480   5.541   1.099   5.039
 5194WAT      O21481   5.254   0.405   6.106
 5194WAT     H121482   5.311   0.470   6.094
 5194WAT     H221483   5.187   0.426   6.053
 5194WAT    EPW21484   5.253   0.418   6.096
 5195WAT      O21485   6.829   1.133   5.167
 5195WAT     H121486   6.889   1.078   5.136
 5195WAT     H221487   6.776   1.081   5.213
 5195WAT    EPW21488   6.830   1.117   5.169
 5196WAT      O21489   6.544   0.424   6.157
 5196WAT     H121490   6.530   0.373   6.088
 5196WAT     H221491   6.466   0.461   6.171
 5196WAT    EPW21492   6.530   0.422   6.149
 5197WAT      O21493   5.366   0.125   4.919
 5197WAT     H121494   5.352   0.043   4.947
 5197WAT     H221495   5.440   0.119   4.873
 5197WAT    EPW21496   5.375   0.112   4.917
 5198WAT      O21497   5.233   0.515   6.596
 5198WAT     H121498   5.213   0.468   6.526
 5198WAT     H221499   5.197   0.593   6.579
 5198WAT    EPW21500   5.224   0.519   6.583
 5199WAT      O21501   6.665   0.512   5.833
 5199WAT     H121502   6.633   0.579   5.878
 5199WAT     H221503   6.744   0.500   5.868
 5199WAT    EPW21504   6.672   0.520   5.845
 5200WAT      O21505   6.855   0.929   5.987
 5200WAT     H121506   6.887   0.983   5.927
 5200WAT     H221507   6.919   0.924   6.046
 5200WAT    EPW21508   6.869   0.936   5.987
 5201WAT      O21509   6.544   0.781   5.167
 5201WAT     H121510   6.575   0.700   5.171
 5201WAT     H221511   6.468   0.776   5.210
 5201WAT    EPW21512   6.537   0.768   5.174
 5202WAT      O21513   6.807   0.346   6.829
 5202WAT     H121514   6.778   0.264   6.829
 5202WAT     H221515   6.892   0.337   6.846
 5202WAT    EPW21516   6.815   0.332   6.831
 5203WAT      O21517   6.807   0.490   6.421
 5203WAT     H121518   6.878   0.448   6.392
 5203WAT     H221519   6.787   0.543   6.355
 5203WAT    EPW21520   6.815   0.491   6.407
 5204WAT      O21521   6.254   0.585   5.107
 5204WAT     H121522   6.313   0.520   5.108
 5204WAT     H221523   6.228   0.587   5.024
 5204WAT    EPW21524   6.259   0.576   5.095
 5205WAT      O21525   5.626   0.731   6.189
 5205WAT     H121526   5.638   0.778   6.262
 5205WAT     H221527   5.656   0.783   6.126
 5205WAT    EPW21528   5.632   0.746   6.191
 5206WAT      O21529   5.484   0.603   6.524
 5206WAT     H121530   5.410   0.576   6.562
 5206WAT     H221531   5.471   0.689   6.513
 5206WAT    EPW21532   5.471   0.612   6.528
 5207WAT      O21533   5.962   0.460   6.138
 5207WAT     H121534   6.010   0.434   6.205
 5207WAT     H221535   5.880   0.452   6.167
 5207WAT    EPW21536   5.957   0.455   6.152
 5208WAT      O21537   5.911   1.130   5.681
 5208WAT     H121538   5.899   1.215   5.695
 5208WAT     H221539   5.934   1.126   5.597
 5208WAT    EPW21540   5.912   1.142   5.670
 5209WAT      O21541   5.726   0.909   6.001
 5209WAT     H121542   5.687   0.962   5.944
 5209WAT     H221543   5.774   0.857   5.950
 5209WAT    EPW21544   5.727   0.909   5.985
 5210WAT      O21545   6.159   0.532   6.744
 5210WAT     H121546   6.237   0.527   6.703
 5210WAT     H221547   6.107   0.568   6.684
 5210WAT    EPW21548   6.163   0.537   6.729
 5211WAT      O21549   6.466   0.792   6.587
 5211WAT     H121550   6.495   0.830   6.660
 5211WAT     H221551   6.506   0.837   6.523
 5211WAT    EPW21552   6.477   0.804   6.588
 5212WAT      O21553   5.816   0.449   5.097
 5212WAT     H121554   5.743   0.491   5.071
 5212WAT     H221555   5.868   0.513   5.124
 5212WAT    EPW21556   5.813   0.464   5.097
 5213WAT      O21557   5.970   1.115   6.603
 5213WAT     H121558   5.981   1.111   6.517
 5213WAT     H221559   5.932   1.039   6.622
 5213WAT    EPW21560   5.966   1.103   6.593
 5214WAT      O21561   6.703   0.368   5.400
 5214WAT     H121562   6.775   0.323   5.418
 5214WAT     H221563   6.641   0.307   5.396
 5214WAT    EPW21564   6.704   0.352   5.402
 5215WAT      O21565   5.967   0.597   6.541
 5215WAT     H121566   5.890   0.597   6.582
 5215WAT     H221567   5.969   0.675   6.502
 5215WAT    EPW21568   5.956   0.609   6.541
 5216WAT      O21569   5.533   1.243   6.136
 5216WAT     H121570   5.518   1.227   6.221
 5216WAT     H221571   5.503   1.171   6.096
 5216WAT    EPW21572   5.526   1.230   6.143
 5217WAT      O21573   6.276   0.542   5.674
 5217WAT     H121574   6.269   0.554   5.760
 5217WAT     H221575   6.316   0.464   5.667
 5217WAT    EPW21576   6.281   0.532   5.685
 5218WAT      O21577   6.018   0.473   5.605
 5218WAT     H121578   5.978   0.470   5.683
 5218WAT     H221579   6.099   0.497   5.624
 5218WAT    EPW21580   6.024   0.476   5.620
 5219WAT      O21581   5.987   0.858   6.425
 5219WAT     H121582   6.050   0.857   6.485
 5219WAT     H221583   6.013   0.920   6.369
 5219WAT    EPW21584   6.000   0.867   6.425
 5220WAT      O21585   5.145   1.187   6.612
 5220WAT     H121586   5.089   1.123   6.594
 5220WAT     H221587   5.094   1.251   6.641
 5220WAT    EPW21588   5.129   1.187   6.613
 5221WAT      O21589   6.053   0.321   6.899
 5221WAT     H121590   6.084   0.382   6.846
 5221WAT     H221591   5.971   0.347   6.915
 5221WAT    EPW21592   6.045   0.334   6.894
 5222WAT      O21593   6.367   1.217   5.917
 5222WAT     H121594   6.306   1.276   5.938
 5222WAT     H221595   6.430   1.230   5.977
 5222WAT    EPW21596   6.368   1.228   5.929
 5223WAT      O21597   6.027   0.722   6.071
 5223WAT     H121598   6.000   0.645   6.100
 5223WAT     H221599   6.078   0.752   6.136
 5223WAT    EPW21600   6.030   0.715   6.085
 5224WAT      O21601   6.574   0.914   6.810
 5224WAT     H121602   6.657   0.888   6.801
 5224WAT     H221603   6.548   0.873   6.882
 5224WAT    EPW21604   6.582   0.904   6.820
 5225WAT      O21605   6.137   0.858   5.519
 5225WAT     H121606   6.115   0.938   5.492
 5225WAT     H221607   6.067   0.810   5.500
 5225WAT    EPW21608   6.124   0.863   5.512
 5226WAT      O21609   5.178   0.363   6.365
 5226WAT     H121610   5.193   0.382   6.282
 5226WAT     H221611   5.155   0.278   6.363
 5226WAT    EPW21612   5.177   0.353   6.353
 5227WAT      O21613   5.579   0.853   5.162
 5227WAT     H121614   5.621   0.832   5.235
 5227WAT     H221615   5.495   0.841   5.182
 5227WAT    EPW21616   5.573   0.848   5.175
 5228WAT      O21617   5.475   0.381   6.359
 5228WAT     H121618   5.484   0.451   6.411
 5228WAT     H221619   5.389   0.367   6.357
 5228WAT    EPW21620   5.464   0.390   6.366
 5229WAT      O21621   6.496   0.309   5.902
 5229WAT     H121622   6.553   0.369   5.876
 5229WAT     H221623   6.456   0.285   5.828
 5229WAT    EPW21624   6.498   0.314   5.887
 5230WAT      O21625   6.513   1.022   5.543
 5230WAT     H121626   6.489   0.945   5.574
 5230WAT     H221627   6.550   1.003   5.466
 5230WAT    EPW21628   6.515   1.008   5.536
 5231WAT      O21629   5.324   0.779   5.226
 5231WAT     H121630   5.325   0.762   5.312
 5231WAT     H221631   5.321   0.700   5.189
 5231WAT    EPW21632   5.323   0.765   5.233
 5232WAT      O21633   5.592   0.605   5.033
 5232WAT     H121634   5.510   0.576   5.047
 5232WAT     H221635   5.592   0.685   5.068
 5232WAT    EPW21636   5.580   0.612   5.041
 5233WAT      O21637   6.260   0.811   6.211
 5233WAT     H121638   6.286   0.874   6.265
 5233WAT     H221639   6.271   0.845   6.131
 5233WAT    EPW21640   6.266   0.825   6.207
 5234WAT      O21641   6.241   1.187   6.644
 5234WAT     H121642   6.166   1.149   6.620
 5234WAT     H221643   6.218   1.269   6.662
 5234WAT    EPW21644   6.227   1.193   6.643
 5235WAT      O21645   6.737   0.628   6.188
 5235WAT     H121646   6.680   0.565   6.169
 5235WAT     H221647   6.692   0.701   6.178
 5235WAT    EPW21648   6.722   0.629   6.184
 5236WAT      O21649   5.627   1.098   6.643
 5236WAT     H121650   5.603   1.109   6.726
 5236WAT     H221651   5.689   1.037   6.648
 5236WAT    EPW21652   5.633   1.091   6.656
 5237WAT      O21653   6.618   0.876   6.133
 5237WAT     H121654   6.688   0.905   6.089
 5237WAT     H221655   6.568   0.842   6.070
 5237WAT    EPW21656   6.621   0.875   6.117
 5238WAT      O21657   5.327   1.011   6.741
 5238WAT     H121658   5.386   1.051   6.791
 5238WAT     H221659   5.281   1.077   6.707
 5238WAT    EPW21660   5.329   1.026   6.744
 5239WAT      O21661   5.181   0.773   6.482
 5239WAT     H121662   5.122   0.834   6.505
 5239WAT     H221663   5.257   0.815   6.488
 5239WAT    EPW21664   5.183   0.788   6.486
 5240WAT      O21665   6.462   0.213   5.378
 5240WAT     H121666   6.479   0.137   5.338
 5240WAT     H221667   6.393   0.244   5.335
 5240WAT    EPW21668   6.454   0.206   5.366
 5241WAT      O21669   5.415   1.110   5.400
 5241WAT     H121670   5.419   1.172   5.339
 5241WAT     H221671   5.497   1.079   5.404
 5241WAT    EPW21672   5.428   1.114   5.391
 5242WAT      O21673   5.757   0.313   5.330
 5242WAT     H121674   5.776   0.348   5.252
 5242WAT     H221675   5.835   0.287   5.360
 5242WAT    EPW21676   5.771   0.315   5.323
 5243WAT      O21677   6.611   1.177   4.998
 5243WAT     H121678   6.685   1.167   5.043
 5243WAT     H221679   6.592   1.096   4.972
 5243WAT    EPW21680   6.619   1.163   5.001
 5244WAT      O21681   6.833   0.582   6.684
 5244WAT     H121682   6.813   0.511   6.731
 5244WAT     H221683   6.811   0.559   6.603
 5244WAT    EPW21684   6.827   0.568   6.679
 5245WAT      O21685   6.303   0.797   5.297
 5245WAT     H121686   6.260   0.796   5.373
 5245WAT     H221687   6.268   0.730   5.253
 5245WAT    EPW21688   6.291   0.787   5.302
 5246WAT      O21689   6.466   0.396   6.907
 5246WAT     H121690   6.536   0.433   6.943
 5246WAT     H221691   6.463   0.430   6.827
 5246WAT    EPW21692   6.476   0.406   6.900
 5247WAT      O21693   5.402   1.028   6.013
 5247WAT     H121694   5.403   0.954   5.966
 5247WAT     H221695   5.361   1.085   5.961
 5247WAT    EPW21696   5.396   1.025   5.998
 5248WAT      O21697   5.992   0.640   5.186
 5248WAT     H121698   6.072   0.612   5.163
 5248WAT     H221699   5.983   0.713   5.140
 5248WAT    EPW21700   6.003   0.647   5.176
 5249WAT      O21701   5.153   1.258   6.342
 5249WAT     H121702   5.157   1.238   6.427
 5249WAT     H221703   5.185   1.186   6.303
 5249WAT    EPW21704   5.158   1.244   6.349
 5250WAT      O21705   5.039   0.659   3.681
 5250WAT     H121706   5.048   0.686   3.763
 5250WAT     H221707   4.959   0.625   3.679
 5250WAT    EPW21708   5.029   0.658   3.693
 5251WAT      O21709   6.666   0.951   3.419
 5251WAT     H121710   6.740   0.915   3.448
 5251WAT     H221711   6.630   0.888   3.371
 5251WAT    EPW21712   6.672   0.936   3.416
 5252WAT      O21713   5.310   0.521   3.240
 5252WAT     H121714   5.278   0.468   3.178
 5252WAT     H221715   5.319   0.469   3.309
 5252WAT    EPW21716   5.307   0.506   3.241
 5253WAT      O21717   6.374   0.270   3.745
 5253WAT     H121718   6.409   0.253   3.667
 5253WAT     H221719   6.311   0.210   3.752
 5253WAT    EPW21720   6.370   0.258   3.735
 5254WAT      O21721   5.302   0.714   3.612
 5254WAT     H121722   5.350   0.669   3.669
 5254WAT     H221723   5.221   0.684   3.626
 5254WAT    EPW21724   5.297   0.703   3.623
 5255WAT      O21725   5.143   0.940   3.180
 5255WAT     H121726   5.199   0.965   3.118
 5255WAT     H221727   5.193   0.894   3.235
 5255WAT    EPW21728   5.159   0.937   3.179
 5256WAT      O21729   5.113   0.800   4.334
 5256WAT     H121730   5.127   0.778   4.417
 5256WAT     H221731   5.045   0.750   4.310
 5256WAT    EPW21732   5.105   0.789   4.343
 5257WAT      O21733   5.721   0.643   4.783
 5257WAT     H121734   5.689   0.628   4.863
 5257WAT     H221735   5.654   0.625   4.731
 5257WAT    EPW21736   5.706   0.638   4.787
 5258WAT      O21737   5.212   0.352   3.814
 5258WAT     H121738   5.177   0.309   3.746
 5258WAT     H221739   5.261   0.292   3.853
 5258WAT    EPW21740   5.214   0.336   3.810
 5259WAT      O21741   5.685   0.876   4.520
 5259WAT     H121742   5.666   0.955   4.488
 5259WAT     H221743   5.772   0.879   4.530
 5259WAT    EPW21744   5.695   0.888   4.516
 5260WAT      O21745   5.836   0.757   3.924
 5260WAT     H121746   5.860   0.676   3.945
 5260WAT     H221747   5.912   0.799   3.914
 5260WAT    EPW21748   5.851   0.751   3.925
 5261WAT      O21749   5.923   0.670   3.561
 5261WAT     H121750   5.947   0.601   3.608
 5261WAT     H221751   5.945   0.647   3.479
 5261WAT    EPW21752   5.929   0.656   3.556
 5262WAT      O21753   5.056   1.078   3.844
 5262WAT     H121754   4.990   1.116   3.802
 5262WAT     H221755   5.105   1.045   3.779
 5262WAT    EPW21756   5.053   1.079   3.828
 5263WAT      O21757   5.658   0.741   3.544
 5263WAT     H121758   5.631   0.757   3.625
 5263WAT     H221759   5.741   0.717   3.555
 5263WAT    EPW21760   5.667   0.740   3.557
 5264WAT      O21761   6.274   1.053   3.332
 5264WAT     H121762   6.341   1.108   3.340
 5264WAT     H221763   6.308   0.976   3.357
 5264WAT    EPW21764   6.289   1.050   3.337
 5265WAT      O21765   6.074   1.079   3.517
 5265WAT     H121766   6.082   1.150   3.567
 5265WAT     H221767   6.140   1.086   3.461
 5265WAT    EPW21768   6.085   1.091   3.516
 5266WAT      O21769   5.226   0.983   3.634
 5266WAT     H121770   5.262   0.904   3.643
 5266WAT     H221771   5.288   1.029   3.594
 5266WAT    EPW21772   5.241   0.978   3.629
 5267WAT      O21773   6.292   1.099   4.321
 5267WAT     H121774   6.358   1.154   4.308
 5267WAT     H221775   6.273   1.069   4.241
 5267WAT    EPW21776   6.299   1.103   4.308
 5268WAT      O21777   5.367   0.805   3.956
 5268WAT     H121778   5.430   0.801   3.896
 5268WAT     H221779   5.385   0.738   4.009
 5268WAT    EPW21780   5.379   0.795   3.955
 5269WAT      O21781   5.634   1.079   3.910
 5269WAT     H121782   5.712   1.098   3.875
 5269WAT     H221783   5.581   1.138   3.874
 5269WAT    EPW21784   5.638   1.090   3.900
 5270WAT      O21785   6.458   1.264   3.321
 5270WAT     H121786   6.501   1.233   3.251
 5270WAT     H221787   6.519   1.309   3.364
 5270WAT    EPW21788   6.474   1.266   3.317
 5271WAT      O21789   5.547   1.117   4.465
 5271WAT     H121790   5.555   1.132   4.551
 5271WAT     H221791   5.467   1.083   4.457
 5271WAT    EPW21792   5.536   1.114   4.477
 5272WAT      O21793   6.185   0.860   4.720
 5272WAT     H121794   6.186   0.895   4.800
 5272WAT     H221795   6.268   0.838   4.707
 5272WAT    EPW21796   6.197   0.862   4.730
 5273WAT      O21797   5.960   0.855   3.154
 5273WAT     H121798   5.926   0.913   3.210
 5273WAT     H221799   6.033   0.894   3.126
 5273WAT    EPW21800   5.966   0.869   3.158
 5274WAT      O21801   5.289   1.023   4.367
 5274WAT     H121802   5.238   0.952   4.366
 5274WAT     H221803   5.320   1.026   4.286
 5274WAT    EPW21804   5.286   1.013   4.355
 5275WAT      O21805   6.053   1.140   4.449
 5275WAT     H121806   6.130   1.131   4.409
 5275WAT     H221807   5.996   1.143   4.383
 5275WAT    EPW21808   6.056   1.139   4.433
 5276WAT      O21809   6.744   1.164   3.699
 5276WAT     H121810   6.708   1.242   3.714
 5276WAT     H221811   6.675   1.112   3.686
 5276WAT    EPW21812   6.728   1.168   3.699
 5277WAT      O21813   6.457   0.767   3.742
 5277WAT     H121814   6.518   0.714   3.708
 5277WAT     H221815   6.385   0.719   3.739
 5277WAT    EPW21816   6.456   0.752   3.737
 5278WAT      O21817   5.426   0.866   4.655
 5278WAT     H121818   5.506   0.892   4.631
 5278WAT     H221819   5.409   0.916   4.725
 5278WAT    EPW21820   5.435   0.877   4.662
 5279WAT      O21821   5.626   0.412   4.026
 5279WAT     H121822   5.639   0.405   4.112
 5279WAT     H221823   5.563   0.355   4.010
 5279WAT    EPW21824   5.619   0.403   4.036
 5280WAT      O21825   5.681   0.449   4.296
 5280WAT     H121826   5.669   0.535   4.300
 5280WAT     H221827   5.622   0.417   4.350
 5280WAT    EPW21828   5.671   0.457   4.304
 5281WAT      O21829   6.299   0.537   4.312
 5281WAT     H121830   6.241   0.504   4.370
 5281WAT     H221831   6.293   0.623   4.324
 5281WAT    EPW21832   6.290   0.545   4.322
 5282WAT      O21833   4.955   0.850   4.887
 5282WAT     H121834   5.011   0.853   4.954
 5282WAT     H221835   4.950   0.765   4.868
 5282WAT    EPW21836   4.962   0.838   4.894
 5283WAT      O21837   6.682   0.493   3.256
 5283WAT     H121838   6.687   0.451   3.332
 5283WAT     H221839   6.753   0.544   3.256
 5283WAT    EPW21840   6.693   0.494   3.267
 5284WAT      O21841   5.421   0.538   3.789
 5284WAT     H121842   5.472   0.501   3.729
 5284WAT     H221843   5.355   0.481   3.797
 5284WAT    EPW21844   5.418   0.524   3.781
 5285WAT      O21845   5.258   1.230   3.957
 5285WAT     H121846   5.186   1.198   3.920
 5285WAT     H221847   5.314   1.237   3.890
 5285WAT    EPW21848   5.256   1.226   3.942
 5286WAT      O21849   6.841   0.982   4.648
 5286WAT     H121850   6.765   0.978   4.607
 5286WAT     H221851   6.828   0.939   4.722
 5286WAT    EPW21852   6.828   0.975   4.653
 5287WAT      O21853   6.383   0.105   3.187
 5287WAT     H121854   6.415   0.178   3.152
 5287WAT     H221855   6.314   0.133   3.233
 5287WAT    EPW21856   6.378   0.120   3.189
 5288WAT      O21857   5.554   0.473   3.550
 5288WAT     H121858   5.583   0.555   3.536
 5288WAT     H221859   5.621   0.423   3.524
 5288WAT    EPW21860   5.568   0.478   3.544
 5289WAT      O21861   5.098   0.741   3.937
 5289WAT     H121862   5.057   0.803   3.983
 5289WAT     H221863   5.182   0.766   3.939
 5289WAT    EPW21864   5.104   0.754   3.944
 5290WAT      O21865   5.100   0.240   3.572
 5290WAT     H121866   5.113   0.155   3.557
 5290WAT     H221867   5.164   0.279   3.526
 5290WAT    EPW21868   5.111   0.233   3.563
 5291WAT      O21869   6.058   0.921   3.872
 5291WAT     H121870   6.008   0.987   3.845
 5291WAT     H221871   6.094   0.891   3.798
 5291WAT    EPW21872   6.056   0.926   3.857
 5292WAT      O21873   5.035   0.843   3.480
 5292WAT     H121874   5.091   0.902   3.511
 5292WAT     H221875   5.028   0.785   3.545
 5292WAT    EPW21876   5.042   0.843   3.494
 5293WAT      O21877   5.438   0.600   4.125
 5293WAT     H121878   5.488   0.640   4.183
 5293WAT     H221879   5.495   0.556   4.075
 5293WAT    EPW21880   5.454   0.599   4.126
 5294WAT      O21881   5.039   0.629   3.284
 5294WAT     H121882   5.121   0.603   3.270
 5294WAT     H221883   5.048   0.702   3.331
 5294WAT    EPW21884   5.053   0.636   3.288
 5295WAT      O21885   5.058   0.480   4.008
 5295WAT     H121886   5.097   0.439   3.942
 5295WAT     H221887   5.075   0.564   3.994
 5295WAT    EPW21888   5.067   0.486   3.996
 5296WAT      O21889   6.589   0.973   4.514
 5296WAT     H121890   6.548   1.050   4.518
 5296WAT     H221891   6.590   0.954   4.429
 5296WAT    EPW21892   6.583   0.982   4.502
 5297WAT      O21893   5.600   0.828   3.798
 5297WAT     H121894   5.602   0.912   3.824
 5297WAT     H221895   5.668   0.792   3.839
 5297WAT    EPW21896   5.610   0.835   3.808
 5298WAT      O21897   5.393   0.245   4.013
 5298WAT     H121898   5.348   0.288   4.074
 5298WAT     H221899   5.406   0.166   4.049
 5298WAT    EPW21900   5.388   0.239   4.027
 5299WAT      O21901   5.846   1.139   4.272
 5299WAT     H121902   5.813   1.066   4.237
 5299WAT     H221903   5.837   1.198   4.208
 5299WAT    EPW21904   5.840   1.137   4.257
 5300WAT      O21905   5.209   0.356   4.935
 5300WAT     H121906   5.217   0.397   4.858
 5300WAT     H221907   5.256   0.283   4.925
 5300WAT    EPW21908   5.217   0.351   4.922
 5301WAT      O21909   6.424   0.523   4.757
 5301WAT     H121910   6.442   0.606   4.735
 5301WAT     H221911   6.460   0.477   4.691
 5301WAT    EPW21912   6.432   0.528   4.744
 5302WAT      O21913   5.811   0.910   4.814
 5302WAT     H121914   5.851   0.899   4.891
 5302WAT     H221915   5.782   0.831   4.795
 5302WAT    EPW21916   5.813   0.897   4.823
 5303WAT      O21917   6.199   0.250   3.351
 5303WAT     H121918   6.157   0.278   3.280
 5303WAT     H221919   6.137   0.243   3.411
 5303WAT    EPW21920   6.184   0.253   3.349
 5304WAT      O21921   6.651   0.581   3.665
 5304WAT     H121922   6.652   0.548   3.746
 5304WAT     H221923   6.658   0.510   3.615
 5304WAT    EPW21924   6.653   0.565   3.670
 5305WAT      O21925   6.250   0.975   4.071
 5305WAT     H121926   6.186   0.955   4.016
 5305WAT     H221927   6.289   1.043   4.034
 5305WAT    EPW21928   6.246   0.982   4.058
 5306WAT      O21929   6.249   0.601   4.044
 5306WAT     H121930   6.177   0.647   4.062
 5306WAT     H221931   6.263   0.556   4.117
 5306WAT    EPW21932   6.240   0.601   4.057
 5307WAT      O21933   5.715   1.022   3.560
 5307WAT     H121934   5.703   0.936   3.567
 5307WAT     H221935   5.759   1.030   3.484
 5307WAT    EPW21936   5.720   1.010   3.550
 5308WAT      O21937   5.871   1.042   3.335
 5308WAT     H121938   5.939   1.059   3.387
 5308WAT     H221939   5.861   1.116   3.290
 5308WAT    EPW21940   5.880   1.056   3.336
 5309WAT      O21941   6.554   0.391   4.546
 5309WAT     H121942   6.540   0.384   4.460
 5309WAT     H221943   6.637   0.417   4.552
 5309WAT    EPW21944   6.564   0.394   4.534
 5310WAT      O21945   6.191   1.009   4.962
 5310WAT     H121946   6.217   1.031   5.042
 5310WAT     H221947   6.215   1.077   4.913
 5310WAT    EPW21948   6.198   1.022   4.967
 5311WAT      O21949   5.338   0.333   3.442
 5311WAT     H121950   5.380   0.270   3.399
 5311WAT     H221951   5.402   0.375   3.484
 5311WAT    EPW21952   5.354   0.330   3.442
 5312WAT      O21953   6.101   0.432   4.481
 5312WAT     H121954   6.057   0.485   4.534
 5312WAT     H221955   6.126   0.367   4.534
 5312WAT    EPW21956   6.098   0.430   4.497
 5313WAT      O21957   6.000   0.241   3.554
 5313WAT     H121958   6.008   0.311   3.606
 5313WAT     H221959   5.978   0.177   3.609
 5313WAT    EPW21960   5.998   0.242   3.570
 5314WAT      O21961   6.499   0.729   4.022
 5314WAT     H121962   6.492   0.760   3.941
 5314WAT     H221963   6.421   0.693   4.036
 5314WAT    EPW21964   6.486   0.728   4.012
 5315WAT      O21965   5.890   0.483   3.964
 5315WAT     H121966   5.807   0.456   3.971
 5315WAT     H221967   5.924   0.468   4.043
 5315WAT    EPW21968   5.883   0.476   3.976
 5316WAT      O21969   5.529   1.084   3.159
 5316WAT     H121970   5.554   1.011   3.199
 5316WAT     H221971   5.540   1.145   3.220
 5316WAT    EPW21972   5.534   1.082   3.174
 5317WAT      O21973   5.250   0.407   4.192
 5317WAT     H121974   5.307   0.473   4.181
 5317WAT     H221975   5.183   0.430   4.141
 5317WAT    EPW21976   5.249   0.420   4.183
 5318WAT      O21977   6.831   1.120   3.277
 5318WAT     H121978   6.892   1.066   3.244
 5318WAT     H221979   6.778   1.067   3.321
 5318WAT    EPW21980   6.833   1.104   3.279
 5319WAT      O21981   6.543   0.424   4.260
 5319WAT     H121982   6.530   0.373   4.190
 5319WAT     H221983   6.465   0.460   4.274
 5319WAT    EPW21984   6.529   0.422   4.252
 5320WAT      O21985   5.385   0.113   3.105
 5320WAT     H121986   5.367   0.028   3.109
 5320WAT     H221987   5.463   0.116   3.067
 5320WAT    EPW21988   5.394   0.101   3.100
 5321WAT      O21989   5.228   0.505   4.700
 5321WAT     H121990   5.210   0.463   4.625
 5321WAT     H221991   5.187   0.581   4.691
 5321WAT    EPW21992   5.219   0.510   4.687
 5322WAT      O21993   6.663   0.514   3.932
 5322WAT     H121994   6.630   0.581   3.976
 5322WAT     H221995   6.742   0.503   3.967
 5322WAT    EPW21996   6.670   0.522   3.944
 5323WAT      O21997   6.847   0.931   4.085
 5323WAT     H121998   6.883   0.986   4.027
 5323WAT     H221999   6.911   0.918   4.143
 5323WAT    EPW22000   6.862   0.937   4.085
 5324WAT      O22001   6.555   0.747   3.274
 5324WAT     H122002   6.582   0.664   3.272
 5324WAT     H222003   6.478   0.742   3.316
 5324WAT    EPW22004   6.547   0.734   3.280
 5325WAT      O22005   6.798   0.354   4.921
 5325WAT     H122006   6.750   0.287   4.950
 5325WAT     H222007   6.879   0.333   4.946
 5325WAT    EPW22008   6.803   0.341   4.929
 5326WAT      O22009   6.810   0.503   4.522
 5326WAT     H122010   6.880   0.460   4.494
 5326WAT     H222011   6.788   0.553   4.454
 5326WAT    EPW22012   6.817   0.504   4.508
 5327WAT      O22013   6.250   0.579   3.205
 5327WAT     H122014   6.306   0.512   3.203
 5327WAT     H222015   6.220   0.584   3.123
 5327WAT    EPW22016   6.254   0.570   3.193
 5328WAT      O22017   5.627   0.723   4.292
 5328WAT     H122018   5.636   0.760   4.371
 5328WAT     H222019   5.659   0.784   4.238
 5328WAT    EPW22020   5.633   0.738   4.296
 5329WAT      O22021   5.483   0.595   4.645
 5329WAT     H122022   5.408   0.564   4.678
 5329WAT     H222023   5.469   0.681   4.638
 5329WAT    EPW22024   5.470   0.603   4.649
 5330WAT      O22025   5.953   0.463   4.242
 5330WAT     H122026   6.001   0.439   4.311
 5330WAT     H222027   5.871   0.450   4.268
 5330WAT    EPW22028   5.948   0.457   4.256
 5331WAT      O22029   5.874   1.114   3.778
 5331WAT     H122030   5.884   1.201   3.773
 5331WAT     H222031   5.836   1.093   3.703
 5331WAT    EPW22032   5.870   1.124   3.767
 5332WAT      O22033   5.732   0.923   4.129
 5332WAT     H122034   5.688   0.972   4.072
 5332WAT     H222035   5.781   0.872   4.078
 5332WAT    EPW22036   5.733   0.923   4.113
 5333WAT      O22037   6.160   0.534   4.848
 5333WAT     H122038   6.237   0.530   4.808
 5333WAT     H222039   6.108   0.572   4.789
 5333WAT    EPW22040   6.163   0.539   4.834
 5334WAT      O22041   6.458   0.800   4.698
 5334WAT     H122042   6.487   0.836   4.771
 5334WAT     H222043   6.498   0.844   4.634
 5334WAT    EPW22044   6.468   0.812   4.699
 5335WAT      O22045   5.810   0.436   3.203
 5335WAT     H122046   5.739   0.480   3.177
 5335WAT     H222047   5.863   0.499   3.231
 5335WAT    EPW22048   5.807   0.452   3.203
 5336WAT      O22049   5.966   1.127   4.715
 5336WAT     H122050   5.978   1.121   4.629
 5336WAT     H222051   5.927   1.052   4.736
 5336WAT    EPW22052   5.962   1.115   4.706
 5337WAT      O22053   6.702   0.362   3.500
 5337WAT     H122054   6.773   0.317   3.523
 5337WAT     H222055   6.638   0.303   3.500
 5337WAT    EPW22056   6.703   0.347   3.504
 5338WAT      O22057   5.967   0.608   4.649
 5338WAT     H122058   5.891   0.608   4.692
 5338WAT     H222059   5.968   0.686   4.610
 5338WAT    EPW22060   5.956   0.619   4.650
 5339WAT      O22061   5.547   1.237   4.202
 5339WAT     H122062   5.556   1.210   4.284
 5339WAT     H222063   5.506   1.171   4.163
 5339WAT    EPW22064   5.542   1.223   4.208
 5340WAT      O22065   6.279   0.538   3.775
 5340WAT     H122066   6.273   0.550   3.861
 5340WAT     H222067   6.319   0.460   3.768
 5340WAT    EPW22068   6.284   0.528   3.787
 5341WAT      O22069   6.019   0.463   3.717
 5341WAT     H122070   5.980   0.466   3.795
 5341WAT     H222071   6.100   0.490   3.734
 5341WAT    EPW22072   6.025   0.467   3.731
 5342WAT      O22073   5.978   0.872   4.537
 5342WAT     H122074   6.041   0.872   4.598
 5342WAT     H222075   6.003   0.936   4.483
 5342WAT    EPW22076   5.991   0.882   4.538
 5343WAT      O22077   5.161   1.214   4.721
 5343WAT     H122078   5.106   1.148   4.706
 5343WAT     H222079   5.108   1.280   4.743
 5343WAT    EPW22080   5.145   1.214   4.722
 5344WAT      O22081   6.061   0.330   5.019
 5344WAT     H122082   6.093   0.386   4.960
 5344WAT     H222083   5.978   0.355   5.029
 5344WAT    EPW22084   6.054   0.342   5.012
 5345WAT      O22085   6.362   1.223   4.006
 5345WAT     H122086   6.301   1.281   4.030
 5345WAT     H222087   6.425   1.235   4.066
 5345WAT    EPW22088   6.363   1.233   4.019
 5346WAT      O22089   6.029   0.721   4.168
 5346WAT     H122090   5.999   0.646   4.201
 5346WAT     H222091   6.079   0.753   4.232
 5346WAT    EPW22092   6.032   0.715   4.182
 5347WAT      O22093   6.566   0.913   4.926
 5347WAT     H122094   6.649   0.889   4.912
 5347WAT     H222095   6.545   0.870   4.999
 5347WAT    EPW22096   6.575   0.903   4.935
 5348WAT      O22097   6.138   0.832   3.619
 5348WAT     H122098   6.116   0.910   3.588
 5348WAT     H222099   6.068   0.783   3.604
 5348WAT    EPW22100   6.125   0.836   3.612
 5349WAT      O22101   5.181   0.367   4.455
 5349WAT     H122102   5.196   0.386   4.371
 5349WAT     H222103   5.162   0.282   4.454
 5349WAT    EPW22104   5.181   0.358   4.442
 5350WAT      O22105   5.577   0.837   3.288
 5350WAT     H122106   5.615   0.813   3.363
 5350WAT     H222107   5.492   0.830   3.304
 5350WAT    EPW22108   5.570   0.832   3.302
 5351WAT      O22109   5.474   0.382   4.467
 5351WAT     H122110   5.485   0.449   4.521
 5351WAT     H222111   5.388   0.374   4.460
 5351WAT    EPW22112   5.463   0.391   4.474
 5352WAT      O22113   6.497   0.309   4.004
 5352WAT     H122114   6.553   0.370   3.977
 5352WAT     H222115   6.458   0.283   3.930
 5352WAT    EPW22116   6.500   0.314   3.989
 5353WAT      O22117   6.508   1.023   3.637
 5353WAT     H122118   6.485   0.947   3.673
 5353WAT     H222119   6.546   1.000   3.562
 5353WAT    EPW22120   6.510   1.008   3.632
 5354WAT      O22121   5.316   0.780   3.339
 5354WAT     H122122   5.311   0.764   3.425
 5354WAT     H222123   5.317   0.700   3.304
 5354WAT    EPW22124   5.315   0.765   3.347
 5355WAT      O22125   5.587   0.596   3.143
 5355WAT     H122126   5.506   0.569   3.159
 5355WAT     H222127   5.590   0.675   3.180
 5355WAT    EPW22128   5.575   0.604   3.151
 5356WAT      O22129   6.264   0.812   4.302
 5356WAT     H122130   6.286   0.878   4.355
 5356WAT     H222131   6.271   0.847   4.223
 5356WAT    EPW22132   6.268   0.827   4.299
 5357WAT      O22133   6.239   1.198   4.756
 5357WAT     H122134   6.164   1.160   4.731
 5357WAT     H222135   6.215   1.280   4.772
 5357WAT    EPW22136   6.224   1.205   4.755
 5358WAT      O22137   6.736   0.629   4.284
 5358WAT     H122138   6.678   0.566   4.267
 5358WAT     H222139   6.689   0.702   4.276
 5358WAT    EPW22140   6.721   0.630   4.280
 5359WAT      O22141   5.615   1.102   4.747
 5359WAT     H122142   5.592   1.120   4.829
 5359WAT     H222143   5.678   1.043   4.756
 5359WAT    EPW22144   5.621   1.096   4.760
 5360WAT      O22145   6.614   0.878   4.236
 5360WAT     H122146   6.682   0.907   4.191
 5360WAT     H222147   6.562   0.844   4.175
 5360WAT    EPW22148   6.616   0.877   4.221
 5361WAT      O22149   5.318   1.020   4.869
 5361WAT     H122150   5.382   1.056   4.916
 5361WAT     H222151   5.279   1.089   4.832
 5361WAT    EPW22152   5.322   1.036   4.871
 5362WAT      O22153   5.167   0.772   4.604
 5362WAT     H122154   5.113   0.838   4.626
 5362WAT     H222155   5.246   0.806   4.615
 5362WAT    EPW22156   5.171   0.787   4.609
 5363WAT      O22157   6.458   0.213   3.476
 5363WAT     H122158   6.473   0.140   3.430
 5363WAT     H222159   6.387   0.246   3.438
 5363WAT    EPW22160   6.450   0.207   3.463
 5364WAT      O22161   5.455   1.114   3.527
 5364WAT     H122162   5.467   1.173   3.464
 5364WAT     H222163   5.534   1.078   3.537
 5364WAT    EPW22164   5.468   1.118   3.519
 5365WAT      O22165   5.752   0.314   3.444
 5365WAT     H122166   5.769   0.345   3.364
 5365WAT     H222167   5.830   0.289   3.473
 5365WAT    EPW22168   5.766   0.315   3.436
 5366WAT      O22169   6.609   1.158   3.115
 5366WAT     H122170   6.685   1.148   3.157
 5366WAT     H222171   6.589   1.077   3.089
 5366WAT    EPW22172   6.617   1.145   3.118
 5367WAT      O22173   6.856   0.588   4.785
 5367WAT     H122174   6.825   0.519   4.829
 5367WAT     H222175   6.829   0.573   4.703
 5367WAT    EPW22176   6.847   0.575   4.779
 5368WAT      O22177   6.312   0.781   3.400
 5368WAT     H122178   6.265   0.780   3.474
 5368WAT     H222179   6.272   0.722   3.349
 5368WAT    EPW22180   6.299   0.772   3.403
 5369WAT      O22181   6.462   0.397   5.015
 5369WAT     H122182   6.530   0.436   5.053
 5369WAT     H222183   6.460   0.433   4.936
 5369WAT    EPW22184   6.472   0.408   5.009
 5370WAT      O22185   5.375   1.036   4.108
 5370WAT     H122186   5.379   0.964   4.059
 5370WAT     H222187   5.334   1.094   4.057
 5370WAT    EPW22188   5.370   1.034   4.093
 5371WAT      O22189   5.990   0.621   3.297
 5371WAT     H122190   6.069   0.593   3.274
 5371WAT     H222191   5.980   0.694   3.250
 5371WAT    EPW22192   6.000   0.628   3.287
 5372WAT      O22193   5.152   1.253   4.442
 5372WAT     H122194   5.155   1.239   4.528
 5372WAT     H222195   5.189   1.181   4.408
 5372WAT    EPW22196   5.158   1.240   4.450
 5373WAT      O22197   5.110   0.548   1.728
 5373WAT     H122198   5.100   0.575   1.811
 5373WAT     H222199   5.128   0.463   1.737
 5373WAT    EPW22200   5.111   0.539   1.742
 5374WAT      O22201   6.682   0.967   1.519
 5374WAT     H122202   6.755   0.927   1.546
 5374WAT     H222203   6.640   0.906   1.474
 5374WAT    EPW22204   6.687   0.952   1.516
 5375WAT      O22205   5.324   0.513   1.312
 5375WAT     H122206   5.289   0.464   1.249
 5375WAT     H222207   5.342   0.455   1.375
 5375WAT    EPW22208   5.322   0.497   1.312
 5376WAT      O22209   6.372   0.275   1.851
 5376WAT     H122210   6.412   0.257   1.776
 5376WAT     H222211   6.307   0.217   1.856
 5376WAT    EPW22212   6.368   0.264   1.841
 5377WAT      O22213   5.335   0.706   1.694
 5377WAT     H122214   5.388   0.675   1.756
 5377WAT     H222215   5.265   0.654   1.699
 5377WAT    EPW22216   5.332   0.694   1.704
 5378WAT      O22217   5.216   0.994   1.332
 5378WAT     H122218   5.240   0.998   1.249
 5378WAT     H222219   5.238   0.912   1.356
 5378WAT    EPW22220   5.223   0.982   1.323
 5379WAT      O22221   5.035   0.804   2.348
 5379WAT     H122222   5.050   0.793   2.433
 5379WAT     H222223   4.966   0.753   2.333
 5379WAT    EPW22224   5.027   0.795   2.358
 5380WAT      O22225   5.718   0.632   2.890
 5380WAT     H122226   5.682   0.616   2.968
 5380WAT     H222227   5.649   0.633   2.836
 5380WAT    EPW22228   5.703   0.630   2.894
 5381WAT      O22229   5.304   0.336   1.938
 5381WAT     H122230   5.280   0.292   1.867
 5381WAT     H222231   5.347   0.277   1.986
 5381WAT    EPW22232   5.307   0.321   1.935
 5382WAT      O22233   5.691   0.833   2.635
 5382WAT     H122234   5.645   0.905   2.623
 5382WAT     H222235   5.773   0.861   2.641
 5382WAT    EPW22236   5.697   0.848   2.634
 5383WAT      O22237   5.840   0.740   1.999
 5383WAT     H122238   5.865   0.662   2.027
 5383WAT     H222239   5.912   0.789   2.008
 5383WAT    EPW22240   5.854   0.736   2.004
 5384WAT      O22241   5.942   0.706   1.664
 5384WAT     H122242   5.961   0.634   1.710
 5384WAT     H222243   5.957   0.681   1.582
 5384WAT    EPW22244   5.947   0.692   1.659
 5385WAT      O22245   5.056   1.043   1.904
 5385WAT     H122246   4.989   1.086   1.869
 5385WAT     H222247   5.099   1.011   1.835
 5385WAT    EPW22248   5.053   1.044   1.889
 5386WAT      O22249   5.670   0.746   1.666
 5386WAT     H122250   5.645   0.776   1.744
 5386WAT     H222251   5.757   0.738   1.675
 5386WAT    EPW22252   5.679   0.749   1.679
 5387WAT      O22253   6.267   1.067   1.448
 5387WAT     H122254   6.340   1.114   1.441
 5387WAT     H222255   6.296   0.988   1.471
 5387WAT    EPW22256   6.282   1.062   1.451
 5388WAT      O22257   6.090   1.143   1.645
 5388WAT     H122258   6.115   1.222   1.673
 5388WAT     H222259   6.147   1.124   1.582
 5388WAT    EPW22260   6.102   1.152   1.640
 5389WAT      O22261   5.210   0.954   1.690
 5389WAT     H122262   5.264   0.888   1.708
 5389WAT     H222263   5.262   1.012   1.650
 5389WAT    EPW22264   5.226   0.953   1.687
 5390WAT      O22265   6.312   1.069   2.436
 5390WAT     H122266   6.387   1.112   2.423
 5390WAT     H222267   6.289   1.042   2.356
 5390WAT    EPW22268   6.319   1.071   2.422
 5391WAT      O22269   5.359   0.800   2.045
 5391WAT     H122270   5.428   0.805   1.992
 5391WAT     H222271   5.382   0.739   2.103
 5391WAT    EPW22272   5.373   0.792   2.045
 5392WAT      O22273   5.702   1.074   2.050
 5392WAT     H122274   5.766   1.111   2.005
 5392WAT     H222275   5.662   1.141   2.089
 5392WAT    EPW22276   5.705   1.089   2.049
 5393WAT      O22277   6.470   1.250   1.387
 5393WAT     H122278   6.516   1.225   1.317
 5393WAT     H222279   6.529   1.294   1.435
 5393WAT    EPW22280   6.485   1.253   1.384
 5394WAT      O22281   5.487   1.019   2.553
 5394WAT     H122282   5.512   1.102   2.540
 5394WAT     H222283   5.419   1.009   2.499
 5394WAT    EPW22284   5.481   1.030   2.543
 5395WAT      O22285   6.193   0.838   2.831
 5395WAT     H122286   6.192   0.874   2.910
 5395WAT     H222287   6.277   0.817   2.818
 5395WAT    EPW22288   6.205   0.840   2.841
 5396WAT      O22289   5.955   0.892   1.270
 5396WAT     H122290   5.930   0.948   1.332
 5396WAT     H222291   6.029   0.927   1.240
 5396WAT    EPW22292   5.962   0.906   1.275
 5397WAT      O22293   5.247   1.001   2.402
 5397WAT     H122294   5.187   0.940   2.386
 5397WAT     H222295   5.279   1.019   2.323
 5397WAT    EPW22296   5.243   0.995   2.388
 5398WAT      O22297   6.075   1.130   2.562
 5398WAT     H122298   6.153   1.115   2.527
 5398WAT     H222299   6.023   1.144   2.493
 5398WAT    EPW22300   6.079   1.130   2.547
 5399WAT      O22301   6.760   1.164   1.797
 5399WAT     H122302   6.724   1.242   1.810
 5399WAT     H222303   6.691   1.111   1.786
 5399WAT    EPW22304   6.744   1.168   1.797
 5400WAT      O22305   6.465   0.759   1.843
 5400WAT     H122306   6.527   0.706   1.811
 5400WAT     H222307   6.393   0.710   1.842
 5400WAT    EPW22308   6.464   0.744   1.838
 5401WAT      O22309   5.347   0.862   2.737
 5401WAT     H122310   5.397   0.915   2.690
 5401WAT     H222311   5.339   0.904   2.813
 5401WAT    EPW22312   5.353   0.876   2.741
 5402WAT      O22313   5.641   0.405   2.140
 5402WAT     H122314   5.656   0.411   2.226
 5402WAT     H222315   5.585   0.339   2.133
 5402WAT    EPW22316   5.635   0.396   2.152
 5403WAT      O22317   5.689   0.457   2.406
 5403WAT     H122318   5.677   0.544   2.407
 5403WAT     H222319   5.633   0.428   2.466
 5403WAT    EPW22320   5.679   0.466   2.415
 5404WAT      O22321   6.291   0.514   2.409
 5404WAT     H122322   6.236   0.481   2.469
 5404WAT     H222323   6.287   0.600   2.424
 5404WAT    EPW22324   6.282   0.522   2.420
 5405WAT      O22325   4.956   0.848   2.992
 5405WAT     H122326   5.013   0.866   3.055
 5405WAT     H222327   4.969   0.764   2.975
 5405WAT    EPW22328   4.966   0.838   2.999
 5406WAT      O22329   6.667   0.520   1.381
 5406WAT     H122330   6.686   0.470   1.451
 5406WAT     H222331   6.744   0.555   1.360
 5406WAT    EPW22332   6.681   0.518   1.389
 5407WAT      O22333   5.471   0.553   1.884
 5407WAT     H122334   5.520   0.518   1.821
 5407WAT     H222335   5.418   0.488   1.908
 5407WAT    EPW22336   5.470   0.538   1.878
 5408WAT      O22337   5.244   1.223   1.978
 5408WAT     H122338   5.177   1.173   1.953
 5408WAT     H222339   5.294   1.227   1.906
 5408WAT    EPW22340   5.242   1.217   1.964
 5409WAT      O22341   6.845   0.974   2.752
 5409WAT     H122342   6.768   0.968   2.711
 5409WAT     H222343   6.832   0.931   2.827
 5409WAT    EPW22344   6.832   0.967   2.757
 5410WAT      O22345   6.393   0.113   1.286
 5410WAT     H122346   6.424   0.189   1.256
 5410WAT     H222347   6.326   0.136   1.336
 5410WAT    EPW22348   6.387   0.127   1.289
 5411WAT      O22349   5.588   0.480   1.643
 5411WAT     H122350   5.617   0.562   1.637
 5411WAT     H222351   5.655   0.432   1.616
 5411WAT    EPW22352   5.602   0.485   1.638
 5412WAT      O22353   5.114   0.687   1.973
 5412WAT     H122354   5.053   0.741   2.003
 5412WAT     H222355   5.189   0.729   1.991
 5412WAT    EPW22356   5.116   0.701   1.980
 5413WAT      O22357   5.192   0.266   1.691
 5413WAT     H122358   5.169   0.184   1.670
 5413WAT     H222359   5.252   0.287   1.631
 5413WAT    EPW22360   5.197   0.257   1.679
 5414WAT      O22361   6.055   0.927   1.999
 5414WAT     H122362   6.016   1.003   1.982
 5414WAT     H222363   6.093   0.906   1.924
 5414WAT    EPW22364   6.055   0.935   1.986
 5415WAT      O22365   5.030   0.773   1.575
 5415WAT     H122366   5.087   0.829   1.610
 5415WAT     H222367   5.029   0.707   1.632
 5415WAT    EPW22368   5.038   0.772   1.589
 5416WAT      O22369   5.453   0.606   2.220
 5416WAT     H122370   5.504   0.650   2.275
 5416WAT     H222371   5.509   0.562   2.170
 5416WAT    EPW22372   5.469   0.606   2.221
 5417WAT      O22373   5.050   0.647   1.327
 5417WAT     H122374   5.124   0.601   1.331
 5417WAT     H222375   5.047   0.686   1.405
 5417WAT    EPW22376   5.061   0.646   1.339
 5418WAT      O22377   5.112   0.443   2.101
 5418WAT     H122378   5.168   0.403   2.047
 5418WAT     H222379   5.117   0.527   2.077
 5418WAT    EPW22380   5.121   0.450   2.090
 5419WAT      O22381   6.594   0.947   2.624
 5419WAT     H122382   6.551   1.021   2.639
 5419WAT     H222383   6.588   0.936   2.538
 5419WAT    EPW22384   6.587   0.957   2.614
 5420WAT      O22385   5.602   0.851   1.914
 5420WAT     H122386   5.618   0.931   1.945
 5420WAT     H222387   5.667   0.803   1.947
 5420WAT    EPW22388   5.614   0.856   1.923
 5421WAT      O22389   5.434   0.215   2.158
 5421WAT     H122390   5.389   0.263   2.216
 5421WAT     H222391   5.455   0.143   2.203
 5421WAT    EPW22392   5.430   0.212   2.173
 5422WAT      O22393   5.887   1.174   2.370
 5422WAT     H122394   5.853   1.100   2.338
 5422WAT     H222395   5.858   1.235   2.315
 5422WAT    EPW22396   5.878   1.172   2.357
 5423WAT      O22397   5.209   0.327   3.073
 5423WAT     H122398   5.228   0.357   2.993
 5423WAT     H222399   5.259   0.255   3.080
 5423WAT    EPW22400   5.219   0.321   3.062
 5424WAT      O22401   6.421   0.501   2.858
 5424WAT     H122402   6.441   0.584   2.841
 5424WAT     H222403   6.459   0.457   2.793
 5424WAT    EPW22404   6.430   0.507   2.846
 5425WAT      O22405   5.815   0.895   2.920
 5425WAT     H122406   5.857   0.878   2.995
 5425WAT     H222407   5.781   0.818   2.897
 5425WAT    EPW22408   5.816   0.881   2.927
 5426WAT      O22409   6.212   0.248   1.460
 5426WAT     H122410   6.169   0.275   1.390
 5426WAT     H222411   6.151   0.243   1.522
 5426WAT    EPW22412   6.197   0.251   1.459
 5427WAT      O22413   6.658   0.572   1.772
 5427WAT     H122414   6.659   0.539   1.853
 5427WAT     H222415   6.667   0.501   1.721
 5427WAT    EPW22416   6.659   0.556   1.776
 5428WAT      O22417   6.262   0.949   2.186
 5428WAT     H122418   6.194   0.941   2.133
 5428WAT     H222419   6.308   1.013   2.149
 5428WAT    EPW22420   6.259   0.957   2.172
 5429WAT      O22421   6.238   0.600   2.147
 5429WAT     H122422   6.169   0.650   2.167
 5429WAT     H222423   6.250   0.552   2.219
 5429WAT    EPW22424   6.229   0.600   2.160
 5430WAT      O22425   5.633   0.974   1.519
 5430WAT     H122426   5.644   0.904   1.569
 5430WAT     H222427   5.713   1.010   1.516
 5430WAT    EPW22428   5.646   0.969   1.526
 5431WAT      O22429   5.884   1.079   1.466
 5431WAT     H122430   5.943   1.102   1.525
 5431WAT     H222431   5.866   1.154   1.425
 5431WAT    EPW22432   5.890   1.094   1.469
 5432WAT      O22433   6.560   0.379   2.644
 5432WAT     H122434   6.545   0.377   2.558
 5432WAT     H222435   6.641   0.409   2.651
 5432WAT    EPW22436   6.569   0.383   2.632
 5433WAT      O22437   6.193   0.986   3.074
 5433WAT     H122438   6.224   1.010   3.152
 5433WAT     H222439   6.209   1.055   3.023
 5433WAT    EPW22440   6.200   1.000   3.078
 5434WAT      O22441   5.395   0.333   1.512
 5434WAT     H122442   5.445   0.269   1.479
 5434WAT     H222443   5.452   0.382   1.557
 5434WAT    EPW22444   5.411   0.331   1.514
 5435WAT      O22445   6.094   0.420   2.584
 5435WAT     H122446   6.050   0.477   2.634
 5435WAT     H222447   6.111   0.354   2.639
 5435WAT    EPW22448   6.090   0.418   2.600
 5436WAT      O22449   6.011   0.248   1.660
 5436WAT     H122450   6.015   0.322   1.706
 5436WAT     H222451   5.984   0.189   1.719
 5436WAT    EPW22452   6.008   0.250   1.676
 5437WAT      O22453   6.496   0.716   2.123
 5437WAT     H122454   6.492   0.748   2.042
 5437WAT     H222455   6.416   0.686   2.137
 5437WAT    EPW22456   6.484   0.716   2.113
 5438WAT      O22457   5.901   0.472   2.061
 5438WAT     H122458   5.818   0.447   2.072
 5438WAT     H222459   5.936   0.461   2.140
 5438WAT    EPW22460   5.894   0.467   2.074
 5439WAT      O22461   5.573   1.107   1.128
 5439WAT     H122462   5.589   1.031   1.168
 5439WAT     H222463   5.568   1.164   1.195
 5439WAT    EPW22464   5.575   1.104   1.144
 5440WAT      O22465   5.286   0.401   2.311
 5440WAT     H122466   5.340   0.468   2.298
 5440WAT     H222467   5.221   0.415   2.254
 5440WAT    EPW22468   5.284   0.413   2.301
 5441WAT      O22469   6.841   1.138   1.372
 5441WAT     H122470   6.908   1.087   1.347
 5441WAT     H222471   6.790   1.083   1.417
 5441WAT    EPW22472   6.844   1.122   1.375
 5442WAT      O22473   6.541   0.414   2.360
 5442WAT     H122474   6.531   0.363   2.290
 5442WAT     H222475   6.461   0.446   2.373
 5442WAT    EPW22476   6.528   0.411   2.352
 5443WAT      O22477   5.371   0.128   1.134
 5443WAT     H122478   5.354   0.048   1.163
 5443WAT     H222479   5.446   0.118   1.090
 5443WAT    EPW22480   5.380   0.115   1.132
 5444WAT      O22481   5.241   0.472   2.839
 5444WAT     H122482   5.224   0.444   2.759
 5444WAT     H222483   5.170   0.519   2.860
 5444WAT    EPW22484   5.228   0.475   2.830
 5445WAT      O22485   6.667   0.504   2.038
 5445WAT     H122486   6.631   0.570   2.082
 5445WAT     H222487   6.746   0.496   2.073
 5445WAT    EPW22488   6.674   0.512   2.050
 5446WAT      O22489   6.839   0.929   2.182
 5446WAT     H122490   6.879   0.984   2.127
 5446WAT     H222491   6.900   0.912   2.241
 5446WAT    EPW22492   6.854   0.935   2.182
 5447WAT      O22493   6.547   0.769   1.392
 5447WAT     H122494   6.575   0.687   1.394
 5447WAT     H222495   6.471   0.765   1.435
 5447WAT    EPW22496   6.540   0.756   1.399
 5448WAT      O22497   6.799   0.362   3.034
 5448WAT     H122498   6.765   0.390   3.109
 5448WAT     H222499   6.880   0.338   3.056
 5448WAT    EPW22500   6.806   0.363   3.048
 5449WAT      O22501   6.812   0.501   2.620
 5449WAT     H122502   6.885   0.462   2.594
 5449WAT     H222503   6.789   0.550   2.552
 5449WAT    EPW22504   6.820   0.502   2.606
 5450WAT      O22505   6.253   0.583   1.331
 5450WAT     H122506   6.311   0.518   1.336
 5450WAT     H222507   6.230   0.583   1.246
 5450WAT    EPW22508   6.258   0.573   1.319
 5451WAT      O22509   5.644   0.729   2.385
 5451WAT     H122510   5.648   0.755   2.468
 5451WAT     H222511   5.690   0.790   2.342
 5451WAT    EPW22512   5.651   0.742   2.390
 5452WAT      O22513   5.469   0.613   2.763
 5452WAT     H122514   5.401   0.576   2.803
 5452WAT     H222515   5.443   0.694   2.748
 5452WAT    EPW22516   5.455   0.619   2.766
 5453WAT      O22517   5.957   0.466   2.341
 5453WAT     H122518   6.005   0.441   2.410
 5453WAT     H222519   5.875   0.456   2.368
 5453WAT    EPW22520   5.952   0.461   2.355
 5454WAT      O22521   5.928   1.165   1.903
 5454WAT     H122522   5.898   1.246   1.914
 5454WAT     H222523   5.959   1.166   1.821
 5454WAT    EPW22524   5.928   1.177   1.892
 5455WAT      O22525   5.806   0.924   2.268
 5455WAT     H122526   5.778   0.949   2.189
 5455WAT     H222527   5.872   0.870   2.249
 5455WAT    EPW22528   5.812   0.920   2.253
 5456WAT      O22529   6.154   0.523   2.946
 5456WAT     H122530   6.231   0.516   2.906
 5456WAT     H222531   6.103   0.564   2.889
 5456WAT    EPW22532   6.158   0.528   2.932
 5457WAT      O22533   6.465   0.777   2.810
 5457WAT     H122534   6.494   0.816   2.883
 5457WAT     H222535   6.505   0.821   2.746
 5457WAT    EPW22536   6.475   0.789   2.811
 5458WAT      O22537   5.826   0.450   1.301
 5458WAT     H122538   5.752   0.488   1.275
 5458WAT     H222539   5.874   0.516   1.331
 5458WAT    EPW22540   5.822   0.465   1.301
 5459WAT      O22541   5.962   1.117   2.828
 5459WAT     H122542   5.962   1.121   2.741
 5459WAT     H222543   5.919   1.044   2.846
 5459WAT    EPW22544   5.956   1.107   2.818
 5460WAT      O22545   6.716   0.358   1.605
 5460WAT     H122546   6.787   0.312   1.626
 5460WAT     H222547   6.652   0.298   1.604
 5460WAT    EPW22548   6.717   0.343   1.608
 5461WAT      O22549   5.961   0.602   2.747
 5461WAT     H122550   5.885   0.602   2.789
 5461WAT     H222551   5.963   0.681   2.710
 5461WAT    EPW22552   5.950   0.614   2.748
 5462WAT      O22553   5.537   1.258   2.198
 5462WAT     H122554   5.553   1.267   2.283
 5462WAT     H222555   5.483   1.190   2.194
 5462WAT    EPW22556   5.531   1.250   2.210
 5463WAT      O22557   6.279   0.544   1.878
 5463WAT     H122558   6.268   0.555   1.964
 5463WAT     H222559   6.318   0.466   1.872
 5463WAT    EPW22560   6.283   0.534   1.890
 5464WAT      O22561   6.020   0.481   1.808
 5464WAT     H122562   5.980   0.477   1.886
 5464WAT     H222563   6.101   0.504   1.828
 5464WAT    EPW22564   6.026   0.483   1.823
 5465WAT      O22565   5.992   0.868   2.642
 5465WAT     H122566   6.052   0.862   2.705
 5465WAT     H222567   6.014   0.942   2.600
 5465WAT    EPW22568   6.004   0.878   2.645
 5466WAT      O22569   5.140   1.196   2.811
 5466WAT     H122570   5.088   1.127   2.798
 5466WAT     H222571   5.084   1.263   2.817
 5466WAT    EPW22572   5.124   1.196   2.810
 5467WAT      O22573   6.056   0.323   3.122
 5467WAT     H122574   6.087   0.378   3.062
 5467WAT     H222575   5.973   0.347   3.132
 5467WAT    EPW22576   6.048   0.334   3.115
 5468WAT      O22577   6.396   1.184   2.120
 5468WAT     H122578   6.338   1.246   2.138
 5468WAT     H222579   6.456   1.192   2.183
 5468WAT    EPW22580   6.396   1.194   2.132
 5469WAT      O22581   6.018   0.730   2.273
 5469WAT     H122582   5.990   0.652   2.301
 5469WAT     H222583   6.072   0.756   2.336
 5469WAT    EPW22584   6.022   0.722   2.287
 5470WAT      O22585   6.569   0.894   3.040
 5470WAT     H122586   6.652   0.874   3.023
 5470WAT     H222587   6.550   0.846   3.110
 5470WAT    EPW22588   6.578   0.884   3.048
 5471WAT      O22589   6.143   0.878   1.740
 5471WAT     H122590   6.124   0.958   1.713
 5471WAT     H222591   6.073   0.831   1.717
 5471WAT    EPW22592   6.130   0.882   1.732
 5472WAT      O22593   5.197   0.374   2.571
 5472WAT     H122594   5.218   0.390   2.488
 5472WAT     H222595   5.172   0.290   2.570
 5472WAT    EPW22596   5.197   0.364   2.559
 5473WAT      O22597   5.564   0.865   1.278
 5473WAT     H122598   5.606   0.895   1.348
 5473WAT     H222599   5.486   0.841   1.309
 5473WAT    EPW22600   5.559   0.866   1.293
 5474WAT      O22601   5.490   0.397   2.589
 5474WAT     H122602   5.495   0.466   2.642
 5474WAT     H222603   5.404   0.383   2.583
 5474WAT    EPW22604   5.478   0.405   2.596
 5475WAT      O22605   6.508   0.292   2.105
 5475WAT     H122606   6.563   0.355   2.080
 5475WAT     H222607   6.462   0.275   2.033
 5475WAT    EPW22608   6.510   0.298   2.091
 5476WAT      O22609   6.526   1.015   1.742
 5476WAT     H122610   6.502   0.937   1.774
 5476WAT     H222611   6.564   0.995   1.666
 5476WAT    EPW22612   6.528   1.000   1.736
 5477WAT      O22613   5.347   0.765   1.420
 5477WAT     H122614   5.354   0.750   1.505
 5477WAT     H222615   5.336   0.685   1.386
 5477WAT    EPW22616   5.346   0.751   1.427
 5478WAT      O22617   5.598   0.592   1.223
 5478WAT     H122618   5.518   0.563   1.242
 5478WAT     H222619   5.594   0.677   1.242
 5478WAT    EPW22620   5.585   0.600   1.229
 5479WAT      O22621   6.259   0.787   2.414
 5479WAT     H122622   6.278   0.849   2.473
 5479WAT     H222623   6.274   0.826   2.338
 5479WAT    EPW22624   6.264   0.802   2.411
 5480WAT      O22625   6.229   1.182   2.876
 5480WAT     H122626   6.154   1.148   2.849
 5480WAT     H222627   6.210   1.266   2.891
 5480WAT    EPW22628   6.215   1.190   2.875
 5481WAT      O22629   6.732   0.622   2.381
 5481WAT     H122630   6.674   0.558   2.366
 5481WAT     H222631   6.685   0.695   2.375
 5481WAT    EPW22632   6.716   0.623   2.378
 5482WAT      O22633   5.610   1.087   2.895
 5482WAT     H122634   5.596   1.097   2.981
 5482WAT     H222635   5.672   1.025   2.892
 5482WAT    EPW22636   5.617   1.079   2.907
 5483WAT      O22637   6.607   0.868   2.336
 5483WAT     H122638   6.673   0.903   2.291
 5483WAT     H222639   6.557   0.833   2.274
 5483WAT    EPW22640   6.609   0.868   2.320
 5484WAT      O22641   5.303   1.015   2.969
 5484WAT     H122642   5.380   1.046   2.997
 5484WAT     H222643   5.267   1.084   2.928
 5484WAT    EPW22644   5.309   1.030   2.967
 5485WAT      O22645   5.100   0.792   2.619
 5485WAT     H122646   5.053   0.855   2.657
 5485WAT     H222647   5.181   0.806   2.648
 5485WAT    EPW22648   5.105   0.804   2.629
 5486WAT      O22649   6.469   0.209   1.590
 5486WAT     H122650   6.483   0.131   1.553
 5486WAT     H222651   6.401   0.240   1.546
 5486WAT    EPW22652   6.461   0.202   1.578
 5487WAT      O22653   5.390   1.109   1.517
 5487WAT     H122654   5.340   1.075   1.455
 5487WAT     H222655   5.460   1.058   1.518
 5487WAT    EPW22656   5.393   1.097   1.508
 5488WAT      O22657   5.769   0.306   1.529
 5488WAT     H122658   5.789   0.344   1.453
 5488WAT     H222659   5.846   0.285   1.563
 5488WAT    EPW22660   5.783   0.309   1.523
 5489WAT      O22661   6.640   1.163   1.185
 5489WAT     H122662   6.710   1.159   1.238
 5489WAT     H222663   6.618   1.080   1.173
 5489WAT    EPW22664   6.647   1.150   1.191
 5490WAT      O22665   6.864   0.582   2.883
 5490WAT     H122666   6.832   0.514   2.927
 5490WAT     H222667   6.835   0.569   2.801
 5490WAT    EPW22668   6.855   0.570   2.877
 5491WAT      O22669   6.305   0.799   1.519
 5491WAT     H122670   6.264   0.803   1.596
 5491WAT     H222671   6.267   0.732   1.479
 5491WAT    EPW22672   6.294   0.790   1.525
 5492WAT      O22673   6.447   0.387   3.122
 5492WAT     H122674   6.523   0.417   3.153
 5492WAT     H222675   6.446   0.415   3.040
 5492WAT    EPW22676   6.458   0.396   3.115
 5493WAT      O22677   5.358   1.051   2.158
 5493WAT     H122678   5.363   0.972   2.121
 5493WAT     H222679   5.318   1.100   2.098
 5493WAT    EPW22680   5.353   1.047   2.144
 5494WAT      O22681   5.991   0.647   1.398
 5494WAT     H122682   6.071   0.620   1.378
 5494WAT     H222683   5.982   0.722   1.354
 5494WAT    EPW22684   6.001   0.654   1.389
 5495WAT      O22685   5.152   1.229   2.530
 5495WAT     H122686   5.154   1.207   2.614
 5495WAT     H222687   5.180   1.157   2.489
 5495WAT    EPW22688   5.157   1.215   2.537
 5496WAT      O22689   5.132   0.807   0.550
 5496WAT     H122690   5.151   0.796   0.634
 5496WAT     H222691   5.072   0.746   0.534
 5496WAT    EPW22692   5.126   0.796   0.560
 5497WAT      O22693   5.735   0.636   0.979
 5497WAT     H122694   5.702   0.613   1.057
 5497WAT     H222695   5.668   0.628   0.925
 5497WAT    EPW22696   5.721   0.631   0.983
 5498WAT      O22697   5.768   0.919   0.697
 5498WAT     H122698   5.784   0.975   0.633
 5498WAT     H222699   5.846   0.886   0.717
 5498WAT    EPW22700   5.782   0.922   0.691
 5499WAT      O22701   6.288   1.076   0.616
 5499WAT     H122702   6.342   1.110   0.675
 5499WAT     H222703   6.323   1.100   0.540
 5499WAT    EPW22704   6.301   1.085   0.613
 5500WAT      O22705   5.521   1.141   0.588
 5500WAT     H122706   5.543   1.132   0.672
 5500WAT     H222707   5.445   1.100   0.581
 5500WAT    EPW22708   5.513   1.134   0.599
 5501WAT      O22709   6.204   0.882   0.940
 5501WAT     H122710   6.201   0.914   1.021
 5501WAT     H222711   6.284   0.849   0.934
 5501WAT    EPW22712   6.215   0.882   0.951
 5502WAT      O22713   5.282   1.030   0.489
 5502WAT     H122714   5.243   0.955   0.510
 5502WAT     H222715   5.302   1.021   0.405
 5502WAT    EPW22716   5.279   1.018   0.479
 5503WAT      O22717   6.036   1.166   0.669
 5503WAT     H122718   6.115   1.135   0.649
 5503WAT     H222719   5.986   1.137   0.603
 5503WAT    EPW22720   6.040   1.157   0.656
 5504WAT      O22721   5.431   0.893   0.861
 5504WAT     H122722   5.495   0.950   0.842
 5504WAT     H222723   5.398   0.924   0.936
 5504WAT    EPW22724   5.436   0.906   0.869
 5505WAT      O22725   5.632   0.514   0.226
 5505WAT     H122726   5.651   0.497   0.309
 5505WAT     H222727   5.595   0.440   0.198
 5505WAT    EPW22728   5.630   0.501   0.234
 5506WAT      O22729   5.701   0.491   0.492
 5506WAT     H122730   5.683   0.575   0.508
 5506WAT     H222731   5.643   0.448   0.542
 5506WAT    EPW22732   5.689   0.497   0.502
 5507WAT      O22733   6.327   0.574   0.556
 5507WAT     H122734   6.269   0.528   0.603
 5507WAT     H222735   6.294   0.655   0.556
 5507WAT    EPW22736   6.314   0.579   0.563
 5508WAT      O22737   4.967   0.797   1.105
 5508WAT     H122738   5.001   0.764   1.178
 5508WAT     H222739   4.941   0.726   1.060
 5508WAT    EPW22740   4.968   0.781   1.109
 5509WAT      O22741   6.865   0.968   0.893
 5509WAT     H122742   6.785   0.975   0.859
 5509WAT     H222743   6.852   0.925   0.968
 5509WAT    EPW22744   6.851   0.963   0.899
 5510WAT      O22745   5.429   0.695   0.323
 5510WAT     H122746   5.475   0.716   0.394
 5510WAT     H222747   5.485   0.645   0.277
 5510WAT    EPW22748   5.444   0.691   0.327
 5511WAT      O22749   6.604   0.982   0.784
 5511WAT     H122750   6.554   1.052   0.800
 5511WAT     H222751   6.600   0.972   0.698
 5511WAT    EPW22752   6.596   0.991   0.774
 5512WAT      O22753   5.842   1.088   0.488
 5512WAT     H122754   5.823   1.032   0.423
 5512WAT     H222755   5.813   1.165   0.457
 5512WAT    EPW22756   5.835   1.091   0.474
 5513WAT      O22757   5.208   0.355   1.121
 5513WAT     H122758   5.224   0.395   1.045
 5513WAT     H222759   5.257   0.283   1.117
 5513WAT    EPW22760   5.218   0.350   1.109
 5514WAT      O22761   6.427   0.505   0.971
 5514WAT     H122762   6.452   0.587   0.954
 5514WAT     H222763   6.464   0.460   0.906
 5514WAT    EPW22764   6.436   0.511   0.959
 5515WAT      O22765   5.823   0.902   1.022
 5515WAT     H122766   5.857   0.895   1.102
 5515WAT     H222767   5.795   0.822   1.004
 5515WAT    EPW22768   5.824   0.889   1.031
 5516WAT      O22769   6.335   0.836   0.268
 5516WAT     H122770   6.296   0.826   0.191
 5516WAT     H222771   6.349   0.922   0.272
 5516WAT    EPW22772   6.331   0.847   0.257
 5517WAT      O22773   6.082   0.711   0.088
 5517WAT     H122774   6.067   0.740   0.169
 5517WAT     H222775   6.037   0.636   0.085
 5517WAT    EPW22776   6.073   0.704   0.099
 5518WAT      O22777   6.547   0.369   0.756
 5518WAT     H122778   6.524   0.349   0.674
 5518WAT     H222779   6.629   0.398   0.748
 5518WAT    EPW22780   6.556   0.370   0.743
 5519WAT      O22781   6.188   1.018   1.187
 5519WAT     H122782   6.218   1.036   1.267
 5519WAT     H222783   6.202   1.092   1.143
 5519WAT    EPW22784   6.195   1.031   1.193
 5520WAT      O22785   6.120   0.427   0.676
 5520WAT     H122786   6.074   0.473   0.734
 5520WAT     H222787   6.146   0.357   0.722
 5520WAT    EPW22788   6.117   0.423   0.691
 5521WAT      O22789   6.538   0.697   0.406
 5521WAT     H122790   6.485   0.731   0.345
 5521WAT     H222791   6.483   0.654   0.459
 5521WAT    EPW22792   6.522   0.695   0.405
 5522WAT      O22793   5.910   0.494   0.148
 5522WAT     H122794   5.824   0.507   0.160
 5522WAT     H222795   5.938   0.471   0.227
 5522WAT    EPW22796   5.901   0.492   0.162
 5523WAT      O22797   5.217   0.520   0.403
 5523WAT     H122798   5.277   0.580   0.381
 5523WAT     H222799   5.153   0.533   0.345
 5523WAT    EPW22800   5.217   0.531   0.391
 5524WAT      O22801   6.471   0.345   0.482
 5524WAT     H122802   6.409   0.292   0.448
 5524WAT     H222803   6.428   0.420   0.495
 5524WAT    EPW22804   6.455   0.348   0.479
 5525WAT      O22805   5.250   0.511   0.892
 5525WAT     H122806   5.235   0.470   0.816
 5525WAT     H222807   5.210   0.588   0.881
 5525WAT    EPW22808   5.242   0.517   0.879
 5526WAT      O22809   6.734   0.349   0.381
 5526WAT     H122810   6.653   0.341   0.412
 5526WAT     H222811   6.727   0.322   0.298
 5526WAT    EPW22812   6.721   0.344   0.373
 5527WAT      O22813   6.837   1.015   0.410
 5527WAT     H122814   6.895   1.069   0.373
 5527WAT     H222815   6.887   0.957   0.452
 5527WAT    EPW22816   6.853   1.015   0.411
 5528WAT      O22817   6.797   0.344   1.114
 5528WAT     H122818   6.764   0.270   1.146
 5528WAT     H222819   6.882   0.338   1.132
 5528WAT    EPW22820   6.804   0.332   1.121
 5529WAT      O22821   6.802   0.480   0.705
 5529WAT     H122822   6.875   0.435   0.691
 5529WAT     H222823   6.795   0.531   0.634
 5529WAT    EPW22824   6.812   0.481   0.692
 5530WAT      O22825   5.631   0.759   0.510
 5530WAT     H122826   5.659   0.800   0.582
 5530WAT     H222827   5.672   0.801   0.445
 5530WAT    EPW22828   5.641   0.771   0.511
 5531WAT      O22829   5.499   0.621   0.834
 5531WAT     H122830   5.426   0.587   0.868
 5531WAT     H222831   5.483   0.707   0.833
 5531WAT    EPW22832   5.486   0.629   0.839
 5532WAT      O22833   5.973   0.479   0.434
 5532WAT     H122834   6.020   0.453   0.502
 5532WAT     H222835   5.890   0.473   0.462
 5532WAT    EPW22836   5.967   0.474   0.448
 5533WAT      O22837   5.775   0.884   0.309
 5533WAT     H122838   5.757   0.884   0.224
 5533WAT     H222839   5.849   0.838   0.315
 5533WAT    EPW22840   5.783   0.877   0.297
 5534WAT      O22841   6.168   0.527   1.070
 5534WAT     H122842   6.245   0.519   1.030
 5534WAT     H222843   6.115   0.553   1.007
 5534WAT    EPW22844   6.172   0.529   1.055
 5535WAT      O22845   6.463   0.785   0.929
 5535WAT     H122846   6.495   0.815   1.005
 5535WAT     H222847   6.506   0.832   0.870
 5535WAT    EPW22848   6.474   0.797   0.932
 5536WAT      O22849   5.943   1.135   0.927
 5536WAT     H122850   5.967   1.124   0.844
 5536WAT     H222851   5.912   1.057   0.950
 5536WAT    EPW22852   5.942   1.122   0.918
 5537WAT      O22853   5.987   0.584   0.863
 5537WAT     H122854   5.908   0.588   0.900
 5537WAT     H222855   5.997   0.663   0.827
 5537WAT    EPW22856   5.976   0.596   0.863
 5538WAT      O22857   5.526   1.184   0.313
 5538WAT     H122858   5.534   1.163   0.397
 5538WAT     H222859   5.490   1.113   0.277
 5538WAT    EPW22860   5.522   1.170   0.320
 5539WAT      O22861   6.028   0.828   0.738
 5539WAT     H122862   6.080   0.853   0.803
 5539WAT     H222863   6.082   0.825   0.669
 5539WAT    EPW22864   6.044   0.831   0.737
 5540WAT      O22865   5.164   1.208   0.924
 5540WAT     H122866   5.108   1.142   0.915
 5540WAT     H222867   5.115   1.273   0.955
 5540WAT    EPW22868   5.149   1.208   0.928
 5541WAT      O22869   6.067   0.320   1.233
 5541WAT     H122870   6.103   0.377   1.178
 5541WAT     H222871   5.986   0.350   1.244
 5541WAT    EPW22872   6.060   0.333   1.227
 5542WAT      O22873   6.372   1.103   0.344
 5542WAT     H122874   6.335   1.181   0.331
 5542WAT     H222875   6.447   1.123   0.384
 5542WAT    EPW22876   6.377   1.117   0.348
 5543WAT      O22877   6.006   0.746   0.358
 5543WAT     H122878   5.999   0.662   0.381
 5543WAT     H222879   6.066   0.777   0.414
 5543WAT    EPW22880   6.014   0.738   0.370
 5544WAT      O22881   6.581   0.896   1.153
 5544WAT     H122882   6.661   0.866   1.138
 5544WAT     H222883   6.557   0.856   1.226
 5544WAT    EPW22884   6.590   0.886   1.161
 5545WAT      O22885   5.208   0.383   0.641
 5545WAT     H122886   5.207   0.431   0.568
 5545WAT     H222887   5.199   0.301   0.613
 5545WAT    EPW22888   5.207   0.378   0.626
 5546WAT      O22889   5.496   0.404   0.656
 5546WAT     H122890   5.504   0.472   0.711
 5546WAT     H222891   5.410   0.395   0.646
 5546WAT    EPW22892   5.485   0.413   0.663
 5547WAT      O22893   6.220   0.828   0.520
 5547WAT     H122894   6.248   0.901   0.559
 5547WAT     H222895   6.257   0.831   0.441
 5547WAT    EPW22896   6.230   0.840   0.514
 5548WAT      O22897   6.202   1.223   0.996
 5548WAT     H122898   6.129   1.183   0.970
 5548WAT     H222899   6.180   1.307   0.999
 5548WAT    EPW22900   6.188   1.229   0.993
 5549WAT      O22901   6.800   0.605   0.449
 5549WAT     H122902   6.785   0.523   0.422
 5549WAT     H222903   6.725   0.646   0.430
 5549WAT    EPW22904   6.786   0.599   0.442
 5550WAT      O22905   5.628   1.103   0.850
 5550WAT     H122906   5.627   1.104   0.938
 5550WAT     H222907   5.686   1.041   0.831
 5550WAT    EPW22908   5.636   1.094   0.860
 5551WAT      O22909   6.589   0.948   0.513
 5551WAT     H122910   6.662   0.977   0.474
 5551WAT     H222911   6.577   0.869   0.477
 5551WAT    EPW22912   6.598   0.941   0.502
 5552WAT      O22913   5.316   1.026   1.076
 5552WAT     H122914   5.393   1.063   1.094
 5552WAT     H222915   5.273   1.088   1.033
 5552WAT    EPW22916   5.321   1.041   1.072
 5553WAT      O22917   5.182   0.777   0.818
 5553WAT     H122918   5.124   0.836   0.846
 5553WAT     H222919   5.259   0.818   0.826
 5553WAT    EPW22920   5.185   0.792   0.823
 5554WAT      O22921   6.770   0.577   0.967
 5554WAT     H122922   6.769   0.502   1.011
 5554WAT     H222923   6.779   0.551   0.884
 5554WAT    EPW22924   6.771   0.562   0.961
 5555WAT      O22925   6.463   0.390   1.233
 5555WAT     H122926   6.534   0.427   1.268
 5555WAT     H222927   6.461   0.422   1.152
 5555WAT    EPW22928   6.473   0.401   1.226
 5556WAT      O22929   5.373   0.956   0.222
 5556WAT     H122930   5.388   0.873   0.244
 5556WAT     H222931   5.351   0.952   0.138
 5556WAT    EPW22932   5.372   0.943   0.213
 5557WAT      O22933   5.126   1.225   0.635
 5557WAT     H122934   5.163   1.214   0.713
 5557WAT     H222935   5.172   1.173   0.582
 5557WAT    EPW22936   5.138   1.216   0.638
 5558WAT      O22937   4.241   6.856   7.429
 5558WAT     H122938   4.234   6.894   7.351
 5558WAT     H222939   4.326   6.838   7.436
 5558WAT    EPW22940   4.253   6.859   7.419
 5559WAT      O22941   3.172   7.297   7.029
 5559WAT     H122942   3.101   7.328   6.989
 5559WAT     H222943   3.149   7.216   7.051
 5559WAT    EPW22944   3.158   7.290   7.026
 5560WAT      O22945   3.461   7.899   6.872
 5560WAT     H122946   3.418   7.852   6.813
 5560WAT     H222947   3.476   7.842   6.936
 5560WAT    EPW22948   3.457   7.884   6.873
 5561WAT      O22949   4.484   7.649   7.498
 5561WAT     H122950   4.475   7.640   7.412
 5561WAT     H222951   4.414   7.608   7.530
 5561WAT    EPW22952   4.472   7.642   7.490
 5562WAT      O22953   3.827   6.937   7.302
 5562WAT     H122954   3.843   7.008   7.255
 5562WAT     H222955   3.896   6.885   7.284
 5562WAT    EPW22956   3.840   6.940   7.292
 5563WAT      O22957   3.521   7.751   7.449
 5563WAT     H122958   3.458   7.752   7.389
 5563WAT     H222959   3.567   7.680   7.430
 5563WAT    EPW22960   3.518   7.741   7.438
 5564WAT      O22961   3.630   7.502   7.387
 5564WAT     H122962   3.680   7.464   7.448
 5564WAT     H222963   3.550   7.470   7.403
 5564WAT    EPW22964   3.625   7.492   7.398
 5565WAT      O22965   3.588   7.031   7.439
 5565WAT     H122966   3.547   7.075   7.376
 5565WAT     H222967   3.664   7.009   7.403
 5565WAT    EPW22968   3.593   7.034   7.424
 5566WAT      O22969   3.916   6.911   7.568
 5566WAT     H122970   3.917   6.992   7.602
 5566WAT     H222971   3.881   6.922   7.489
 5566WAT    EPW22972   3.911   6.925   7.561
 5567WAT      O22973   4.361   7.147   6.847
 5567WAT     H122974   4.314   7.210   6.885
 5567WAT     H222975   4.376   7.091   6.912
 5567WAT    EPW22976   4.356   7.148   6.862
 5568WAT      O22977   3.243   7.529   7.677
 5568WAT     H122978   3.166   7.566   7.660
 5568WAT     H222979   3.222   7.448   7.701
 5568WAT    EPW22980   3.229   7.523   7.678
 5569WAT      O22981   4.873   7.167   7.524
 5569WAT     H122982   4.808   7.224   7.539
 5569WAT     H222983   4.831   7.091   7.514
 5569WAT    EPW22984   4.857   7.164   7.525
 5570WAT      O22985   4.077   7.340   7.433
 5570WAT     H122986   4.112   7.294   7.368
 5570WAT     H222987   4.145   7.383   7.466
 5570WAT    EPW22988   4.092   7.340   7.428
 5571WAT      O22989   4.186   7.325   6.979
 5571WAT     H122990   4.199   7.402   7.018
 5571WAT     H222991   4.109   7.336   6.939
 5571WAT    EPW22992   4.176   7.338   6.979
 5572WAT      O22993   4.403   6.964   7.051
 5572WAT     H122994   4.459   6.897   7.053
 5572WAT     H222995   4.428   7.014   7.118
 5572WAT    EPW22996   4.415   6.962   7.061
 5573WAT      O22997   3.196   7.098   7.297
 5573WAT     H122998   3.180   7.012   7.296
 5573WAT     H222999   3.142   7.128   7.359
 5573WAT    EPW23000   3.186   7.090   7.306
 5574WAT      O23001   4.187   7.201   7.226
 5574WAT     H123002   4.156   7.121   7.211
 5574WAT     H223003   4.182   7.240   7.148
 5574WAT    EPW23004   4.182   7.195   7.212
 5575WAT      O23005   4.153   6.930   7.169
 5575WAT     H123006   4.090   6.909   7.111
 5575WAT     H223007   4.226   6.930   7.120
 5575WAT    EPW23008   4.154   6.927   7.153
 5576WAT      O23009   3.962   7.185   7.628
 5576WAT     H123010   4.000   7.232   7.564
 5576WAT     H223011   3.986   7.227   7.700
 5576WAT    EPW23012   3.971   7.198   7.629
 5577WAT      O23013   3.533   6.777   7.550
 5577WAT     H123014   3.543   6.859   7.525
 5577WAT     H223015   3.514   6.734   7.477
 5577WAT    EPW23016   3.532   6.783   7.536
 5578WAT      O23017   4.499   6.768   7.482
 5578WAT     H123018   4.501   6.751   7.567
 5578WAT     H223019   4.536   6.697   7.446
 5578WAT    EPW23020   4.505   6.755   7.489
 5579WAT      O23021   3.512   7.223   7.632
 5579WAT     H123022   3.534   7.154   7.583
 5579WAT     H223023   3.441   7.196   7.675
 5579WAT    EPW23024   3.505   7.209   7.631
 5580WAT      O23025   4.580   7.640   6.981
 5580WAT     H123026   4.568   7.723   6.959
 5580WAT     H223027   4.549   7.635   7.062
 5580WAT    EPW23028   4.573   7.651   6.990
 5581WAT      O23029   4.922   7.068   6.980
 5581WAT     H123030   4.962   7.018   6.920
 5581WAT     H223031   4.881   7.128   6.932
 5581WAT    EPW23032   4.922   7.069   6.964
 5582WAT      O23033   3.332   7.726   7.248
 5582WAT     H123034   3.290   7.650   7.248
 5582WAT     H223035   3.392   7.716   7.185
 5582WAT    EPW23036   3.334   7.713   7.239
 5583WAT      O23037   4.786   6.938   7.191
 5583WAT     H123038   4.858   6.902   7.225
 5583WAT     H223039   4.817   6.989   7.127
 5583WAT    EPW23040   4.802   6.940   7.187
 5584WAT      O23041   4.382   7.268   7.699
 5584WAT     H123042   4.401   7.246   7.782
 5584WAT     H223043   4.338   7.198   7.669
 5584WAT    EPW23044   4.378   7.254   7.707
 5585WAT      O23045   3.867   7.146   7.132
 5585WAT     H123046   3.857   7.129   7.047
 5585WAT     H223047   3.852   7.231   7.138
 5585WAT    EPW23048   3.864   7.156   7.120
 5586WAT      O23049   3.516   7.397   7.080
 5586WAT     H123050   3.495   7.339   7.143
 5586WAT     H223051   3.481   7.362   7.008
 5586WAT    EPW23052   3.507   7.383   7.079
 5587WAT      O23053   3.375   7.784   7.681
 5587WAT     H123054   3.426   7.775   7.611
 5587WAT     H223055   3.342   7.704   7.693
 5587WAT    EPW23056   3.377   7.771   7.672
 5588WAT      O23057   4.451   7.121   7.269
 5588WAT     H123058   4.506   7.189   7.279
 5588WAT     H223059   4.372   7.159   7.269
 5588WAT    EPW23060   4.448   7.137   7.271
 5589WAT      O23061   4.214   7.559   7.129
 5589WAT     H123062   4.205   7.621   7.068
 5589WAT     H223063   4.155   7.581   7.189
 5589WAT    EPW23064   4.204   7.572   7.129
 5590WAT      O23065   3.668   6.823   7.094
 5590WAT     H123066   3.701   6.848   7.171
 5590WAT     H223067   3.627   6.894   7.066
 5590WAT    EPW23068   3.667   6.837   7.101
 5591WAT      O23069   3.546   7.676   7.072
 5591WAT     H123070   3.530   7.590   7.081
 5591WAT     H223071   3.615   7.689   7.123
 5591WAT    EPW23072   3.553   7.665   7.081
 5592WAT      O23073   3.139   6.815   7.277
 5592WAT     H123074   3.143   6.758   7.211
 5592WAT     H223075   3.107   6.767   7.343
 5592WAT    EPW23076   3.135   6.800   7.277
 5593WAT      O23077   4.019   7.596   7.335
 5593WAT     H123078   4.019   7.631   7.415
 5593WAT     H223079   4.018   7.510   7.350
 5593WAT    EPW23080   4.019   7.589   7.349
 5594WAT      O23081   3.550   7.050   6.996
 5594WAT     H123082   3.493   7.037   6.932
 5594WAT     H223083   3.618   7.086   6.956
 5594WAT    EPW23084   3.552   7.053   6.981
 5595WAT      O23085   3.975   7.574   7.634
 5595WAT     H123086   3.908   7.519   7.621
 5595WAT     H223087   3.940   7.639   7.680
 5595WAT    EPW23088   3.960   7.575   7.639
 5596WAT      O23089   3.757   7.378   7.608
 5596WAT     H123090   3.808   7.307   7.602
 5596WAT     H223091   3.680   7.345   7.633
 5596WAT    EPW23092   3.753   7.362   7.611
 5597WAT      O23093   3.221   7.466   7.252
 5597WAT     H123094   3.270   7.432   7.315
 5597WAT     H223095   3.225   7.406   7.188
 5597WAT    EPW23096   3.229   7.452   7.251
 5598WAT      O23097   3.705   7.634   6.845
 5598WAT     H123098   3.656   7.649   6.916
 5598WAT     H223099   3.652   7.589   6.792
 5598WAT    EPW23100   3.690   7.630   6.848
 5599WAT      O23101   4.912   7.676   7.661
 5599WAT     H123102   4.944   7.756   7.679
 5599WAT     H223103   4.877   7.686   7.582
 5599WAT    EPW23104   4.912   7.689   7.652
 5600WAT      O23105   3.791   7.417   7.105
 5600WAT     H123106   3.800   7.497   7.137
 5600WAT     H223107   3.704   7.406   7.102
 5600WAT    EPW23108   3.780   7.427   7.109
 5601WAT      O23109   3.199   7.250   7.712
 5601WAT     H123110   3.146   7.224   7.648
 5601WAT     H223111   3.160   7.219   7.784
 5601WAT    EPW23112   3.185   7.242   7.713
 5602WAT      O23113   4.639   7.320   7.587
 5602WAT     H123114   4.562   7.292   7.617
 5602WAT     H223115   4.651   7.395   7.630
 5602WAT    EPW23116   4.629   7.327   7.598
 5603WAT      O23117   4.827   7.514   6.968
 5603WAT     H123118   4.877   7.565   6.918
 5603WAT     H223119   4.750   7.556   6.969
 5603WAT    EPW23120   4.823   7.528   6.961
 5604WAT      O23121   3.918   7.796   6.925
 5604WAT     H123122   3.860   7.743   6.887
 5604WAT     H223123   3.885   7.876   6.911
 5604WAT    EPW23124   3.905   7.800   6.917
 5605WAT      O23125   4.602   7.354   7.314
 5605WAT     H123126   4.610   7.346   7.401
 5605WAT     H223127   4.679   7.386   7.290
 5605WAT    EPW23128   4.614   7.358   7.324
 5606WAT      O23129   4.721   6.939   7.463
 5606WAT     H123130   4.641   6.905   7.472
 5606WAT     H223131   4.727   6.954   7.377
 5606WAT    EPW23132   4.710   6.936   7.452
 5607WAT      O23133   4.763   7.701   7.433
 5607WAT     H123134   4.780   7.645   7.369
 5607WAT     H223135   4.676   7.694   7.443
 5607WAT    EPW23136   4.752   7.692   7.425
 5608WAT      O23137   3.459   7.167   7.235
 5608WAT     H123138   3.476   7.125   7.160
 5608WAT     H223139   3.375   7.149   7.250
 5608WAT    EPW23140   3.449   7.158   7.226
 5609WAT      O23141   4.830   7.500   7.249
 5609WAT     H123142   4.832   7.514   7.163
 5609WAT     H223143   4.914   7.490   7.270
 5609WAT    EPW23144   4.843   7.501   7.239
 5610WAT      O23145   3.383   7.301   6.851
 5610WAT     H123146   3.311   7.302   6.899
 5610WAT     H223147   3.385   7.219   6.819
 5610WAT    EPW23148   3.373   7.289   6.853
 5611WAT      O23149   4.220   7.060   7.619
 5611WAT     H123150   4.134   7.072   7.620
 5611WAT     H223151   4.230   6.992   7.565
 5611WAT    EPW23152   4.209   7.051   7.611
 5612WAT      O23153   4.656   7.563   7.714
 5612WAT     H123154   4.734   7.601   7.710
 5612WAT     H223155   4.609   7.607   7.655
 5612WAT    EPW23156   4.660   7.575   7.705
 5613WAT      O23157   3.940   6.838   7.009
 5613WAT     H123158   3.953   6.848   6.924
 5613WAT     H223159   3.854   6.843   7.018
 5613WAT    EPW23160   3.930   6.840   6.998
 5614WAT      O23161   4.261   7.492   7.578
 5614WAT     H123162   4.296   7.429   7.627
 5614WAT     H223163   4.192   7.518   7.625
 5614WAT    EPW23164   4.256   7.487   7.592
 5615WAT      O23165   3.382   7.407   7.469
 5615WAT     H123166   3.343   7.456   7.529
 5615WAT     H223167   3.417   7.341   7.516
 5615WAT    EPW23168   3.382   7.404   7.485
 5616WAT      O23169   4.472   7.585   7.230
 5616WAT     H123170   4.503   7.506   7.251
 5616WAT     H223171   4.390   7.569   7.204
 5616WAT    EPW23172   4.464   7.571   7.229
 5617WAT      O23173   3.814   7.689   7.166
 5617WAT     H123174   3.861   7.728   7.103
 5617WAT     H223175   3.874   7.674   7.228
 5617WAT    EPW23176   3.830   7.693   7.166
 5618WAT      O23177   4.278   6.920   5.538
 5618WAT     H123178   4.223   6.907   5.472
 5618WAT     H223179   4.337   6.975   5.506
 5618WAT    EPW23180   4.278   6.926   5.523
 5619WAT      O23181   4.214   7.430   6.016
 5619WAT     H123182   4.170   7.501   6.040
 5619WAT     H223183   4.275   7.422   6.078
 5619WAT    EPW23184   4.216   7.439   6.029
 5620WAT      O23185   3.183   7.341   5.185
 5620WAT     H123186   3.115   7.385   5.151
 5620WAT     H223187   3.150   7.262   5.199
 5620WAT    EPW23188   3.168   7.336   5.182
 5621WAT      O23189   3.455   7.914   4.961
 5621WAT     H123190   3.414   7.865   4.901
 5621WAT     H223191   3.453   7.865   5.033
 5621WAT    EPW23192   3.448   7.900   4.963
 5622WAT      O23193   4.480   7.606   5.723
 5622WAT     H123194   4.477   7.610   5.636
 5622WAT     H223195   4.423   7.543   5.743
 5622WAT    EPW23196   4.471   7.597   5.713
 5623WAT      O23197   3.812   6.951   5.442
 5623WAT     H123198   3.854   7.010   5.394
 5623WAT     H223199   3.768   6.904   5.384
 5623WAT    EPW23200   3.811   6.953   5.427
 5624WAT      O23201   3.436   7.790   5.652
 5624WAT     H123202   3.402   7.785   5.571
 5624WAT     H223203   3.472   7.712   5.664
 5624WAT    EPW23204   3.436   7.778   5.642
 5625WAT      O23205   3.802   7.269   6.213
 5625WAT     H123206   3.870   7.261   6.159
 5625WAT     H223207   3.756   7.197   6.198
 5625WAT    EPW23208   3.805   7.257   6.203
 5626WAT      O23209   3.511   7.530   5.741
 5626WAT     H123210   3.579   7.476   5.744
 5626WAT     H223211   3.444   7.478   5.719
 5626WAT    EPW23212   3.511   7.514   5.738
 5627WAT      O23213   4.186   7.529   6.713
 5627WAT     H123214   4.105   7.524   6.681
 5627WAT     H223215   4.181   7.595   6.770
 5627WAT    EPW23216   4.174   7.538   6.717
 5628WAT      O23217   3.568   7.017   5.553
 5628WAT     H123218   3.522   7.053   5.489
 5628WAT     H223219   3.648   7.010   5.519
 5628WAT    EPW23220   3.573   7.021   5.538
 5629WAT      O23221   4.602   6.767   6.520
 5629WAT     H123222   4.577   6.830   6.465
 5629WAT     H223223   4.528   6.744   6.560
 5629WAT    EPW23224   4.588   6.772   6.518
 5630WAT      O23225   3.895   6.922   5.710
 5630WAT     H123226   3.917   7.004   5.729
 5630WAT     H223227   3.866   6.927   5.628
 5630WAT    EPW23228   3.894   6.935   5.701
 5631WAT      O23229   4.363   7.123   4.966
 5631WAT     H123230   4.327   7.194   5.002
 5631WAT     H223231   4.372   7.068   5.033
 5631WAT    EPW23232   4.359   7.126   4.981
 5632WAT      O23233   3.158   7.409   5.933
 5632WAT     H123234   3.119   7.487   5.937
 5632WAT     H223235   3.107   7.359   5.984
 5632WAT    EPW23236   3.144   7.413   5.941
 5633WAT      O23237   3.443   6.997   5.973
 5633WAT     H123238   3.434   6.912   5.956
 5633WAT     H223239   3.506   6.999   6.033
 5633WAT    EPW23240   3.451   6.985   5.980
 5634WAT      O23241   3.785   7.126   6.856
 5634WAT     H123242   3.797   7.090   6.777
 5634WAT     H223243   3.827   7.202   6.850
 5634WAT    EPW23244   3.793   7.132   6.843
 5635WAT      O23245   4.960   7.075   5.678
 5635WAT     H123246   4.896   7.134   5.678
 5635WAT     H223247   4.918   6.999   5.669
 5635WAT    EPW23248   4.944   7.072   5.677
 5636WAT      O23249   3.383   7.025   6.776
 5636WAT     H123250   3.303   6.994   6.762
 5636WAT     H223251   3.431   6.985   6.714
 5636WAT    EPW23252   3.378   7.014   6.765
 5637WAT      O23253   3.987   6.865   6.739
 5637WAT     H123254   4.012   6.794   6.696
 5637WAT     H223255   3.927   6.901   6.687
 5637WAT    EPW23256   3.982   6.860   6.725
 5638WAT      O23257   4.108   7.361   5.586
 5638WAT     H123258   4.135   7.319   5.515
 5638WAT     H223259   4.181   7.371   5.633
 5638WAT    EPW23260   4.123   7.356   5.582
 5639WAT      O23261   4.230   7.341   5.093
 5639WAT     H123262   4.240   7.415   5.139
 5639WAT     H223263   4.152   7.351   5.056
 5639WAT    EPW23264   4.220   7.354   5.094
 5640WAT      O23265   4.841   7.006   6.105
 5640WAT     H123266   4.910   7.006   6.051
 5640WAT     H223267   4.856   6.937   6.157
 5640WAT    EPW23268   4.854   6.996   6.105
 5641WAT      O23269   3.103   7.181   6.551
 5641WAT     H123270   3.084   7.258   6.588
 5641WAT     H223271   3.165   7.201   6.493
 5641WAT    EPW23272   3.109   7.195   6.548
 5642WAT      O23273   4.391   6.955   5.186
 5642WAT     H123274   4.452   6.893   5.190
 5642WAT     H223275   4.412   7.008   5.251
 5642WAT    EPW23276   4.403   6.953   5.196
 5643WAT      O23277   3.213   7.062   5.508
 5643WAT     H123278   3.187   6.982   5.486
 5643WAT     H223279   3.159   7.083   5.574
 5643WAT    EPW23280   3.201   7.053   5.514
 5644WAT      O23281   4.178   7.228   5.345
 5644WAT     H123282   4.105   7.184   5.330
 5644WAT     H223283   4.196   7.266   5.268
 5644WAT    EPW23284   4.170   7.227   5.332
 5645WAT      O23285   4.149   6.861   5.298
 5645WAT     H123286   4.085   6.846   5.241
 5645WAT     H223287   4.216   6.888   5.249
 5645WAT    EPW23288   4.149   6.863   5.283
 5646WAT      O23289   3.971   7.188   5.763
 5646WAT     H123290   4.006   7.251   5.713
 5646WAT     H223291   3.981   7.218   5.844
 5646WAT    EPW23292   3.977   7.202   5.768
 5647WAT      O23293   3.561   6.752   5.646
 5647WAT     H123294   3.569   6.836   5.626
 5647WAT     H223295   3.514   6.719   5.580
 5647WAT    EPW23296   3.555   6.759   5.633
 5648WAT      O23297   3.671   7.806   6.084
 5648WAT     H123298   3.673   7.738   6.138
 5648WAT     H223299   3.614   7.782   6.023
 5648WAT    EPW23300   3.663   7.793   6.083
 5649WAT      O23301   4.334   7.159   6.349
 5649WAT     H123302   4.327   7.202   6.424
 5649WAT     H223303   4.265   7.105   6.349
 5649WAT    EPW23304   4.323   7.158   6.360
 5650WAT      O23305   4.727   7.184   6.450
 5650WAT     H123306   4.811   7.178   6.472
 5650WAT     H223307   4.686   7.182   6.527
 5650WAT    EPW23308   4.733   7.183   6.465
 5651WAT      O23309   3.482   7.172   5.764
 5651WAT     H123310   3.505   7.118   5.698
 5651WAT     H223311   3.468   7.118   5.831
 5651WAT    EPW23312   3.483   7.156   5.764
 5652WAT      O23313   3.368   7.358   6.116
 5652WAT     H123314   3.446   7.371   6.080
 5652WAT     H223315   3.312   7.375   6.052
 5652WAT    EPW23316   3.371   7.362   6.101
 5653WAT      O23317   4.598   7.658   5.092
 5653WAT     H123318   4.576   7.732   5.051
 5653WAT     H223319   4.612   7.683   5.174
 5653WAT    EPW23320   4.597   7.673   5.098
 5654WAT      O23321   4.880   7.078   5.193
 5654WAT     H123322   4.937   7.023   5.156
 5654WAT     H223323   4.848   7.124   5.126
 5654WAT    EPW23324   4.884   7.077   5.178
 5655WAT      O23325   3.928   7.362   6.870
 5655WAT     H123326   3.881   7.398   6.934
 5655WAT     H223327   3.916   7.416   6.803
 5655WAT    EPW23328   3.919   7.375   6.869
 5656WAT      O23329   5.025   7.454   6.332
 5656WAT     H123330   5.091   7.396   6.337
 5656WAT     H223331   4.972   7.418   6.272
 5656WAT    EPW23332   5.027   7.440   6.324
 5657WAT      O23333   3.344   7.727   5.395
 5657WAT     H123334   3.300   7.653   5.405
 5657WAT     H223335   3.407   7.705   5.338
 5657WAT    EPW23336   3.347   7.713   5.388
 5658WAT      O23337   4.755   6.922   5.393
 5658WAT     H123338   4.829   6.879   5.411
 5658WAT     H223339   4.780   6.986   5.340
 5658WAT    EPW23340   4.769   6.925   5.388
 5659WAT      O23341   4.489   7.132   5.765
 5659WAT     H123342   4.517   7.107   5.844
 5659WAT     H223343   4.405   7.106   5.764
 5659WAT    EPW23344   4.481   7.124   5.776
 5660WAT      O23345   3.927   7.133   5.269
 5660WAT     H123346   3.921   7.102   5.188
 5660WAT     H223347   3.886   7.210   5.265
 5660WAT    EPW23348   3.920   7.140   5.257
 5661WAT      O23349   3.496   7.509   6.702
 5661WAT     H123350   3.459   7.446   6.750
 5661WAT     H223351   3.512   7.470   6.626
 5661WAT    EPW23352   3.493   7.494   6.698
 5662WAT      O23353   3.526   7.369   5.216
 5662WAT     H123354   3.494   7.310   5.271
 5662WAT     H223355   3.487   7.352   5.140
 5662WAT    EPW23356   3.516   7.358   5.213
 5663WAT      O23357   3.446   7.729   5.929
 5663WAT     H123358   3.430   7.780   5.860
 5663WAT     H223359   3.466   7.651   5.893
 5663WAT    EPW23360   3.447   7.725   5.913
 5664WAT      O23361   3.592   7.593   6.271
 5664WAT     H123362   3.602   7.540   6.203
 5664WAT     H223363   3.518   7.636   6.254
 5664WAT    EPW23364   3.583   7.592   6.259
 5665WAT      O23365   4.630   7.327   6.054
 5665WAT     H123366   4.567   7.363   6.102
 5665WAT     H223367   4.640   7.383   5.988
 5665WAT    EPW23368   4.622   7.341   6.051
 5666WAT      O23369   4.139   6.969   6.411
 5666WAT     H123370   4.159   6.889   6.383
 5666WAT     H223371   4.170   6.971   6.493
 5666WAT    EPW23372   4.147   6.957   6.419
 5667WAT      O23373   4.428   7.121   5.406
 5667WAT     H123374   4.489   7.183   5.410
 5667WAT     H223375   4.354   7.165   5.392
 5667WAT    EPW23376   4.426   7.136   5.405
 5668WAT      O23377   3.331   7.731   6.681
 5668WAT     H123378   3.304   7.731   6.598
 5668WAT     H223379   3.380   7.659   6.686
 5668WAT    EPW23380   3.334   7.721   6.670
 5669WAT      O23381   4.010   7.244   6.031
 5669WAT     H123382   4.077   7.299   6.034
 5669WAT     H223383   4.045   7.168   6.057
 5669WAT    EPW23384   4.025   7.241   6.035
 5670WAT      O23385   4.250   7.562   5.259
 5670WAT     H123386   4.240   7.619   5.194
 5670WAT     H223387   4.186   7.582   5.314
 5670WAT    EPW23388   4.239   7.573   5.257
 5671WAT      O23389   4.851   7.789   6.425
 5671WAT     H123390   4.826   7.759   6.347
 5671WAT     H223391   4.937   7.774   6.426
 5671WAT    EPW23392   4.860   7.782   6.414
 5672WAT      O23393   4.734   6.902   6.721
 5672WAT     H123394   4.693   6.859   6.657
 5672WAT     H223395   4.740   6.843   6.785
 5672WAT    EPW23396   4.729   6.887   6.721
 5673WAT      O23397   3.556   7.647   5.220
 5673WAT     H123398   3.540   7.562   5.226
 5673WAT     H223399   3.632   7.657   5.262
 5673WAT    EPW23400   3.565   7.636   5.227
 5674WAT      O23401   4.263   7.744   6.298
 5674WAT     H123402   4.280   7.820   6.337
 5674WAT     H223403   4.308   7.686   6.346
 5674WAT    EPW23404   4.272   7.746   6.311
 5675WAT      O23405   3.150   6.786   5.414
 5675WAT     H123406   3.141   6.737   5.342
 5675WAT     H223407   3.113   6.738   5.477
 5675WAT    EPW23408   3.143   6.772   5.413
 5676WAT      O23409   4.055   7.607   5.461
 5676WAT     H123410   4.064   7.666   5.525
 5676WAT     H223411   4.062   7.530   5.502
 5676WAT    EPW23412   4.058   7.604   5.476
 5677WAT      O23413   3.353   6.978   5.145
 5677WAT     H123414   3.364   7.002   5.062
 5677WAT     H223415   3.416   6.920   5.159
 5677WAT    EPW23416   3.364   6.973   5.135
 5678WAT      O23417   3.917   7.785   5.937
 5678WAT     H123418   3.844   7.801   5.982
 5678WAT     H223419   3.968   7.744   5.994
 5678WAT    EPW23420   3.914   7.781   5.952
 5679WAT      O23421   3.396   7.779   6.200
 5679WAT     H123422   3.460   7.838   6.198
 5679WAT     H223423   3.386   7.756   6.117
 5679WAT    EPW23424   3.404   7.784   6.188
 5680WAT      O23425   3.705   7.330   5.799
 5680WAT     H123426   3.778   7.286   5.777
 5680WAT     H223427   3.642   7.271   5.788
 5680WAT    EPW23428   3.707   7.315   5.794
 5681WAT      O23429   3.210   7.480   5.434
 5681WAT     H123430   3.233   7.437   5.506
 5681WAT     H223431   3.224   7.422   5.371
 5681WAT    EPW23432   3.216   7.465   5.436
 5682WAT      O23433   4.765   7.663   6.184
 5682WAT     H123434   4.750   7.589   6.228
 5682WAT     H223435   4.685   7.691   6.163
 5682WAT    EPW23436   4.751   7.656   6.188
 5683WAT      O23437   3.696   7.628   4.975
 5683WAT     H123438   3.647   7.638   5.047
 5683WAT     H223439   3.643   7.587   4.920
 5683WAT    EPW23440   3.681   7.624   4.978
 5684WAT      O23441   4.914   7.620   5.949
 5684WAT     H123442   4.877   7.636   6.027
 5684WAT     H223443   4.954   7.696   5.930
 5684WAT    EPW23444   4.914   7.634   5.958
 5685WAT      O23445   3.803   7.379   5.223
 5685WAT     H123446   3.813   7.461   5.251
 5685WAT     H223447   3.716   7.370   5.219
 5685WAT    EPW23448   3.792   7.390   5.227
 5686WAT      O23449   4.598   7.149   6.699
 5686WAT     H123450   4.526   7.150   6.748
 5686WAT     H223451   4.632   7.070   6.714
 5686WAT    EPW23452   4.592   7.137   6.708
 5687WAT      O23453   3.162   7.061   5.970
 5687WAT     H123454   3.141   7.078   5.888
 5687WAT     H223455   3.249   7.048   5.967
 5687WAT    EPW23456   3.172   7.062   5.958
 5688WAT      O23457   4.465   7.475   6.789
 5688WAT     H123458   4.491   7.523   6.856
 5688WAT     H223459   4.381   7.497   6.779
 5688WAT    EPW23460   4.456   7.485   6.797
 5689WAT      O23461   4.648   7.551   6.598
 5689WAT     H123462   4.671   7.631   6.624
 5689WAT     H223463   4.595   7.523   6.662
 5689WAT    EPW23464   4.643   7.558   6.611
 5690WAT      O23465   4.731   7.246   5.681
 5690WAT     H123466   4.657   7.210   5.711
 5690WAT     H223467   4.737   7.320   5.725
 5690WAT    EPW23468   4.721   7.252   5.692
 5691WAT      O23469   4.965   7.655   6.773
 5691WAT     H123470   4.961   7.590   6.714
 5691WAT     H223471   5.044   7.689   6.760
 5691WAT    EPW23472   4.976   7.650   6.762
 5692WAT      O23473   4.557   6.986   6.351
 5692WAT     H123474   4.618   7.046   6.368
 5692WAT     H223475   4.483   7.033   6.346
 5692WAT    EPW23476   4.555   7.002   6.353
 5693WAT      O23477   4.068   7.639   6.132
 5693WAT     H123478   4.129   7.681   6.177
 5693WAT     H223479   4.013   7.611   6.194
 5693WAT    EPW23480   4.069   7.641   6.148
 5694WAT      O23481   3.796   7.277   6.491
 5694WAT     H123482   3.801   7.194   6.518
 5694WAT     H223483   3.811   7.271   6.405
 5694WAT    EPW23484   3.799   7.264   6.482
 5695WAT      O23485   4.591   6.775   6.168
 5695WAT     H123486   4.578   6.848   6.214
 5695WAT     H223487   4.676   6.759   6.178
 5695WAT    EPW23488   4.601   6.783   6.176
 5696WAT      O23489   3.869   6.918   6.328
 5696WAT     H123490   3.952   6.945   6.327
 5696WAT     H223491   3.875   6.833   6.311
 5696WAT    EPW23492   3.882   6.910   6.326
 5697WAT      O23493   4.835   7.506   5.080
 5697WAT     H123494   4.886   7.553   5.027
 5697WAT     H223495   4.760   7.550   5.080
 5697WAT    EPW23496   4.832   7.520   5.072
 5698WAT      O23497   3.930   7.762   5.049
 5698WAT     H123498   3.866   7.716   5.011
 5698WAT     H223499   3.903   7.845   5.041
 5698WAT    EPW23500   3.916   7.768   5.042
 5699WAT      O23501   3.637   7.424   6.056
 5699WAT     H123502   3.661   7.409   5.973
 5699WAT     H223503   3.690   7.374   6.103
 5699WAT    EPW23504   3.648   7.414   6.051
 5700WAT      O23505   4.322   7.324   6.575
 5700WAT     H123506   4.262   7.371   6.618
 5700WAT     H223507   4.382   7.307   6.636
 5700WAT    EPW23508   4.322   7.328   6.590
 5701WAT      O23509   4.407   7.390   6.208
 5701WAT     H123510   4.420   7.444   6.275
 5701WAT     H223511   4.386   7.315   6.246
 5701WAT    EPW23512   4.406   7.387   6.223
 5702WAT      O23513   4.621   7.329   5.439
 5702WAT     H123514   4.656   7.303   5.515
 5702WAT     H223515   4.686   7.375   5.402
 5702WAT    EPW23516   4.636   7.332   5.445
 5703WAT      O23517   3.882   6.835   5.990
 5703WAT     H123518   3.801   6.824   6.021
 5703WAT     H223519   3.870   6.855   5.906
 5703WAT    EPW23520   3.868   6.836   5.982
 5704WAT      O23521   4.584   6.901   5.616
 5704WAT     H123522   4.562   6.979   5.651
 5704WAT     H223523   4.629   6.923   5.545
 5704WAT    EPW23524   4.587   6.916   5.611
 5705WAT      O23525   4.658   7.722   5.352
 5705WAT     H123526   4.725   7.670   5.370
 5705WAT     H223527   4.591   7.684   5.391
 5705WAT    EPW23528   4.658   7.709   5.360
 5706WAT      O23529   3.113   6.948   6.707
 5706WAT     H123530   3.114   7.021   6.658
 5706WAT     H223531   3.029   6.924   6.705
 5706WAT    EPW23532   3.100   6.956   6.699
 5707WAT      O23533   3.421   7.150   5.355
 5707WAT     H123534   3.406   7.098   5.287
 5707WAT     H223535   3.351   7.138   5.405
 5707WAT    EPW23536   3.409   7.140   5.352
 5708WAT      O23537   4.918   7.453   6.589
 5708WAT     H123538   4.832   7.469   6.590
 5708WAT     H223539   4.940   7.463   6.505
 5708WAT    EPW23540   4.909   7.457   6.576
 5709WAT      O23541   4.411   7.553   6.439
 5709WAT     H123542   4.374   7.488   6.484
 5709WAT     H223543   4.484   7.570   6.483
 5709WAT    EPW23544   4.417   7.546   6.452
 5710WAT      O23545   4.189   7.730   6.910
 5710WAT     H123546   4.239   7.800   6.898
 5710WAT     H223547   4.108   7.762   6.911
 5710WAT    EPW23548   4.185   7.745   6.908
 5711WAT      O23549   3.541   7.386   6.459
 5711WAT     H123550   3.557   7.448   6.400
 5711WAT     H223551   3.619   7.349   6.471
 5711WAT    EPW23552   3.555   7.390   6.452
 5712WAT      O23553   3.312   7.259   6.365
 5712WAT     H123554   3.325   7.277   6.281
 5712WAT     H223555   3.382   7.294   6.404
 5712WAT    EPW23556   3.324   7.267   6.358
 5713WAT      O23557   4.832   7.501   5.361
 5713WAT     H123558   4.846   7.507   5.275
 5713WAT     H223559   4.912   7.495   5.395
 5713WAT    EPW23560   4.846   7.501   5.354
 5714WAT      O23561   3.541   6.911   6.573
 5714WAT     H123562   3.558   6.831   6.543
 5714WAT     H223563   3.506   6.951   6.505
 5714WAT    EPW23564   3.538   6.905   6.559
 5715WAT      O23565   4.704   7.446   6.344
 5715WAT     H123566   4.711   7.361   6.359
 5715WAT     H223567   4.681   7.478   6.422
 5715WAT    EPW23568   4.701   7.438   6.358
 5716WAT      O23569   3.227   7.711   6.416
 5716WAT     H123570   3.274   7.740   6.349
 5716WAT     H223571   3.197   7.634   6.389
 5716WAT    EPW23572   3.230   7.704   6.402
 5717WAT      O23573   3.377   7.321   4.985
 5717WAT     H123574   3.309   7.328   5.038
 5717WAT     H223575   3.368   7.242   4.950
 5717WAT    EPW23576   3.366   7.310   4.987
 5718WAT      O23577   4.236   6.971   6.673
 5718WAT     H123578   4.268   7.034   6.724
 5718WAT     H223579   4.159   6.951   6.710
 5718WAT    EPW23580   4.229   6.977   6.686
 5719WAT      O23581   4.226   7.044   5.777
 5719WAT     H123582   4.150   7.087   5.778
 5719WAT     H223583   4.225   7.002   5.701
 5719WAT    EPW23584   4.215   7.044   5.766
 5720WAT      O23585   4.575   7.060   6.015
 5720WAT     H123586   4.650   7.022   6.037
 5720WAT     H223587   4.588   7.144   6.038
 5720WAT    EPW23588   4.588   7.067   6.022
 5721WAT      O23589   3.736   7.668   6.510
 5721WAT     H123590   3.676   7.709   6.559
 5721WAT     H223591   3.694   7.653   6.435
 5721WAT    EPW23592   3.721   7.672   6.506
 5722WAT      O23593   4.699   7.479   5.833
 5722WAT     H123594   4.764   7.533   5.855
 5722WAT     H223595   4.640   7.532   5.797
 5722WAT    EPW23596   4.700   7.495   5.831
 5723WAT      O23597   3.646   7.046   6.180
 5723WAT     H123598   3.578   7.035   6.234
 5723WAT     H223599   3.703   6.986   6.206
 5723WAT    EPW23600   3.644   7.035   6.192
 5724WAT      O23601   4.864   6.789   6.283
 5724WAT     H123602   4.839   6.819   6.362
 5724WAT     H223603   4.950   6.779   6.292
 5724WAT    EPW23604   4.873   6.792   6.296
 5725WAT      O23605   4.092   6.990   6.096
 5725WAT     H123606   4.031   6.937   6.061
 5725WAT     H223607   4.167   6.949   6.078
 5725WAT    EPW23608   4.094   6.976   6.088
 5726WAT      O23609   3.922   7.492   6.621
 5726WAT     H123610   3.892   7.422   6.579
 5726WAT     H223611   3.870   7.556   6.594
 5726WAT    EPW23612   3.910   7.491   6.611
 5727WAT      O23613   3.957   6.783   5.112
 5727WAT     H123614   3.967   6.806   5.028
 5727WAT     H223615   3.874   6.803   5.129
 5727WAT    EPW23616   3.946   6.789   5.102
 5728WAT      O23617   3.427   7.007   6.345
 5728WAT     H123618   3.368   6.944   6.335
 5728WAT     H223619   3.378   7.080   6.347
 5728WAT    EPW23620   3.411   7.009   6.344
 5729WAT      O23621   4.340   6.900   5.992
 5729WAT     H123622   4.409   6.947   6.016
 5729WAT     H223623   4.307   6.945   5.925
 5729WAT    EPW23624   4.345   6.913   5.985
 5730WAT      O23625   4.323   7.379   5.766
 5730WAT     H123626   4.381   7.315   5.778
 5730WAT     H223627   4.290   7.392   5.845
 5730WAT    EPW23628   4.326   7.371   5.779
 5731WAT      O23629   3.292   7.365   5.685
 5731WAT     H123630   3.242   7.375   5.756
 5731WAT     H223631   3.339   7.293   5.703
 5731WAT    EPW23632   3.292   7.355   5.698
 5732WAT      O23633   4.458   7.559   5.448
 5732WAT     H123634   4.498   7.482   5.442
 5732WAT     H223635   4.397   7.555   5.386
 5732WAT    EPW23636   4.455   7.547   5.438
 5733WAT      O23637   3.834   7.647   5.291
 5733WAT     H123638   3.873   7.687   5.224
 5733WAT     H223639   3.897   7.642   5.351
 5733WAT    EPW23640   3.849   7.652   5.290
 5734WAT      O23641   4.740   7.799   6.682
 5734WAT     H123642   4.811   7.769   6.723
 5734WAT     H223643   4.768   7.817   6.602
 5734WAT    EPW23644   4.754   7.797   6.677
 5735WAT      O23645   4.809   7.267   6.834
 5735WAT     H123646   4.795   7.348   6.864
 5735WAT     H223647   4.733   7.248   6.794
 5735WAT    EPW23648   4.795   7.276   6.832
 5736WAT      O23649   4.892   7.286   6.138
 5736WAT     H123650   4.810   7.309   6.118
 5736WAT     H223651   4.889   7.199   6.140
 5736WAT    EPW23652   4.879   7.277   6.135
 5737WAT      O23653   3.799   7.007   6.583
 5737WAT     H123654   3.827   6.979   6.505
 5737WAT     H223655   3.717   6.978   6.586
 5737WAT    EPW23656   3.791   6.999   6.572
 5738WAT      O23657   4.541   7.898   6.880
 5738WAT     H123658   4.599   7.893   6.815
 5738WAT     H223659   4.547   7.981   6.906
 5738WAT    EPW23660   4.551   7.909   6.875
 5739WAT      O23661   4.229   6.810   3.676
 5739WAT     H123662   4.232   6.857   3.603
 5739WAT     H223663   4.313   6.792   3.692
 5739WAT    EPW23664   4.242   6.814   3.667
 5740WAT      O23665   4.199   7.455   4.129
 5740WAT     H123666   4.159   7.527   4.158
 5740WAT     H223667   4.259   7.440   4.189
 5740WAT    EPW23668   4.202   7.464   4.142
 5741WAT      O23669   3.159   7.319   3.270
 5741WAT     H123670   3.093   7.366   3.236
 5741WAT     H223671   3.128   7.237   3.271
 5741WAT    EPW23672   3.145   7.314   3.265
 5742WAT      O23673   3.446   7.911   3.081
 5742WAT     H123674   3.410   7.859   3.021
 5742WAT     H223675   3.461   7.858   3.148
 5742WAT    EPW23676   3.443   7.895   3.082
 5743WAT      O23677   4.457   7.616   3.812
 5743WAT     H123678   4.453   7.613   3.725
 5743WAT     H223679   4.401   7.553   3.837
 5743WAT    EPW23680   4.448   7.606   3.803
 5744WAT      O23681   3.898   6.953   3.546
 5744WAT     H123682   3.891   7.021   3.492
 5744WAT     H223683   3.976   6.919   3.526
 5744WAT    EPW23684   3.909   6.958   3.535
 5745WAT      O23685   3.434   7.723   3.764
 5745WAT     H123686   3.391   7.744   3.691
 5745WAT     H223687   3.478   7.651   3.742
 5745WAT    EPW23688   3.434   7.716   3.750
 5746WAT      O23689   3.800   7.280   4.326
 5746WAT     H123690   3.866   7.278   4.270
 5746WAT     H223691   3.762   7.202   4.315
 5746WAT    EPW23692   3.804   7.268   4.316
 5747WAT      O23693   3.539   7.477   3.703
 5747WAT     H123694   3.594   7.437   3.758
 5747WAT     H223695   3.464   7.434   3.714
 5747WAT    EPW23696   3.536   7.464   3.713
 5748WAT      O23697   4.184   7.502   4.813
 5748WAT     H123698   4.100   7.499   4.788
 5748WAT     H223699   4.186   7.567   4.871
 5748WAT    EPW23700   4.172   7.511   4.818
 5749WAT      O23701   3.620   6.988   3.628
 5749WAT     H123702   3.583   7.046   3.574
 5749WAT     H223703   3.706   7.002   3.616
 5749WAT    EPW23704   3.628   6.999   3.618
 5750WAT      O23705   4.587   6.758   4.632
 5750WAT     H123706   4.566   6.822   4.576
 5750WAT     H223707   4.510   6.737   4.668
 5750WAT    EPW23708   4.573   6.765   4.629
 5751WAT      O23709   3.936   6.943   3.830
 5751WAT     H123710   3.933   7.029   3.846
 5751WAT     H223711   3.924   6.938   3.744
 5751WAT    EPW23712   3.934   6.955   3.820
 5752WAT      O23713   4.366   7.132   3.066
 5752WAT     H123714   4.322   7.200   3.100
 5752WAT     H223715   4.376   7.078   3.134
 5752WAT    EPW23716   4.361   7.134   3.081
 5753WAT      O23717   3.176   7.395   4.018
 5753WAT     H123718   3.140   7.474   4.020
 5753WAT     H223719   3.124   7.347   4.069
 5753WAT    EPW23720   3.163   7.399   4.026
 5754WAT      O23721   3.445   6.941   4.042
 5754WAT     H123722   3.428   6.864   4.005
 5754WAT     H223723   3.506   6.923   4.101
 5754WAT    EPW23724   3.452   6.927   4.045
 5755WAT      O23725   3.902   7.091   4.990
 5755WAT     H123726   3.863   7.070   4.915
 5755WAT     H223727   3.924   7.174   4.980
 5755WAT    EPW23728   3.899   7.100   4.978
 5756WAT      O23729   4.923   7.092   3.781
 5756WAT     H123730   4.872   7.162   3.781
 5756WAT     H223731   4.867   7.026   3.773
 5756WAT    EPW23732   4.907   7.092   3.780
 5757WAT      O23733   3.355   7.058   4.880
 5757WAT     H123734   3.279   7.028   4.850
 5757WAT     H223735   3.414   7.018   4.829
 5757WAT    EPW23736   3.353   7.048   4.868
 5758WAT      O23737   3.986   6.828   4.838
 5758WAT     H123738   4.006   6.757   4.791
 5758WAT     H223739   3.920   6.864   4.795
 5758WAT    EPW23740   3.979   6.823   4.825
 5759WAT      O23741   4.089   7.371   3.685
 5759WAT     H123742   4.118   7.325   3.617
 5759WAT     H223743   4.159   7.379   3.737
 5759WAT    EPW23744   4.103   7.365   3.683
 5760WAT      O23745   4.197   7.322   3.190
 5760WAT     H123746   4.217   7.400   3.224
 5760WAT     H223747   4.121   7.337   3.150
 5760WAT    EPW23748   4.189   7.336   3.189
 5761WAT      O23749   4.852   7.037   4.214
 5761WAT     H123750   4.917   7.044   4.156
 5761WAT     H223751   4.874   6.967   4.261
 5761WAT    EPW23752   4.865   7.028   4.212
 5762WAT      O23753   3.103   7.177   4.625
 5762WAT     H123754   3.093   7.252   4.669
 5762WAT     H223755   3.168   7.194   4.570
 5762WAT    EPW23756   3.111   7.190   4.624
 5763WAT      O23757   4.388   6.965   3.286
 5763WAT     H123758   4.444   6.898   3.293
 5763WAT     H223759   4.410   7.016   3.354
 5763WAT    EPW23760   4.399   6.962   3.297
 5764WAT      O23761   3.234   7.058   3.542
 5764WAT     H123762   3.210   6.975   3.527
 5764WAT     H223763   3.188   7.081   3.612
 5764WAT    EPW23764   3.224   7.049   3.550
 5765WAT      O23765   4.158   7.229   3.451
 5765WAT     H123766   4.086   7.182   3.436
 5765WAT     H223767   4.177   7.263   3.373
 5765WAT    EPW23768   4.150   7.227   3.437
 5766WAT      O23769   4.149   6.896   3.414
 5766WAT     H123770   4.094   6.879   3.349
 5766WAT     H223771   4.222   6.921   3.373
 5766WAT    EPW23772   4.152   6.897   3.398
 5767WAT      O23773   3.924   7.222   3.861
 5767WAT     H123774   3.972   7.271   3.807
 5767WAT     H223775   3.950   7.246   3.940
 5767WAT    EPW23776   3.935   7.233   3.865
 5768WAT      O23777   3.594   6.724   3.712
 5768WAT     H123778   3.600   6.808   3.689
 5768WAT     H223779   3.625   6.682   3.642
 5768WAT    EPW23780   3.599   6.730   3.698
 5769WAT      O23781   3.666   7.806   4.198
 5769WAT     H123782   3.678   7.740   4.253
 5769WAT     H223783   3.621   7.771   4.133
 5769WAT    EPW23784   3.661   7.791   4.197
 5770WAT      O23785   4.326   7.156   4.454
 5770WAT     H123786   4.325   7.195   4.532
 5770WAT     H223787   4.259   7.101   4.457
 5770WAT    EPW23788   4.316   7.154   4.466
 5771WAT      O23789   4.489   6.738   3.751
 5771WAT     H123790   4.498   6.720   3.836
 5771WAT     H223791   4.524   6.668   3.712
 5771WAT    EPW23792   4.496   6.725   3.758
 5772WAT      O23793   4.714   7.177   4.563
 5772WAT     H123794   4.799   7.173   4.579
 5772WAT     H223795   4.678   7.173   4.643
 5772WAT    EPW23796   4.721   7.176   4.577
 5773WAT      O23797   3.489   7.127   3.839
 5773WAT     H123798   3.526   7.079   3.777
 5773WAT     H223799   3.477   7.071   3.905
 5773WAT    EPW23800   3.493   7.112   3.840
 5774WAT      O23801   3.370   7.340   4.218
 5774WAT     H123802   3.449   7.359   4.187
 5774WAT     H223803   3.316   7.359   4.151
 5774WAT    EPW23804   3.374   7.346   4.203
 5775WAT      O23805   4.584   7.647   3.188
 5775WAT     H123806   4.556   7.720   3.149
 5775WAT     H223807   4.599   7.672   3.270
 5775WAT    EPW23808   4.582   7.662   3.194
 5776WAT      O23809   4.896   7.091   3.258
 5776WAT     H123810   4.948   7.031   3.222
 5776WAT     H223811   4.863   7.133   3.189
 5776WAT    EPW23812   4.899   7.088   3.242
 5777WAT      O23813   3.965   7.360   4.998
 5777WAT     H123814   3.906   7.378   5.060
 5777WAT     H223815   3.936   7.405   4.929
 5777WAT    EPW23816   3.952   7.369   4.997
 5778WAT      O23817   5.028   7.459   4.452
 5778WAT     H123818   5.091   7.398   4.456
 5778WAT     H223819   4.975   7.430   4.390
 5778WAT    EPW23820   5.029   7.446   4.444
 5779WAT      O23821   3.329   7.720   3.501
 5779WAT     H123822   3.293   7.641   3.503
 5779WAT     H223823   3.395   7.711   3.445
 5779WAT    EPW23824   3.333   7.707   3.493
 5780WAT      O23825   4.757   6.926   3.444
 5780WAT     H123826   4.832   6.886   3.461
 5780WAT     H223827   4.781   6.994   3.394
 5780WAT    EPW23828   4.771   6.930   3.439
 5781WAT      O23829   4.469   7.174   3.902
 5781WAT     H123830   4.506   7.144   3.974
 5781WAT     H223831   4.409   7.114   3.883
 5781WAT    EPW23832   4.466   7.161   3.910
 5782WAT      O23833   3.892   7.150   3.356
 5782WAT     H123834   3.882   7.127   3.273
 5782WAT     H223835   3.866   7.234   3.357
 5782WAT    EPW23836   3.887   7.159   3.344
 5783WAT      O23837   3.494   7.509   4.814
 5783WAT     H123838   3.455   7.451   4.866
 5783WAT     H223839   3.509   7.465   4.741
 5783WAT    EPW23840   3.491   7.494   4.811
 5784WAT      O23841   3.525   7.404   3.324
 5784WAT     H123842   3.507   7.344   3.385
 5784WAT     H223843   3.483   7.374   3.254
 5784WAT    EPW23844   3.516   7.390   3.323
 5785WAT      O23845   3.474   7.673   4.036
 5785WAT     H123846   3.457   7.699   3.955
 5785WAT     H223847   3.505   7.592   4.026
 5785WAT    EPW23848   3.476   7.665   4.022
 5786WAT      O23849   3.590   7.584   4.384
 5786WAT     H123850   3.602   7.534   4.314
 5786WAT     H223851   3.518   7.630   4.364
 5786WAT    EPW23852   3.581   7.583   4.371
 5787WAT      O23853   4.623   7.353   4.172
 5787WAT     H123854   4.553   7.381   4.216
 5787WAT     H223855   4.624   7.403   4.101
 5787WAT    EPW23856   4.613   7.364   4.168
 5788WAT      O23857   4.140   6.950   4.508
 5788WAT     H123858   4.170   6.871   4.485
 5788WAT     H223859   4.165   6.958   4.591
 5788WAT    EPW23860   4.148   6.940   4.517
 5789WAT      O23861   4.416   7.124   3.506
 5789WAT     H123862   4.474   7.189   3.513
 5789WAT     H223863   4.340   7.165   3.502
 5789WAT    EPW23864   4.414   7.140   3.506
 5790WAT      O23865   3.333   7.732   4.780
 5790WAT     H123866   3.307   7.730   4.697
 5790WAT     H223867   3.382   7.661   4.789
 5790WAT    EPW23868   3.336   7.721   4.769
 5791WAT      O23869   3.992   7.273   4.126
 5791WAT     H123870   4.058   7.331   4.129
 5791WAT     H223871   4.032   7.196   4.134
 5791WAT    EPW23872   4.008   7.270   4.128
 5792WAT      O23873   4.246   7.554   3.335
 5792WAT     H123874   4.245   7.616   3.274
 5792WAT     H223875   4.184   7.579   3.390
 5792WAT    EPW23876   4.237   7.567   3.334
 5793WAT      O23877   3.689   6.838   3.310
 5793WAT     H123878   3.699   6.856   3.395
 5793WAT     H223879   3.642   6.905   3.280
 5793WAT    EPW23880   3.683   6.850   3.318
 5794WAT      O23881   4.855   7.781   4.533
 5794WAT     H123882   4.830   7.748   4.457
 5794WAT     H223883   4.942   7.772   4.532
 5794WAT    EPW23884   4.864   7.775   4.522
 5795WAT      O23885   4.734   6.884   4.830
 5795WAT     H123886   4.690   6.844   4.767
 5795WAT     H223887   4.737   6.824   4.894
 5795WAT    EPW23888   4.728   6.869   4.830
 5796WAT      O23889   3.557   7.680   3.317
 5796WAT     H123890   3.541   7.595   3.326
 5796WAT     H223891   3.630   7.693   3.363
 5796WAT    EPW23892   3.565   7.670   3.325
 5797WAT      O23893   4.266   7.754   4.422
 5797WAT     H123894   4.298   7.829   4.454
 5797WAT     H223895   4.308   7.693   4.467
 5797WAT    EPW23896   4.277   7.756   4.433
 5798WAT      O23897   3.144   6.789   3.483
 5798WAT     H123898   3.129   6.745   3.409
 5798WAT     H223899   3.104   6.741   3.543
 5798WAT    EPW23900   3.136   6.776   3.481
 5799WAT      O23901   4.066   7.615   3.546
 5799WAT     H123902   4.096   7.671   3.606
 5799WAT     H223903   4.063   7.539   3.589
 5799WAT    EPW23904   4.070   7.612   3.561
 5800WAT      O23905   3.555   7.056   3.209
 5800WAT     H123906   3.494   7.054   3.147
 5800WAT     H223907   3.624   7.091   3.168
 5800WAT    EPW23908   3.556   7.061   3.194
 5801WAT      O23909   3.921   7.819   4.068
 5801WAT     H123910   3.844   7.827   4.109
 5801WAT     H223911   3.969   7.773   4.125
 5801WAT    EPW23912   3.917   7.814   4.083
 5802WAT      O23913   3.395   7.763   4.293
 5802WAT     H123914   3.458   7.823   4.286
 5802WAT     H223915   3.389   7.730   4.212
 5802WAT    EPW23916   3.403   7.767   4.280
 5803WAT      O23917   3.669   7.328   3.901
 5803WAT     H123918   3.748   7.296   3.882
 5803WAT     H223919   3.616   7.261   3.885
 5803WAT    EPW23920   3.673   7.314   3.896
 5804WAT      O23921   3.206   7.459   3.520
 5804WAT     H123922   3.232   7.414   3.590
 5804WAT     H223923   3.213   7.401   3.455
 5804WAT    EPW23924   3.211   7.444   3.521
 5805WAT      O23925   4.767   7.652   4.296
 5805WAT     H123926   4.749   7.580   4.341
 5805WAT     H223927   4.688   7.681   4.272
 5805WAT    EPW23928   4.753   7.645   4.299
 5806WAT      O23929   3.715   7.639   3.083
 5806WAT     H123930   3.664   7.654   3.152
 5806WAT     H223931   3.661   7.601   3.026
 5806WAT    EPW23932   3.699   7.636   3.085
 5807WAT      O23933   4.911   7.611   4.057
 5807WAT     H123934   4.876   7.621   4.136
 5807WAT     H223935   4.958   7.684   4.047
 5807WAT    EPW23936   4.912   7.624   4.067
 5808WAT      O23937   3.801   7.412   3.323
 5808WAT     H123938   3.817   7.493   3.350
 5808WAT     H223939   3.714   7.407   3.323
 5808WAT    EPW23940   3.791   7.423   3.327
 5809WAT      O23941   4.604   7.134   4.821
 5809WAT     H123942   4.531   7.131   4.869
 5809WAT     H223943   4.639   7.055   4.831
 5809WAT    EPW23944   4.598   7.122   4.829
 5810WAT      O23945   3.171   7.038   4.032
 5810WAT     H123946   3.154   7.058   3.949
 5810WAT     H223947   3.255   7.016   4.031
 5810WAT    EPW23948   3.181   7.038   4.020
 5811WAT      O23949   4.479   7.461   4.931
 5811WAT     H123950   4.507   7.517   4.991
 5811WAT     H223951   4.393   7.457   4.945
 5811WAT    EPW23952   4.470   7.468   4.942
 5812WAT      O23953   4.639   7.544   4.720
 5812WAT     H123954   4.664   7.624   4.744
 5812WAT     H223955   4.591   7.516   4.787
 5812WAT    EPW23956   4.635   7.551   4.733
 5813WAT      O23957   4.705   7.274   3.786
 5813WAT     H123958   4.635   7.231   3.816
 5813WAT     H223959   4.704   7.348   3.833
 5813WAT    EPW23960   4.694   7.279   3.798
 5814WAT      O23961   4.966   7.647   4.880
 5814WAT     H123962   4.959   7.582   4.822
 5814WAT     H223963   5.044   7.681   4.863
 5814WAT    EPW23964   4.976   7.642   4.869
 5815WAT      O23965   4.545   6.980   4.463
 5815WAT     H123966   4.605   7.040   4.481
 5815WAT     H223967   4.472   7.026   4.451
 5815WAT    EPW23968   4.543   6.995   4.464
 5816WAT      O23969   4.061   7.661   4.261
 5816WAT     H123970   4.126   7.700   4.304
 5816WAT     H223971   4.010   7.629   4.325
 5816WAT    EPW23972   4.063   7.662   4.277
 5817WAT      O23973   3.787   7.257   4.608
 5817WAT     H123974   3.792   7.173   4.631
 5817WAT     H223975   3.807   7.257   4.523
 5817WAT    EPW23976   3.790   7.245   4.599
 5818WAT      O23977   4.615   6.773   4.283
 5818WAT     H123978   4.585   6.846   4.321
 5818WAT     H223979   4.700   6.775   4.300
 5818WAT    EPW23980   4.623   6.784   4.291
 5819WAT      O23981   3.875   6.878   4.458
 5819WAT     H123982   3.957   6.907   4.465
 5819WAT     H223983   3.884   6.800   4.419
 5819WAT    EPW23984   3.888   6.871   4.453
 5820WAT      O23985   4.830   7.511   3.159
 5820WAT     H123986   4.876   7.563   3.107
 5820WAT     H223987   4.752   7.550   3.164
 5820WAT    EPW23988   4.825   7.524   3.152
 5821WAT      O23989   3.948   7.784   3.144
 5821WAT     H123990   3.885   7.735   3.109
 5821WAT     H223991   3.919   7.866   3.133
 5821WAT    EPW23992   3.934   7.789   3.137
 5822WAT      O23993   3.631   7.421   4.158
 5822WAT     H123994   3.650   7.396   4.076
 5822WAT     H223995   3.687   7.375   4.207
 5822WAT    EPW23996   3.642   7.410   4.153
 5823WAT      O23997   4.338   7.310   4.688
 5823WAT     H123998   4.281   7.358   4.733
 5823WAT     H223999   4.402   7.295   4.745
 5823WAT    EPW24000   4.339   7.315   4.703
 5824WAT      O24001   4.390   7.396   4.319
 5824WAT     H124002   4.406   7.447   4.388
 5824WAT     H224003   4.372   7.318   4.354
 5824WAT    EPW24004   4.390   7.392   4.334
 5825WAT      O24005   4.605   7.336   3.536
 5825WAT     H124006   4.636   7.315   3.615
 5825WAT     H224007   4.673   7.377   3.498
 5825WAT    EPW24008   4.620   7.339   3.542
 5826WAT      O24009   3.895   6.833   4.091
 5826WAT     H124010   3.811   6.819   4.110
 5826WAT     H224011   3.894   6.857   4.007
 5826WAT    EPW24012   3.883   6.834   4.081
 5827WAT      O24013   4.716   6.907   3.721
 5827WAT     H124014   4.637   6.875   3.737
 5827WAT     H224015   4.712   6.930   3.636
 5827WAT    EPW24016   4.704   6.906   3.710
 5828WAT      O24017   4.644   7.720   3.446
 5828WAT     H124018   4.710   7.665   3.461
 5828WAT     H224019   4.576   7.682   3.485
 5828WAT    EPW24020   4.644   7.706   3.454
 5829WAT      O24021   3.125   6.939   4.760
 5829WAT     H124022   3.116   7.014   4.716
 5829WAT     H224023   3.046   6.926   4.794
 5829WAT    EPW24024   3.112   6.948   4.759
 5830WAT      O24025   3.481   7.158   3.460
 5830WAT     H124026   3.493   7.125   3.380
 5830WAT     H224027   3.401   7.132   3.481
 5830WAT    EPW24028   3.471   7.149   3.451
 5831WAT      O24029   4.909   7.440   4.704
 5831WAT     H124030   4.824   7.459   4.705
 5831WAT     H224031   4.934   7.456   4.622
 5831WAT    EPW24032   4.900   7.445   4.692
 5832WAT      O24033   4.405   7.552   4.555
 5832WAT     H124034   4.369   7.486   4.599
 5832WAT     H224035   4.478   7.569   4.600
 5832WAT    EPW24036   4.411   7.545   4.568
 5833WAT      O24037   4.204   7.698   5.017
 5833WAT     H124038   4.250   7.769   4.997
 5833WAT     H224039   4.122   7.728   5.022
 5833WAT    EPW24040   4.198   7.713   5.015
 5834WAT      O24041   3.536   7.376   4.572
 5834WAT     H124042   3.554   7.439   4.514
 5834WAT     H224043   3.614   7.338   4.586
 5834WAT    EPW24044   3.550   7.379   4.566
 5835WAT      O24045   3.333   7.221   4.460
 5835WAT     H124046   3.343   7.246   4.377
 5835WAT     H224047   3.396   7.264   4.502
 5835WAT    EPW24048   3.344   7.231   4.454
 5836WAT      O24049   4.818   7.499   3.444
 5836WAT     H124050   4.833   7.504   3.358
 5836WAT     H224051   4.898   7.495   3.479
 5836WAT    EPW24052   4.832   7.499   3.436
 5837WAT      O24053   3.506   6.895   4.699
 5837WAT     H124054   3.450   6.830   4.714
 5837WAT     H224055   3.480   6.928   4.623
 5837WAT    EPW24056   3.494   6.890   4.690
 5838WAT      O24057   4.695   7.445   4.466
 5838WAT     H124058   4.700   7.359   4.476
 5838WAT     H224059   4.670   7.474   4.544
 5838WAT    EPW24060   4.692   7.437   4.479
 5839WAT      O24061   3.235   7.700   4.515
 5839WAT     H124062   3.278   7.731   4.446
 5839WAT     H224063   3.209   7.621   4.489
 5839WAT    EPW24064   3.238   7.693   4.501
 5840WAT      O24065   3.378   7.326   3.099
 5840WAT     H124066   3.305   7.329   3.147
 5840WAT     H224067   3.375   7.248   3.062
 5840WAT    EPW24068   3.367   7.315   3.101
 5841WAT      O24069   4.220   6.969   4.776
 5841WAT     H124070   4.256   7.026   4.832
 5841WAT     H224071   4.147   6.944   4.817
 5841WAT    EPW24072   4.215   6.974   4.790
 5842WAT      O24073   4.263   6.986   3.890
 5842WAT     H124074   4.188   7.005   3.930
 5842WAT     H224075   4.238   6.937   3.822
 5842WAT    EPW24076   4.249   6.982   3.886
 5843WAT      O24077   4.583   7.083   4.141
 5843WAT     H124078   4.663   7.051   4.155
 5843WAT     H224079   4.590   7.168   4.161
 5843WAT    EPW24080   4.596   7.091   4.146
 5844WAT      O24081   3.735   7.652   4.623
 5844WAT     H124082   3.676   7.694   4.672
 5844WAT     H224083   3.694   7.639   4.547
 5844WAT    EPW24084   3.720   7.656   4.619
 5845WAT      O24085   4.673   7.501   3.944
 5845WAT     H124086   4.741   7.552   3.960
 5845WAT     H224087   4.617   7.554   3.903
 5845WAT    EPW24088   4.675   7.516   3.940
 5846WAT      O24089   3.682   7.035   4.321
 5846WAT     H124090   3.606   7.007   4.353
 5846WAT     H224091   3.740   6.978   4.353
 5846WAT    EPW24092   3.680   7.022   4.330
 5847WAT      O24093   4.875   6.818   4.395
 5847WAT     H124094   4.855   6.854   4.471
 5847WAT     H224095   4.960   6.798   4.403
 5847WAT    EPW24096   4.885   6.820   4.407
 5848WAT      O24097   4.100   7.022   4.128
 5848WAT     H124098   4.042   6.957   4.131
 5848WAT     H224099   4.174   6.985   4.156
 5848WAT    EPW24100   4.102   7.007   4.133
 5849WAT      O24101   3.910   7.471   4.745
 5849WAT     H124102   3.879   7.401   4.703
 5849WAT     H224103   3.862   7.536   4.714
 5849WAT    EPW24104   3.898   7.470   4.735
 5850WAT      O24105   3.955   6.832   3.227
 5850WAT     H124106   3.964   6.845   3.141
 5850WAT     H224107   3.870   6.849   3.241
 5850WAT    EPW24108   3.944   6.836   3.216
 5851WAT      O24109   3.438   6.961   4.443
 5851WAT     H124110   3.379   6.904   4.416
 5851WAT     H224111   3.396   7.038   4.440
 5851WAT    EPW24112   3.423   6.964   4.439
 5852WAT      O24113   4.357   6.912   4.146
 5852WAT     H124114   4.426   6.964   4.159
 5852WAT     H224115   4.345   6.916   4.060
 5852WAT    EPW24116   4.366   6.920   4.135
 5853WAT      O24117   4.295   7.396   3.873
 5853WAT     H124118   4.351   7.330   3.886
 5853WAT     H224119   4.266   7.414   3.953
 5853WAT    EPW24120   4.299   7.389   3.887
 5854WAT      O24121   3.304   7.335   3.764
 5854WAT     H124122   3.261   7.353   3.838
 5854WAT     H224123   3.346   7.261   3.783
 5854WAT    EPW24124   3.304   7.327   3.778
 5855WAT      O24125   4.439   7.559   3.539
 5855WAT     H124126   4.483   7.484   3.536
 5855WAT     H224127   4.383   7.553   3.472
 5855WAT    EPW24128   4.437   7.547   3.528
 5856WAT      O24129   3.841   7.679   3.387
 5856WAT     H124130   3.883   7.716   3.320
 5856WAT     H224131   3.904   7.668   3.447
 5856WAT    EPW24132   3.857   7.683   3.386
 5857WAT      O24133   4.739   7.793   4.788
 5857WAT     H124134   4.810   7.764   4.831
 5857WAT     H224135   4.769   7.807   4.707
 5857WAT    EPW24136   4.754   7.791   4.783
 5858WAT      O24137   4.804   7.239   4.984
 5858WAT     H124138   4.798   7.325   4.997
 5858WAT     H224139   4.737   7.221   4.932
 5858WAT    EPW24140   4.793   7.249   4.978
 5859WAT      O24141   4.886   7.317   4.256
 5859WAT     H124142   4.805   7.339   4.234
 5859WAT     H224143   4.886   7.230   4.251
 5859WAT    EPW24144   4.874   7.308   4.252
 5860WAT      O24145   3.784   6.979   4.702
 5860WAT     H124146   3.807   6.944   4.625
 5860WAT     H224147   3.702   6.952   4.714
 5860WAT    EPW24148   3.775   6.969   4.693
 5861WAT      O24149   4.526   7.897   4.965
 5861WAT     H124150   4.589   7.893   4.904
 5861WAT     H224151   4.533   7.978   4.995
 5861WAT    EPW24152   4.537   7.908   4.960
 5862WAT      O24153   4.255   6.868   1.778
 5862WAT     H124154   4.259   6.912   1.703
 5862WAT     H224155   4.338   6.846   1.794
 5862WAT    EPW24156   4.268   6.871   1.769
 5863WAT      O24157   4.196   7.468   2.246
 5863WAT     H124158   4.149   7.530   2.286
 5863WAT     H224159   4.257   7.448   2.305
 5863WAT    EPW24160   4.198   7.474   2.261
 5864WAT      O24161   3.138   7.313   1.348
 5864WAT     H124162   3.075   7.366   1.321
 5864WAT     H224163   3.103   7.234   1.342
 5864WAT    EPW24164   3.124   7.309   1.343
 5865WAT      O24165   3.463   7.902   1.218
 5865WAT     H124166   3.419   7.856   1.158
 5865WAT     H224167   3.478   7.844   1.281
 5865WAT    EPW24168   3.458   7.887   1.219
 5866WAT      O24169   4.464   7.640   1.919
 5866WAT     H124170   4.461   7.632   1.832
 5866WAT     H224171   4.405   7.583   1.947
 5866WAT    EPW24172   4.455   7.631   1.911
 5867WAT      O24173   3.901   6.965   1.661
 5867WAT     H124174   3.895   7.035   1.610
 5867WAT     H224175   3.975   6.927   1.636
 5867WAT    EPW24176   3.911   6.970   1.650
 5868WAT      O24177   3.420   7.777   1.863
 5868WAT     H124178   3.386   7.767   1.784
 5868WAT     H224179   3.459   7.701   1.879
 5868WAT    EPW24180   3.420   7.764   1.854
 5869WAT      O24181   3.810   7.308   2.435
 5869WAT     H124182   3.878   7.302   2.381
 5869WAT     H224183   3.772   7.230   2.431
 5869WAT    EPW24184   3.815   7.296   2.427
 5870WAT      O24185   3.498   7.525   1.961
 5870WAT     H124186   3.571   7.477   1.961
 5870WAT     H224187   3.439   7.472   1.924
 5870WAT    EPW24188   3.500   7.510   1.955
 5871WAT      O24189   4.192   7.510   2.926
 5871WAT     H124190   4.112   7.511   2.892
 5871WAT     H224191   4.195   7.582   2.975
 5871WAT    EPW24192   4.181   7.520   2.928
 5872WAT      O24193   3.626   7.003   1.742
 5872WAT     H124194   3.588   7.057   1.685
 5872WAT     H224195   3.708   6.997   1.713
 5872WAT    EPW24196   3.632   7.010   1.729
 5873WAT      O24197   4.595   6.738   2.716
 5873WAT     H124198   4.570   6.805   2.665
 5873WAT     H224199   4.523   6.717   2.759
 5873WAT    EPW24200   4.581   6.745   2.715
 5874WAT      O24201   3.923   6.936   1.937
 5874WAT     H124202   3.932   7.021   1.958
 5874WAT     H224203   3.907   6.938   1.851
 5874WAT    EPW24204   3.922   6.949   1.927
 5875WAT      O24205   4.366   7.150   1.170
 5875WAT     H124206   4.324   7.217   1.206
 5875WAT     H224207   4.379   7.095   1.237
 5875WAT    EPW24208   4.362   7.152   1.185
 5876WAT      O24209   3.189   7.386   2.121
 5876WAT     H124210   3.142   7.459   2.127
 5876WAT     H224211   3.142   7.327   2.165
 5876WAT    EPW24212   3.175   7.388   2.129
 5877WAT      O24213   3.436   6.972   2.154
 5877WAT     H124214   3.421   6.895   2.115
 5877WAT     H224215   3.491   6.952   2.219
 5877WAT    EPW24216   3.442   6.958   2.158
 5878WAT      O24217   3.795   7.124   3.077
 5878WAT     H124218   3.803   7.088   2.998
 5878WAT     H224219   3.836   7.201   3.068
 5878WAT    EPW24220   3.802   7.130   3.064
 5879WAT      O24221   4.933   7.120   1.892
 5879WAT     H124222   4.885   7.193   1.899
 5879WAT     H224223   4.873   7.057   1.882
 5879WAT    EPW24224   4.917   7.122   1.892
 5880WAT      O24225   3.370   7.061   3.000
 5880WAT     H124226   3.289   7.032   2.982
 5880WAT     H224227   3.418   7.028   2.935
 5880WAT    EPW24228   3.365   7.052   2.987
 5881WAT      O24229   3.985   6.865   2.955
 5881WAT     H124230   4.007   6.792   2.913
 5881WAT     H224231   3.921   6.898   2.905
 5881WAT    EPW24232   3.978   6.859   2.941
 5882WAT      O24233   4.095   7.393   1.795
 5882WAT     H124234   4.128   7.347   1.728
 5882WAT     H224235   4.165   7.407   1.846
 5882WAT    EPW24236   4.110   7.388   1.793
 5883WAT      O24237   4.202   7.338   1.302
 5883WAT     H124238   4.220   7.416   1.336
 5883WAT     H224239   4.124   7.350   1.265
 5883WAT    EPW24240   4.193   7.351   1.302
 5884WAT      O24241   4.833   7.026   2.310
 5884WAT     H124242   4.899   7.023   2.254
 5884WAT     H224243   4.852   6.963   2.367
 5884WAT    EPW24244   4.845   7.016   2.310
 5885WAT      O24245   3.108   7.180   2.739
 5885WAT     H124246   3.092   7.258   2.775
 5885WAT     H224247   3.170   7.196   2.681
 5885WAT    EPW24248   3.115   7.194   2.736
 5886WAT      O24249   4.397   6.979   1.386
 5886WAT     H124250   4.453   6.912   1.392
 5886WAT     H224251   4.415   7.028   1.456
 5886WAT    EPW24252   4.408   6.976   1.397
 5887WAT      O24253   3.231   7.089   1.657
 5887WAT     H124254   3.204   7.008   1.638
 5887WAT     H224255   3.183   7.111   1.726
 5887WAT    EPW24256   3.220   7.080   1.664
 5888WAT      O24257   4.169   7.247   1.566
 5888WAT     H124258   4.099   7.198   1.553
 5888WAT     H224259   4.186   7.280   1.487
 5888WAT    EPW24260   4.161   7.245   1.552
 5889WAT      O24261   4.152   6.925   1.513
 5889WAT     H124262   4.091   6.902   1.454
 5889WAT     H224263   4.223   6.941   1.464
 5889WAT    EPW24264   4.154   6.923   1.497
 5890WAT      O24265   3.969   7.212   1.969
 5890WAT     H124266   4.002   7.275   1.919
 5890WAT     H224267   3.981   7.242   2.050
 5890WAT    EPW24268   3.976   7.226   1.974
 5891WAT      O24269   3.569   6.738   1.801
 5891WAT     H124270   3.585   6.823   1.784
 5891WAT     H224271   3.542   6.707   1.724
 5891WAT    EPW24272   3.567   6.746   1.787
 5892WAT      O24273   3.650   7.724   2.221
 5892WAT     H124274   3.658   7.637   2.227
 5892WAT     H224275   3.613   7.735   2.142
 5892WAT    EPW24276   3.646   7.713   2.210
 5893WAT      O24277   4.326   7.148   2.554
 5893WAT     H124278   4.319   7.187   2.632
 5893WAT     H224279   4.260   7.091   2.554
 5893WAT    EPW24280   4.315   7.145   2.566
 5894WAT      O24281   4.505   6.768   1.856
 5894WAT     H124282   4.499   6.756   1.942
 5894WAT     H224283   4.542   6.695   1.827
 5894WAT    EPW24284   4.510   6.756   1.864
 5895WAT      O24285   4.718   7.171   2.657
 5895WAT     H124286   4.803   7.167   2.674
 5895WAT     H224287   4.680   7.170   2.735
 5895WAT    EPW24288   4.725   7.171   2.671
 5896WAT      O24289   3.504   7.149   1.949
 5896WAT     H124290   3.539   7.096   1.890
 5896WAT     H224291   3.485   7.095   2.016
 5896WAT    EPW24292   3.507   7.133   1.950
 5897WAT      O24293   3.391   7.351   2.317
 5897WAT     H124294   3.468   7.372   2.281
 5897WAT     H224295   3.334   7.363   2.252
 5897WAT    EPW24296   3.394   7.356   2.302
 5898WAT      O24297   4.589   7.653   1.299
 5898WAT     H124298   4.562   7.727   1.261
 5898WAT     H224299   4.607   7.678   1.381
 5898WAT    EPW24300   4.588   7.668   1.305
 5899WAT      O24301   4.913   7.076   1.360
 5899WAT     H124302   4.962   7.014   1.323
 5899WAT     H224303   4.882   7.120   1.292
 5899WAT    EPW24304   4.916   7.073   1.345
 5900WAT      O24305   3.934   7.365   3.082
 5900WAT     H124306   3.888   7.399   3.148
 5900WAT     H224307   3.921   7.421   3.016
 5900WAT    EPW24308   3.925   7.378   3.082
 5901WAT      O24309   5.022   7.454   2.539
 5901WAT     H124310   5.087   7.395   2.543
 5901WAT     H224311   4.970   7.421   2.477
 5901WAT    EPW24312   5.024   7.440   2.530
 5902WAT      O24313   3.333   7.700   1.608
 5902WAT     H124314   3.295   7.621   1.603
 5902WAT     H224315   3.391   7.699   1.542
 5902WAT    EPW24316   3.336   7.688   1.597
 5903WAT      O24317   4.771   6.933   1.556
 5903WAT     H124318   4.845   6.894   1.580
 5903WAT     H224319   4.797   6.995   1.500
 5903WAT    EPW24320   4.786   6.937   1.551
 5904WAT      O24321   4.466   7.205   1.999
 5904WAT     H124322   4.499   7.162   2.068
 5904WAT     H224323   4.398   7.156   1.975
 5904WAT    EPW24324   4.461   7.192   2.006
 5905WAT      O24325   3.903   7.170   1.481
 5905WAT     H124326   3.883   7.140   1.401
 5905WAT     H224327   3.873   7.252   1.480
 5905WAT    EPW24328   3.896   7.178   1.469
 5906WAT      O24329   3.504   7.515   2.935
 5906WAT     H124330   3.463   7.459   2.988
 5906WAT     H224331   3.516   7.468   2.862
 5906WAT    EPW24332   3.500   7.500   2.932
 5907WAT      O24333   3.523   7.410   1.428
 5907WAT     H124334   3.505   7.349   1.488
 5907WAT     H224335   3.481   7.382   1.357
 5907WAT    EPW24336   3.514   7.397   1.426
 5908WAT      O24337   3.324   7.702   2.120
 5908WAT     H124338   3.335   7.752   2.049
 5908WAT     H224339   3.363   7.627   2.099
 5908WAT    EPW24340   3.331   7.699   2.107
 5909WAT      O24341   3.586   7.562   2.508
 5909WAT     H124342   3.602   7.518   2.434
 5909WAT     H224343   3.523   7.618   2.486
 5909WAT    EPW24344   3.579   7.563   2.494
 5910WAT      O24345   4.620   7.351   2.271
 5910WAT     H124346   4.552   7.377   2.320
 5910WAT     H224347   4.622   7.409   2.206
 5910WAT    EPW24348   4.610   7.363   2.269
 5911WAT      O24349   4.158   6.931   2.625
 5911WAT     H124350   4.176   6.848   2.605
 5911WAT     H224351   4.186   6.940   2.707
 5911WAT    EPW24352   4.164   6.920   2.634
 5912WAT      O24353   4.419   7.128   1.615
 5912WAT     H124354   4.479   7.190   1.625
 5912WAT     H224355   4.344   7.172   1.610
 5912WAT    EPW24356   4.417   7.144   1.616
 5913WAT      O24357   3.335   7.731   2.890
 5913WAT     H124358   3.317   7.731   2.804
 5913WAT     H224359   3.390   7.664   2.899
 5913WAT    EPW24360   3.341   7.721   2.878
 5914WAT      O24361   3.999   7.278   2.235
 5914WAT     H124362   4.064   7.335   2.243
 5914WAT     H224363   4.032   7.204   2.267
 5914WAT    EPW24364   4.013   7.276   2.241
 5915WAT      O24365   4.247   7.570   1.448
 5915WAT     H124366   4.246   7.631   1.386
 5915WAT     H224367   4.183   7.595   1.502
 5915WAT    EPW24368   4.238   7.583   1.447
 5916WAT      O24369   3.659   6.798   1.385
 5916WAT     H124370   3.611   6.761   1.448
 5916WAT     H224371   3.621   6.875   1.373
 5916WAT    EPW24372   3.646   6.804   1.393
 5917WAT      O24373   4.735   7.827   2.614
 5917WAT     H124374   4.745   7.772   2.547
 5917WAT     H224375   4.771   7.901   2.585
 5917WAT    EPW24376   4.742   7.830   2.600
 5918WAT      O24377   4.728   6.883   2.913
 5918WAT     H124378   4.688   6.836   2.851
 5918WAT     H224379   4.728   6.829   2.982
 5918WAT    EPW24380   4.722   6.868   2.914
 5919WAT      O24381   3.552   7.687   1.413
 5919WAT     H124382   3.539   7.601   1.420
 5919WAT     H224383   3.623   7.702   1.461
 5919WAT    EPW24384   3.560   7.677   1.421
 5920WAT      O24385   4.250   7.742   2.550
 5920WAT     H124386   4.299   7.814   2.562
 5920WAT     H224387   4.295   7.679   2.590
 5920WAT    EPW24388   4.264   7.743   2.558
 5921WAT      O24389   3.125   6.830   1.604
 5921WAT     H124390   3.127   6.775   1.536
 5921WAT     H224391   3.096   6.781   1.670
 5921WAT    EPW24392   3.121   6.815   1.604
 5922WAT      O24393   4.060   7.632   1.653
 5922WAT     H124394   4.090   7.690   1.711
 5922WAT     H224395   4.060   7.557   1.697
 5922WAT    EPW24396   4.064   7.630   1.668
 5923WAT      O24397   3.556   7.049   1.335
 5923WAT     H124398   3.498   7.051   1.271
 5923WAT     H224399   3.627   7.087   1.301
 5923WAT    EPW24400   3.558   7.055   1.321
 5924WAT      O24401   3.918   7.813   2.198
 5924WAT     H124402   3.835   7.789   2.208
 5924WAT     H224403   3.961   7.764   2.257
 5924WAT    EPW24404   3.912   7.802   2.208
 5925WAT      O24405   3.421   7.755   2.385
 5925WAT     H124406   3.499   7.771   2.351
 5925WAT     H224407   3.371   7.739   2.315
 5925WAT    EPW24408   3.425   7.755   2.370
 5926WAT      O24409   3.703   7.333   2.002
 5926WAT     H124410   3.780   7.296   1.984
 5926WAT     H224411   3.646   7.269   1.986
 5926WAT    EPW24412   3.706   7.318   1.997
 5927WAT      O24413   3.209   7.440   1.614
 5927WAT     H124414   3.236   7.401   1.687
 5927WAT     H224415   3.209   7.375   1.555
 5927WAT    EPW24416   3.213   7.424   1.616
 5928WAT      O24417   4.750   7.650   2.392
 5928WAT     H124418   4.743   7.578   2.440
 5928WAT     H224419   4.675   7.652   2.348
 5928WAT    EPW24420   4.738   7.640   2.392
 5929WAT      O24421   3.719   7.643   1.186
 5929WAT     H124422   3.665   7.663   1.252
 5929WAT     H224423   3.667   7.605   1.128
 5929WAT    EPW24424   3.704   7.641   1.188
 5930WAT      O24425   4.917   7.638   2.163
 5930WAT     H124426   4.881   7.641   2.242
 5930WAT     H224427   4.961   7.713   2.158
 5930WAT    EPW24428   4.918   7.650   2.174
 5931WAT      O24429   3.799   7.425   1.436
 5931WAT     H124430   3.811   7.508   1.460
 5931WAT     H224431   3.713   7.417   1.432
 5931WAT    EPW24432   3.788   7.436   1.439
 5932WAT      O24433   4.601   7.135   2.912
 5932WAT     H124434   4.532   7.136   2.966
 5932WAT     H224435   4.632   7.054   2.919
 5932WAT    EPW24436   4.595   7.123   2.921
 5933WAT      O24437   3.165   7.074   2.137
 5933WAT     H124438   3.146   7.083   2.053
 5933WAT     H224439   3.248   7.048   2.137
 5933WAT    EPW24440   3.174   7.071   2.125
 5934WAT      O24441   4.465   7.454   3.020
 5934WAT     H124442   4.490   7.506   3.085
 5934WAT     H224443   4.381   7.474   3.008
 5934WAT    EPW24444   4.456   7.464   3.028
 5935WAT      O24445   4.639   7.528   2.820
 5935WAT     H124446   4.655   7.610   2.844
 5935WAT     H224447   4.589   7.497   2.885
 5935WAT    EPW24448   4.634   7.536   2.833
 5936WAT      O24449   4.711   7.303   1.906
 5936WAT     H124450   4.640   7.260   1.933
 5936WAT     H224451   4.709   7.377   1.952
 5936WAT    EPW24452   4.700   7.308   1.917
 5937WAT      O24453   4.951   7.663   2.960
 5937WAT     H124454   4.950   7.596   2.904
 5937WAT     H224455   5.033   7.693   2.954
 5937WAT    EPW24456   4.963   7.657   2.951
 5938WAT      O24457   4.547   6.972   2.562
 5938WAT     H124458   4.608   7.032   2.580
 5938WAT     H224459   4.474   7.020   2.554
 5938WAT    EPW24460   4.545   6.988   2.563
 5939WAT      O24461   4.040   7.648   2.396
 5939WAT     H124462   4.105   7.685   2.441
 5939WAT     H224463   3.979   7.632   2.456
 5939WAT    EPW24464   4.041   7.651   2.411
 5940WAT      O24465   3.795   7.269   2.716
 5940WAT     H124466   3.798   7.183   2.732
 5940WAT     H224467   3.812   7.274   2.630
 5940WAT    EPW24468   3.798   7.257   2.705
 5941WAT      O24469   4.618   6.776   2.375
 5941WAT     H124470   4.593   6.848   2.418
 5941WAT     H224471   4.702   6.768   2.395
 5941WAT    EPW24472   4.626   6.786   2.384
 5942WAT      O24473   3.885   6.888   2.565
 5942WAT     H124474   3.968   6.913   2.566
 5942WAT     H224475   3.887   6.810   2.526
 5942WAT    EPW24476   3.897   6.881   2.559
 5943WAT      O24477   4.829   7.497   1.283
 5943WAT     H124478   4.877   7.552   1.235
 5943WAT     H224479   4.751   7.535   1.285
 5943WAT    EPW24480   4.825   7.511   1.276
 5944WAT      O24481   3.945   7.796   1.253
 5944WAT     H124482   3.885   7.745   1.216
 5944WAT     H224483   3.913   7.877   1.243
 5944WAT    EPW24484   3.931   7.800   1.246
 5945WAT      O24485   3.655   7.442   2.254
 5945WAT     H124486   3.673   7.410   2.175
 5945WAT     H224487   3.710   7.399   2.306
 5945WAT    EPW24488   3.666   7.431   2.250
 5946WAT      O24489   4.321   7.300   2.792
 5946WAT     H124490   4.265   7.348   2.838
 5946WAT     H224491   4.381   7.276   2.851
 5946WAT    EPW24492   4.322   7.303   2.807
 5947WAT      O24493   4.391   7.389   2.424
 5947WAT     H124494   4.404   7.438   2.495
 5947WAT     H224495   4.371   7.311   2.457
 5947WAT    EPW24496   4.390   7.385   2.439
 5948WAT      O24497   4.608   7.342   1.651
 5948WAT     H124498   4.638   7.327   1.732
 5948WAT     H224499   4.676   7.382   1.612
 5948WAT    EPW24500   4.623   7.346   1.657
 5949WAT      O24501   3.882   6.866   2.209
 5949WAT     H124502   3.798   6.856   2.230
 5949WAT     H224503   3.881   6.876   2.122
 5949WAT    EPW24504   3.870   6.866   2.199
 5950WAT      O24505   4.729   6.936   1.832
 5950WAT     H124506   4.652   6.898   1.847
 5950WAT     H224507   4.729   6.951   1.746
 5950WAT    EPW24508   4.718   6.932   1.821
 5951WAT      O24509   4.654   7.723   1.556
 5951WAT     H124510   4.719   7.669   1.575
 5951WAT     H224511   4.585   7.687   1.595
 5951WAT    EPW24512   4.653   7.710   1.565
 5952WAT      O24513   3.116   6.959   2.907
 5952WAT     H124514   3.117   7.029   2.855
 5952WAT     H224515   3.032   6.936   2.910
 5952WAT    EPW24516   3.104   6.966   2.900
 5953WAT      O24517   3.483   7.171   1.573
 5953WAT     H124518   3.495   7.129   1.498
 5953WAT     H224519   3.402   7.148   1.598
 5953WAT    EPW24520   3.473   7.162   1.566
 5954WAT      O24521   4.914   7.443   2.796
 5954WAT     H124522   4.828   7.454   2.798
 5954WAT     H224523   4.935   7.456   2.712
 5954WAT    EPW24524   4.904   7.446   2.784
 5955WAT      O24525   4.403   7.536   2.662
 5955WAT     H124526   4.367   7.470   2.705
 5955WAT     H224527   4.476   7.553   2.706
 5955WAT    EPW24528   4.409   7.529   2.675
 5956WAT      O24529   4.231   7.720   3.109
 5956WAT     H124530   4.290   7.782   3.093
 5956WAT     H224531   4.156   7.764   3.114
 5956WAT    EPW24532   4.229   7.736   3.107
 5957WAT      O24533   3.536   7.369   2.700
 5957WAT     H124534   3.550   7.433   2.642
 5957WAT     H224535   3.614   7.332   2.709
 5957WAT    EPW24536   3.550   7.373   2.692
 5958WAT      O24537   3.329   7.245   2.562
 5958WAT     H124538   3.349   7.268   2.480
 5958WAT     H224539   3.393   7.279   2.610
 5958WAT    EPW24540   3.342   7.253   2.557
 5959WAT      O24541   4.826   7.502   1.565
 5959WAT     H124542   4.841   7.503   1.479
 5959WAT     H224543   4.906   7.495   1.600
 5959WAT    EPW24544   4.840   7.501   1.558
 5960WAT      O24545   3.511   6.923   2.804
 5960WAT     H124546   3.468   6.848   2.811
 5960WAT     H224547   3.495   6.948   2.722
 5960WAT    EPW24548   3.502   6.915   2.793
 5961WAT      O24549   4.700   7.438   2.563
 5961WAT     H124550   4.705   7.352   2.572
 5961WAT     H224551   4.672   7.466   2.641
 5961WAT    EPW24552   4.697   7.430   2.576
 5962WAT      O24553   3.254   7.707   2.614
 5962WAT     H124554   3.302   7.736   2.548
 5962WAT     H224555   3.224   7.630   2.586
 5962WAT    EPW24556   3.256   7.700   2.600
 5963WAT      O24557   3.376   7.331   1.204
 5963WAT     H124558   3.299   7.333   1.245
 5963WAT     H224559   3.380   7.250   1.172
 5963WAT    EPW24560   3.365   7.320   1.206
 5964WAT      O24561   4.241   6.955   2.891
 5964WAT     H124562   4.275   7.018   2.941
 5964WAT     H224563   4.162   6.941   2.925
 5964WAT    EPW24564   4.234   6.962   2.903
 5965WAT      O24565   4.226   7.066   1.970
 5965WAT     H124566   4.148   7.105   1.963
 5965WAT     H224567   4.224   7.004   1.909
 5965WAT    EPW24568   4.214   7.062   1.960
 5966WAT      O24569   4.564   7.085   2.232
 5966WAT     H124570   4.641   7.046   2.245
 5966WAT     H224571   4.578   7.168   2.255
 5966WAT    EPW24572   4.577   7.091   2.237
 5967WAT      O24573   3.840   7.646   2.600
 5967WAT     H124574   3.829   7.732   2.606
 5967WAT     H224575   3.762   7.617   2.573
 5967WAT    EPW24576   3.827   7.654   2.597
 5968WAT      O24577   4.671   7.530   2.066
 5968WAT     H124578   4.743   7.578   2.073
 5968WAT     H224579   4.618   7.580   2.019
 5968WAT    EPW24580   4.674   7.544   2.060
 5969WAT      O24581   3.698   7.063   2.449
 5969WAT     H124582   3.620   7.030   2.472
 5969WAT     H224583   3.754   7.001   2.475
 5969WAT    EPW24584   3.694   7.049   2.456
 5970WAT      O24585   4.877   6.817   2.493
 5970WAT     H124586   4.856   6.827   2.577
 5970WAT     H224587   4.961   6.795   2.495
 5970WAT    EPW24588   4.886   6.815   2.506
 5971WAT      O24589   4.075   7.033   2.326
 5971WAT     H124590   4.015   6.979   2.292
 5971WAT     H224591   4.151   6.999   2.300
 5971WAT    EPW24592   4.077   7.020   2.317
 5972WAT      O24593   3.930   7.490   2.822
 5972WAT     H124594   3.895   7.416   2.793
 5972WAT     H224595   3.908   7.549   2.762
 5972WAT    EPW24596   3.921   7.488   2.809
 5973WAT      O24597   3.939   6.833   1.358
 5973WAT     H124598   3.948   6.844   1.272
 5973WAT     H224599   3.852   6.835   1.370
 5973WAT    EPW24600   3.927   6.835   1.347
 5974WAT      O24601   3.444   6.990   2.546
 5974WAT     H124602   3.384   6.929   2.526
 5974WAT     H224603   3.399   7.065   2.543
 5974WAT    EPW24604   3.429   6.992   2.542
 5975WAT      O24605   4.316   6.952   2.209
 5975WAT     H124606   4.387   6.997   2.229
 5975WAT     H224607   4.288   6.988   2.134
 5975WAT    EPW24608   4.322   6.964   2.201
 5976WAT      O24609   4.295   7.429   1.988
 5976WAT     H124610   4.352   7.365   1.999
 5976WAT     H224611   4.264   7.444   2.068
 5976WAT    EPW24612   4.299   7.422   2.001
 5977WAT      O24613   3.310   7.342   1.868
 5977WAT     H124614   3.261   7.348   1.941
 5977WAT     H224615   3.361   7.273   1.883
 5977WAT    EPW24616   3.310   7.332   1.881
 5978WAT      O24617   4.444   7.568   1.649
 5978WAT     H124618   4.486   7.492   1.647
 5978WAT     H224619   4.387   7.562   1.583
 5978WAT    EPW24620   4.442   7.556   1.639
 5979WAT      O24621   3.834   7.693   1.495
 5979WAT     H124622   3.875   7.729   1.427
 5979WAT     H224623   3.897   7.683   1.554
 5979WAT    EPW24624   3.849   7.697   1.494
 5980WAT      O24625   4.699   7.788   2.889
 5980WAT     H124626   4.780   7.771   2.918
 5980WAT     H224627   4.712   7.810   2.806
 5980WAT    EPW24628   4.713   7.789   2.881
 5981WAT      O24629   4.816   7.246   3.047
 5981WAT     H124630   4.806   7.331   3.066
 5981WAT     H224631   4.743   7.225   3.005
 5981WAT    EPW24632   4.804   7.256   3.044
 5982WAT      O24633   4.886   7.303   2.337
 5982WAT     H124634   4.804   7.327   2.321
 5982WAT     H224635   4.882   7.215   2.338
 5982WAT    EPW24636   4.873   7.293   2.334
 5983WAT      O24637   3.785   6.993   2.803
 5983WAT     H124638   3.814   6.957   2.729
 5983WAT     H224639   3.702   6.965   2.809
 5983WAT    EPW24640   3.777   6.984   2.793
 5984WAT      O24641   4.480   7.880   3.066
 5984WAT     H124642   4.543   7.875   3.005
 5984WAT     H224643   4.492   7.960   3.100
 5984WAT    EPW24644   4.491   7.891   3.062
 5985WAT      O24645   4.160   7.477   0.389
 5985WAT     H124646   4.125   7.537   0.441
 5985WAT     H224647   4.234   7.455   0.431
 5985WAT    EPW24648   4.166   7.482   0.403
 5986WAT      O24649   3.819   7.236   0.578
 5986WAT     H124650   3.882   7.247   0.519
 5986WAT     H224651   3.794   7.153   0.566
 5986WAT    EPW24652   3.825   7.226   0.568
 5987WAT      O24653   4.188   7.530   1.035
 5987WAT     H124654   4.106   7.528   1.006
 5987WAT     H224655   4.190   7.599   1.088
 5987WAT    EPW24656   4.176   7.540   1.038
 5988WAT      O24657   4.570   6.747   0.830
 5988WAT     H124658   4.555   6.820   0.784
 5988WAT     H224659   4.499   6.739   0.880
 5988WAT    EPW24660   4.557   6.757   0.831
 5989WAT      O24661   3.213   7.426   0.315
 5989WAT     H124662   3.201   7.511   0.327
 5989WAT     H224663   3.142   7.390   0.351
 5989WAT    EPW24664   3.201   7.433   0.322
 5990WAT      O24665   3.442   6.888   0.398
 5990WAT     H124666   3.459   6.953   0.341
 5990WAT     H224667   3.500   6.827   0.376
 5990WAT    EPW24668   3.453   6.889   0.386
 5991WAT      O24669   3.794   7.138   1.215
 5991WAT     H124670   3.792   7.101   1.136
 5991WAT     H224671   3.837   7.213   1.201
 5991WAT    EPW24672   3.800   7.144   1.201
 5992WAT      O24673   3.381   7.064   1.121
 5992WAT     H124674   3.300   7.032   1.114
 5992WAT     H224675   3.422   7.029   1.052
 5992WAT    EPW24676   3.375   7.054   1.109
 5993WAT      O24677   3.977   6.867   1.087
 5993WAT     H124678   3.998   6.797   1.039
 5993WAT     H224679   3.908   6.900   1.047
 5993WAT    EPW24680   3.970   6.861   1.074
 5994WAT      O24681   4.880   7.057   0.413
 5994WAT     H124682   4.933   7.019   0.355
 5994WAT     H224683   4.889   7.008   0.485
 5994WAT    EPW24684   4.889   7.044   0.415
 5995WAT      O24685   3.127   7.184   0.877
 5995WAT     H124686   3.110   7.263   0.909
 5995WAT     H224687   3.189   7.198   0.817
 5995WAT    EPW24688   3.134   7.198   0.873
 5996WAT      O24689   3.642   7.818   0.448
 5996WAT     H124690   3.654   7.739   0.484
 5996WAT     H224691   3.718   7.833   0.408
 5996WAT    EPW24692   3.655   7.808   0.447
 5997WAT      O24693   4.320   7.164   0.669
 5997WAT     H124694   4.313   7.205   0.746
 5997WAT     H224695   4.253   7.108   0.669
 5997WAT    EPW24696   4.309   7.162   0.680
 5998WAT      O24697   4.714   7.190   0.767
 5998WAT     H124698   4.799   7.183   0.784
 5998WAT     H224699   4.677   7.186   0.847
 5998WAT    EPW24700   4.721   7.189   0.782
 5999WAT      O24701   3.407   7.261   0.422
 5999WAT     H124702   3.486   7.295   0.403
 5999WAT     H224703   3.352   7.312   0.377
 5999WAT    EPW24704   3.411   7.273   0.412
 6000WAT      O24705   3.937   7.376   1.200
 6000WAT     H124706   3.891   7.410   1.266
 6000WAT     H224707   3.921   7.430   1.134
 6000WAT    EPW24708   3.928   7.389   1.200
 6001WAT      O24709   5.012   7.456   0.677
 6001WAT     H124710   5.076   7.397   0.671
 6001WAT     H224711   4.956   7.432   0.614
 6001WAT    EPW24712   5.013   7.444   0.667
 6002WAT      O24713   3.504   7.521   1.043
 6002WAT     H124714   3.463   7.462   1.092
 6002WAT     H224715   3.513   7.481   0.966
 6002WAT    EPW24716   3.499   7.506   1.039
 6003WAT      O24717   3.599   7.571   0.591
 6003WAT     H124718   3.612   7.516   0.525
 6003WAT     H224719   3.522   7.608   0.572
 6003WAT    EPW24720   3.590   7.568   0.579
 6004WAT      O24721   4.615   7.357   0.367
 6004WAT     H124722   4.550   7.373   0.423
 6004WAT     H224723   4.593   7.400   0.295
 6004WAT    EPW24724   4.602   7.365   0.365
 6005WAT      O24725   4.142   6.958   0.736
 6005WAT     H124726   4.167   6.879   0.709
 6005WAT     H224727   4.173   6.963   0.817
 6005WAT    EPW24728   4.150   6.947   0.744
 6006WAT      O24729   3.331   7.737   1.028
 6006WAT     H124730   3.306   7.738   0.944
 6006WAT     H224731   3.386   7.669   1.031
 6006WAT    EPW24732   3.335   7.727   1.016
 6007WAT      O24733   3.977   7.271   0.357
 6007WAT     H124734   4.039   7.332   0.359
 6007WAT     H224735   4.021   7.197   0.342
 6007WAT    EPW24736   3.992   7.269   0.355
 6008WAT      O24737   4.830   7.798   0.757
 6008WAT     H124738   4.800   7.772   0.679
 6008WAT     H224739   4.915   7.784   0.752
 6008WAT    EPW24740   4.838   7.792   0.745
 6009WAT      O24741   4.727   6.887   1.018
 6009WAT     H124742   4.683   6.839   0.958
 6009WAT     H224743   4.733   6.833   1.086
 6009WAT    EPW24744   4.721   6.872   1.019
 6010WAT      O24745   4.252   7.764   0.707
 6010WAT     H124746   4.274   7.823   0.768
 6010WAT     H224747   4.298   7.694   0.729
 6010WAT    EPW24748   4.262   7.763   0.720
 6011WAT      O24749   3.906   7.814   0.353
 6011WAT     H124750   3.951   7.803   0.279
 6011WAT     H224751   3.954   7.773   0.413
 6011WAT    EPW24752   3.920   7.806   0.351
 6012WAT      O24753   3.382   7.736   0.527
 6012WAT     H124754   3.438   7.789   0.487
 6012WAT     H224755   3.317   7.728   0.469
 6012WAT    EPW24756   3.381   7.743   0.513
 6013WAT      O24757   4.712   7.688   0.522
 6013WAT     H124758   4.711   7.608   0.557
 6013WAT     H224759   4.628   7.709   0.515
 6013WAT    EPW24760   4.699   7.679   0.526
 6014WAT      O24761   4.894   7.716   0.308
 6014WAT     H124762   4.837   7.710   0.374
 6014WAT     H224763   4.866   7.785   0.263
 6014WAT    EPW24764   4.881   7.725   0.311
 6015WAT      O24765   4.607   7.142   1.022
 6015WAT     H124766   4.536   7.145   1.073
 6015WAT     H224767   4.633   7.059   1.028
 6015WAT    EPW24768   4.600   7.130   1.031
 6016WAT      O24769   4.462   7.471   1.126
 6016WAT     H124770   4.488   7.520   1.193
 6016WAT     H224771   4.379   7.493   1.115
 6016WAT    EPW24772   4.454   7.481   1.134
 6017WAT      O24773   4.638   7.545   0.928
 6017WAT     H124774   4.658   7.626   0.953
 6017WAT     H224775   4.588   7.515   0.993
 6017WAT    EPW24776   4.634   7.553   0.941
 6018WAT      O24777   4.951   7.660   1.096
 6018WAT     H124778   4.947   7.594   1.038
 6018WAT     H224779   5.030   7.694   1.084
 6018WAT    EPW24780   4.962   7.655   1.085
 6019WAT      O24781   4.540   6.988   0.689
 6019WAT     H124782   4.601   7.048   0.703
 6019WAT     H224783   4.468   7.035   0.673
 6019WAT    EPW24784   4.538   7.004   0.688
 6020WAT      O24785   4.041   7.674   0.553
 6020WAT     H124786   4.106   7.708   0.598
 6020WAT     H224787   3.978   7.662   0.612
 6020WAT    EPW24788   4.041   7.677   0.568
 6021WAT      O24789   3.785   7.277   0.849
 6021WAT     H124790   3.780   7.197   0.883
 6021WAT     H224791   3.807   7.262   0.766
 6021WAT    EPW24792   3.787   7.263   0.841
 6022WAT      O24793   4.667   6.804   0.517
 6022WAT     H124794   4.623   6.870   0.553
 6022WAT     H224795   4.747   6.813   0.550
 6022WAT    EPW24796   4.672   6.815   0.527
 6023WAT      O24797   3.880   6.874   0.765
 6023WAT     H124798   3.964   6.892   0.753
 6023WAT     H224799   3.880   6.791   0.791
 6023WAT    EPW24800   3.892   6.865   0.767
 6024WAT      O24801   3.662   7.378   0.402
 6024WAT     H124802   3.713   7.385   0.331
 6024WAT     H224803   3.710   7.330   0.456
 6024WAT    EPW24804   3.677   7.372   0.399
 6025WAT      O24805   4.312   7.314   0.906
 6025WAT     H124806   4.257   7.367   0.949
 6025WAT     H224807   4.367   7.287   0.969
 6025WAT    EPW24808   4.312   7.318   0.922
 6026WAT      O24809   4.392   7.396   0.528
 6026WAT     H124810   4.407   7.445   0.599
 6026WAT     H224811   4.368   7.319   0.560
 6026WAT    EPW24812   4.391   7.392   0.543
 6027WAT      O24813   3.885   6.827   0.372
 6027WAT     H124814   3.845   6.882   0.426
 6027WAT     H224815   3.818   6.787   0.332
 6027WAT    EPW24816   3.869   6.829   0.374
 6028WAT      O24817   3.128   6.959   1.037
 6028WAT     H124818   3.128   7.029   0.986
 6028WAT     H224819   3.054   6.917   1.016
 6028WAT    EPW24820   3.117   6.963   1.027
 6029WAT      O24821   4.904   7.444   0.928
 6029WAT     H124822   4.818   7.463   0.927
 6029WAT     H224823   4.928   7.456   0.845
 6029WAT    EPW24824   4.895   7.449   0.916
 6030WAT      O24825   4.404   7.541   0.769
 6030WAT     H124826   4.367   7.474   0.812
 6030WAT     H224827   4.479   7.554   0.813
 6030WAT    EPW24828   4.410   7.533   0.782
 6031WAT      O24829   4.230   7.735   1.222
 6031WAT     H124830   4.290   7.798   1.208
 6031WAT     H224831   4.155   7.780   1.228
 6031WAT    EPW24832   4.228   7.751   1.221
 6032WAT      O24833   3.538   7.393   0.798
 6032WAT     H124834   3.558   7.451   0.736
 6032WAT     H224835   3.614   7.354   0.815
 6032WAT    EPW24836   3.553   7.396   0.791
 6033WAT      O24837   3.333   7.246   0.684
 6033WAT     H124838   3.353   7.252   0.599
 6033WAT     H224839   3.399   7.288   0.723
 6033WAT    EPW24840   3.346   7.253   0.677
 6034WAT      O24841   3.501   6.921   0.916
 6034WAT     H124842   3.451   6.850   0.923
 6034WAT     H224843   3.494   6.944   0.832
 6034WAT    EPW24844   3.493   6.914   0.905
 6035WAT      O24845   4.696   7.454   0.670
 6035WAT     H124846   4.698   7.368   0.680
 6035WAT     H224847   4.677   7.484   0.750
 6035WAT    EPW24848   4.694   7.446   0.683
 6036WAT      O24849   3.234   7.706   0.762
 6036WAT     H124850   3.284   7.733   0.696
 6036WAT     H224851   3.207   7.627   0.736
 6036WAT    EPW24852   3.237   7.698   0.748
 6037WAT      O24853   4.221   6.978   1.003
 6037WAT     H124854   4.258   7.040   1.053
 6037WAT     H224855   4.147   6.960   1.045
 6037WAT    EPW24856   4.216   6.984   1.017
 6038WAT      O24857   4.595   7.075   0.351
 6038WAT     H124858   4.677   7.052   0.369
 6038WAT     H224859   4.598   7.163   0.355
 6038WAT    EPW24860   4.607   7.085   0.355
 6039WAT      O24861   3.823   7.669   0.734
 6039WAT     H124862   3.801   7.753   0.742
 6039WAT     H224863   3.754   7.634   0.693
 6039WAT    EPW24864   3.809   7.676   0.729
 6040WAT      O24865   3.737   6.977   0.555
 6040WAT     H124866   3.652   6.975   0.577
 6040WAT     H224867   3.775   6.936   0.622
 6040WAT    EPW24868   3.730   6.971   0.568
 6041WAT      O24869   4.911   6.891   0.635
 6041WAT     H124870   4.920   6.923   0.716
 6041WAT     H224871   4.980   6.838   0.626
 6041WAT    EPW24872   4.923   6.888   0.646
 6042WAT      O24873   4.101   7.019   0.333
 6042WAT     H124874   4.046   6.951   0.335
 6042WAT     H224875   4.180   6.981   0.335
 6042WAT    EPW24876   4.105   7.003   0.334
 6043WAT      O24877   3.922   7.502   0.943
 6043WAT     H124878   3.887   7.428   0.914
 6043WAT     H224879   3.894   7.562   0.887
 6043WAT    EPW24880   3.913   7.500   0.931
 6044WAT      O24881   3.471   6.996   0.654
 6044WAT     H124882   3.442   6.953   0.583
 6044WAT     H224883   3.422   7.068   0.655
 6044WAT    EPW24884   3.459   7.000   0.643
 6045WAT      O24885   4.371   6.914   0.296
 6045WAT     H124886   4.436   6.965   0.324
 6045WAT     H224887   4.369   6.928   0.210
 6045WAT    EPW24888   4.380   6.924   0.288
 6046WAT      O24889   4.714   7.798   1.011
 6046WAT     H124890   4.785   7.772   1.054
 6046WAT     H224891   4.745   7.818   0.931
 6046WAT    EPW24892   4.729   7.797   1.005
 6047WAT      O24893   4.829   7.236   1.157
 6047WAT     H124894   4.820   7.321   1.178
 6047WAT     H224895   4.755   7.217   1.116
 6047WAT    EPW24896   4.817   7.246   1.154
 6048WAT      O24897   4.887   7.336   0.450
 6048WAT     H124898   4.804   7.354   0.430
 6048WAT     H224899   4.892   7.249   0.440
 6048WAT    EPW24900   4.875   7.326   0.446
 6049WAT      O24901   3.761   7.015   0.962
 6049WAT     H124902   3.800   6.977   0.893
 6049WAT     H224903   3.680   6.985   0.958
 6049WAT    EPW24904   3.755   7.005   0.951
 6050WAT      O24905   4.489   7.889   1.177
 6050WAT     H124906   4.553   7.884   1.118
 6050WAT     H224907   4.500   7.968   1.213
 6050WAT    EPW24908   4.500   7.900   1.173
 6051WAT      O24909   3.257   6.030   7.481
 6051WAT     H124910   3.229   6.077   7.549
 6051WAT     H224911   3.312   5.972   7.518
 6051WAT    EPW24912   3.261   6.028   7.497
 6052WAT      O24913   4.821   6.476   7.218
 6052WAT     H124914   4.884   6.419   7.239
 6052WAT     H224915   4.767   6.430   7.167
 6052WAT    EPW24916   4.822   6.461   7.213
 6053WAT      O24917   3.168   5.448   7.072
 6053WAT     H124918   3.095   5.485   7.041
 6053WAT     H224919   3.148   5.364   7.077
 6053WAT    EPW24920   3.154   5.441   7.068
 6054WAT      O24921   3.528   5.979   6.971
 6054WAT     H124922   3.459   5.961   6.921
 6054WAT     H224923   3.585   5.916   6.951
 6054WAT    EPW24924   3.526   5.967   6.961
 6055WAT      O24925   4.438   5.841   7.592
 6055WAT     H124926   4.445   5.828   7.506
 6055WAT     H224927   4.392   5.772   7.620
 6055WAT    EPW24928   4.432   5.829   7.584
 6056WAT      O24929   3.442   6.207   7.382
 6056WAT     H124930   3.507   6.187   7.436
 6056WAT     H224931   3.378   6.152   7.406
 6056WAT    EPW24932   3.442   6.196   7.393
 6057WAT      O24933   3.868   5.159   7.352
 6057WAT     H124934   3.887   5.201   7.278
 6057WAT     H224935   3.856   5.076   7.326
 6057WAT    EPW24936   3.869   5.153   7.337
 6058WAT      O24937   3.290   6.448   6.959
 6058WAT     H124938   3.344   6.465   6.893
 6058WAT     H224939   3.331   6.383   7.002
 6058WAT    EPW24940   3.304   6.441   6.956
 6059WAT      O24941   3.426   5.845   7.610
 6059WAT     H124942   3.451   5.787   7.550
 6059WAT     H224943   3.458   5.813   7.684
 6059WAT    EPW24944   3.435   5.832   7.612
 6060WAT      O24945   3.531   5.657   7.439
 6060WAT     H124946   3.590   5.623   7.493
 6060WAT     H224947   3.461   5.607   7.451
 6060WAT    EPW24948   3.529   5.645   7.449
 6061WAT      O24949   3.903   6.249   7.679
 6061WAT     H124950   3.928   6.181   7.728
 6061WAT     H224951   3.973   6.301   7.680
 6061WAT    EPW24952   3.917   6.247   7.686
 6062WAT      O24953   4.021   6.209   7.362
 6062WAT     H124954   4.034   6.141   7.415
 6062WAT     H224955   4.050   6.182   7.285
 6062WAT    EPW24956   4.027   6.195   7.359
 6063WAT      O24957   3.616   5.204   7.466
 6063WAT     H124958   3.568   5.229   7.397
 6063WAT     H224959   3.696   5.195   7.433
 6063WAT    EPW24960   3.621   5.206   7.451
 6064WAT      O24961   3.979   5.141   7.603
 6064WAT     H124962   3.943   5.207   7.645
 6064WAT     H224963   3.946   5.146   7.523
 6064WAT    EPW24964   3.969   5.151   7.597
 6065WAT      O24965   4.390   5.305   6.778
 6065WAT     H124966   4.326   5.361   6.799
 6065WAT     H224967   4.406   5.264   6.853
 6065WAT    EPW24968   4.383   5.307   6.792
 6066WAT      O24969   3.246   5.612   7.805
 6066WAT     H124970   3.206   5.688   7.820
 6066WAT     H224971   3.198   5.555   7.852
 6066WAT    EPW24972   3.233   5.615   7.814
 6067WAT      O24973   3.179   6.558   7.629
 6067WAT     H124974   3.118   6.608   7.593
 6067WAT     H224975   3.221   6.523   7.561
 6067WAT    EPW24976   3.176   6.560   7.614
 6068WAT      O24977   3.763   6.298   7.320
 6068WAT     H124978   3.730   6.313   7.400
 6068WAT     H224979   3.845   6.273   7.336
 6068WAT    EPW24980   3.770   6.296   7.335
 6069WAT      O24981   4.372   6.589   7.123
 6069WAT     H124982   4.445   6.637   7.125
 6069WAT     H224983   4.399   6.510   7.148
 6069WAT    EPW24984   4.387   6.585   7.127
 6070WAT      O24985   4.172   6.619   7.311
 6070WAT     H124986   4.191   6.692   7.355
 6070WAT     H224987   4.235   6.614   7.251
 6070WAT    EPW24988   4.184   6.629   7.308
 6071WAT      O24989   3.311   6.451   7.406
 6071WAT     H124990   3.363   6.381   7.409
 6071WAT     H224991   3.361   6.513   7.372
 6071WAT    EPW24992   3.326   6.450   7.402
 6072WAT      O24993   4.938   5.289   7.541
 6072WAT     H124994   4.893   5.362   7.560
 6072WAT     H224995   4.876   5.231   7.523
 6072WAT    EPW24996   4.922   5.291   7.541
 6073WAT      O24997   3.509   6.237   7.754
 6073WAT     H124998   3.546   6.296   7.701
 6073WAT     H224999   3.551   6.163   7.734
 6073WAT    EPW25000   3.521   6.234   7.743
 6074WAT      O25001   3.739   6.612   7.653
 6074WAT     H125002   3.820   6.634   7.631
 6074WAT     H225003   3.691   6.679   7.624
 6074WAT    EPW25004   3.744   6.625   7.646
 6075WAT      O25005   4.110   5.520   7.506
 6075WAT     H125006   4.131   5.505   7.423
 6075WAT     H225007   4.183   5.557   7.538
 6075WAT    EPW25008   4.124   5.524   7.499
 6076WAT      O25009   4.181   5.473   6.830
 6076WAT     H125010   4.185   5.533   6.893
 6076WAT     H225011   4.098   5.476   6.805
 6076WAT    EPW25012   4.169   5.483   6.836
 6077WAT      O25013   4.592   6.763   7.093
 6077WAT     H125014   4.642   6.736   7.027
 6077WAT     H225015   4.644   6.816   7.139
 6077WAT    EPW25016   4.607   6.767   7.090
 6078WAT      O25017   4.071   6.391   6.939
 6078WAT     H125018   4.037   6.450   6.993
 6078WAT     H225019   4.146   6.427   6.914
 6078WAT    EPW25020   4.077   6.405   6.943
 6079WAT      O25021   4.428   5.164   7.016
 6079WAT     H125022   4.485   5.098   7.023
 6079WAT     H225023   4.443   5.212   7.087
 6079WAT    EPW25024   4.439   5.162   7.027
 6080WAT      O25025   3.213   5.247   7.355
 6080WAT     H125026   3.200   5.161   7.350
 6080WAT     H225027   3.156   5.273   7.416
 6080WAT    EPW25028   3.203   5.238   7.363
 6081WAT      O25029   4.167   5.422   7.251
 6081WAT     H125030   4.104   5.379   7.209
 6081WAT     H225031   4.181   5.493   7.202
 6081WAT    EPW25032   4.160   5.427   7.238
 6082WAT      O25033   4.191   5.085   7.141
 6082WAT     H125034   4.119   5.072   7.094
 6082WAT     H225035   4.251   5.106   7.082
 6082WAT    EPW25036   4.189   5.086   7.126
 6083WAT      O25037   4.860   6.703   7.517
 6083WAT     H125038   4.819   6.780   7.512
 6083WAT     H225039   4.799   6.645   7.493
 6083WAT    EPW25040   4.845   6.706   7.513
 6084WAT      O25041   3.914   5.411   7.679
 6084WAT     H125042   3.967   5.449   7.620
 6084WAT     H225043   3.939   5.447   7.754
 6084WAT    EPW25044   3.926   5.422   7.681
 6085WAT      O25045   4.573   6.278   7.516
 6085WAT     H125046   4.633   6.216   7.505
 6085WAT     H225047   4.501   6.233   7.535
 6085WAT    EPW25048   4.571   6.262   7.517
 6086WAT      O25049   3.536   4.968   7.600
 6086WAT     H125050   3.566   5.046   7.573
 6086WAT     H225051   3.512   4.928   7.527
 6086WAT    EPW25052   3.537   4.974   7.585
 6087WAT      O25053   4.516   4.953   7.502
 6087WAT     H125054   4.521   4.942   7.589
 6087WAT     H225055   4.544   4.876   7.471
 6087WAT    EPW25056   4.521   4.940   7.510
 6088WAT      O25057   3.468   5.332   7.660
 6088WAT     H125058   3.507   5.279   7.603
 6088WAT     H225059   3.401   5.284   7.690
 6088WAT    EPW25060   3.464   5.317   7.656
 6089WAT      O25061   4.778   6.071   7.070
 6089WAT     H125062   4.769   6.016   7.137
 6089WAT     H225063   4.864   6.077   7.059
 6089WAT    EPW25064   4.789   6.063   7.078
 6090WAT      O25065   3.612   6.045   7.553
 6090WAT     H125066   3.662   6.018   7.487
 6090WAT     H225067   3.563   5.975   7.571
 6090WAT    EPW25068   3.612   6.031   7.546
 6091WAT      O25069   3.403   6.644   7.773
 6091WAT     H125070   3.330   6.628   7.729
 6091WAT     H225071   3.453   6.688   7.716
 6091WAT    EPW25072   3.400   6.648   7.758
 6092WAT      O25073   4.558   5.709   6.953
 6092WAT     H125074   4.560   5.795   6.941
 6092WAT     H225075   4.484   5.696   6.997
 6092WAT    EPW25076   4.547   5.719   6.958
 6093WAT      O25077   3.702   6.025   7.277
 6093WAT     H125078   3.706   6.111   7.288
 6093WAT     H225079   3.769   6.007   7.225
 6093WAT    EPW25080   3.712   6.035   7.271
 6094WAT      O25081   4.912   5.205   6.949
 6094WAT     H125082   4.959   5.156   6.893
 6094WAT     H225083   4.866   5.258   6.896
 6094WAT    EPW25084   4.912   5.205   6.933
 6095WAT      O25085   3.242   6.162   7.731
 6095WAT     H125086   3.200   6.228   7.769
 6095WAT     H225087   3.326   6.185   7.737
 6095WAT    EPW25088   3.248   6.175   7.738
 6096WAT      O25089   3.318   5.861   7.257
 6096WAT     H125090   3.275   5.786   7.268
 6096WAT     H225091   3.277   5.916   7.311
 6096WAT    EPW25092   3.306   5.858   7.267
 6097WAT      O25093   4.799   5.100   7.184
 6097WAT     H125094   4.870   5.056   7.209
 6097WAT     H225095   4.826   5.144   7.113
 6097WAT    EPW25096   4.814   5.100   7.177
 6098WAT      O25097   4.138   6.409   7.684
 6098WAT     H125098   4.102   6.488   7.672
 6098WAT     H225099   4.179   6.394   7.609
 6098WAT    EPW25100   4.139   6.418   7.671
 6099WAT      O25101   3.089   6.296   7.311
 6099WAT     H125102   3.151   6.338   7.355
 6099WAT     H225103   3.050   6.246   7.372
 6099WAT    EPW25104   3.092   6.295   7.326
 6100WAT      O25105   4.455   5.359   7.699
 6100WAT     H125106   4.474   5.304   7.764
 6100WAT     H225107   4.390   5.318   7.657
 6100WAT    EPW25108   4.448   5.345   7.703
 6101WAT      O25109   3.144   6.170   7.069
 6101WAT     H125110   3.231   6.162   7.070
 6101WAT     H225111   3.127   6.211   7.144
 6101WAT    EPW25112   3.155   6.175   7.080
 6102WAT      O25113   3.190   5.889   7.766
 6102WAT     H125114   3.250   5.864   7.709
 6102WAT     H225115   3.209   5.973   7.781
 6102WAT    EPW25116   3.201   5.898   7.760
 6103WAT      O25117   3.939   5.302   7.118
 6103WAT     H125118   3.938   5.241   7.056
 6103WAT     H225119   3.896   5.369   7.081
 6103WAT    EPW25120   3.932   5.303   7.103
 6104WAT      O25121   3.676   6.362   7.571
 6104WAT     H125122   3.689   6.444   7.596
 6104WAT     H225123   3.742   6.319   7.609
 6104WAT    EPW25124   3.688   6.367   7.580
 6105WAT      O25125   3.537   5.530   7.101
 6105WAT     H125126   3.516   5.467   7.158
 6105WAT     H225127   3.488   5.512   7.031
 6105WAT    EPW25128   3.527   5.518   7.099
 6106WAT      O25129   3.515   5.705   7.827
 6106WAT     H125130   3.441   5.659   7.835
 6106WAT     H225131   3.568   5.650   7.786
 6106WAT    EPW25132   3.512   5.690   7.822
 6107WAT      O25133   4.419   5.300   7.264
 6107WAT     H125134   4.476   5.363   7.285
 6107WAT     H225135   4.344   5.343   7.253
 6107WAT    EPW25136   4.416   5.316   7.265
 6108WAT      O25137   4.772   6.074   7.482
 6108WAT     H125138   4.783   6.027   7.555
 6108WAT     H225139   4.749   6.014   7.423
 6108WAT    EPW25140   4.770   6.058   7.484
 6109WAT      O25141   4.247   6.215   7.858
 6109WAT     H125142   4.217   6.286   7.816
 6109WAT     H225143   4.258   6.243   7.940
 6109WAT    EPW25144   4.244   6.230   7.864
 6110WAT      O25145   3.768   6.578   7.291
 6110WAT     H125146   3.772   6.494   7.317
 6110WAT     H225147   3.828   6.582   7.228
 6110WAT    EPW25148   3.777   6.566   7.285
 6111WAT      O25149   3.681   4.987   7.045
 6111WAT     H125150   3.637   4.949   7.111
 6111WAT     H225151   3.634   5.058   7.027
 6111WAT    EPW25152   3.668   4.992   7.052
 6112WAT      O25153   3.979   6.586   7.113
 6112WAT     H125154   4.040   6.598   7.174
 6112WAT     H225155   3.974   6.663   7.073
 6112WAT    EPW25156   3.987   6.599   7.116
 6113WAT      O25157   3.167   4.966   7.348
 6113WAT     H125158   3.244   4.933   7.323
 6113WAT     H225159   3.141   4.911   7.410
 6113WAT    EPW25160   3.175   4.953   7.353
 6114WAT      O25161   3.963   5.763   7.444
 6114WAT     H125162   4.009   5.832   7.469
 6114WAT     H225163   4.012   5.695   7.468
 6114WAT    EPW25164   3.977   5.763   7.451
 6115WAT      O25165   3.538   5.216   6.991
 6115WAT     H125166   3.475   5.207   6.932
 6115WAT     H225167   3.607   5.242   6.943
 6115WAT    EPW25168   3.539   5.218   6.975
 6116WAT      O25169   4.031   6.043   7.824
 6116WAT     H125170   4.000   6.017   7.902
 6116WAT     H225171   4.100   6.091   7.845
 6116WAT    EPW25172   4.037   6.046   7.839
 6117WAT      O25173   3.647   6.607   6.915
 6117WAT     H125174   3.660   6.535   6.962
 6117WAT     H225175   3.651   6.671   6.974
 6117WAT    EPW25176   3.649   6.606   6.930
 6118WAT      O25177   3.659   5.531   7.658
 6118WAT     H125178   3.737   5.492   7.658
 6118WAT     H225179   3.603   5.464   7.665
 6118WAT    EPW25180   3.662   5.515   7.659
 6119WAT      O25181   4.985   6.653   7.087
 6119WAT     H125182   5.054   6.605   7.064
 6119WAT     H225183   4.934   6.596   7.129
 6119WAT    EPW25184   4.988   6.638   7.090
 6120WAT      O25185   3.206   5.609   7.299
 6120WAT     H125186   3.228   5.568   7.373
 6120WAT     H225187   3.209   5.546   7.239
 6120WAT    EPW25188   3.210   5.593   7.301
 6121WAT      O25189   3.666   5.754   6.903
 6121WAT     H125190   3.717   5.689   6.931
 6121WAT     H225191   3.624   5.719   6.835
 6121WAT    EPW25192   3.667   5.739   6.897
 6122WAT      O25193   4.835   5.948   7.722
 6122WAT     H125194   4.835   6.015   7.778
 6122WAT     H225195   4.918   5.921   7.723
 6122WAT    EPW25196   4.848   5.954   7.731
 6123WAT      O25197   3.802   5.535   7.016
 6123WAT     H125198   3.833   5.590   7.076
 6123WAT     H225199   3.722   5.517   7.045
 6123WAT    EPW25200   3.795   5.540   7.029
 6124WAT      O25201   3.229   5.211   7.732
 6124WAT     H125202   3.161   5.234   7.682
 6124WAT     H225203   3.221   5.124   7.738
 6124WAT    EPW25204   3.218   5.201   7.725
 6125WAT      O25205   5.057   6.408   7.892
 6125WAT     H125206   5.055   6.456   7.819
 6125WAT     H225207   5.133   6.429   7.929
 6125WAT    EPW25208   5.068   6.418   7.887
 6126WAT      O25209   4.656   6.319   7.069
 6126WAT     H125210   4.689   6.238   7.073
 6126WAT     H225211   4.581   6.314   7.113
 6126WAT    EPW25212   4.650   6.306   7.076
 6127WAT      O25213   4.700   5.465   7.592
 6127WAT     H125214   4.631   5.427   7.630
 6127WAT     H225215   4.701   5.545   7.628
 6127WAT    EPW25216   4.690   5.471   7.603
 6128WAT      O25217   4.359   6.129   7.006
 6128WAT     H125218   4.426   6.074   6.994
 6128WAT     H225219   4.323   6.135   6.926
 6128WAT    EPW25220   4.363   6.122   6.992
 6129WAT      O25221   4.012   6.645   7.580
 6129WAT     H125222   4.003   6.732   7.587
 6129WAT     H225223   4.028   6.634   7.495
 6129WAT    EPW25224   4.013   6.656   7.568
 6130WAT      O25225   4.820   5.622   6.940
 6130WAT     H125226   4.865   5.685   6.900
 6130WAT     H225227   4.738   5.651   6.938
 6130WAT    EPW25228   4.814   5.635   6.934
 6131WAT      O25229   3.891   5.988   7.076
 6131WAT     H125230   3.851   6.031   7.011
 6131WAT     H225231   3.968   6.029   7.083
 6131WAT    EPW25232   3.897   6.000   7.067
 6132WAT      O25233   4.586   5.513   7.343
 6132WAT     H125234   4.622   5.496   7.421
 6132WAT     H225235   4.653   5.543   7.296
 6132WAT    EPW25236   4.602   5.515   7.347
 6133WAT      O25237   4.747   5.103   7.459
 6133WAT     H125238   4.668   5.068   7.472
 6133WAT     H225239   4.749   5.116   7.373
 6133WAT    EPW25240   4.735   5.100   7.448
 6134WAT      O25241   4.712   5.893   7.279
 6134WAT     H125242   4.753   5.817   7.265
 6134WAT     H225243   4.628   5.870   7.286
 6134WAT    EPW25244   4.706   5.878   7.278
 6135WAT      O25245   3.467   5.307   7.253
 6135WAT     H125246   3.477   5.260   7.180
 6135WAT     H225247   3.385   5.288   7.277
 6135WAT    EPW25248   3.456   5.297   7.246
 6136WAT      O25249   4.353   6.106   7.608
 6136WAT     H125250   4.338   6.129   7.691
 6136WAT     H225251   4.387   6.026   7.615
 6136WAT    EPW25252   4.355   6.098   7.622
 6137WAT      O25253   4.096   6.001   7.541
 6137WAT     H125254   4.063   6.007   7.622
 6137WAT     H225255   4.178   6.030   7.550
 6137WAT    EPW25256   4.103   6.006   7.555
 6138WAT      O25257   4.544   6.676   7.740
 6138WAT     H125258   4.508   6.597   7.750
 6138WAT     H225259   4.630   6.660   7.749
 6138WAT    EPW25260   4.552   6.662   7.743
 6139WAT      O25261   4.802   5.637   7.220
 6139WAT     H125262   4.808   5.632   7.133
 6139WAT     H225263   4.881   5.614   7.248
 6139WAT    EPW25264   4.815   5.633   7.211
 6140WAT      O25265   4.235   6.372   7.424
 6140WAT     H125266   4.214   6.450   7.391
 6140WAT     H225267   4.166   6.322   7.404
 6140WAT    EPW25268   4.222   6.376   7.417
 6141WAT      O25269   3.367   5.477   6.880
 6141WAT     H125270   3.300   5.476   6.936
 6141WAT     H225271   3.365   5.398   6.844
 6141WAT    EPW25272   3.357   5.465   6.883
 6142WAT      O25273   4.225   5.261   7.565
 6142WAT     H125274   4.153   5.219   7.591
 6142WAT     H225275   4.194   5.337   7.535
 6142WAT    EPW25276   4.210   5.266   7.564
 6143WAT      O25277   3.662   6.363   7.059
 6143WAT     H125278   3.702   6.356   7.136
 6143WAT     H225279   3.583   6.327   7.073
 6143WAT    EPW25280   3.656   6.357   7.072
 6144WAT      O25281   4.667   5.722   7.697
 6144WAT     H125282   4.725   5.786   7.711
 6144WAT     H225283   4.598   5.765   7.664
 6144WAT    EPW25284   4.666   5.738   7.694
 6145WAT      O25285   4.650   6.535   7.427
 6145WAT     H125286   4.622   6.458   7.456
 6145WAT     H225287   4.698   6.514   7.357
 6145WAT    EPW25288   4.653   6.521   7.421
 6146WAT      O25289   3.428   6.214   7.101
 6146WAT     H125290   3.433   6.209   7.187
 6146WAT     H225291   3.461   6.138   7.074
 6146WAT    EPW25292   3.434   6.202   7.109
 6147WAT      O25293   3.742   6.147   6.901
 6147WAT     H125294   3.667   6.103   6.912
 6147WAT     H225295   3.728   6.221   6.945
 6147WAT    EPW25296   3.729   6.151   6.909
 6148WAT      O25297   3.955   5.020   7.005
 6148WAT     H125298   3.968   5.016   6.919
 6148WAT     H225299   3.868   5.013   7.012
 6148WAT    EPW25300   3.944   5.019   6.993
 6149WAT      O25301   4.317   5.605   7.680
 6149WAT     H125302   4.372   5.538   7.688
 6149WAT     H225303   4.292   5.621   7.763
 6149WAT    EPW25304   4.321   5.597   7.694
 6150WAT      O25305   3.307   5.524   7.544
 6150WAT     H125306   3.278   5.557   7.619
 6150WAT     H225307   3.350   5.452   7.567
 6150WAT    EPW25308   3.309   5.518   7.558
 6151WAT      O25309   4.465   5.767   7.327
 6151WAT     H125310   4.496   5.686   7.330
 6151WAT     H225311   4.401   5.763   7.267
 6151WAT    EPW25312   4.460   5.755   7.319
 6152WAT      O25313   3.498   6.642   7.305
 6152WAT     H125314   3.486   6.696   7.237
 6152WAT     H225315   3.582   6.620   7.300
 6152WAT    EPW25316   3.508   6.647   7.294
 6153WAT      O25317   3.842   5.740   7.195
 6153WAT     H125318   3.880   5.805   7.151
 6153WAT     H225319   3.881   5.743   7.273
 6153WAT    EPW25320   3.853   5.750   7.200
 6154WAT      O25321   4.780   6.698   6.901
 6154WAT     H125322   4.848   6.691   6.954
 6154WAT     H225323   4.765   6.616   6.875
 6154WAT    EPW25324   4.787   6.685   6.905
 6155WAT      O25325   4.414   6.328   7.200
 6155WAT     H125326   4.375   6.318   7.278
 6155WAT     H225327   4.380   6.263   7.152
 6155WAT    EPW25328   4.403   6.317   7.205
 6156WAT      O25329   3.412   6.428   7.954
 6156WAT     H125330   3.452   6.367   7.905
 6156WAT     H225331   3.422   6.501   7.907
 6156WAT    EPW25332   3.419   6.430   7.940
 6157WAT      O25333   4.103   6.163   7.103
 6157WAT     H125334   4.181   6.133   7.080
 6157WAT     H225335   4.090   6.231   7.049
 6157WAT    EPW25336   4.113   6.169   7.092
 6158WAT      O25337   4.291   5.784   5.987
 6158WAT     H125338   4.220   5.810   6.032
 6158WAT     H225339   4.313   5.709   6.025
 6158WAT    EPW25340   4.284   5.777   5.999
 6159WAT      O25341   3.216   6.075   5.540
 6159WAT     H125342   3.153   6.078   5.600
 6159WAT     H225343   3.215   5.992   5.513
 6159WAT    EPW25344   3.207   6.063   5.545
 6160WAT      O25345   4.782   6.495   5.356
 6160WAT     H125346   4.843   6.441   5.386
 6160WAT     H225347   4.736   6.445   5.301
 6160WAT    EPW25348   4.784   6.480   5.352
 6161WAT      O25349   3.430   5.996   5.114
 6161WAT     H125350   3.416   5.956   5.038
 6161WAT     H225351   3.444   5.930   5.170
 6161WAT    EPW25352   3.430   5.980   5.111
 6162WAT      O25353   4.377   5.710   5.604
 6162WAT     H125354   4.401   5.712   5.520
 6162WAT     H225355   4.317   5.647   5.607
 6162WAT    EPW25356   4.372   5.701   5.592
 6163WAT      O25357   3.471   6.188   5.483
 6163WAT     H125358   3.533   6.127   5.477
 6163WAT     H225359   3.400   6.143   5.509
 6163WAT    EPW25360   3.469   6.173   5.486
 6164WAT      O25361   3.307   6.457   5.065
 6164WAT     H125362   3.357   6.470   4.994
 6164WAT     H225363   3.357   6.405   5.115
 6164WAT    EPW25364   3.322   6.451   5.062
 6165WAT      O25365   3.219   6.316   6.229
 6165WAT     H125366   3.251   6.299   6.308
 6165WAT     H225367   3.147   6.266   6.224
 6165WAT    EPW25368   3.213   6.306   6.240
 6166WAT      O25369   3.841   6.171   6.645
 6166WAT     H125370   3.816   6.158   6.728
 6166WAT     H225371   3.771   6.145   6.599
 6166WAT    EPW25372   3.827   6.165   6.650
 6167WAT      O25373   3.448   5.817   5.666
 6167WAT     H125374   3.384   5.834   5.609
 6167WAT     H225375   3.471   5.735   5.646
 6167WAT    EPW25376   3.442   5.807   5.655
 6168WAT      O25377   3.840   6.439   6.383
 6168WAT     H125378   3.848   6.510   6.333
 6168WAT     H225379   3.922   6.418   6.402
 6168WAT    EPW25380   3.853   6.446   6.378
 6169WAT      O25381   3.544   5.598   5.507
 6169WAT     H125382   3.619   5.554   5.516
 6169WAT     H225383   3.487   5.537   5.484
 6169WAT    EPW25384   3.547   5.582   5.505
 6170WAT      O25385   3.989   6.281   5.836
 6170WAT     H125386   4.039   6.230   5.886
 6170WAT     H225387   4.047   6.331   5.793
 6170WAT    EPW25388   4.005   6.281   5.837
 6171WAT      O25389   3.943   6.146   5.378
 6171WAT     H125390   3.986   6.098   5.437
 6171WAT     H225391   3.977   6.119   5.302
 6171WAT    EPW25392   3.955   6.135   5.376
 6172WAT      O25393   4.114   5.714   6.527
 6172WAT     H125394   4.031   5.689   6.529
 6172WAT     H225395   4.128   5.746   6.607
 6172WAT    EPW25396   4.104   5.715   6.539
 6173WAT      O25397   4.586   4.906   6.471
 6173WAT     H125398   4.572   4.982   6.430
 6173WAT     H225399   4.520   4.900   6.527
 6173WAT    EPW25400   4.574   4.916   6.473
 6174WAT      O25401   3.135   5.614   5.966
 6174WAT     H125402   3.087   5.683   5.942
 6174WAT     H225403   3.081   5.569   6.018
 6174WAT    EPW25404   3.120   5.618   5.970
 6175WAT      O25405   3.215   6.554   5.778
 6175WAT     H125406   3.149   6.593   5.737
 6175WAT     H225407   3.251   6.505   5.715
 6175WAT    EPW25408   3.210   6.552   5.762
 6176WAT      O25409   3.751   6.339   5.439
 6176WAT     H125410   3.732   6.316   5.521
 6176WAT     H225411   3.813   6.282   5.415
 6176WAT    EPW25412   3.758   6.327   5.448
 6177WAT      O25413   4.399   6.562   5.205
 6177WAT     H125414   4.471   6.610   5.218
 6177WAT     H225415   4.423   6.482   5.231
 6177WAT    EPW25416   4.413   6.557   5.211
 6178WAT      O25417   4.229   6.617   5.410
 6178WAT     H125418   4.186   6.689   5.384
 6178WAT     H225419   4.281   6.599   5.342
 6178WAT    EPW25420   4.230   6.625   5.396
 6179WAT      O25421   3.491   4.992   5.858
 6179WAT     H125422   3.443   5.008   5.787
 6179WAT     H225423   3.573   5.005   5.830
 6179WAT    EPW25424   3.496   4.997   5.843
 6180WAT      O25425   3.767   5.250   6.834
 6180WAT     H125426   3.767   5.192   6.769
 6180WAT     H225427   3.814   5.317   6.803
 6180WAT    EPW25428   3.774   5.252   6.820
 6181WAT      O25429   3.330   6.429   5.550
 6181WAT     H125430   3.393   6.369   5.543
 6181WAT     H225431   3.365   6.499   5.509
 6181WAT    EPW25432   3.345   6.431   5.543
 6182WAT      O25433   4.899   5.221   5.647
 6182WAT     H125434   4.849   5.292   5.649
 6182WAT     H225435   4.842   5.156   5.638
 6182WAT    EPW25436   4.883   5.222   5.646
 6183WAT      O25437   4.388   6.589   6.218
 6183WAT     H125438   4.456   6.643   6.206
 6183WAT     H225439   4.362   6.571   6.137
 6183WAT    EPW25440   4.394   6.595   6.204
 6184WAT      O25441   3.352   5.217   6.778
 6184WAT     H125442   3.272   5.187   6.762
 6184WAT     H225443   3.399   5.183   6.712
 6184WAT    EPW25444   3.347   5.207   6.766
 6185WAT      O25445   3.489   6.304   5.870
 6185WAT     H125446   3.558   6.292   5.818
 6185WAT     H225447   3.501   6.247   5.934
 6185WAT    EPW25448   3.501   6.294   5.872
 6186WAT      O25449   3.740   6.565   5.765
 6186WAT     H125450   3.817   6.596   5.738
 6186WAT     H225451   3.682   6.622   5.733
 6186WAT    EPW25452   3.743   6.578   5.756
 6187WAT      O25453   4.013   5.015   6.730
 6187WAT     H125454   4.037   4.945   6.683
 6187WAT     H225455   3.943   5.045   6.689
 6187WAT    EPW25456   4.006   5.009   6.717
 6188WAT      O25457   4.592   6.764   5.226
 6188WAT     H125458   4.645   6.742   5.160
 6188WAT     H225459   4.646   6.805   5.281
 6188WAT    EPW25460   4.608   6.767   5.224
 6189WAT      O25461   3.607   6.682   6.416
 6189WAT     H125462   3.654   6.649   6.481
 6189WAT     H225463   3.546   6.621   6.401
 6189WAT    EPW25464   3.605   6.668   6.423
 6190WAT      O25465   4.936   5.294   6.154
 6190WAT     H125466   4.971   5.271   6.077
 6190WAT     H225467   4.941   5.222   6.202
 6190WAT    EPW25468   4.942   5.280   6.150
 6191WAT      O25469   3.094   5.330   6.488
 6191WAT     H125470   3.091   5.399   6.542
 6191WAT     H225471   3.153   5.353   6.428
 6191WAT    EPW25472   3.103   5.343   6.487
 6192WAT      O25473   4.320   6.410   6.595
 6192WAT     H125474   4.308   6.426   6.680
 6192WAT     H225475   4.406   6.398   6.589
 6192WAT    EPW25476   4.331   6.410   6.607
 6193WAT      O25477   4.088   6.348   5.023
 6193WAT     H125478   4.044   6.399   5.078
 6193WAT     H225479   4.159   6.394   5.003
 6193WAT    EPW25480   4.092   6.362   5.028
 6194WAT      O25481   4.354   5.112   5.049
 6194WAT     H125482   4.388   5.071   5.119
 6194WAT     H225483   4.272   5.084   5.047
 6194WAT    EPW25484   4.347   5.102   5.059
 6195WAT      O25485   3.381   6.550   6.266
 6195WAT     H125486   3.326   6.483   6.261
 6195WAT     H225487   3.424   6.547   6.190
 6195WAT    EPW25488   3.379   6.540   6.254
 6196WAT      O25489   4.164   6.701   6.334
 6196WAT     H125490   4.239   6.669   6.302
 6196WAT     H225491   4.104   6.673   6.278
 6196WAT    EPW25492   4.166   6.692   6.321
 6197WAT      O25493   4.779   6.717   5.700
 6197WAT     H125494   4.719   6.779   5.690
 6197WAT     H225495   4.737   6.645   5.673
 6197WAT    EPW25496   4.764   6.715   5.694
 6198WAT      O25497   4.587   6.247   5.676
 6198WAT     H125498   4.643   6.185   5.651
 6198WAT     H225499   4.509   6.209   5.665
 6198WAT    EPW25500   4.584   6.233   5.670
 6199WAT      O25501   3.584   6.385   6.514
 6199WAT     H125502   3.663   6.411   6.485
 6199WAT     H225503   3.574   6.428   6.589
 6199WAT    EPW25504   3.595   6.395   6.520
 6200WAT      O25505   3.657   5.891   5.959
 6200WAT     H125506   3.716   5.902   6.022
 6200WAT     H225507   3.624   5.812   5.976
 6200WAT    EPW25508   3.661   5.881   5.971
 6201WAT      O25509   4.311   5.329   6.311
 6201WAT     H125510   4.300   5.375   6.385
 6201WAT     H225511   4.249   5.269   6.315
 6201WAT    EPW25512   4.300   5.327   6.323
 6202WAT      O25513   3.817   5.972   6.171
 6202WAT     H125514   3.809   6.058   6.184
 6202WAT     H225515   3.793   5.937   6.247
 6202WAT    EPW25516   3.812   5.979   6.184
 6203WAT      O25517   4.417   6.041   6.233
 6203WAT     H125518   4.348   6.005   6.273
 6203WAT     H225519   4.393   6.125   6.223
 6203WAT    EPW25520   4.403   6.048   6.238
 6204WAT      O25521   4.427   4.894   5.506
 6204WAT     H125522   4.433   4.807   5.505
 6204WAT     H225523   4.341   4.909   5.505
 6204WAT    EPW25524   4.415   4.883   5.506
 6205WAT      O25525   3.080   6.328   6.822
 6205WAT     H125526   3.143   6.371   6.864
 6205WAT     H225527   3.077   6.251   6.863
 6205WAT    EPW25528   3.089   6.323   6.835
 6206WAT      O25529   4.770   5.445   6.402
 6206WAT     H125530   4.841   5.398   6.421
 6206WAT     H225531   4.713   5.422   6.463
 6206WAT    EPW25532   4.772   5.435   6.414
 6207WAT      O25533   4.761   6.073   5.196
 6207WAT     H125534   4.752   6.018   5.264
 6207WAT     H225535   4.847   6.075   5.182
 6207WAT    EPW25536   4.772   6.065   5.204
 6208WAT      O25537   3.402   6.738   5.870
 6208WAT     H125538   3.333   6.692   5.843
 6208WAT     H225539   3.450   6.746   5.798
 6208WAT    EPW25540   3.399   6.733   5.855
 6209WAT      O25541   3.350   5.450   6.021
 6209WAT     H125542   3.333   5.376   5.979
 6209WAT     H225543   3.286   5.503   5.996
 6209WAT    EPW25544   3.338   5.447   6.011
 6210WAT      O25545   5.015   6.502   6.607
 6210WAT     H125546   4.936   6.509   6.572
 6210WAT     H225547   5.002   6.456   6.679
 6210WAT    EPW25548   5.002   6.496   6.612
 6211WAT      O25549   4.559   5.716   5.063
 6211WAT     H125550   4.561   5.802   5.048
 6211WAT     H225551   4.524   5.710   5.143
 6211WAT    EPW25552   4.554   5.728   5.072
 6212WAT      O25553   3.699   5.999   5.440
 6212WAT     H125554   3.769   6.046   5.416
 6212WAT     H225555   3.694   5.937   5.379
 6212WAT    EPW25556   3.709   5.997   5.427
 6213WAT      O25557   3.231   6.195   5.833
 6213WAT     H125558   3.176   6.249   5.875
 6213WAT     H225559   3.307   6.238   5.833
 6213WAT    EPW25560   3.234   6.209   5.839
 6214WAT      O25561   3.908   5.480   6.755
 6214WAT     H125562   3.874   5.520   6.825
 6214WAT     H225563   3.881   5.528   6.688
 6214WAT    EPW25564   3.899   5.493   6.756
 6215WAT      O25565   5.042   5.629   6.320
 6215WAT     H125566   5.102   5.566   6.321
 6215WAT     H225567   4.999   5.615   6.245
 6215WAT    EPW25568   5.044   5.618   6.309
 6216WAT      O25569   3.262   5.820   5.455
 6216WAT     H125570   3.192   5.769   5.440
 6216WAT     H225571   3.319   5.796   5.394
 6216WAT    EPW25572   3.260   5.809   5.444
 6217WAT      O25573   4.709   5.072   5.291
 6217WAT     H125574   4.781   5.024   5.302
 6217WAT     H225575   4.646   5.013   5.281
 6217WAT    EPW25576   4.711   5.056   5.292
 6218WAT      O25577   4.168   6.459   5.714
 6218WAT     H125578   4.113   6.524   5.697
 6218WAT     H225579   4.175   6.418   5.638
 6218WAT    EPW25580   4.161   6.462   5.701
 6219WAT      O25581   3.168   6.287   5.373
 6219WAT     H125582   3.219   6.343   5.417
 6219WAT     H225583   3.168   6.216   5.423
 6219WAT    EPW25584   3.175   6.285   5.387
 6220WAT      O25585   3.537   6.123   6.070
 6220WAT     H125586   3.598   6.159   6.120
 6220WAT     H225587   3.577   6.052   6.037
 6220WAT    EPW25588   3.552   6.118   6.072
 6221WAT      O25589   3.165   6.130   5.135
 6221WAT     H125590   3.239   6.083   5.134
 6221WAT     H225591   3.178   6.185   5.202
 6221WAT    EPW25592   3.178   6.131   5.145
 6222WAT      O25593   3.253   5.924   5.874
 6222WAT     H125594   3.312   5.891   5.819
 6222WAT     H225595   3.252   6.009   5.854
 6222WAT    EPW25596   3.262   5.931   5.863
 6223WAT      O25597   4.773   6.549   6.466
 6223WAT     H125598   4.718   6.614   6.481
 6223WAT     H225599   4.796   6.560   6.382
 6223WAT    EPW25600   4.768   6.560   6.455
 6224WAT      O25601   3.731   6.292   5.718
 6224WAT     H125602   3.727   6.379   5.728
 6224WAT     H225603   3.810   6.271   5.750
 6224WAT    EPW25604   3.742   6.302   5.724
 6225WAT      O25605   3.493   5.651   6.702
 6225WAT     H125606   3.450   5.592   6.749
 6225WAT     H225607   3.498   5.615   6.623
 6225WAT    EPW25608   3.487   5.637   6.697
 6226WAT      O25609   3.577   5.620   6.010
 6226WAT     H125610   3.505   5.570   6.003
 6226WAT     H225611   3.642   5.563   6.005
 6226WAT    EPW25612   3.576   5.604   6.008
 6227WAT      O25613   3.513   5.750   6.248
 6227WAT     H125614   3.535   5.706   6.176
 6227WAT     H225615   3.453   5.807   6.220
 6227WAT    EPW25616   3.507   5.752   6.233
 6228WAT      O25617   4.606   5.529   6.041
 6228WAT     H125618   4.526   5.539   6.075
 6228WAT     H225619   4.596   5.557   5.959
 6228WAT    EPW25620   4.593   5.535   6.034
 6229WAT      O25621   3.946   6.632   6.177
 6229WAT     H125622   3.923   6.562   6.130
 6229WAT     H225623   3.932   6.698   6.122
 6229WAT    EPW25624   3.941   6.631   6.162
 6230WAT      O25625   4.140   5.116   6.360
 6230WAT     H125626   4.153   5.034   6.332
 6230WAT     H225627   4.170   5.114   6.442
 6230WAT    EPW25628   4.146   5.103   6.368
 6231WAT      O25629   3.352   5.880   6.781
 6231WAT     H125630   3.350   5.934   6.713
 6231WAT     H225631   3.397   5.812   6.751
 6231WAT    EPW25632   3.359   5.878   6.767
 6232WAT      O25633   4.520   6.101   6.654
 6232WAT     H125634   4.552   6.179   6.632
 6232WAT     H225635   4.548   6.049   6.590
 6232WAT    EPW25636   4.529   6.105   6.641
 6233WAT      O25637   3.952   6.425   6.689
 6233WAT     H125638   3.985   6.412   6.768
 6233WAT     H225639   3.917   6.347   6.668
 6233WAT    EPW25640   3.952   6.411   6.697
 6234WAT      O25641   4.228   5.702   5.149
 6234WAT     H125642   4.240   5.747   5.076
 6234WAT     H225643   4.161   5.649   5.130
 6234WAT    EPW25644   4.220   5.701   5.136
 6235WAT      O25645   4.736   6.021   5.619
 6235WAT     H125646   4.823   6.018   5.609
 6235WAT     H225647   4.707   5.978   5.548
 6235WAT    EPW25648   4.745   6.014   5.607
 6236WAT      O25649   4.311   6.467   5.963
 6236WAT     H125650   4.259   6.455   5.893
 6236WAT     H225651   4.372   6.521   5.933
 6236WAT    EPW25652   4.312   6.473   5.948
 6237WAT      O25653   4.397   6.031   5.913
 6237WAT     H125654   4.326   6.075   5.939
 6237WAT     H225655   4.381   5.949   5.936
 6237WAT    EPW25656   4.384   6.026   5.920
 6238WAT      O25657   3.836   6.599   5.429
 6238WAT     H125658   3.797   6.522   5.439
 6238WAT     H225659   3.777   6.647   5.387
 6238WAT    EPW25660   3.821   6.595   5.424
 6239WAT      O25661   3.945   6.516   5.191
 6239WAT     H125662   3.921   6.537   5.272
 6239WAT     H225663   3.954   6.594   5.152
 6239WAT    EPW25664   3.943   6.531   5.197
 6240WAT      O25665   4.585   5.946   6.430
 6240WAT     H125666   4.541   5.982   6.364
 6240WAT     H225667   4.668   5.968   6.413
 6240WAT    EPW25668   4.591   5.955   6.417
 6241WAT      O25669   4.302   6.529   6.859
 6241WAT     H125670   4.330   6.550   6.939
 6241WAT     H225671   4.327   6.598   6.811
 6241WAT    EPW25672   4.310   6.542   6.864
 6242WAT      O25673   4.813   4.955   6.628
 6242WAT     H125674   4.741   4.946   6.580
 6242WAT     H225675   4.793   4.913   6.702
 6242WAT    EPW25676   4.799   4.948   6.632
 6243WAT      O25677   3.463   5.745   5.278
 6243WAT     H125678   3.433   5.679   5.229
 6243WAT     H225679   3.502   5.704   5.345
 6243WAT    EPW25680   3.464   5.729   5.281
 6244WAT      O25681   4.196   5.931   6.369
 6244WAT     H125682   4.162   5.992   6.421
 6244WAT     H225683   4.181   5.856   6.412
 6244WAT    EPW25684   4.189   5.929   6.383
 6245WAT      O25685   4.621   6.208   5.958
 6245WAT     H125686   4.627   6.224   5.872
 6245WAT     H225687   4.557   6.149   5.962
 6245WAT    EPW25688   4.612   6.202   5.946
 6246WAT      O25689   3.957   5.796   5.750
 6246WAT     H125690   3.958   5.716   5.716
 6246WAT     H225691   4.021   5.794   5.809
 6246WAT    EPW25692   3.967   5.784   5.754
 6247WAT      O25693   3.679   6.584   4.933
 6247WAT     H125694   3.695   6.513   4.981
 6247WAT     H225695   3.668   6.646   4.993
 6247WAT    EPW25696   3.680   6.582   4.949
 6248WAT      O25697   3.338   5.941   6.140
 6248WAT     H125698   3.388   6.012   6.129
 6248WAT     H225699   3.306   5.926   6.060
 6248WAT    EPW25700   3.341   5.949   6.127
 6249WAT      O25701   4.963   6.635   5.190
 6249WAT     H125702   5.035   6.588   5.172
 6249WAT     H225703   4.918   6.584   5.244
 6249WAT    EPW25704   4.967   6.620   5.195
 6250WAT      O25705   4.632   5.872   6.118
 6250WAT     H125706   4.654   5.878   6.033
 6250WAT     H225707   4.561   5.923   6.124
 6250WAT    EPW25708   4.625   5.880   6.106
 6251WAT      O25709   3.352   6.040   6.558
 6251WAT     H125710   3.305   5.994   6.500
 6251WAT     H225711   3.326   6.122   6.544
 6251WAT    EPW25712   3.341   6.045   6.547
 6252WAT      O25713   4.733   5.865   5.851
 6252WAT     H125714   4.719   5.918   5.783
 6252WAT     H225715   4.819   5.866   5.861
 6252WAT    EPW25716   4.743   5.873   5.842
 6253WAT      O25717   4.596   5.340   6.595
 6253WAT     H125718   4.529   5.334   6.651
 6253WAT     H225719   4.577   5.281   6.534
 6253WAT    EPW25720   4.583   5.331   6.594
 6254WAT      O25721   3.275   5.192   5.909
 6254WAT     H125722   3.266   5.169   5.825
 6254WAT     H225723   3.340   5.140   5.937
 6254WAT    EPW25724   3.284   5.181   5.901
 6255WAT      O25725   4.945   6.434   5.952
 6255WAT     H125726   4.980   6.494   5.898
 6255WAT     H225727   4.987   6.448   6.027
 6255WAT    EPW25728   4.957   6.445   5.955
 6256WAT      O25729   4.449   5.681   6.701
 6256WAT     H125730   4.484   5.676   6.780
 6256WAT     H225731   4.378   5.730   6.712
 6256WAT    EPW25732   4.444   5.688   6.714
 6257WAT      O25733   4.708   5.702   6.584
 6257WAT     H125734   4.725   5.784   6.607
 6257WAT     H225735   4.627   5.689   6.613
 6257WAT    EPW25736   4.698   5.712   6.592
 6258WAT      O25737   4.645   6.321   5.193
 6258WAT     H125738   4.688   6.246   5.200
 6258WAT     H225739   4.567   6.303   5.227
 6258WAT    EPW25740   4.640   6.308   5.199
 6259WAT      O25741   4.679   5.403   5.648
 6259WAT     H125742   4.617   5.345   5.669
 6259WAT     H225743   4.656   5.474   5.692
 6259WAT    EPW25744   4.666   5.405   5.658
 6260WAT      O25745   4.988   5.792   6.794
 6260WAT     H125746   5.001   5.733   6.731
 6260WAT     H225747   5.066   5.829   6.805
 6260WAT    EPW25748   5.001   5.788   6.786
 6261WAT      O25749   4.853   6.002   6.367
 6261WAT     H125750   4.934   5.971   6.359
 6261WAT     H225751   4.845   6.057   6.299
 6261WAT    EPW25752   4.864   6.006   6.356
 6262WAT      O25753   4.335   6.102   5.084
 6262WAT     H125754   4.410   6.058   5.079
 6262WAT     H225755   4.317   6.124   5.002
 6262WAT    EPW25756   4.343   6.099   5.071
 6263WAT      O25757   3.760   6.246   6.191
 6263WAT     H125758   3.775   6.292   6.264
 6263WAT     H225759   3.779   6.302   6.127
 6263WAT    EPW25760   3.765   6.261   6.192
 6264WAT      O25761   3.614   6.104   6.496
 6264WAT     H125762   3.535   6.076   6.519
 6264WAT     H225763   3.603   6.190   6.489
 6264WAT    EPW25764   3.600   6.113   6.498
 6265WAT      O25765   4.537   5.175   6.378
 6265WAT     H125766   4.586   5.197   6.310
 6265WAT     H225767   4.459   5.211   6.361
 6265WAT    EPW25768   4.532   5.184   6.366
 6266WAT      O25769   4.079   5.906   6.123
 6266WAT     H125770   4.113   5.907   6.203
 6266WAT     H225771   3.994   5.919   6.136
 6266WAT    EPW25772   4.071   5.908   6.136
 6267WAT      O25773   3.980   6.658   5.659
 6267WAT     H125774   3.969   6.742   5.679
 6267WAT     H225775   3.944   6.650   5.581
 6267WAT    EPW25776   3.973   6.669   5.651
 6268WAT      O25777   4.682   4.982   6.153
 6268WAT     H125778   4.662   5.064   6.130
 6268WAT     H225779   4.757   4.990   6.197
 6268WAT    EPW25780   4.690   4.995   6.156
 6269WAT      O25781   3.839   6.438   6.006
 6269WAT     H125782   3.791   6.486   5.952
 6269WAT     H225783   3.892   6.393   5.954
 6269WAT    EPW25784   3.840   6.438   5.990
 6270WAT      O25785   4.261   6.100   6.747
 6270WAT     H125786   4.340   6.104   6.711
 6270WAT     H225787   4.208   6.120   6.681
 6270WAT    EPW25788   4.265   6.103   6.732
 6271WAT      O25789   4.600   6.366   6.598
 6271WAT     H125790   4.635   6.387   6.675
 6271WAT     H225791   4.650   6.408   6.540
 6271WAT    EPW25792   4.612   6.376   6.601
 6272WAT      O25793   4.823   5.636   5.075
 6272WAT     H125794   4.868   5.692   5.026
 6272WAT     H225795   4.741   5.664   5.067
 6272WAT    EPW25796   4.818   5.649   5.067
 6273WAT      O25797   3.967   5.903   4.918
 6273WAT     H125798   3.953   5.822   4.947
 6273WAT     H225799   3.980   5.949   4.991
 6273WAT    EPW25800   3.967   5.898   4.933
 6274WAT      O25801   4.296   5.505   6.526
 6274WAT     H125802   4.229   5.561   6.527
 6274WAT     H225803   4.334   5.517   6.604
 6274WAT    EPW25804   4.292   5.515   6.538
 6275WAT      O25805   4.358   5.563   6.156
 6275WAT     H125806   4.377   5.610   6.227
 6275WAT     H225807   4.334   5.486   6.188
 6275WAT    EPW25808   4.357   5.559   6.171
 6276WAT      O25809   4.095   6.651   6.598
 6276WAT     H125810   4.108   6.653   6.512
 6276WAT     H225811   4.060   6.573   6.612
 6276WAT    EPW25812   4.092   6.640   6.587
 6277WAT      O25813   4.622   5.509   5.394
 6277WAT     H125814   4.634   5.466   5.469
 6277WAT     H225815   4.698   5.550   5.381
 6277WAT    EPW25816   4.635   5.509   5.403
 6278WAT      O25817   4.659   5.055   5.567
 6278WAT     H125818   4.579   5.022   5.565
 6278WAT     H225819   4.673   5.080   5.484
 6278WAT    EPW25820   4.649   5.054   5.555
 6279WAT      O25821   4.676   5.883   5.385
 6279WAT     H125822   4.734   5.817   5.382
 6279WAT     H225823   4.600   5.843   5.372
 6279WAT    EPW25824   4.673   5.867   5.383
 6280WAT      O25825   4.089   6.129   6.529
 6280WAT     H125826   4.010   6.132   6.566
 6280WAT     H225827   4.097   6.207   6.491
 6280WAT    EPW25828   4.078   6.141   6.529
 6281WAT      O25829   3.120   5.101   6.646
 6281WAT     H125830   3.118   5.173   6.597
 6281WAT     H225831   3.037   5.087   6.665
 6281WAT    EPW25832   3.108   5.110   6.641
 6282WAT      O25833   3.659   6.745   6.142
 6282WAT     H125834   3.643   6.733   6.227
 6282WAT     H225835   3.622   6.676   6.103
 6282WAT    EPW25836   3.651   6.733   6.149
 6283WAT      O25837   4.328   5.986   5.647
 6283WAT     H125838   4.353   5.999   5.730
 6283WAT     H225839   4.344   5.902   5.633
 6283WAT    EPW25840   4.334   5.976   5.657
 6284WAT      O25841   4.057   5.997   5.580
 6284WAT     H125842   4.034   5.926   5.625
 6284WAT     H225843   4.143   6.004   5.595
 6284WAT    EPW25844   4.066   5.987   5.589
 6285WAT      O25845   4.120   6.374   6.405
 6285WAT     H125846   4.180   6.395   6.464
 6285WAT     H225847   4.167   6.361   6.332
 6285WAT    EPW25848   4.136   6.375   6.403
 6286WAT      O25849   4.972   5.602   6.590
 6286WAT     H125850   4.885   5.612   6.589
 6286WAT     H225851   4.995   5.616   6.507
 6286WAT    EPW25852   4.963   5.606   6.578
 6287WAT      O25853   4.448   5.694   6.383
 6287WAT     H125854   4.411   5.642   6.443
 6287WAT     H225855   4.464   5.768   6.426
 6287WAT    EPW25856   4.445   5.697   6.398
 6288WAT      O25857   3.254   6.706   6.629
 6288WAT     H125858   3.197   6.641   6.618
 6288WAT     H225859   3.206   6.771   6.662
 6288WAT    EPW25860   3.239   6.706   6.633
 6289WAT      O25861   4.215   5.825   6.763
 6289WAT     H125862   4.227   5.912   6.765
 6289WAT     H225863   4.211   5.803   6.847
 6289WAT    EPW25864   4.216   5.835   6.775
 6290WAT      O25865   4.480   6.668   5.879
 6290WAT     H125866   4.462   6.734   5.933
 6290WAT     H225867   4.552   6.632   5.913
 6290WAT    EPW25868   4.488   6.673   5.892
 6291WAT      O25869   4.159   6.145   6.012
 6291WAT     H125870   4.132   6.069   6.045
 6291WAT     H225871   4.191   6.187   6.081
 6291WAT    EPW25872   4.160   6.140   6.027
 6292WAT      O25873   4.734   6.435   6.832
 6292WAT     H125874   4.816   6.405   6.836
 6292WAT     H225875   4.696   6.399   6.902
 6292WAT    EPW25876   4.740   6.425   6.843
 6293WAT      O25877   3.507   5.540   6.429
 6293WAT     H125878   3.505   5.611   6.379
 6293WAT     H225879   3.584   5.504   6.412
 6293WAT    EPW25880   3.518   5.545   6.419
 6294WAT      O25881   3.295   5.407   6.296
 6294WAT     H125882   3.312   5.421   6.212
 6294WAT     H225883   3.360   5.448   6.338
 6294WAT    EPW25884   3.307   5.415   6.290
 6295WAT      O25885   4.846   5.668   5.349
 6295WAT     H125886   4.852   5.656   5.262
 6295WAT     H225887   4.924   5.640   5.378
 6295WAT    EPW25888   4.858   5.662   5.340
 6296WAT      O25889   3.483   5.083   6.572
 6296WAT     H125890   3.434   5.011   6.573
 6296WAT     H225891   3.472   5.114   6.490
 6296WAT    EPW25892   3.474   5.077   6.560
 6297WAT      O25893   4.163   6.346   5.457
 6297WAT     H125894   4.159   6.427   5.425
 6297WAT     H225895   4.091   6.308   5.425
 6297WAT    EPW25896   4.152   6.352   5.447
 6298WAT      O25897   3.201   5.897   6.375
 6298WAT     H125898   3.235   5.918   6.297
 6298WAT     H225899   3.179   5.813   6.365
 6298WAT    EPW25900   3.203   5.887   6.362
 6299WAT      O25901   4.244   5.129   6.621
 6299WAT     H125902   4.285   5.191   6.668
 6299WAT     H225903   4.172   5.113   6.668
 6299WAT    EPW25904   4.240   5.136   6.635
 6300WAT      O25905   3.720   6.366   5.100
 6300WAT     H125906   3.786   6.405   5.142
 6300WAT     H225907   3.658   6.359   5.161
 6300WAT    EPW25908   3.721   6.371   5.116
 6301WAT      O25909   4.660   5.262   6.138
 6301WAT     H125910   4.746   5.277   6.144
 6301WAT     H225911   4.629   5.335   6.101
 6301WAT    EPW25912   4.668   5.275   6.133
 6302WAT      O25913   3.719   5.856   6.402
 6302WAT     H125914   3.690   5.930   6.440
 6302WAT     H225915   3.649   5.826   6.359
 6302WAT    EPW25916   3.704   5.863   6.401
 6303WAT      O25917   4.588   5.632   5.782
 6303WAT     H125918   4.632   5.706   5.795
 6303WAT     H225919   4.519   5.657   5.735
 6303WAT    EPW25920   4.584   5.646   5.777
 6304WAT      O25921   4.615   6.515   5.578
 6304WAT     H125922   4.613   6.434   5.611
 6304WAT     H225923   4.667   6.508   5.509
 6304WAT    EPW25924   4.622   6.502   5.573
 6305WAT      O25925   3.468   6.271   5.213
 6305WAT     H125926   3.470   6.259   5.299
 6305WAT     H225927   3.455   6.191   5.181
 6305WAT    EPW25928   3.466   6.257   5.221
 6306WAT      O25929   3.640   6.140   4.955
 6306WAT     H125930   3.591   6.096   5.012
 6306WAT     H225931   3.670   6.207   5.001
 6306WAT    EPW25932   3.637   6.143   4.970
 6307WAT      O25933   4.909   5.061   6.311
 6307WAT     H125934   4.891   5.076   6.395
 6307WAT     H225935   4.986   5.019   6.314
 6307WAT    EPW25936   4.918   5.057   6.324
 6308WAT      O25937   4.314   6.309   6.194
 6308WAT     H125938   4.364   6.361   6.243
 6308WAT     H225939   4.315   6.348   6.116
 6308WAT    EPW25940   4.321   6.323   6.190
 6309WAT      O25941   4.364   6.724   6.663
 6309WAT     H125942   4.297   6.682   6.626
 6309WAT     H225943   4.334   6.806   6.674
 6309WAT    EPW25944   4.350   6.730   6.659
 6310WAT      O25945   3.847   5.622   6.505
 6310WAT     H125946   3.844   5.571   6.434
 6310WAT     H225947   3.807   5.695   6.480
 6310WAT    EPW25948   3.841   5.625   6.491
 6311WAT      O25949   4.853   6.176   6.143
 6311WAT     H125950   4.916   6.158   6.084
 6311WAT     H225951   4.781   6.184   6.094
 6311WAT    EPW25952   4.852   6.174   6.127
 6312WAT      O25953   3.745   6.610   6.649
 6312WAT     H125954   3.722   6.620   6.733
 6312WAT     H225955   3.813   6.556   6.653
 6312WAT    EPW25956   3.752   6.603   6.662
 6313WAT      O25957   4.669   6.487   5.984
 6313WAT     H125958   4.756   6.480   5.972
 6313WAT     H225959   4.642   6.405   5.988
 6313WAT    EPW25960   4.678   6.474   5.983
 6314WAT      O25961   3.432   5.159   6.314
 6314WAT     H125962   3.384   5.091   6.288
 6314WAT     H225963   3.380   5.228   6.301
 6314WAT    EPW25964   3.417   5.159   6.308
 6315WAT      O25965   3.445   6.524   6.739
 6315WAT     H125966   3.505   6.563   6.789
 6315WAT     H225967   3.398   6.591   6.708
 6315WAT    EPW25968   3.447   6.540   6.742
 6316WAT      O25969   3.310   6.306   6.489
 6316WAT     H125970   3.253   6.364   6.521
 6316WAT     H225971   3.387   6.346   6.496
 6316WAT    EPW25972   3.313   6.320   6.495
 6317WAT      O25973   4.451   5.714   5.327
 6317WAT     H125974   4.486   5.636   5.343
 6317WAT     H225975   4.375   5.696   5.289
 6317WAT    EPW25976   4.445   5.700   5.324
 6318WAT      O25977   3.405   6.668   5.435
 6318WAT     H125978   3.335   6.718   5.427
 6318WAT     H225979   3.456   6.692   5.368
 6318WAT    EPW25980   3.402   6.679   5.424
 6319WAT      O25981   4.754   6.679   5.016
 6319WAT     H125982   4.827   6.667   5.063
 6319WAT     H225983   4.736   6.599   4.986
 6319WAT    EPW25984   4.762   6.665   5.018
 6320WAT      O25985   4.804   5.952   6.658
 6320WAT     H125986   4.870   5.917   6.703
 6320WAT     H225987   4.844   5.985   6.587
 6320WAT    EPW25988   4.820   5.952   6.654
 6321WAT      O25989   4.386   6.292   5.284
 6321WAT     H125990   4.325   6.290   5.347
 6321WAT     H225991   4.360   6.231   5.228
 6321WAT    EPW25992   4.373   6.283   5.285
 6322WAT      O25993   4.803   5.386   6.778
 6322WAT     H125994   4.790   5.466   6.809
 6322WAT     H225995   4.737   5.375   6.721
 6322WAT    EPW25996   4.791   5.396   6.774
 6323WAT      O25997   4.880   5.561   6.098
 6323WAT     H125998   4.799   5.555   6.065
 6323WAT     H225999   4.900   5.478   6.118
 6323WAT    EPW26000   4.871   5.548   6.096
 6324WAT      O26001   3.754   5.062   6.624
 6324WAT     H126002   3.761   4.975   6.618
 6324WAT     H226003   3.671   5.078   6.605
 6324WAT    EPW26004   3.743   5.052   6.620
 6325WAT      O26005   4.574   5.979   6.907
 6325WAT     H126006   4.647   6.009   6.943
 6325WAT     H226007   4.576   6.011   6.826
 6325WAT    EPW26008   4.585   5.988   6.900
 6326WAT      O26009   3.512   6.540   6.021
 6326WAT     H126010   3.506   6.467   5.973
 6326WAT     H226011   3.475   6.600   5.970
 6326WAT    EPW26012   3.505   6.538   6.006
 6327WAT      O26013   4.053   6.085   5.125
 6327WAT     H126014   4.137   6.063   5.132
 6327WAT     H226015   4.055   6.165   5.090
 6327WAT    EPW26016   4.066   6.094   5.121
 6328WAT      O26017   3.258   6.782   6.360
 6328WAT     H126018   3.264   6.762   6.445
 6328WAT     H226019   3.295   6.714   6.320
 6328WAT    EPW26020   3.264   6.769   6.367
 6329WAT      O26021   3.206   6.014   3.612
 6329WAT     H126022   3.196   6.012   3.698
 6329WAT     H226023   3.208   5.930   3.589
 6329WAT    EPW26024   3.205   6.002   3.621
 6330WAT      O26025   4.785   6.468   3.422
 6330WAT     H126026   4.850   6.415   3.444
 6330WAT     H226027   4.735   6.419   3.370
 6330WAT    EPW26028   4.787   6.453   3.418
 6331WAT      O26029   3.158   5.501   3.266
 6331WAT     H126030   3.096   5.533   3.213
 6331WAT     H226031   3.159   5.416   3.248
 6331WAT    EPW26032   3.149   5.493   3.256
 6332WAT      O26033   4.398   5.783   3.840
 6332WAT     H126034   4.411   5.766   3.755
 6332WAT     H226035   4.329   5.734   3.861
 6332WAT    EPW26036   4.390   5.774   3.830
 6333WAT      O26037   3.432   6.173   3.604
 6333WAT     H126038   3.497   6.126   3.640
 6333WAT     H226039   3.363   6.121   3.611
 6333WAT    EPW26040   3.432   6.158   3.611
 6334WAT      O26041   3.271   6.467   3.191
 6334WAT     H126042   3.323   6.483   3.123
 6334WAT     H226043   3.322   6.484   3.260
 6334WAT    EPW26044   3.286   6.472   3.191
 6335WAT      O26045   3.217   6.258   4.321
 6335WAT     H126046   3.132   6.257   4.299
 6335WAT     H226047   3.249   6.189   4.279
 6335WAT    EPW26048   3.209   6.248   4.311
 6336WAT      O26049   3.880   6.085   4.707
 6336WAT     H126050   3.890   6.030   4.774
 6336WAT     H226051   3.795   6.107   4.710
 6336WAT    EPW26052   3.869   6.080   4.717
 6337WAT      O26053   3.488   5.747   3.615
 6337WAT     H126054   3.401   5.755   3.608
 6337WAT     H226055   3.500   5.661   3.622
 6337WAT    EPW26056   3.477   5.736   3.615
 6338WAT      O26057   3.952   6.434   4.469
 6338WAT     H126058   3.966   6.497   4.410
 6338WAT     H226059   4.031   6.399   4.481
 6338WAT    EPW26060   3.966   6.438   4.462
 6339WAT      O26061   3.931   6.253   3.946
 6339WAT     H126062   3.947   6.169   3.967
 6339WAT     H226063   4.010   6.289   3.944
 6339WAT    EPW26064   3.945   6.246   3.949
 6340WAT      O26065   3.979   6.152   3.545
 6340WAT     H126066   4.010   6.092   3.601
 6340WAT     H226067   4.020   6.133   3.470
 6340WAT    EPW26068   3.990   6.140   3.542
 6341WAT      O26069   4.369   5.235   3.063
 6341WAT     H126070   4.310   5.289   3.099
 6341WAT     H226071   4.412   5.202   3.131
 6341WAT    EPW26072   4.366   5.238   3.078
 6342WAT      O26073   3.183   6.563   3.829
 6342WAT     H126074   3.116   6.599   3.786
 6342WAT     H226075   3.219   6.510   3.770
 6342WAT    EPW26076   3.179   6.561   3.814
 6343WAT      O26077   3.749   6.314   3.536
 6343WAT     H126078   3.719   6.306   3.617
 6343WAT     H226079   3.826   6.271   3.538
 6343WAT    EPW26080   3.756   6.306   3.548
 6344WAT      O26081   4.352   6.572   3.341
 6344WAT     H126082   4.423   6.622   3.348
 6344WAT     H226083   4.381   6.493   3.364
 6344WAT    EPW26084   4.367   6.567   3.345
 6345WAT      O26085   4.153   6.587   3.531
 6345WAT     H126086   4.178   6.658   3.576
 6345WAT     H226087   4.212   6.582   3.467
 6345WAT    EPW26088   4.166   6.597   3.528
 6346WAT      O26089   3.300   6.415   3.625
 6346WAT     H126090   3.350   6.345   3.632
 6346WAT     H226091   3.338   6.462   3.562
 6346WAT    EPW26092   3.313   6.412   3.617
 6347WAT      O26093   4.801   5.365   3.713
 6347WAT     H126094   4.751   5.363   3.784
 6347WAT     H226095   4.806   5.281   3.689
 6347WAT    EPW26096   4.794   5.352   3.720
 6348WAT      O26097   4.422   6.584   4.354
 6348WAT     H126098   4.484   6.642   4.337
 6348WAT     H226099   4.396   6.557   4.275
 6348WAT    EPW26100   4.427   6.589   4.340
 6349WAT      O26101   3.490   6.260   3.980
 6349WAT     H126102   3.552   6.269   3.919
 6349WAT     H226103   3.529   6.214   4.043
 6349WAT    EPW26104   3.505   6.255   3.980
 6350WAT      O26105   3.755   6.583   3.894
 6350WAT     H126106   3.836   6.602   3.868
 6350WAT     H226107   3.706   6.638   3.848
 6350WAT    EPW26108   3.760   6.594   3.883
 6351WAT      O26109   4.196   5.451   3.116
 6351WAT     H126110   4.209   5.504   3.184
 6351WAT     H226111   4.113   5.465   3.094
 6351WAT    EPW26112   4.185   5.461   3.123
 6352WAT      O26113   4.568   6.755   3.326
 6352WAT     H126114   4.616   6.735   3.256
 6352WAT     H226115   4.622   6.804   3.375
 6352WAT    EPW26116   4.583   6.760   3.323
 6353WAT      O26117   3.614   6.689   4.467
 6353WAT     H126118   3.670   6.661   4.528
 6353WAT     H226119   3.580   6.761   4.503
 6353WAT    EPW26120   3.618   6.695   4.482
 6354WAT      O26121   4.804   5.151   4.105
 6354WAT     H126122   4.720   5.131   4.098
 6354WAT     H226123   4.830   5.105   4.175
 6354WAT    EPW26124   4.796   5.141   4.115
 6355WAT      O26125   4.352   6.361   4.723
 6355WAT     H126126   4.343   6.412   4.794
 6355WAT     H226127   4.438   6.359   4.709
 6355WAT    EPW26128   4.363   6.368   4.731
 6356WAT      O26129   4.035   6.394   3.175
 6356WAT     H126130   4.001   6.454   3.229
 6356WAT     H226131   4.109   6.431   3.147
 6356WAT    EPW26132   4.041   6.408   3.179
 6357WAT      O26133   4.514   5.180   3.293
 6357WAT     H126134   4.541   5.124   3.353
 6357WAT     H226135   4.482   5.247   3.340
 6357WAT    EPW26136   4.513   5.182   3.309
 6358WAT      O26137   3.370   6.493   4.344
 6358WAT     H126138   3.312   6.429   4.327
 6358WAT     H226139   3.410   6.505   4.268
 6358WAT    EPW26140   3.367   6.485   4.330
 6359WAT      O26141   4.138   5.436   3.500
 6359WAT     H126142   4.120   5.422   3.584
 6359WAT     H226143   4.079   5.388   3.458
 6359WAT    EPW26144   4.127   5.427   3.506
 6360WAT      O26145   4.175   6.679   4.435
 6360WAT     H126146   4.255   6.653   4.414
 6360WAT     H226147   4.128   6.663   4.363
 6360WAT    EPW26148   4.180   6.673   4.421
 6361WAT      O26149   4.850   6.666   3.708
 6361WAT     H126150   4.811   6.742   3.725
 6361WAT     H226151   4.783   6.610   3.697
 6361WAT    EPW26152   4.834   6.669   3.709
 6362WAT      O26153   4.512   6.243   3.678
 6362WAT     H126154   4.579   6.194   3.704
 6362WAT     H226155   4.443   6.204   3.715
 6362WAT    EPW26156   4.512   6.230   3.687
 6363WAT      O26157   3.505   4.651   3.770
 6363WAT     H126158   3.506   4.655   3.857
 6363WAT     H226159   3.574   4.600   3.751
 6363WAT    EPW26160   3.516   4.644   3.780
 6364WAT      O26161   3.740   5.887   4.162
 6364WAT     H126162   3.775   5.877   4.242
 6364WAT     H226163   3.708   5.808   4.144
 6364WAT    EPW26164   3.740   5.874   4.171
 6365WAT      O26165   3.844   6.043   4.420
 6365WAT     H126166   3.811   6.122   4.405
 6365WAT     H226167   3.848   6.038   4.507
 6365WAT    EPW26168   3.840   6.054   4.431
 6366WAT      O26169   4.454   6.009   4.292
 6366WAT     H126170   4.392   5.968   4.337
 6366WAT     H226171   4.463   6.085   4.333
 6366WAT    EPW26172   4.446   6.014   4.305
 6367WAT      O26173   3.098   6.332   4.933
 6367WAT     H126174   3.162   6.374   4.974
 6367WAT     H226175   3.101   6.252   4.966
 6367WAT    EPW26176   3.108   6.327   4.944
 6368WAT      O26177   4.636   5.259   4.557
 6368WAT     H126178   4.659   5.178   4.534
 6368WAT     H226179   4.561   5.271   4.515
 6368WAT    EPW26180   4.628   5.248   4.547
 6369WAT      O26181   4.726   6.051   3.315
 6369WAT     H126182   4.725   6.013   3.394
 6369WAT     H226183   4.811   6.058   3.297
 6369WAT    EPW26184   4.738   6.046   3.324
 6370WAT      O26185   3.619   5.987   3.685
 6370WAT     H126186   3.670   5.983   3.614
 6370WAT     H226187   3.578   5.911   3.685
 6370WAT    EPW26188   3.621   5.975   3.674
 6371WAT      O26189   3.405   6.699   3.915
 6371WAT     H126190   3.330   6.665   3.886
 6371WAT     H226191   3.455   6.702   3.844
 6371WAT    EPW26192   3.401   6.695   3.901
 6372WAT      O26193   5.012   6.488   4.702
 6372WAT     H126194   4.931   6.499   4.672
 6372WAT     H226195   5.000   6.444   4.777
 6372WAT    EPW26196   4.998   6.483   4.709
 6373WAT      O26197   3.771   5.974   3.452
 6373WAT     H126198   3.828   6.033   3.481
 6373WAT     H226199   3.809   5.897   3.470
 6373WAT    EPW26200   3.785   5.971   3.459
 6374WAT      O26201   5.026   5.089   3.042
 6374WAT     H126202   5.005   5.011   3.076
 6374WAT     H226203   4.961   5.141   3.068
 6374WAT    EPW26204   5.013   5.085   3.051
 6375WAT      O26205   4.981   5.607   4.445
 6375WAT     H126206   5.033   5.538   4.440
 6375WAT     H226207   4.902   5.575   4.426
 6375WAT    EPW26208   4.977   5.592   4.442
 6376WAT      O26209   3.224   5.757   3.515
 6376WAT     H126210   3.163   5.694   3.511
 6376WAT     H226211   3.267   5.748   3.440
 6376WAT    EPW26212   3.221   5.746   3.503
 6377WAT      O26213   4.162   6.409   3.908
 6377WAT     H126214   4.118   6.482   3.887
 6377WAT     H226215   4.185   6.376   3.830
 6377WAT    EPW26216   4.159   6.415   3.893
 6378WAT      O26217   3.063   6.329   3.508
 6378WAT     H126218   3.132   6.352   3.557
 6378WAT     H226219   3.025   6.265   3.554
 6378WAT    EPW26220   3.068   6.323   3.522
 6379WAT      O26221   3.587   6.116   4.199
 6379WAT     H126222   3.630   6.160   4.260
 6379WAT     H226223   3.637   6.046   4.185
 6379WAT    EPW26224   3.601   6.112   4.206
 6380WAT      O26225   4.331   5.379   4.041
 6380WAT     H126226   4.318   5.308   4.091
 6380WAT     H226227   4.255   5.387   3.998
 6380WAT    EPW26228   4.318   5.370   4.042
 6381WAT      O26229   3.171   6.135   3.346
 6381WAT     H126230   3.180   6.080   3.413
 6381WAT     H226231   3.140   6.207   3.384
 6381WAT    EPW26232   3.168   6.137   3.361
 6382WAT      O26233   3.304   6.053   3.928
 6382WAT     H126234   3.360   6.120   3.930
 6382WAT     H226235   3.226   6.090   3.932
 6382WAT    EPW26236   3.301   6.068   3.929
 6383WAT      O26237   3.937   5.299   3.369
 6383WAT     H126238   3.925   5.264   3.290
 6383WAT     H226239   3.913   5.235   3.424
 6383WAT    EPW26240   3.932   5.284   3.365
 6384WAT      O26241   4.760   6.540   4.574
 6384WAT     H126242   4.705   6.606   4.593
 6384WAT     H226243   4.779   6.553   4.490
 6384WAT    EPW26244   4.754   6.552   4.564
 6385WAT      O26245   3.700   6.325   3.808
 6385WAT     H126246   3.709   6.409   3.831
 6385WAT     H226247   3.770   6.287   3.842
 6385WAT    EPW26248   3.712   6.332   3.816
 6386WAT      O26249   4.527   5.460   4.237
 6386WAT     H126250   4.497   5.402   4.296
 6386WAT     H226251   4.469   5.456   4.173
 6386WAT    EPW26252   4.514   5.451   4.236
 6387WAT      O26253   3.964   6.621   4.255
 6387WAT     H126254   3.922   6.556   4.215
 6387WAT     H226255   3.953   6.689   4.202
 6387WAT    EPW26256   3.956   6.621   4.241
 6388WAT      O26257   4.410   5.414   3.413
 6388WAT     H126258   4.456   5.415   3.488
 6388WAT     H226259   4.328   5.400   3.441
 6388WAT    EPW26260   4.404   5.412   3.428
 6389WAT      O26261   3.397   5.859   4.868
 6389WAT     H126262   3.390   5.913   4.800
 6389WAT     H226263   3.453   5.798   4.840
 6389WAT    EPW26264   3.404   5.858   4.854
 6390WAT      O26265   4.511   6.042   4.605
 6390WAT     H126266   4.564   6.110   4.617
 6390WAT     H226267   4.455   6.047   4.671
 6390WAT    EPW26268   4.511   6.053   4.616
 6391WAT      O26269   3.980   6.356   4.766
 6391WAT     H126270   4.008   6.351   4.848
 6391WAT     H226271   3.949   6.276   4.750
 6391WAT    EPW26272   3.980   6.344   4.776
 6392WAT      O26273   4.214   5.642   3.321
 6392WAT     H126274   4.147   5.693   3.301
 6392WAT     H226275   4.182   5.590   3.384
 6392WAT    EPW26276   4.199   5.642   3.327
 6393WAT      O26277   4.699   6.049   3.781
 6393WAT     H126278   4.747   5.999   3.835
 6393WAT     H226279   4.695   6.002   3.707
 6393WAT    EPW26280   4.705   6.035   3.778
 6394WAT      O26281   4.352   6.470   4.109
 6394WAT     H126282   4.292   6.448   4.050
 6394WAT     H226283   4.402   6.527   4.066
 6394WAT    EPW26284   4.351   6.475   4.094
 6395WAT      O26285   4.359   6.144   4.068
 6395WAT     H126286   4.288   6.186   4.097
 6395WAT     H226287   4.380   6.092   4.135
 6395WAT    EPW26288   4.351   6.143   4.082
 6396WAT      O26289   3.691   6.581   3.494
 6396WAT     H126290   3.707   6.499   3.520
 6396WAT     H226291   3.760   6.601   3.445
 6396WAT    EPW26292   3.704   6.572   3.491
 6397WAT      O26293   3.938   6.588   3.352
 6397WAT     H126294   4.002   6.592   3.411
 6397WAT     H226295   3.947   6.662   3.307
 6397WAT    EPW26296   3.949   6.599   3.354
 6398WAT      O26297   4.305   6.514   4.951
 6398WAT     H126298   4.339   6.532   5.030
 6398WAT     H226299   4.315   6.588   4.907
 6398WAT    EPW26300   4.312   6.528   4.956
 6399WAT      O26301   4.766   4.958   4.803
 6399WAT     H126302   4.719   4.901   4.756
 6399WAT     H226303   4.796   4.909   4.869
 6399WAT    EPW26304   4.763   4.942   4.806
 6400WAT      O26305   3.452   5.753   3.335
 6400WAT     H126306   3.453   5.680   3.287
 6400WAT     H226307   3.488   5.729   3.411
 6400WAT    EPW26308   3.457   5.738   3.339
 6401WAT      O26309   4.262   5.863   4.429
 6401WAT     H126310   4.229   5.907   4.497
 6401WAT     H226311   4.282   5.785   4.463
 6401WAT    EPW26312   4.260   5.858   4.444
 6402WAT      O26313   3.187   4.962   3.269
 6402WAT     H126314   3.258   4.915   3.254
 6402WAT     H226315   3.174   4.953   3.355
 6402WAT    EPW26316   3.196   4.954   3.280
 6403WAT      O26317   4.143   5.704   3.673
 6403WAT     H126318   4.117   5.780   3.707
 6403WAT     H226319   4.119   5.645   3.733
 6403WAT    EPW26320   4.136   5.707   3.687
 6404WAT      O26321   4.636   6.190   4.037
 6404WAT     H126322   4.656   6.159   3.958
 6404WAT     H226323   4.549   6.184   4.040
 6404WAT    EPW26324   4.626   6.185   4.026
 6405WAT      O26325   3.630   5.323   3.219
 6405WAT     H126326   3.561   5.297   3.172
 6405WAT     H226327   3.698   5.285   3.179
 6405WAT    EPW26328   3.630   5.313   3.206
 6406WAT      O26329   3.961   5.980   4.000
 6406WAT     H126330   3.883   5.949   4.023
 6406WAT     H226331   4.009   5.970   4.072
 6406WAT    EPW26332   3.957   5.974   4.014
 6407WAT      O26333   3.643   6.618   3.133
 6407WAT     H126334   3.659   6.545   3.177
 6407WAT     H226335   3.655   6.681   3.193
 6407WAT    EPW26336   3.647   6.617   3.148
 6408WAT      O26337   3.325   6.023   4.208
 6408WAT     H126338   3.409   6.046   4.214
 6408WAT     H226339   3.312   6.018   4.122
 6408WAT    EPW26340   3.335   6.026   4.196
 6409WAT      O26341   4.958   6.633   3.282
 6409WAT     H126342   5.023   6.582   3.254
 6409WAT     H226343   4.906   6.578   3.325
 6409WAT    EPW26344   4.960   6.617   3.284
 6410WAT      O26345   4.680   5.869   4.210
 6410WAT     H126346   4.652   5.804   4.158
 6410WAT     H226347   4.610   5.921   4.218
 6410WAT    EPW26348   4.665   5.867   4.203
 6411WAT      O26349   3.755   5.786   3.136
 6411WAT     H126350   3.745   5.717   3.189
 6411WAT     H226351   3.711   5.764   3.064
 6411WAT    EPW26352   3.747   5.773   3.133
 6412WAT      O26353   3.371   6.020   4.642
 6412WAT     H126354   3.337   5.973   4.578
 6412WAT     H226355   3.332   6.098   4.634
 6412WAT    EPW26356   3.360   6.025   4.631
 6413WAT      O26357   4.830   5.883   3.965
 6413WAT     H126358   4.800   5.894   4.046
 6413WAT     H226359   4.917   5.889   3.974
 6413WAT    EPW26360   4.839   5.886   3.978
 6414WAT      O26361   3.758   5.557   3.286
 6414WAT     H126362   3.802   5.540   3.359
 6414WAT     H226363   3.709   5.485   3.274
 6414WAT    EPW26364   3.757   5.544   3.295
 6415WAT      O26365   4.590   5.285   4.831
 6415WAT     H126366   4.503   5.283   4.832
 6415WAT     H226367   4.610   5.273   4.747
 6415WAT    EPW26368   4.580   5.283   4.819
 6416WAT      O26369   4.978   6.380   4.026
 6416WAT     H126370   5.018   6.439   3.975
 6416WAT     H226371   5.020   6.386   4.102
 6416WAT    EPW26372   4.990   6.390   4.030
 6417WAT      O26373   4.420   5.644   4.824
 6417WAT     H126374   4.456   5.633   4.903
 6417WAT     H226375   4.356   5.702   4.839
 6417WAT    EPW26376   4.416   5.651   4.838
 6418WAT      O26377   4.670   5.717   4.725
 6418WAT     H126378   4.687   5.795   4.762
 6418WAT     H226379   4.595   5.693   4.762
 6418WAT    EPW26380   4.662   5.725   4.736
 6419WAT      O26381   4.628   6.304   3.270
 6419WAT     H126382   4.659   6.223   3.281
 6419WAT     H226383   4.551   6.302   3.311
 6419WAT    EPW26384   4.621   6.292   3.278
 6420WAT      O26385   4.566   5.434   3.898
 6420WAT     H126386   4.495   5.402   3.939
 6420WAT     H226387   4.585   5.506   3.944
 6420WAT    EPW26388   4.558   5.440   3.911
 6421WAT      O26389   4.960   5.807   4.899
 6421WAT     H126390   4.966   5.742   4.841
 6421WAT     H226391   5.042   5.837   4.905
 6421WAT    EPW26392   4.973   5.802   4.891
 6422WAT      O26393   4.818   5.983   4.516
 6422WAT     H126394   4.898   5.951   4.500
 6422WAT     H226395   4.811   6.050   4.461
 6422WAT    EPW26396   4.829   5.988   4.506
 6423WAT      O26397   4.319   6.089   3.225
 6423WAT     H126398   4.382   6.030   3.222
 6423WAT     H226399   4.300   6.104   3.141
 6423WAT    EPW26400   4.325   6.083   3.212
 6424WAT      O26401   3.731   6.304   4.368
 6424WAT     H126402   3.797   6.339   4.414
 6424WAT     H226403   3.738   6.342   4.290
 6424WAT    EPW26404   3.742   6.315   4.363
 6425WAT      O26405   3.610   6.171   4.683
 6425WAT     H126406   3.546   6.116   4.662
 6425WAT     H226407   3.609   6.172   4.770
 6425WAT    EPW26408   3.600   6.163   4.693
 6426WAT      O26409   4.064   5.975   4.262
 6426WAT     H126410   4.122   5.928   4.308
 6426WAT     H226411   3.999   5.988   4.319
 6426WAT    EPW26412   4.063   5.970   4.277
 6427WAT      O26413   4.015   6.626   3.797
 6427WAT     H126414   4.048   6.706   3.805
 6427WAT     H226415   4.035   6.604   3.715
 6427WAT    EPW26416   4.023   6.635   3.786
 6428WAT      O26417   4.639   4.996   4.422
 6428WAT     H126418   4.596   5.017   4.349
 6428WAT     H226419   4.601   4.922   4.448
 6428WAT    EPW26420   4.627   4.988   4.415
 6429WAT      O26421   3.810   6.425   4.129
 6429WAT     H126422   3.771   6.477   4.070
 6429WAT     H226423   3.853   6.368   4.080
 6429WAT    EPW26424   3.811   6.424   4.113
 6430WAT      O26425   4.310   6.102   4.801
 6430WAT     H126426   4.327   6.186   4.784
 6430WAT     H226427   4.250   6.081   4.742
 6430WAT    EPW26428   4.304   6.112   4.790
 6431WAT      O26429   4.623   6.319   4.690
 6431WAT     H126430   4.653   6.334   4.770
 6431WAT     H226431   4.664   6.380   4.642
 6431WAT    EPW26432   4.634   6.330   4.694
 6432WAT      O26433   4.801   5.610   3.124
 6432WAT     H126434   4.873   5.657   3.109
 6432WAT     H226435   4.755   5.619   3.050
 6432WAT    EPW26436   4.805   5.619   3.111
 6433WAT      O26437   4.017   5.836   3.232
 6433WAT     H126438   3.940   5.821   3.193
 6433WAT     H226439   4.017   5.923   3.243
 6433WAT    EPW26440   4.005   5.847   3.228
 6434WAT      O26441   4.088   6.611   4.693
 6434WAT     H126442   4.101   6.616   4.607
 6434WAT     H226443   4.061   6.529   4.705
 6434WAT    EPW26444   4.086   6.600   4.682
 6435WAT      O26445   4.562   5.492   3.631
 6435WAT     H126446   4.543   5.470   3.714
 6435WAT     H226447   4.643   5.462   3.620
 6435WAT    EPW26448   4.571   5.484   3.642
 6436WAT      O26449   4.662   5.892   3.544
 6436WAT     H126450   4.703   5.825   3.507
 6436WAT     H226451   4.580   5.862   3.556
 6436WAT    EPW26452   4.656   5.877   3.540
 6437WAT      O26453   4.137   6.056   4.595
 6437WAT     H126454   4.056   6.064   4.625
 6437WAT     H226455   4.152   6.132   4.555
 6437WAT    EPW26456   4.127   6.068   4.593
 6438WAT      O26457   3.641   6.743   4.188
 6438WAT     H126458   3.635   6.727   4.273
 6438WAT     H226459   3.607   6.672   4.151
 6438WAT    EPW26460   3.635   6.730   4.195
 6439WAT      O26461   4.333   6.056   3.809
 6439WAT     H126462   4.336   6.088   3.890
 6439WAT     H226463   4.365   5.975   3.818
 6439WAT    EPW26464   4.338   6.048   3.822
 6440WAT      O26465   4.077   5.974   3.739
 6440WAT     H126466   4.035   5.972   3.816
 6440WAT     H226467   4.156   6.005   3.760
 6440WAT    EPW26468   4.083   5.979   3.754
 6441WAT      O26469   4.204   6.308   4.491
 6441WAT     H126470   4.237   6.336   4.566
 6441WAT     H226471   4.273   6.302   4.438
 6441WAT    EPW26472   4.219   6.312   4.494
 6442WAT      O26473   4.926   5.601   4.717
 6442WAT     H126474   4.840   5.618   4.719
 6442WAT     H226475   4.946   5.609   4.633
 6442WAT    EPW26476   4.916   5.605   4.705
 6443WAT      O26477   4.385   5.630   4.533
 6443WAT     H126478   4.374   5.551   4.497
 6443WAT     H226479   4.390   5.612   4.619
 6443WAT    EPW26480   4.384   5.616   4.541
 6444WAT      O26481   3.273   6.709   4.707
 6444WAT     H126482   3.218   6.641   4.705
 6444WAT     H226483   3.223   6.776   4.730
 6444WAT    EPW26484   3.258   6.709   4.710
 6445WAT      O26485   4.240   5.842   4.902
 6445WAT     H126486   4.277   5.921   4.892
 6445WAT     H226487   4.155   5.858   4.893
 6445WAT    EPW26488   4.233   5.856   4.899
 6446WAT      O26489   4.533   6.665   4.019
 6446WAT     H126490   4.542   6.719   4.087
 6446WAT     H226491   4.598   6.608   4.030
 6446WAT    EPW26492   4.544   6.665   4.031
 6447WAT      O26493   4.131   6.235   4.202
 6447WAT     H126494   4.107   6.154   4.223
 6447WAT     H226495   4.130   6.278   4.278
 6447WAT    EPW26496   4.127   6.230   4.216
 6448WAT      O26497   4.722   6.410   4.940
 6448WAT     H126498   4.806   6.389   4.946
 6448WAT     H226499   4.688   6.379   5.014
 6448WAT    EPW26500   4.729   6.402   4.952
 6449WAT      O26501   4.746   5.671   3.390
 6449WAT     H126502   4.772   5.656   3.308
 6449WAT     H226503   4.811   5.638   3.439
 6449WAT    EPW26504   4.760   5.664   3.385
 6450WAT      O26505   4.186   6.328   3.643
 6450WAT     H126506   4.180   6.403   3.600
 6450WAT     H226507   4.117   6.282   3.614
 6450WAT    EPW26508   4.175   6.332   3.632
 6451WAT      O26509   4.709   5.526   4.445
 6451WAT     H126510   4.665   5.506   4.372
 6451WAT     H226511   4.702   5.454   4.493
 6451WAT    EPW26512   4.701   5.513   4.441
 6452WAT      O26513   3.239   5.876   4.434
 6452WAT     H126514   3.267   5.907   4.358
 6452WAT     H226515   3.232   5.790   4.419
 6452WAT    EPW26516   3.242   5.868   4.421
 6453WAT      O26517   3.402   5.549   3.144
 6453WAT     H126518   3.323   5.542   3.181
 6453WAT     H226519   3.419   5.469   3.115
 6453WAT    EPW26520   3.393   5.536   3.145
 6454WAT      O26521   3.660   6.362   3.265
 6454WAT     H126522   3.694   6.357   3.346
 6454WAT     H226523   3.584   6.321   3.273
 6454WAT    EPW26524   3.654   6.355   3.278
 6455WAT      O26525   4.612   5.698   3.998
 6455WAT     H126526   4.683   5.730   3.957
 6455WAT     H226527   4.546   5.728   3.950
 6455WAT    EPW26528   4.613   5.707   3.985
 6456WAT      O26529   4.617   6.511   3.641
 6456WAT     H126530   4.585   6.433   3.660
 6456WAT     H226531   4.662   6.497   3.567
 6456WAT    EPW26532   4.619   6.498   3.633
 6457WAT      O26533   3.447   6.190   3.328
 6457WAT     H126534   3.451   6.189   3.415
 6457WAT     H226535   3.362   6.181   3.311
 6457WAT    EPW26536   3.435   6.189   3.338
 6458WAT      O26537   3.784   6.140   3.149
 6458WAT     H126538   3.859   6.130   3.192
 6458WAT     H226539   3.754   6.217   3.177
 6458WAT    EPW26540   3.790   6.150   3.160
 6459WAT      O26541   4.884   4.967   4.292
 6459WAT     H126542   4.813   4.963   4.342
 6459WAT     H226543   4.950   4.957   4.348
 6459WAT    EPW26544   4.883   4.965   4.307
 6460WAT      O26545   4.430   6.298   4.333
 6460WAT     H126546   4.463   6.372   4.365
 6460WAT     H226547   4.410   6.319   4.250
 6460WAT    EPW26548   4.432   6.312   4.325
 6461WAT      O26549   4.338   6.718   4.761
 6461WAT     H126550   4.267   6.679   4.729
 6461WAT     H226551   4.313   6.801   4.774
 6461WAT    EPW26552   4.324   6.725   4.758
 6462WAT      O26553   4.815   6.131   4.265
 6462WAT     H126554   4.805   6.047   4.248
 6462WAT     H226555   4.765   6.171   4.206
 6462WAT    EPW26556   4.806   6.125   4.254
 6463WAT      O26557   3.750   6.546   4.663
 6463WAT     H126558   3.746   6.560   4.749
 6463WAT     H226559   3.826   6.505   4.652
 6463WAT    EPW26560   3.760   6.542   4.674
 6464WAT      O26561   4.712   6.458   4.065
 6464WAT     H126562   4.797   6.446   4.052
 6464WAT     H226563   4.678   6.379   4.056
 6464WAT    EPW26564   4.720   6.445   4.062
 6465WAT      O26565   3.442   6.508   4.815
 6465WAT     H126566   3.515   6.539   4.852
 6465WAT     H226567   3.397   6.581   4.796
 6465WAT    EPW26568   3.447   6.524   4.818
 6466WAT      O26569   3.287   6.283   4.586
 6466WAT     H126570   3.231   6.339   4.622
 6466WAT     H226571   3.256   6.272   4.506
 6466WAT    EPW26572   3.274   6.289   4.580
 6467WAT      O26573   4.424   5.723   3.568
 6467WAT     H126574   4.463   5.648   3.587
 6467WAT     H226575   4.339   5.704   3.573
 6467WAT    EPW26576   4.417   5.709   3.571
 6468WAT      O26577   3.412   6.572   3.421
 6468WAT     H126578   3.386   6.653   3.439
 6468WAT     H226579   3.499   6.576   3.431
 6468WAT    EPW26580   3.421   6.585   3.425
 6469WAT      O26581   3.924   5.745   3.487
 6469WAT     H126582   3.968   5.763   3.414
 6469WAT     H226583   3.987   5.719   3.543
 6469WAT    EPW26584   3.940   5.744   3.485
 6470WAT      O26585   4.742   6.697   3.117
 6470WAT     H126586   4.816   6.686   3.163
 6470WAT     H226587   4.724   6.617   3.087
 6470WAT    EPW26588   4.750   6.683   3.120
 6471WAT      O26589   4.759   5.970   4.798
 6471WAT     H126590   4.831   5.935   4.831
 6471WAT     H226591   4.781   5.989   4.715
 6471WAT    EPW26592   4.773   5.968   4.790
 6472WAT      O26593   4.390   6.302   3.403
 6472WAT     H126594   4.396   6.276   3.486
 6472WAT     H226595   4.359   6.232   3.361
 6472WAT    EPW26596   4.386   6.288   3.409
 6473WAT      O26597   4.795   5.364   5.018
 6473WAT     H126598   4.802   5.450   5.034
 6473WAT     H226599   4.745   5.361   4.947
 6473WAT    EPW26600   4.789   5.376   5.010
 6474WAT      O26601   4.793   5.428   4.133
 6474WAT     H126602   4.710   5.443   4.153
 6474WAT     H226603   4.798   5.341   4.126
 6474WAT    EPW26604   4.782   5.417   4.135
 6475WAT      O26605   4.580   5.987   5.012
 6475WAT     H126606   4.637   6.013   5.072
 6475WAT     H226607   4.624   5.993   4.937
 6475WAT    EPW26608   4.595   5.992   5.010
 6476WAT      O26609   3.496   6.515   4.098
 6476WAT     H126610   3.491   6.436   4.061
 6476WAT     H226611   3.460   6.568   4.039
 6476WAT    EPW26612   3.490   6.511   4.084
 6477WAT      O26613   4.050   6.130   3.272
 6477WAT     H126614   4.134   6.109   3.263
 6477WAT     H226615   4.045   6.212   3.244
 6477WAT    EPW26616   4.061   6.139   3.267
 6478WAT      O26617   3.262   6.741   4.428
 6478WAT     H126618   3.266   6.725   4.513
 6478WAT     H226619   3.292   6.668   4.391
 6478WAT    EPW26620   3.267   6.728   4.435
 6479WAT      O26621   4.316   5.080   1.775
 6479WAT     H126622   4.267   5.021   1.732
 6479WAT     H226623   4.387   5.035   1.797
 6479WAT    EPW26624   4.319   5.064   1.772
 6480WAT      O26625   4.200   5.631   2.230
 6480WAT     H126626   4.168   5.708   2.254
 6480WAT     H226627   4.254   5.610   2.294
 6480WAT    EPW26628   4.203   5.639   2.243
 6481WAT      O26629   3.160   6.100   1.727
 6481WAT     H126630   3.101   6.100   1.792
 6481WAT     H226631   3.168   6.015   1.708
 6481WAT    EPW26632   3.152   6.088   1.734
 6482WAT      O26633   4.812   6.491   1.553
 6482WAT     H126634   4.877   6.436   1.571
 6482WAT     H226635   4.759   6.444   1.502
 6482WAT    EPW26636   4.814   6.475   1.548
 6483WAT      O26637   3.156   5.444   1.391
 6483WAT     H126638   3.091   5.491   1.357
 6483WAT     H226639   3.128   5.362   1.383
 6483WAT    EPW26640   3.142   5.439   1.385
 6484WAT      O26641   3.384   6.044   1.334
 6484WAT     H126642   3.378   6.003   1.257
 6484WAT     H226643   3.404   5.980   1.390
 6484WAT    EPW26644   3.387   6.028   1.331
 6485WAT      O26645   4.477   5.817   1.867
 6485WAT     H126646   4.481   5.800   1.782
 6485WAT     H226647   4.415   5.764   1.896
 6485WAT    EPW26648   4.468   5.807   1.859
 6486WAT      O26649   3.413   6.224   1.721
 6486WAT     H126650   3.468   6.181   1.774
 6486WAT     H226651   3.337   6.182   1.732
 6486WAT    EPW26652   3.410   6.211   1.731
 6487WAT      O26653   3.889   5.148   1.652
 6487WAT     H126654   3.875   5.218   1.601
 6487WAT     H226655   3.967   5.119   1.625
 6487WAT    EPW26656   3.899   5.154   1.640
 6488WAT      O26657   3.327   6.506   1.323
 6488WAT     H126658   3.370   6.511   1.248
 6488WAT     H226659   3.355   6.431   1.358
 6488WAT    EPW26660   3.338   6.496   1.317
 6489WAT      O26661   3.235   6.333   2.443
 6489WAT     H126662   3.261   6.311   2.524
 6489WAT     H226663   3.165   6.283   2.429
 6489WAT    EPW26664   3.229   6.323   2.453
 6490WAT      O26665   3.855   6.160   2.878
 6490WAT     H126666   3.835   6.146   2.962
 6490WAT     H226667   3.782   6.136   2.836
 6490WAT    EPW26668   3.841   6.154   2.885
 6491WAT      O26669   3.363   5.859   1.912
 6491WAT     H126670   3.313   5.852   1.841
 6491WAT     H226671   3.415   5.789   1.908
 6491WAT    EPW26672   3.363   5.848   1.901
 6492WAT      O26673   3.801   5.400   2.439
 6492WAT     H126674   3.871   5.412   2.388
 6492WAT     H226675   3.786   5.314   2.435
 6492WAT    EPW26676   3.809   5.389   2.431
 6493WAT      O26677   3.815   6.423   2.619
 6493WAT     H126678   3.800   6.502   2.586
 6493WAT     H226679   3.901   6.421   2.630
 6493WAT    EPW26680   3.825   6.435   2.616
 6494WAT      O26681   3.528   5.636   1.904
 6494WAT     H126682   3.595   5.584   1.925
 6494WAT     H226683   3.461   5.581   1.898
 6494WAT    EPW26684   3.528   5.620   1.907
 6495WAT      O26685   3.954   6.280   2.049
 6495WAT     H126686   3.981   6.199   2.064
 6495WAT     H226687   4.028   6.324   2.035
 6495WAT    EPW26688   3.969   6.275   2.049
 6496WAT      O26689   4.033   6.212   1.656
 6496WAT     H126690   4.063   6.143   1.702
 6496WAT     H226691   4.043   6.186   1.573
 6496WAT    EPW26692   4.039   6.198   1.650
 6497WAT      O26693   4.142   5.651   2.817
 6497WAT     H126694   4.055   5.655   2.806
 6497WAT     H226695   4.155   5.702   2.887
 6497WAT    EPW26696   4.131   5.659   2.826
 6498WAT      O26697   3.617   5.150   1.727
 6498WAT     H126698   3.578   5.209   1.677
 6498WAT     H226699   3.700   5.152   1.701
 6498WAT    EPW26700   3.624   5.159   1.716
 6499WAT      O26701   4.664   4.936   2.646
 6499WAT     H126702   4.637   5.016   2.670
 6499WAT     H226703   4.649   4.888   2.717
 6499WAT    EPW26704   4.658   4.941   2.660
 6500WAT      O26705   3.914   5.120   1.929
 6500WAT     H126706   3.936   5.203   1.943
 6500WAT     H226707   3.901   5.116   1.843
 6500WAT    EPW26708   3.916   5.131   1.918
 6501WAT      O26709   4.324   5.297   1.173
 6501WAT     H126710   4.282   5.362   1.214
 6501WAT     H226711   4.345   5.241   1.236
 6501WAT    EPW26712   4.321   5.299   1.188
 6502WAT      O26713   3.186   5.517   2.155
 6502WAT     H126714   3.182   5.571   2.223
 6502WAT     H226715   3.108   5.478   2.156
 6502WAT    EPW26716   3.174   5.519   2.165
 6503WAT      O26717   3.187   6.572   1.964
 6503WAT     H126718   3.122   6.617   1.927
 6503WAT     H226719   3.226   6.533   1.896
 6503WAT    EPW26720   3.183   6.573   1.949
 6504WAT      O26721   3.760   6.245   1.661
 6504WAT     H126722   3.739   6.266   1.743
 6504WAT     H226723   3.846   6.233   1.664
 6504WAT    EPW26724   3.770   6.246   1.674
 6505WAT      O26725   4.370   6.592   1.447
 6505WAT     H126726   4.441   6.641   1.449
 6505WAT     H226727   4.399   6.513   1.470
 6505WAT    EPW26728   4.385   6.587   1.451
 6506WAT      O26729   4.187   6.634   1.649
 6506WAT     H126730   4.210   6.709   1.687
 6506WAT     H226731   4.244   6.627   1.583
 6506WAT    EPW26732   4.199   6.644   1.645
 6507WAT      O26733   3.501   5.083   2.173
 6507WAT     H126734   3.443   5.024   2.145
 6507WAT     H226735   3.452   5.142   2.214
 6507WAT    EPW26736   3.485   5.083   2.175
 6508WAT      O26737   3.865   5.248   3.089
 6508WAT     H126738   3.832   5.222   3.012
 6508WAT     H226739   3.894   5.329   3.072
 6508WAT    EPW26740   3.864   5.256   3.075
 6509WAT      O26741   3.321   6.484   1.733
 6509WAT     H126742   3.365   6.409   1.745
 6509WAT     H226743   3.374   6.531   1.683
 6509WAT    EPW26744   3.335   6.480   1.727
 6510WAT      O26745   4.946   5.273   1.876
 6510WAT     H126746   4.899   5.345   1.890
 6510WAT     H226747   4.886   5.213   1.857
 6510WAT    EPW26748   4.930   5.275   1.875
 6511WAT      O26749   4.406   6.607   2.447
 6511WAT     H126750   4.476   6.657   2.434
 6511WAT     H226751   4.386   6.578   2.367
 6511WAT    EPW26752   4.413   6.610   2.433
 6512WAT      O26753   3.408   5.284   3.051
 6512WAT     H126754   3.329   5.259   3.078
 6512WAT     H226755   3.420   5.240   2.977
 6512WAT    EPW26756   3.398   5.273   3.044
 6513WAT      O26757   3.480   6.312   2.072
 6513WAT     H126758   3.542   6.306   2.011
 6513WAT     H226759   3.502   6.251   2.130
 6513WAT    EPW26760   3.492   6.302   2.072
 6514WAT      O26761   3.753   6.605   1.975
 6514WAT     H126762   3.833   6.626   1.947
 6514WAT     H226763   3.700   6.652   1.923
 6514WAT    EPW26764   3.757   6.615   1.963
 6515WAT      O26765   4.105   5.553   1.798
 6515WAT     H126766   4.134   5.502   1.734
 6515WAT     H226767   4.176   5.569   1.846
 6515WAT    EPW26768   4.119   5.548   1.796
 6516WAT      O26769   4.178   5.496   1.311
 6516WAT     H126770   4.211   5.574   1.334
 6516WAT     H226771   4.105   5.517   1.269
 6516WAT    EPW26772   4.172   5.511   1.308
 6517WAT      O26773   4.582   6.774   1.426
 6517WAT     H126774   4.634   6.753   1.359
 6517WAT     H226775   4.635   6.819   1.479
 6517WAT    EPW26776   4.598   6.777   1.424
 6518WAT      O26777   3.655   6.659   2.574
 6518WAT     H126778   3.663   6.663   2.660
 6518WAT     H226779   3.580   6.617   2.561
 6518WAT    EPW26780   3.645   6.654   2.585
 6519WAT      O26781   4.852   5.228   2.289
 6519WAT     H126782   4.921   5.228   2.235
 6519WAT     H226783   4.871   5.166   2.347
 6519WAT    EPW26784   4.865   5.218   2.289
 6520WAT      O26785   3.117   5.348   2.793
 6520WAT     H126786   3.101   5.429   2.821
 6520WAT     H226787   3.188   5.357   2.744
 6520WAT    EPW26788   3.125   5.361   2.790
 6521WAT      O26789   4.298   6.383   2.832
 6521WAT     H126790   4.291   6.410   2.914
 6521WAT     H226791   4.383   6.371   2.821
 6521WAT    EPW26792   4.309   6.385   2.842
 6522WAT      O26793   4.052   6.409   1.265
 6522WAT     H126794   4.026   6.463   1.328
 6522WAT     H226795   4.128   6.443   1.239
 6522WAT    EPW26796   4.059   6.422   1.270
 6523WAT      O26797   4.389   5.122   1.380
 6523WAT     H126798   4.448   5.058   1.383
 6523WAT     H226799   4.424   5.185   1.430
 6523WAT    EPW26800   4.403   5.122   1.388
 6524WAT      O26801   3.221   5.236   1.672
 6524WAT     H126802   3.198   5.154   1.653
 6524WAT     H226803   3.174   5.254   1.743
 6524WAT    EPW26804   3.211   5.226   1.680
 6525WAT      O26805   3.409   6.556   2.460
 6525WAT     H126806   3.357   6.485   2.460
 6525WAT     H226807   3.441   6.557   2.379
 6525WAT    EPW26808   3.406   6.546   2.448
 6526WAT      O26809   4.192   5.402   1.578
 6526WAT     H126810   4.168   5.319   1.570
 6526WAT     H226811   4.181   5.434   1.498
 6526WAT    EPW26812   4.187   5.395   1.565
 6527WAT      O26813   4.160   6.656   2.553
 6527WAT     H126814   4.238   6.646   2.516
 6527WAT     H226815   4.105   6.660   2.486
 6527WAT    EPW26816   4.163   6.655   2.538
 6528WAT      O26817   4.134   5.139   1.504
 6528WAT     H126818   4.080   5.107   1.443
 6528WAT     H226819   4.213   5.116   1.476
 6528WAT    EPW26820   4.137   5.131   1.491
 6529WAT      O26821   4.874   6.698   1.844
 6529WAT     H126822   4.834   6.774   1.856
 6529WAT     H226823   4.808   6.642   1.830
 6529WAT    EPW26824   4.859   6.701   1.844
 6530WAT      O26825   3.977   5.382   1.979
 6530WAT     H126826   4.007   5.446   1.928
 6530WAT     H226827   3.992   5.411   2.060
 6530WAT    EPW26828   3.984   5.396   1.984
 6531WAT      O26829   4.614   6.276   1.883
 6531WAT     H126830   4.678   6.219   1.873
 6531WAT     H226831   4.542   6.228   1.875
 6531WAT    EPW26832   4.613   6.261   1.881
 6532WAT      O26833   3.571   6.380   2.755
 6532WAT     H126834   3.647   6.405   2.719
 6532WAT     H226835   3.563   6.434   2.823
 6532WAT    EPW26836   3.581   6.392   2.760
 6533WAT      O26837   3.540   4.900   1.815
 6533WAT     H126838   3.561   4.981   1.789
 6533WAT     H226839   3.512   4.862   1.741
 6533WAT    EPW26840   3.539   4.906   1.800
 6534WAT      O26841   3.772   5.960   2.163
 6534WAT     H126842   3.795   5.955   2.247
 6534WAT     H226843   3.718   5.892   2.153
 6534WAT    EPW26844   3.767   5.949   2.174
 6535WAT      O26845   4.331   5.323   2.598
 6535WAT     H126846   4.331   5.362   2.676
 6535WAT     H226847   4.264   5.268   2.602
 6535WAT    EPW26848   4.321   5.321   2.610
 6536WAT      O26849   3.869   5.986   2.421
 6536WAT     H126850   3.842   6.069   2.426
 6536WAT     H226851   3.834   5.949   2.492
 6536WAT    EPW26852   3.860   5.992   2.432
 6537WAT      O26853   4.484   6.052   2.436
 6537WAT     H126854   4.407   6.027   2.467
 6537WAT     H226855   4.480   6.139   2.438
 6537WAT    EPW26856   4.472   6.061   2.441
 6538WAT      O26857   4.538   4.929   1.857
 6538WAT     H126858   4.523   4.902   1.939
 6538WAT     H226859   4.553   4.854   1.814
 6538WAT    EPW26860   4.538   4.914   1.863
 6539WAT      O26861   3.069   6.353   3.019
 6539WAT     H126862   3.133   6.365   3.077
 6539WAT     H226863   3.064   6.267   3.011
 6539WAT    EPW26864   3.078   6.342   3.026
 6540WAT      O26865   4.717   5.455   2.649
 6540WAT     H126866   4.795   5.418   2.660
 6540WAT     H226867   4.690   5.472   2.730
 6540WAT    EPW26868   4.724   5.452   2.662
 6541WAT      O26869   3.509   5.264   1.957
 6541WAT     H126870   3.539   5.221   1.887
 6541WAT     H226871   3.506   5.203   2.019
 6541WAT    EPW26872   3.513   5.249   1.956
 6542WAT      O26873   4.788   6.077   1.405
 6542WAT     H126874   4.787   6.027   1.477
 6542WAT     H226875   4.872   6.086   1.386
 6542WAT    EPW26876   4.800   6.071   1.413
 6543WAT      O26877   3.559   6.054   1.882
 6543WAT     H126878   3.602   6.016   1.816
 6543WAT     H226879   3.497   5.996   1.902
 6543WAT    EPW26880   3.556   6.040   1.875
 6544WAT      O26881   3.400   6.734   2.021
 6544WAT     H126882   3.327   6.691   2.001
 6544WAT     H226883   3.447   6.732   1.947
 6544WAT    EPW26884   3.397   6.727   2.007
 6545WAT      O26885   3.368   5.331   2.248
 6545WAT     H126886   3.439   5.377   2.269
 6545WAT     H226887   3.309   5.392   2.228
 6545WAT    EPW26888   3.370   5.347   2.248
 6546WAT      O26889   4.993   6.481   2.789
 6546WAT     H126890   4.920   6.481   2.742
 6546WAT     H226891   4.972   6.434   2.859
 6546WAT    EPW26892   4.979   6.474   2.793
 6547WAT      O26893   4.596   5.741   1.322
 6547WAT     H126894   4.589   5.824   1.295
 6547WAT     H226895   4.566   5.744   1.404
 6547WAT    EPW26896   4.591   5.754   1.330
 6548WAT      O26897   3.666   5.984   1.631
 6548WAT     H126898   3.692   6.067   1.629
 6548WAT     H226899   3.737   5.940   1.606
 6548WAT    EPW26900   3.680   5.990   1.627
 6549WAT      O26901   4.914   5.205   1.282
 6549WAT     H126902   4.950   5.153   1.222
 6549WAT     H226903   4.867   5.261   1.234
 6549WAT    EPW26904   4.912   5.206   1.266
 6550WAT      O26905   3.218   6.211   2.039
 6550WAT     H126906   3.172   6.271   2.083
 6550WAT     H226907   3.300   6.242   2.040
 6550WAT    EPW26908   3.223   6.224   2.046
 6551WAT      O26909   3.930   5.521   3.063
 6551WAT     H126910   3.876   5.538   3.129
 6551WAT     H226911   3.901   5.573   2.999
 6551WAT    EPW26912   3.918   5.531   3.063
 6552WAT      O26913   5.016   5.604   2.532
 6552WAT     H126914   5.078   5.542   2.530
 6552WAT     H226915   4.962   5.582   2.467
 6552WAT    EPW26916   5.017   5.591   2.522
 6553WAT      O26917   3.221   5.832   1.675
 6553WAT     H126918   3.203   5.746   1.674
 6553WAT     H226919   3.290   5.839   1.622
 6553WAT    EPW26920   3.228   5.820   1.667
 6554WAT      O26921   4.789   5.090   1.511
 6554WAT     H126922   4.864   5.055   1.540
 6554WAT     H226923   4.814   5.136   1.441
 6554WAT    EPW26924   4.804   5.092   1.505
 6555WAT      O26925   4.169   6.447   1.997
 6555WAT     H126926   4.124   6.518   1.973
 6555WAT     H226927   4.203   6.419   1.922
 6555WAT    EPW26928   4.167   6.454   1.982
 6556WAT      O26929   3.142   6.332   1.582
 6556WAT     H126930   3.198   6.383   1.626
 6556WAT     H226931   3.138   6.260   1.632
 6556WAT    EPW26932   3.150   6.329   1.596
 6557WAT      O26933   3.571   6.129   2.256
 6557WAT     H126934   3.624   6.170   2.313
 6557WAT     H226935   3.625   6.079   2.210
 6557WAT    EPW26936   3.587   6.128   2.258
 6558WAT      O26937   4.482   5.411   2.001
 6558WAT     H126938   4.500   5.411   2.086
 6558WAT     H226939   4.416   5.355   1.993
 6558WAT    EPW26940   4.475   5.403   2.012
 6559WAT      O26941   3.138   6.172   1.351
 6559WAT     H126942   3.211   6.124   1.347
 6559WAT     H226943   3.149   6.221   1.422
 6559WAT    EPW26944   3.150   6.172   1.361
 6560WAT      O26945   3.214   5.950   2.131
 6560WAT     H126946   3.260   5.909   2.069
 6560WAT     H226947   3.214   6.033   2.106
 6560WAT    EPW26948   3.220   5.956   2.118
 6561WAT      O26949   3.830   5.349   1.472
 6561WAT     H126950   3.831   5.322   1.389
 6561WAT     H226951   3.819   5.435   1.465
 6561WAT    EPW26952   3.829   5.358   1.459
 6562WAT      O26953   4.742   6.494   2.640
 6562WAT     H126954   4.698   6.569   2.647
 6562WAT     H226955   4.742   6.479   2.554
 6562WAT    EPW26956   4.735   6.503   2.628
 6563WAT      O26957   3.714   6.340   1.915
 6563WAT     H126958   3.722   6.426   1.928
 6563WAT     H226959   3.782   6.306   1.957
 6563WAT    EPW26960   3.725   6.348   1.923
 6564WAT      O26961   3.539   5.710   2.965
 6564WAT     H126962   3.498   5.652   3.016
 6564WAT     H226963   3.527   5.678   2.885
 6564WAT    EPW26964   3.531   5.696   2.961
 6565WAT      O26965   3.504   5.583   1.464
 6565WAT     H126966   3.491   5.515   1.516
 6565WAT     H226967   3.466   5.559   1.389
 6565WAT    EPW26968   3.496   5.569   1.461
 6566WAT      O26969   3.594   5.752   2.151
 6566WAT     H126970   3.566   5.727   2.072
 6566WAT     H226971   3.597   5.678   2.196
 6566WAT    EPW26972   3.590   5.737   2.146
 6567WAT      O26973   3.540   5.742   2.477
 6567WAT     H126974   3.548   5.679   2.417
 6567WAT     H226975   3.489   5.801   2.437
 6567WAT    EPW26976   3.534   5.741   2.462
 6568WAT      O26977   4.581   5.511   2.251
 6568WAT     H126978   4.528   5.543   2.312
 6568WAT     H226979   4.596   5.579   2.199
 6568WAT    EPW26980   4.576   5.525   2.253
 6569WAT      O26981   3.946   6.659   2.380
 6569WAT     H126982   3.915   6.589   2.339
 6569WAT     H226983   3.936   6.723   2.321
 6569WAT    EPW26984   3.940   6.658   2.365
 6570WAT      O26985   4.144   5.114   2.654
 6570WAT     H126986   4.183   5.057   2.600
 6570WAT     H226987   4.173   5.091   2.733
 6570WAT    EPW26988   4.154   5.102   2.657
 6571WAT      O26989   4.463   5.345   1.524
 6571WAT     H126990   4.518   5.393   1.571
 6571WAT     H226991   4.385   5.367   1.555
 6571WAT    EPW26992   4.460   5.355   1.536
 6572WAT      O26993   3.382   5.919   3.046
 6572WAT     H126994   3.370   5.969   2.975
 6572WAT     H226995   3.428   5.851   3.015
 6572WAT    EPW26996   3.387   5.916   3.031
 6573WAT      O26997   4.507   6.070   2.882
 6573WAT     H126998   4.536   6.150   2.862
 6573WAT     H226999   4.541   6.019   2.820
 6573WAT    EPW27000   4.516   6.075   2.870
 6574WAT      O27001   3.923   6.432   2.920
 6574WAT     H127002   3.951   6.420   3.001
 6574WAT     H227003   3.901   6.351   2.894
 6574WAT    EPW27004   3.924   6.418   2.928
 6575WAT      O27005   4.011   5.427   2.252
 6575WAT     H127006   4.070   5.491   2.254
 6575WAT     H227007   4.056   5.356   2.276
 6575WAT    EPW27008   4.026   5.426   2.256
 6576WAT      O27009   4.275   5.735   1.426
 6576WAT     H127010   4.258   5.789   1.360
 6576WAT     H227011   4.217   5.759   1.487
 6576WAT    EPW27012   4.264   5.747   1.426
 6577WAT      O27013   4.802   6.071   1.854
 6577WAT     H127014   4.810   6.022   1.925
 6577WAT     H227015   4.777   6.014   1.793
 6577WAT    EPW27016   4.799   6.055   1.855
 6578WAT      O27017   4.355   6.499   2.198
 6578WAT     H127018   4.294   6.476   2.140
 6578WAT     H227019   4.397   6.564   2.159
 6578WAT    EPW27020   4.352   6.505   2.184
 6579WAT      O27021   4.371   6.103   2.176
 6579WAT     H127022   4.298   6.140   2.207
 6579WAT     H227023   4.405   6.062   2.245
 6579WAT    EPW27024   4.365   6.103   2.191
 6580WAT      O27025   3.735   6.495   1.552
 6580WAT     H127026   3.747   6.419   1.593
 6580WAT     H227027   3.816   6.524   1.540
 6580WAT    EPW27028   3.748   6.488   1.556
 6581WAT      O27029   3.675   4.973   1.373
 6581WAT     H127030   3.662   4.947   1.456
 6581WAT     H227031   3.629   5.046   1.367
 6581WAT    EPW27032   3.667   4.980   1.385
 6582WAT      O27033   3.981   6.585   1.469
 6582WAT     H127034   4.044   6.601   1.527
 6582WAT     H227035   3.970   6.663   1.430
 6582WAT    EPW27036   3.989   6.599   1.472
 6583WAT      O27037   4.601   5.922   2.661
 6583WAT     H127038   4.568   5.967   2.594
 6583WAT     H227039   4.684   5.947   2.664
 6583WAT    EPW27040   4.608   5.932   2.652
 6584WAT      O27041   4.271   6.522   3.081
 6584WAT     H127042   4.303   6.541   3.160
 6584WAT     H227043   4.300   6.588   3.031
 6584WAT    EPW27044   4.280   6.535   3.085
 6585WAT      O27045   3.447   5.852   1.521
 6585WAT     H127046   3.469   5.769   1.508
 6585WAT     H227047   3.517   5.886   1.560
 6585WAT    EPW27048   3.460   5.845   1.525
 6586WAT      O27049   4.242   5.972   2.539
 6586WAT     H127050   4.192   6.011   2.599
 6586WAT     H227051   4.266   5.897   2.578
 6586WAT    EPW27052   4.238   5.966   2.553
 6587WAT      O27053   3.125   4.974   1.617
 6587WAT     H127054   3.128   4.921   1.548
 6587WAT     H227055   3.095   4.924   1.681
 6587WAT    EPW27056   3.121   4.959   1.616
 6588WAT      O27057   4.119   5.789   1.652
 6588WAT     H127058   4.132   5.855   1.708
 6588WAT     H227059   4.110   5.719   1.703
 6588WAT    EPW27060   4.120   5.789   1.668
 6589WAT      O27061   4.594   6.275   2.167
 6589WAT     H127062   4.611   6.289   2.082
 6589WAT     H227063   4.523   6.224   2.165
 6589WAT    EPW27064   4.586   6.269   2.154
 6590WAT      O27065   3.548   5.216   1.335
 6590WAT     H127066   3.488   5.218   1.272
 6590WAT     H227067   3.615   5.259   1.301
 6590WAT    EPW27068   3.549   5.223   1.321
 6591WAT      O27069   4.026   6.009   2.066
 6591WAT     H127070   3.943   5.987   2.081
 6591WAT     H227071   4.069   5.977   2.135
 6591WAT    EPW27072   4.020   6.001   2.079
 6592WAT      O27073   3.688   6.623   1.169
 6592WAT     H127074   3.700   6.546   1.208
 6592WAT     H227075   3.683   6.679   1.236
 6592WAT    EPW27076   3.689   6.620   1.185
 6593WAT      O27077   3.384   5.949   2.357
 6593WAT     H127078   3.441   6.009   2.328
 6593WAT     H227079   3.329   5.938   2.291
 6593WAT    EPW27080   3.385   5.956   2.343
 6594WAT      O27081   3.701   5.449   2.026
 6594WAT     H127082   3.781   5.423   2.002
 6594WAT     H227083   3.650   5.383   1.999
 6594WAT    EPW27084   3.705   5.435   2.018
 6595WAT      O27085   4.975   6.657   1.404
 6595WAT     H127086   5.045   6.609   1.383
 6595WAT     H227087   4.925   6.600   1.448
 6595WAT    EPW27088   4.978   6.641   1.407
 6596WAT      O27089   3.184   5.554   1.666
 6596WAT     H127090   3.218   5.516   1.737
 6596WAT     H227091   3.197   5.495   1.603
 6596WAT    EPW27092   3.191   5.540   1.667
 6597WAT      O27093   4.735   5.944   2.344
 6597WAT     H127094   4.736   5.866   2.384
 6597WAT     H227095   4.654   5.974   2.359
 6597WAT    EPW27096   4.723   5.937   2.352
 6598WAT      O27097   3.697   5.831   1.222
 6598WAT     H127098   3.708   5.768   1.281
 6598WAT     H227099   3.648   5.793   1.161
 6598WAT    EPW27100   3.691   5.816   1.222
 6599WAT      O27101   3.354   6.047   2.803
 6599WAT     H127102   3.323   5.996   2.740
 6599WAT     H227103   3.326   6.127   2.781
 6599WAT    EPW27104   3.345   6.052   2.791
 6600WAT      O27105   4.836   5.910   2.084
 6600WAT     H127106   4.807   5.932   2.163
 6600WAT     H227107   4.922   5.900   2.095
 6600WAT    EPW27108   4.845   5.912   2.097
 6601WAT      O27109   3.767   5.622   1.404
 6601WAT     H127110   3.798   5.681   1.460
 6601WAT     H227111   3.685   5.608   1.430
 6601WAT    EPW27112   3.760   5.629   1.416
 6602WAT      O27113   4.619   5.301   2.932
 6602WAT     H127114   4.548   5.280   2.978
 6602WAT     H227115   4.607   5.259   2.856
 6602WAT    EPW27116   4.607   5.292   2.927
 6603WAT      O27117   3.169   5.149   2.131
 6603WAT     H127118   3.134   5.186   2.060
 6603WAT     H227119   3.225   5.210   2.160
 6603WAT    EPW27120   3.172   5.164   2.125
 6604WAT      O27121   4.985   6.407   2.193
 6604WAT     H127122   5.016   6.457   2.129
 6604WAT     H227123   5.049   6.406   2.252
 6604WAT    EPW27124   4.999   6.414   2.192
 6605WAT      O27125   4.439   5.643   3.014
 6605WAT     H127126   4.407   5.573   2.973
 6605WAT     H227127   4.371   5.697   3.019
 6605WAT    EPW27128   4.424   5.640   3.009
 6606WAT      O27129   4.679   5.667   2.876
 6606WAT     H127130   4.698   5.752   2.886
 6606WAT     H227131   4.600   5.660   2.913
 6606WAT    EPW27132   4.670   5.679   2.883
 6607WAT      O27133   4.661   6.323   1.402
 6607WAT     H127134   4.696   6.244   1.409
 6607WAT     H227135   4.584   6.315   1.442
 6607WAT    EPW27136   4.655   6.310   1.409
 6608WAT      O27137   4.740   5.468   1.912
 6608WAT     H127138   4.669   5.427   1.938
 6608WAT     H227139   4.737   5.545   1.954
 6608WAT    EPW27140   4.729   5.473   1.922
 6609WAT      O27141   5.003   5.772   3.024
 6609WAT     H127142   5.009   5.721   2.953
 6609WAT     H227143   5.080   5.815   3.025
 6609WAT    EPW27144   5.015   5.771   3.013
 6610WAT      O27145   4.865   6.009   2.671
 6610WAT     H127146   4.930   5.958   2.642
 6610WAT     H227147   4.866   6.077   2.616
 6610WAT    EPW27148   4.875   6.012   2.659
 6611WAT      O27149   4.334   6.137   1.323
 6611WAT     H127150   4.409   6.092   1.316
 6611WAT     H227151   4.306   6.142   1.240
 6611WAT    EPW27152   4.341   6.131   1.309
 6612WAT      O27153   3.774   6.251   2.407
 6612WAT     H127154   3.779   6.296   2.481
 6612WAT     H227155   3.791   6.310   2.345
 6612WAT    EPW27156   3.777   6.266   2.409
 6613WAT      O27157   3.618   6.103   2.743
 6613WAT     H127158   3.539   6.074   2.766
 6613WAT     H227159   3.606   6.189   2.735
 6613WAT    EPW27160   3.604   6.111   2.745
 6614WAT      O27161   4.580   5.208   2.666
 6614WAT     H127162   4.629   5.277   2.641
 6614WAT     H227163   4.500   5.230   2.640
 6614WAT    EPW27164   4.575   5.222   2.658
 6615WAT      O27165   4.105   5.884   2.312
 6615WAT     H127166   4.158   5.912   2.376
 6615WAT     H227167   4.026   5.902   2.342
 6615WAT    EPW27168   4.102   5.891   2.326
 6616WAT      O27169   3.738   5.459   2.705
 6616WAT     H127170   3.740   5.382   2.747
 6616WAT     H227171   3.764   5.438   2.624
 6616WAT    EPW27172   3.742   5.444   2.699
 6617WAT      O27173   4.016   6.664   1.894
 6617WAT     H127174   4.016   6.748   1.916
 6617WAT     H227175   4.052   6.663   1.815
 6617WAT    EPW27176   4.021   6.676   1.886
 6618WAT      O27177   4.556   4.941   2.387
 6618WAT     H127178   4.554   5.026   2.367
 6618WAT     H227179   4.595   4.940   2.465
 6618WAT    EPW27180   4.561   4.954   2.395
 6619WAT      O27181   3.870   5.053   2.660
 6619WAT     H127182   3.955   5.073   2.659
 6619WAT     H227183   3.867   4.980   2.708
 6619WAT    EPW27184   3.882   5.045   2.667
 6620WAT      O27185   3.830   6.456   2.224
 6620WAT     H127186   3.782   6.502   2.168
 6620WAT     H227187   3.876   6.403   2.172
 6620WAT    EPW27188   3.830   6.455   2.208
 6621WAT      O27189   4.244   6.077   2.955
 6621WAT     H127190   4.326   6.080   2.925
 6621WAT     H227191   4.196   6.103   2.887
 6621WAT    EPW27192   4.249   6.081   2.940
 6622WAT      O27193   4.576   6.338   2.813
 6622WAT     H127194   4.611   6.371   2.886
 6622WAT     H227195   4.623   6.375   2.749
 6622WAT    EPW27196   4.588   6.348   2.814
 6623WAT      O27197   4.840   5.621   1.287
 6623WAT     H127198   4.887   5.680   1.242
 6623WAT     H227199   4.762   5.659   1.293
 6623WAT    EPW27200   4.836   5.636   1.281
 6624WAT      O27201   3.966   5.909   1.280
 6624WAT     H127202   3.888   5.904   1.241
 6624WAT     H227203   3.975   5.994   1.297
 6624WAT    EPW27204   3.956   5.921   1.277
 6625WAT      O27205   3.600   5.503   2.280
 6625WAT     H127206   3.633   5.482   2.202
 6625WAT     H227207   3.660   5.474   2.336
 6625WAT    EPW27208   3.614   5.495   2.277
 6626WAT      O27209   4.329   5.444   2.846
 6626WAT     H127210   4.255   5.489   2.846
 6626WAT     H227211   4.318   5.384   2.909
 6626WAT    EPW27212   4.317   5.442   2.855
 6627WAT      O27213   4.369   5.552   2.435
 6627WAT     H127214   4.369   5.611   2.499
 6627WAT     H227215   4.356   5.477   2.477
 6627WAT    EPW27216   4.367   5.550   2.451
 6628WAT      O27217   4.084   6.643   2.823
 6628WAT     H127218   4.092   6.638   2.736
 6628WAT     H227219   4.043   6.569   2.844
 6628WAT    EPW27220   4.079   6.632   2.813
 6629WAT      O27221   4.627   5.525   1.663
 6629WAT     H127222   4.654   5.501   1.743
 6629WAT     H227223   4.699   5.557   1.626
 6629WAT    EPW27224   4.642   5.526   1.670
 6630WAT      O27225   3.890   5.063   2.202
 6630WAT     H127226   3.837   5.119   2.244
 6630WAT     H227227   3.884   5.087   2.119
 6630WAT    EPW27228   3.881   5.075   2.196
 6631WAT      O27229   4.748   5.098   1.793
 6631WAT     H127230   4.672   5.061   1.816
 6631WAT     H227231   4.738   5.111   1.707
 6631WAT    EPW27232   4.735   5.094   1.783
 6632WAT      O27233   4.743   5.910   1.628
 6632WAT     H127234   4.790   5.838   1.616
 6632WAT     H227235   4.660   5.882   1.619
 6632WAT    EPW27236   4.738   5.895   1.625
 6633WAT      O27237   4.087   6.122   2.723
 6633WAT     H127238   4.011   6.120   2.766
 6633WAT     H227239   4.091   6.203   2.691
 6633WAT    EPW27240   4.076   6.133   2.724
 6634WAT      O27241   3.080   5.072   2.835
 6634WAT     H127242   3.092   5.158   2.836
 6634WAT     H227243   3.017   5.059   2.894
 6634WAT    EPW27244   3.072   5.083   2.843
 6635WAT      O27245   3.632   6.784   2.311
 6635WAT     H127246   3.645   6.759   2.393
 6635WAT     H227247   3.605   6.711   2.271
 6635WAT    EPW27248   3.630   6.769   2.317
 6636WAT      O27249   3.468   5.330   1.579
 6636WAT     H127250   3.481   5.291   1.502
 6636WAT     H227251   3.389   5.301   1.604
 6636WAT    EPW27252   3.458   5.320   1.571
 6637WAT      O27253   4.403   6.083   1.900
 6637WAT     H127254   4.389   6.089   1.986
 6637WAT     H227255   4.435   6.003   1.890
 6637WAT    EPW27256   4.406   6.072   1.911
 6638WAT      O27257   4.147   6.014   1.815
 6638WAT     H127258   4.106   6.008   1.892
 6638WAT     H227259   4.227   6.041   1.836
 6638WAT    EPW27260   4.152   6.017   1.829
 6639WAT      O27261   4.102   6.392   2.639
 6639WAT     H127262   4.162   6.391   2.702
 6639WAT     H227263   4.126   6.460   2.589
 6639WAT    EPW27264   4.114   6.402   2.641
 6640WAT      O27265   4.950   5.608   2.805
 6640WAT     H127266   4.864   5.619   2.810
 6640WAT     H227267   4.967   5.613   2.719
 6640WAT    EPW27268   4.940   5.610   2.793
 6641WAT      O27269   4.343   5.738   2.643
 6641WAT     H127270   4.283   5.704   2.698
 6641WAT     H227271   4.412   5.752   2.694
 6641WAT    EPW27272   4.344   5.735   2.659
 6642WAT      O27273   3.279   6.734   2.827
 6642WAT     H127274   3.226   6.666   2.818
 6642WAT     H227275   3.227   6.797   2.857
 6642WAT    EPW27276   3.264   6.733   2.830
 6643WAT      O27277   4.214   5.812   3.028
 6643WAT     H127278   4.222   5.895   3.003
 6643WAT     H227279   4.153   5.816   3.091
 6643WAT    EPW27280   4.206   5.825   3.034
 6644WAT      O27281   4.478   6.740   2.131
 6644WAT     H127282   4.419   6.800   2.154
 6644WAT     H227283   4.539   6.747   2.193
 6644WAT    EPW27284   4.478   6.750   2.143
 6645WAT      O27285   4.168   6.222   2.323
 6645WAT     H127286   4.113   6.187   2.382
 6645WAT     H227287   4.227   6.263   2.372
 6645WAT    EPW27288   4.168   6.223   2.339
 6646WAT      O27289   4.700   6.435   3.040
 6646WAT     H127290   4.781   6.404   3.034
 6646WAT     H227291   4.667   6.393   3.109
 6646WAT    EPW27292   4.707   6.424   3.049
 6647WAT      O27293   3.498   5.596   2.713
 6647WAT     H127294   3.501   5.647   2.642
 6647WAT     H227295   3.573   5.551   2.709
 6647WAT    EPW27296   3.510   5.597   2.702
 6648WAT      O27297   3.326   5.400   2.615
 6648WAT     H127298   3.277   5.447   2.561
 6648WAT     H227299   3.378   5.459   2.652
 6648WAT    EPW27300   3.327   5.416   2.613
 6649WAT      O27301   4.846   5.659   1.564
 6649WAT     H127302   4.855   5.648   1.478
 6649WAT     H227303   4.917   5.621   1.597
 6649WAT    EPW27304   4.858   5.652   1.556
 6650WAT      O27305   3.472   5.128   2.821
 6650WAT     H127306   3.430   5.051   2.825
 6650WAT     H227307   3.471   5.146   2.735
 6650WAT    EPW27308   3.465   5.119   2.809
 6651WAT      O27309   4.241   6.375   1.737
 6651WAT     H127310   4.222   6.456   1.710
 6651WAT     H227311   4.171   6.329   1.713
 6651WAT    EPW27312   4.228   6.380   1.729
 6652WAT      O27313   4.692   5.705   2.502
 6652WAT     H127314   4.700   5.627   2.539
 6652WAT     H227315   4.658   5.755   2.566
 6652WAT    EPW27316   4.688   5.701   2.517
 6653WAT      O27317   3.240   5.913   2.589
 6653WAT     H127318   3.284   5.937   2.518
 6653WAT     H227319   3.205   5.836   2.568
 6653WAT    EPW27320   3.241   5.905   2.575
 6654WAT      O27321   3.375   5.499   1.228
 6654WAT     H127322   3.302   5.490   1.276
 6654WAT     H227323   3.381   5.422   1.187
 6654WAT    EPW27324   3.365   5.486   1.229
 6655WAT      O27325   4.225   5.041   2.906
 6655WAT     H127326   4.273   5.089   2.961
 6655WAT     H227327   4.185   4.983   2.959
 6655WAT    EPW27328   4.226   5.039   2.922
 6656WAT      O27329   4.250   5.263   1.967
 6656WAT     H127330   4.166   5.288   1.958
 6656WAT     H227331   4.262   5.210   1.898
 6656WAT    EPW27332   4.239   5.259   1.955
 6657WAT      O27333   3.673   6.377   1.312
 6657WAT     H127334   3.712   6.408   1.383
 6657WAT     H227335   3.597   6.345   1.343
 6657WAT    EPW27336   3.667   6.377   1.327
 6658WAT      O27337   4.572   5.218   2.275
 6658WAT     H127338   4.658   5.208   2.266
 6658WAT     H227339   4.562   5.302   2.296
 6658WAT    EPW27340   4.583   5.229   2.277
 6659WAT      O27341   3.738   5.868   2.638
 6659WAT     H127342   3.697   5.938   2.670
 6659WAT     H227343   3.677   5.828   2.590
 6659WAT    EPW27344   3.723   5.872   2.636
 6660WAT      O27345   4.658   5.701   2.051
 6660WAT     H127346   4.719   5.763   2.064
 6660WAT     H227347   4.604   5.738   1.994
 6660WAT    EPW27348   4.659   5.716   2.044
 6661WAT      O27349   4.653   6.538   1.779
 6661WAT     H127350   4.637   6.459   1.813
 6661WAT     H227351   4.694   6.520   1.704
 6661WAT    EPW27352   4.656   6.524   1.773
 6662WAT      O27353   3.446   6.286   1.444
 6662WAT     H127354   3.446   6.269   1.530
 6662WAT     H227355   3.430   6.208   1.408
 6662WAT    EPW27356   3.444   6.272   1.452
 6663WAT      O27357   3.770   6.126   1.222
 6663WAT     H127358   3.708   6.067   1.241
 6663WAT     H227359   3.738   6.200   1.256
 6663WAT    EPW27360   3.756   6.128   1.230
 6664WAT      O27361   3.727   5.132   2.429
 6664WAT     H127362   3.646   5.142   2.460
 6664WAT     H227363   3.770   5.096   2.496
 6664WAT    EPW27364   3.721   5.129   2.444
 6665WAT      O27365   4.908   5.025   2.468
 6665WAT     H127366   4.874   5.025   2.548
 6665WAT     H227367   4.994   5.013   2.482
 6665WAT    EPW27368   4.916   5.023   2.482
 6666WAT      O27369   4.117   5.180   2.316
 6666WAT     H127370   4.054   5.128   2.285
 6666WAT     H227371   4.190   5.149   2.279
 6666WAT    EPW27372   4.119   5.167   2.306
 6667WAT      O27373   4.417   6.322   2.420
 6667WAT     H127374   4.427   6.394   2.469
 6667WAT     H227375   4.425   6.352   2.338
 6667WAT    EPW27376   4.420   6.337   2.415
 6668WAT      O27377   4.358   6.703   2.874
 6668WAT     H127378   4.286   6.666   2.842
 6668WAT     H227379   4.334   6.786   2.888
 6668WAT    EPW27380   4.344   6.710   2.872
 6669WAT      O27381   3.862   5.675   2.820
 6669WAT     H127382   3.825   5.605   2.784
 6669WAT     H227383   3.830   5.742   2.775
 6669WAT    EPW27384   3.852   5.674   2.808
 6670WAT      O27385   3.947   5.026   1.331
 6670WAT     H127386   3.955   5.030   1.244
 6670WAT     H227387   3.861   5.024   1.344
 6670WAT    EPW27388   3.935   5.026   1.320
 6671WAT      O27389   4.875   6.173   2.444
 6671WAT     H127390   4.841   6.106   2.400
 6671WAT     H227391   4.827   6.241   2.418
 6671WAT    EPW27392   4.863   6.173   2.434
 6672WAT      O27393   3.723   6.625   2.857
 6672WAT     H127394   3.703   6.642   2.941
 6672WAT     H227395   3.788   6.567   2.863
 6672WAT    EPW27396   3.730   6.619   2.871
 6673WAT      O27397   4.753   6.408   2.357
 6673WAT     H127398   4.821   6.423   2.305
 6673WAT     H227399   4.693   6.374   2.303
 6673WAT    EPW27400   4.754   6.405   2.341
 6674WAT      O27401   3.473   5.173   2.544
 6674WAT     H127402   3.416   5.110   2.526
 6674WAT     H227403   3.425   5.245   2.548
 6674WAT    EPW27404   3.458   5.174   2.542
 6675WAT      O27405   4.338   5.099   2.171
 6675WAT     H127406   4.410   5.140   2.198
 6675WAT     H227407   4.312   5.147   2.103
 6675WAT    EPW27408   4.345   5.112   2.165
 6676WAT      O27409   3.431   6.536   2.974
 6676WAT     H127410   3.496   6.571   3.021
 6676WAT     H227411   3.395   6.606   2.934
 6676WAT    EPW27412   3.435   6.552   2.975
 6677WAT      O27413   4.310   5.624   1.970
 6677WAT     H127414   4.367   5.558   1.978
 6677WAT     H227415   4.275   5.631   2.050
 6677WAT    EPW27416   4.313   5.615   1.983
 6678WAT      O27417   3.311   5.467   1.905
 6678WAT     H127418   3.270   5.483   1.980
 6678WAT     H227419   3.356   5.393   1.921
 6678WAT    EPW27420   3.312   5.458   1.918
 6679WAT      O27421   3.307   6.308   2.709
 6679WAT     H127422   3.255   6.371   2.738
 6679WAT     H227423   3.388   6.339   2.721
 6679WAT    EPW27424   3.311   6.322   2.715
 6680WAT      O27425   4.500   5.758   1.591
 6680WAT     H127426   4.526   5.678   1.611
 6680WAT     H227427   4.424   5.746   1.549
 6680WAT    EPW27428   4.492   5.745   1.588
 6681WAT      O27429   3.491   6.622   1.548
 6681WAT     H127430   3.447   6.596   1.478
 6681WAT     H227431   3.563   6.573   1.546
 6681WAT    EPW27432   3.495   6.611   1.538
 6682WAT      O27433   3.878   5.838   1.532
 6682WAT     H127434   3.908   5.867   1.455
 6682WAT     H227435   3.951   5.822   1.577
 6682WAT    EPW27436   3.893   5.840   1.527
 6683WAT      O27437   4.764   6.709   1.226
 6683WAT     H127438   4.835   6.701   1.276
 6683WAT     H227439   4.747   6.627   1.202
 6683WAT    EPW27440   4.772   6.696   1.230
 6684WAT      O27441   4.786   5.918   2.930
 6684WAT     H127442   4.857   5.886   2.968
 6684WAT     H227443   4.817   5.961   2.860
 6684WAT    EPW27444   4.801   5.919   2.925
 6685WAT      O27445   4.412   6.326   1.518
 6685WAT     H127446   4.368   6.322   1.593
 6685WAT     H227447   4.372   6.267   1.467
 6685WAT    EPW27448   4.400   6.317   1.521
 6686WAT      O27449   4.854   5.335   3.088
 6686WAT     H127450   4.841   5.420   3.097
 6686WAT     H227451   4.782   5.308   3.046
 6686WAT    EPW27452   4.841   5.343   3.083
 6687WAT      O27453   4.869   5.507   2.310
 6687WAT     H127454   4.785   5.526   2.304
 6687WAT     H227455   4.871   5.420   2.308
 6687WAT    EPW27456   4.857   5.497   2.309
 6688WAT      O27457   3.739   5.215   2.840
 6688WAT     H127458   3.781   5.162   2.784
 6688WAT     H227459   3.658   5.182   2.842
 6688WAT    EPW27460   3.733   5.202   2.832
 6689WAT      O27461   4.533   5.913   3.173
 6689WAT     H127462   4.599   5.951   3.215
 6689WAT     H227463   4.548   5.932   3.089
 6689WAT    EPW27464   4.545   5.921   3.167
 6690WAT      O27465   3.507   6.556   2.201
 6690WAT     H127466   3.503   6.477   2.164
 6690WAT     H227467   3.472   6.609   2.141
 6690WAT    EPW27468   3.501   6.552   2.187
 6691WAT      O27469   4.065   6.154   1.387
 6691WAT     H127470   4.150   6.140   1.373
 6691WAT     H227471   4.049   6.228   1.343
 6691WAT    EPW27472   4.075   6.163   1.378
 6692WAT      O27473   3.263   6.776   2.548
 6692WAT     H127474   3.270   6.761   2.633
 6692WAT     H227475   3.304   6.708   2.512
 6692WAT    EPW27476   3.270   6.764   2.555
 6693WAT      O27477   4.155   5.647   0.357
 6693WAT     H127478   4.140   5.732   0.372
 6693WAT     H227479   4.227   5.630   0.405
 6693WAT    EPW27480   4.164   5.657   0.366
 6694WAT      O27481   3.220   6.325   0.545
 6694WAT     H127482   3.241   6.314   0.629
 6694WAT     H227483   3.162   6.262   0.530
 6694WAT    EPW27484   3.215   6.314   0.555
 6695WAT      O27485   3.856   6.163   0.965
 6695WAT     H127486   3.835   6.146   1.048
 6695WAT     H227487   3.782   6.148   0.921
 6695WAT    EPW27488   3.842   6.159   0.971
 6696WAT      O27489   3.764   5.427   0.541
 6696WAT     H127490   3.844   5.427   0.504
 6696WAT     H227491   3.740   5.343   0.535
 6696WAT    EPW27492   3.772   5.414   0.534
 6697WAT      O27493   3.849   6.429   0.709
 6697WAT     H127494   3.860   6.493   0.650
 6697WAT     H227495   3.930   6.403   0.727
 6697WAT    EPW27496   3.863   6.435   0.702
 6698WAT      O27497   4.132   5.718   0.923
 6698WAT     H127498   4.046   5.708   0.922
 6698WAT     H227499   4.147   5.759   0.999
 6698WAT    EPW27500   4.122   5.722   0.934
 6699WAT      O27501   4.554   4.899   0.819
 6699WAT     H127502   4.543   4.980   0.790
 6699WAT     H227503   4.486   4.886   0.872
 6699WAT    EPW27504   4.542   4.909   0.823
 6700WAT      O27505   3.169   5.684   0.330
 6700WAT     H127506   3.120   5.756   0.334
 6700WAT     H227507   3.113   5.621   0.353
 6700WAT    EPW27508   3.153   5.685   0.334
 6701WAT      O27509   3.394   4.908   0.312
 6701WAT     H127510   3.373   4.919   0.228
 6701WAT     H227511   3.481   4.899   0.311
 6701WAT    EPW27512   3.404   4.908   0.300
 6702WAT      O27513   3.776   5.318   1.194
 6702WAT     H127514   3.778   5.278   1.116
 6702WAT     H227515   3.825   5.389   1.182
 6702WAT    EPW27516   3.784   5.323   1.180
 6703WAT      O27517   4.422   6.602   0.621
 6703WAT     H127518   4.482   6.633   0.676
 6703WAT     H227519   4.453   6.624   0.543
 6703WAT    EPW27520   4.435   6.610   0.618
 6704WAT      O27521   3.373   5.238   1.121
 6704WAT     H127522   3.292   5.207   1.111
 6704WAT     H227523   3.416   5.204   1.053
 6704WAT    EPW27524   3.367   5.229   1.109
 6705WAT      O27525   3.968   5.026   1.056
 6705WAT     H127526   3.983   4.949   1.018
 6705WAT     H227527   3.895   5.055   1.016
 6705WAT    EPW27528   3.959   5.019   1.045
 6706WAT      O27529   3.640   6.651   0.628
 6706WAT     H127530   3.661   6.653   0.713
 6706WAT     H227531   3.563   6.610   0.627
 6706WAT    EPW27532   3.632   6.645   0.641
 6707WAT      O27533   4.895   5.207   0.470
 6707WAT     H127534   4.958   5.166   0.425
 6707WAT     H227535   4.889   5.160   0.543
 6707WAT    EPW27536   4.903   5.194   0.474
 6708WAT      O27537   3.124   5.338   0.865
 6708WAT     H127538   3.107   5.414   0.904
 6708WAT     H227539   3.184   5.359   0.805
 6708WAT    EPW27540   3.130   5.352   0.862
 6709WAT      O27541   4.311   6.414   0.928
 6709WAT     H127542   4.298   6.433   1.013
 6709WAT     H227543   4.397   6.402   0.923
 6709WAT    EPW27544   4.321   6.415   0.940
 6710WAT      O27545   3.395   6.541   0.525
 6710WAT     H127546   3.343   6.472   0.536
 6710WAT     H227547   3.428   6.528   0.445
 6710WAT    EPW27548   3.392   6.529   0.514
 6711WAT      O27549   4.165   6.690   0.669
 6711WAT     H127550   4.245   6.660   0.647
 6711WAT     H227551   4.113   6.655   0.608
 6711WAT    EPW27552   4.169   6.680   0.657
 6712WAT      O27553   3.567   6.398   0.837
 6712WAT     H127554   3.642   6.432   0.809
 6712WAT     H227555   3.553   6.438   0.913
 6712WAT    EPW27556   3.576   6.409   0.844
 6713WAT      O27557   3.718   5.943   0.283
 6713WAT     H127558   3.757   5.948   0.360
 6713WAT     H227559   3.685   5.862   0.281
 6713WAT    EPW27560   3.719   5.932   0.294
 6714WAT      O27561   4.330   5.337   0.673
 6714WAT     H127562   4.322   5.388   0.743
 6714WAT     H227563   4.262   5.284   0.678
 6714WAT    EPW27564   4.319   5.337   0.684
 6715WAT      O27565   3.850   5.981   0.522
 6715WAT     H127566   3.830   6.066   0.531
 6715WAT     H227567   3.830   5.946   0.599
 6715WAT    EPW27568   3.844   5.989   0.535
 6716WAT      O27569   4.451   6.118   0.580
 6716WAT     H127570   4.383   6.065   0.595
 6716WAT     H227571   4.416   6.197   0.582
 6716WAT    EPW27572   4.436   6.122   0.583
 6717WAT      O27573   3.113   6.382   1.169
 6717WAT     H127574   3.173   6.429   1.212
 6717WAT     H227575   3.116   6.304   1.208
 6717WAT    EPW27576   3.122   6.378   1.181
 6718WAT      O27577   4.744   5.358   0.788
 6718WAT     H127578   4.827   5.340   0.808
 6718WAT     H227579   4.707   5.372   0.866
 6718WAT    EPW27580   4.751   5.358   0.803
 6719WAT      O27581   3.376   5.521   0.426
 6719WAT     H127582   3.454   5.548   0.397
 6719WAT     H227583   3.320   5.576   0.388
 6719WAT    EPW27584   3.379   5.533   0.416
 6720WAT      O27585   5.013   6.493   0.911
 6720WAT     H127586   4.934   6.504   0.876
 6720WAT     H227587   4.997   6.453   0.987
 6720WAT    EPW27588   4.999   6.489   0.917
 6721WAT      O27589   3.928   5.554   1.184
 6721WAT     H127590   3.878   5.588   1.248
 6721WAT     H227591   3.906   5.603   1.115
 6721WAT    EPW27592   3.917   5.566   1.184
 6722WAT      O27593   5.016   5.621   0.663
 6722WAT     H127594   5.075   5.557   0.660
 6722WAT     H227595   4.953   5.594   0.609
 6722WAT    EPW27596   5.015   5.608   0.655
 6723WAT      O27597   3.551   6.164   0.361
 6723WAT     H127598   3.608   6.193   0.421
 6723WAT     H227599   3.597   6.105   0.316
 6723WAT    EPW27600   3.566   6.159   0.364
 6724WAT      O27601   4.760   6.537   0.795
 6724WAT     H127602   4.711   6.609   0.803
 6724WAT     H227603   4.752   6.516   0.711
 6724WAT    EPW27604   4.752   6.545   0.784
 6725WAT      O27605   3.505   5.688   1.065
 6725WAT     H127606   3.464   5.627   1.113
 6725WAT     H227607   3.502   5.656   0.984
 6725WAT    EPW27608   3.499   5.674   1.060
 6726WAT      O27609   3.554   5.767   0.592
 6726WAT     H127610   3.584   5.720   0.524
 6726WAT     H227611   3.499   5.824   0.556
 6726WAT    EPW27612   3.551   5.768   0.577
 6727WAT      O27613   4.603   5.486   0.380
 6727WAT     H127614   4.537   5.516   0.429
 6727WAT     H227615   4.594   5.530   0.305
 6727WAT    EPW27616   4.592   5.497   0.376
 6728WAT      O27617   3.965   6.592   0.502
 6728WAT     H127618   3.960   6.532   0.439
 6728WAT     H227619   3.938   6.665   0.463
 6728WAT    EPW27620   3.960   6.594   0.487
 6729WAT      O27621   4.146   5.107   0.705
 6729WAT     H127622   4.165   5.023   0.692
 6729WAT     H227623   4.168   5.120   0.788
 6729WAT    EPW27624   4.152   5.097   0.715
 6730WAT      O27625   3.346   5.909   1.099
 6730WAT     H127626   3.350   5.954   1.024
 6730WAT     H227627   3.401   5.842   1.085
 6730WAT    EPW27628   3.355   5.906   1.086
 6731WAT      O27629   4.520   6.102   0.983
 6731WAT     H127630   4.548   6.182   0.962
 6731WAT     H227631   4.556   6.051   0.922
 6731WAT    EPW27632   4.530   6.106   0.971
 6732WAT      O27633   3.938   6.428   1.009
 6732WAT     H127634   3.965   6.420   1.092
 6732WAT     H227635   3.913   6.348   0.988
 6732WAT    EPW27636   3.939   6.415   1.019
 6733WAT      O27637   4.003   5.417   0.408
 6733WAT     H127638   4.054   5.484   0.386
 6733WAT     H227639   4.055   5.348   0.400
 6733WAT    EPW27640   4.018   5.417   0.404
 6734WAT      O27641   4.453   6.392   0.285
 6734WAT     H127642   4.410   6.381   0.210
 6734WAT     H227643   4.468   6.478   0.288
 6734WAT    EPW27644   4.449   6.403   0.274
 6735WAT      O27645   4.298   6.251   0.085
 6735WAT     H127646   4.242   6.236   0.150
 6735WAT     H227647   4.349   6.181   0.086
 6735WAT    EPW27648   4.297   6.238   0.095
 6736WAT      O27649   4.598   5.957   0.753
 6736WAT     H127650   4.563   6.018   0.702
 6736WAT     H227651   4.684   5.968   0.744
 6736WAT    EPW27652   4.606   5.967   0.744
 6737WAT      O27653   4.289   6.535   1.187
 6737WAT     H127654   4.319   6.555   1.267
 6737WAT     H227655   4.313   6.604   1.139
 6737WAT    EPW27656   4.297   6.548   1.192
 6738WAT      O27657   4.789   4.974   0.951
 6738WAT     H127658   4.710   4.959   0.916
 6738WAT     H227659   4.783   4.938   1.030
 6738WAT    EPW27660   4.776   4.967   0.958
 6739WAT      O27661   4.236   5.956   0.639
 6739WAT     H127662   4.186   5.986   0.705
 6739WAT     H227663   4.274   5.885   0.673
 6739WAT    EPW27664   4.234   5.950   0.654
 6740WAT      O27665   4.642   6.224   0.405
 6740WAT     H127666   4.592   6.273   0.353
 6740WAT     H227667   4.585   6.180   0.453
 6740WAT    EPW27668   4.626   6.225   0.404
 6741WAT      O27669   3.962   5.984   0.130
 6741WAT     H127670   3.882   5.975   0.162
 6741WAT     H227671   4.013   5.951   0.192
 6741WAT    EPW27672   3.958   5.978   0.144
 6742WAT      O27673   3.385   5.947   0.454
 6742WAT     H127674   3.424   6.023   0.434
 6742WAT     H227675   3.345   5.924   0.380
 6742WAT    EPW27676   3.385   5.955   0.440
 6743WAT      O27677   4.674   5.801   0.478
 6743WAT     H127678   4.686   5.736   0.535
 6743WAT     H227679   4.608   5.847   0.513
 6743WAT    EPW27680   4.666   5.798   0.491
 6744WAT      O27681   3.357   6.043   0.860
 6744WAT     H127682   3.316   5.994   0.802
 6744WAT     H227683   3.323   6.123   0.847
 6744WAT    EPW27684   3.346   6.048   0.850
 6745WAT      O27685   4.897   5.898   0.349
 6745WAT     H127686   4.828   5.865   0.391
 6745WAT     H227687   4.867   5.912   0.268
 6745WAT    EPW27688   4.883   5.895   0.343
 6746WAT      O27689   4.544   5.334   1.005
 6746WAT     H127690   4.478   5.327   1.061
 6746WAT     H227691   4.527   5.274   0.944
 6746WAT    EPW27692   4.532   5.324   1.004
 6747WAT      O27693   4.944   6.514   0.387
 6747WAT     H127694   4.982   6.526   0.308
 6747WAT     H227695   5.000   6.461   0.428
 6747WAT    EPW27696   4.958   6.508   0.381
 6748WAT      O27697   4.437   5.669   1.104
 6748WAT     H127698   4.480   5.674   1.180
 6748WAT     H227699   4.365   5.717   1.118
 6748WAT    EPW27700   4.433   5.677   1.117
 6749WAT      O27701   4.672   5.697   0.949
 6749WAT     H127702   4.695   5.780   0.966
 6749WAT     H227703   4.598   5.687   0.995
 6749WAT    EPW27704   4.664   5.708   0.958
 6750WAT      O27705   4.987   5.791   1.127
 6750WAT     H127706   4.991   5.734   1.061
 6750WAT     H227707   5.066   5.829   1.125
 6750WAT    EPW27708   4.999   5.788   1.117
 6751WAT      O27709   4.871   6.019   0.741
 6751WAT     H127710   4.938   5.966   0.724
 6751WAT     H227711   4.872   6.075   0.674
 6751WAT    EPW27712   4.881   6.019   0.728
 6752WAT      O27713   3.774   6.248   0.511
 6752WAT     H127714   3.786   6.299   0.581
 6752WAT     H227715   3.820   6.288   0.449
 6752WAT    EPW27716   3.782   6.262   0.513
 6753WAT      O27717   3.620   6.122   0.824
 6753WAT     H127718   3.540   6.089   0.838
 6753WAT     H227719   3.606   6.208   0.818
 6753WAT    EPW27720   3.606   6.130   0.825
 6754WAT      O27721   4.535   5.173   0.769
 6754WAT     H127722   4.608   5.217   0.751
 6754WAT     H227723   4.473   5.218   0.727
 6754WAT    EPW27724   4.537   5.186   0.760
 6755WAT      O27725   4.096   5.935   0.403
 6755WAT     H127726   4.148   5.935   0.473
 6755WAT     H227727   4.016   5.942   0.437
 6755WAT    EPW27728   4.092   5.936   0.418
 6756WAT      O27729   3.743   5.459   0.816
 6756WAT     H127730   3.750   5.380   0.852
 6756WAT     H227731   3.760   5.446   0.732
 6756WAT    EPW27732   3.747   5.446   0.809
 6757WAT      O27733   4.651   4.944   0.515
 6757WAT     H127734   4.627   5.025   0.493
 6757WAT     H227735   4.723   4.956   0.563
 6757WAT    EPW27736   4.658   4.958   0.519
 6758WAT      O27737   3.869   5.048   0.742
 6758WAT     H127738   3.956   5.053   0.730
 6758WAT     H227739   3.858   4.966   0.771
 6758WAT    EPW27740   3.880   5.036   0.745
 6759WAT      O27741   3.935   6.374   0.322
 6759WAT     H127742   3.908   6.380   0.239
 6759WAT     H227743   4.004   6.321   0.316
 6759WAT    EPW27744   3.941   6.367   0.309
 6760WAT      O27745   4.258   6.089   1.059
 6760WAT     H127746   4.338   6.095   1.026
 6760WAT     H227747   4.206   6.098   0.989
 6760WAT    EPW27748   4.262   6.091   1.044
 6761WAT      O27749   4.588   6.369   0.935
 6761WAT     H127750   4.623   6.390   1.012
 6761WAT     H227751   4.638   6.412   0.877
 6761WAT    EPW27752   4.601   6.378   0.938
 6762WAT      O27753   3.642   5.608   0.371
 6762WAT     H127754   3.667   5.584   0.291
 6762WAT     H227755   3.682   5.552   0.424
 6762WAT    EPW27756   3.651   5.596   0.367
 6763WAT      O27757   4.326   5.530   0.873
 6763WAT     H127758   4.255   5.579   0.890
 6763WAT     H227759   4.371   5.534   0.947
 6763WAT    EPW27760   4.322   5.538   0.886
 6764WAT      O27761   4.374   5.566   0.513
 6764WAT     H127762   4.392   5.623   0.576
 6764WAT     H227763   4.356   5.492   0.557
 6764WAT    EPW27764   4.374   5.563   0.529
 6765WAT      O27765   4.075   6.658   0.926
 6765WAT     H127766   4.097   6.651   0.842
 6765WAT     H227767   4.043   6.579   0.945
 6765WAT    EPW27768   4.074   6.645   0.917
 6766WAT      O27769   3.878   5.006   0.386
 6766WAT     H127770   3.825   5.060   0.430
 6766WAT     H227771   3.823   4.960   0.336
 6766WAT    EPW27772   3.862   5.008   0.385
 6767WAT      O27773   4.094   6.101   0.834
 6767WAT     H127774   4.016   6.104   0.874
 6767WAT     H227775   4.103   6.181   0.800
 6767WAT    EPW27776   4.084   6.113   0.835
 6768WAT      O27777   3.132   5.112   1.027
 6768WAT     H127778   3.129   5.184   0.977
 6768WAT     H227779   3.054   5.076   1.014
 6768WAT    EPW27780   3.120   5.117   1.018
 6769WAT      O27781   3.638   6.687   0.350
 6769WAT     H127782   3.647   6.674   0.436
 6769WAT     H227783   3.610   6.610   0.320
 6769WAT    EPW27784   3.636   6.674   0.359
 6770WAT      O27785   4.123   6.357   0.734
 6770WAT     H127786   4.177   6.380   0.798
 6770WAT     H227787   4.172   6.361   0.662
 6770WAT    EPW27788   4.138   6.361   0.733
 6771WAT      O27789   4.943   5.605   0.928
 6771WAT     H127790   4.856   5.615   0.935
 6771WAT     H227791   4.959   5.620   0.844
 6771WAT    EPW27792   4.932   5.609   0.917
 6772WAT      O27793   4.405   5.752   0.717
 6772WAT     H127794   4.390   5.692   0.779
 6772WAT     H227795   4.474   5.796   0.748
 6772WAT    EPW27796   4.413   5.749   0.731
 6773WAT      O27797   3.287   6.732   0.943
 6773WAT     H127798   3.231   6.666   0.932
 6773WAT     H227799   3.237   6.797   0.973
 6773WAT    EPW27800   3.271   6.732   0.945
 6774WAT      O27801   4.206   5.839   1.166
 6774WAT     H127802   4.230   5.917   1.134
 6774WAT     H227803   4.126   5.854   1.198
 6774WAT    EPW27804   4.198   5.853   1.166
 6775WAT      O27805   4.489   6.664   0.354
 6775WAT     H127806   4.444   6.736   0.333
 6775WAT     H227807   4.563   6.695   0.388
 6775WAT    EPW27808   4.493   6.679   0.356
 6776WAT      O27809   4.156   6.204   0.330
 6776WAT     H127810   4.137   6.121   0.348
 6776WAT     H227811   4.199   6.231   0.401
 6776WAT    EPW27812   4.160   6.196   0.343
 6777WAT      O27813   4.726   6.443   1.164
 6777WAT     H127814   4.809   6.418   1.162
 6777WAT     H227815   4.695   6.404   1.236
 6777WAT    EPW27816   4.733   6.434   1.175
 6778WAT      O27817   3.498   5.587   0.803
 6778WAT     H127818   3.510   5.647   0.741
 6778WAT     H227819   3.575   5.546   0.807
 6778WAT    EPW27820   3.512   5.590   0.794
 6779WAT      O27821   3.323   5.418   0.673
 6779WAT     H127822   3.340   5.440   0.590
 6779WAT     H227823   3.379   5.466   0.719
 6779WAT    EPW27824   3.334   5.428   0.668
 6780WAT      O27825   3.498   5.099   0.916
 6780WAT     H127826   3.458   5.022   0.925
 6780WAT     H227827   3.482   5.121   0.833
 6780WAT    EPW27828   3.490   5.091   0.905
 6781WAT      O27829   4.700   5.615   0.683
 6781WAT     H127830   4.712   5.530   0.698
 6781WAT     H227831   4.683   5.648   0.763
 6781WAT    EPW27832   4.699   5.608   0.697
 6782WAT      O27833   3.223   5.885   0.676
 6782WAT     H127834   3.264   5.905   0.602
 6782WAT     H227835   3.198   5.802   0.664
 6782WAT    EPW27836   3.225   5.876   0.663
 6783WAT      O27837   4.207   5.141   0.975
 6783WAT     H127838   4.240   5.197   1.033
 6783WAT     H227839   4.132   5.116   1.012
 6783WAT    EPW27840   4.201   5.146   0.989
 6784WAT      O27841   4.616   5.207   0.411
 6784WAT     H127842   4.703   5.204   0.417
 6784WAT     H227843   4.600   5.293   0.403
 6784WAT    EPW27844   4.627   5.220   0.411
 6785WAT      O27845   3.746   5.878   0.760
 6785WAT     H127846   3.710   5.953   0.786
 6785WAT     H227847   3.684   5.841   0.711
 6785WAT    EPW27848   3.732   5.883   0.756
 6786WAT      O27849   3.705   5.157   0.548
 6786WAT     H127850   3.621   5.145   0.568
 6786WAT     H227851   3.747   5.117   0.612
 6786WAT    EPW27852   3.699   5.150   0.560
 6787WAT      O27853   4.872   5.019   0.677
 6787WAT     H127854   4.854   5.007   0.761
 6787WAT     H227855   4.946   4.976   0.665
 6787WAT    EPW27856   4.880   5.011   0.687
 6788WAT      O27857   4.127   5.157   0.420
 6788WAT     H127858   4.058   5.108   0.395
 6788WAT     H227859   4.130   5.145   0.506
 6788WAT    EPW27860   4.117   5.148   0.429
 6789WAT      O27861   4.324   6.361   0.528
 6789WAT     H127862   4.357   6.428   0.572
 6789WAT     H227863   4.359   6.370   0.448
 6789WAT    EPW27864   4.334   6.372   0.522
 6790WAT      O27865   4.343   6.731   0.991
 6790WAT     H127866   4.273   6.690   0.958
 6790WAT     H227867   4.315   6.813   1.004
 6790WAT    EPW27868   4.329   6.737   0.988
 6791WAT      O27869   3.857   5.684   0.939
 6791WAT     H127870   3.825   5.613   0.899
 6791WAT     H227871   3.824   5.750   0.893
 6791WAT    EPW27872   3.847   5.683   0.926
 6792WAT      O27873   4.895   6.140   0.488
 6792WAT     H127874   4.906   6.065   0.445
 6792WAT     H227875   4.821   6.172   0.455
 6792WAT    EPW27876   4.886   6.134   0.477
 6793WAT      O27877   3.757   6.637   0.896
 6793WAT     H127878   3.741   6.644   0.982
 6793WAT     H227879   3.812   6.570   0.891
 6793WAT    EPW27880   3.763   6.628   0.908
 6794WAT      O27881   4.717   6.462   0.535
 6794WAT     H127882   4.782   6.491   0.485
 6794WAT     H227883   4.694   6.387   0.498
 6794WAT    EPW27884   4.723   6.455   0.522
 6795WAT      O27885   3.442   5.163   0.655
 6795WAT     H127886   3.377   5.105   0.644
 6795WAT     H227887   3.400   5.239   0.654
 6795WAT    EPW27888   3.426   5.165   0.653
 6796WAT      O27889   4.381   5.055   0.323
 6796WAT     H127890   4.443   5.112   0.347
 6796WAT     H227891   4.307   5.092   0.348
 6796WAT    EPW27892   4.379   5.069   0.330
 6797WAT      O27893   3.449   6.536   1.071
 6797WAT     H127894   3.523   6.574   1.099
 6797WAT     H227895   3.406   6.602   1.033
 6797WAT    EPW27896   3.453   6.552   1.069
 6798WAT      O27897   3.299   6.312   0.807
 6798WAT     H127898   3.248   6.373   0.843
 6798WAT     H227899   3.379   6.347   0.813
 6798WAT    EPW27900   3.303   6.326   0.813
 6799WAT      O27901   4.788   5.944   1.008
 6799WAT     H127902   4.856   5.910   1.051
 6799WAT     H227903   4.825   5.980   0.937
 6799WAT    EPW27904   4.804   5.945   1.004
 6800WAT      O27905   4.789   5.391   1.124
 6800WAT     H127906   4.788   5.469   1.164
 6800WAT     H227907   4.706   5.379   1.101
 6800WAT    EPW27908   4.777   5.401   1.127
 6801WAT      O27909   4.876   5.489   0.453
 6801WAT     H127910   4.790   5.496   0.439
 6801WAT     H227911   4.888   5.403   0.461
 6801WAT    EPW27912   4.865   5.477   0.452
 6802WAT      O27913   3.756   5.199   0.937
 6802WAT     H127914   3.795   5.160   0.869
 6802WAT     H227915   3.676   5.165   0.937
 6802WAT    EPW27916   3.750   5.188   0.927
 6803WAT      O27917   4.570   6.005   1.248
 6803WAT     H127918   4.645   6.031   1.283
 6803WAT     H227919   4.576   6.027   1.164
 6803WAT    EPW27920   4.582   6.012   1.241
 6804WAT      O27921   3.508   6.442   0.275
 6804WAT     H127922   3.514   6.358   0.295
 6804WAT     H227923   3.482   6.441   0.192
 6804WAT    EPW27924   3.505   6.430   0.266
 6805WAT      O27925   3.241   6.747   0.654
 6805WAT     H127926   3.279   6.739   0.732
 6805WAT     H227927   3.287   6.693   0.604
 6805WAT    EPW27928   3.253   6.738   0.658
 6806WAT      O27929   4.230   3.124   7.426
 6806WAT     H127930   4.215   3.173   7.356
 6806WAT     H227931   4.317   3.115   7.426
 6806WAT    EPW27932   4.241   3.130   7.415
 6807WAT      O27933   3.159   4.276   7.396
 6807WAT     H127934   3.081   4.268   7.434
 6807WAT     H227935   3.168   4.201   7.351
 6807WAT    EPW27936   3.149   4.263   7.395
 6808WAT      O27937   4.812   4.631   7.220
 6808WAT     H127938   4.872   4.572   7.243
 6808WAT     H227939   4.755   4.585   7.172
 6808WAT    EPW27940   4.812   4.616   7.216
 6809WAT      O27941   3.148   3.585   7.080
 6809WAT     H127942   3.073   3.574   7.038
 6809WAT     H227943   3.151   3.517   7.134
 6809WAT    EPW27944   3.137   3.573   7.082
 6810WAT      O27945   3.487   4.222   6.994
 6810WAT     H127946   3.448   4.181   6.928
 6810WAT     H227947   3.499   4.159   7.053
 6810WAT    EPW27948   3.483   4.206   6.993
 6811WAT      O27949   4.417   4.001   7.532
 6811WAT     H127950   4.430   3.987   7.447
 6811WAT     H227951   4.377   3.929   7.559
 6811WAT    EPW27952   4.413   3.989   7.523
 6812WAT      O27953   3.425   4.369   7.381
 6812WAT     H127954   3.478   4.341   7.445
 6812WAT     H227955   3.349   4.331   7.400
 6812WAT    EPW27956   3.422   4.359   7.393
 6813WAT      O27957   3.846   3.282   7.375
 6813WAT     H127958   3.861   3.332   7.305
 6813WAT     H227959   3.840   3.202   7.342
 6813WAT    EPW27960   3.847   3.278   7.359
 6814WAT      O27961   3.287   4.657   6.948
 6814WAT     H127962   3.343   4.662   6.882
 6814WAT     H227963   3.331   4.611   7.009
 6814WAT    EPW27964   3.302   4.651   6.947
 6815WAT      O27965   3.376   4.028   7.516
 6815WAT     H127966   3.329   4.043   7.444
 6815WAT     H227967   3.422   3.957   7.496
 6815WAT    EPW27968   3.376   4.020   7.503
 6816WAT      O27969   3.516   3.806   7.434
 6816WAT     H127970   3.572   3.783   7.497
 6816WAT     H227971   3.448   3.753   7.446
 6816WAT    EPW27972   3.514   3.795   7.445
 6817WAT      O27973   3.867   4.408   7.596
 6817WAT     H127974   3.894   4.332   7.630
 6817WAT     H227975   3.935   4.462   7.609
 6817WAT    EPW27976   3.881   4.405   7.603
 6818WAT      O27977   3.947   4.328   7.293
 6818WAT     H127978   3.994   4.275   7.343
 6818WAT     H227979   3.982   4.317   7.214
 6818WAT    EPW27980   3.959   4.318   7.288
 6819WAT      O27981   3.588   3.358   7.451
 6819WAT     H127982   3.555   3.406   7.386
 6819WAT     H227983   3.671   3.345   7.426
 6819WAT    EPW27984   3.596   3.363   7.438
 6820WAT      O27985   3.966   3.324   7.622
 6820WAT     H127986   3.937   3.403   7.643
 6820WAT     H227987   3.932   3.310   7.543
 6820WAT    EPW27988   3.957   3.333   7.613
 6821WAT      O27989   4.316   3.454   6.870
 6821WAT     H127990   4.266   3.513   6.909
 6821WAT     H227991   4.344   3.404   6.936
 6821WAT    EPW27992   4.313   3.455   6.886
 6822WAT      O27993   3.176   3.778   7.733
 6822WAT     H127994   3.185   3.864   7.744
 6822WAT     H227995   3.180   3.747   7.815
 6822WAT    EPW27996   3.178   3.786   7.747
 6823WAT      O27997   3.198   4.712   7.672
 6823WAT     H127998   3.128   4.754   7.641
 6823WAT     H227999   3.234   4.676   7.601
 6823WAT    EPW28000   3.193   4.713   7.657
 6824WAT      O28001   3.805   4.574   7.305
 6824WAT     H128002   3.744   4.579   7.367
 6824WAT     H228003   3.839   4.495   7.316
 6824WAT    EPW28004   3.801   4.563   7.316
 6825WAT      O28005   4.393   4.769   7.096
 6825WAT     H128006   4.469   4.811   7.091
 6825WAT     H228007   4.416   4.687   7.113
 6825WAT    EPW28008   4.407   4.763   7.098
 6826WAT      O28009   4.245   4.819   7.319
 6826WAT     H128010   4.235   4.739   7.353
 6826WAT     H228011   4.295   4.805   7.249
 6826WAT    EPW28012   4.251   4.805   7.314
 6827WAT      O28013   3.315   4.619   7.435
 6827WAT     H128014   3.364   4.547   7.434
 6827WAT     H228015   3.366   4.680   7.398
 6827WAT    EPW28016   3.330   4.618   7.430
 6828WAT      O28017   4.915   3.445   7.539
 6828WAT     H128018   4.868   3.517   7.557
 6828WAT     H228019   4.855   3.385   7.520
 6828WAT    EPW28020   4.899   3.447   7.539
 6829WAT      O28021   3.517   4.416   7.747
 6829WAT     H128022   3.543   4.473   7.687
 6829WAT     H228023   3.551   4.340   7.720
 6829WAT    EPW28024   3.525   4.413   7.734
 6830WAT      O28025   3.719   4.775   7.684
 6830WAT     H128026   3.799   4.801   7.662
 6830WAT     H228027   3.668   4.843   7.664
 6830WAT    EPW28028   3.723   4.789   7.678
 6831WAT      O28029   4.092   3.700   7.478
 6831WAT     H128030   4.115   3.643   7.416
 6831WAT     H228031   4.165   3.710   7.524
 6831WAT    EPW28032   4.106   3.693   7.475
 6832WAT      O28033   4.151   3.638   7.002
 6832WAT     H128034   4.186   3.716   7.018
 6832WAT     H228035   4.079   3.657   6.956
 6832WAT    EPW28036   4.145   3.652   6.998
 6833WAT      O28037   4.605   4.948   7.058
 6833WAT     H128038   4.649   4.914   6.991
 6833WAT     H228039   4.666   4.990   7.104
 6833WAT    EPW28040   4.620   4.949   7.055
 6834WAT      O28041   4.065   4.593   6.940
 6834WAT     H128042   4.043   4.649   7.003
 6834WAT     H228043   4.140   4.626   6.910
 6834WAT    EPW28044   4.073   4.606   6.945
 6835WAT      O28045   4.400   3.287   7.075
 6835WAT     H128046   4.459   3.223   7.072
 6835WAT     H228047   4.427   3.337   7.141
 6835WAT    EPW28048   4.412   3.285   7.085
 6836WAT      O28049   3.195   3.406   7.293
 6836WAT     H128050   3.192   3.319   7.287
 6836WAT     H228051   3.149   3.423   7.364
 6836WAT    EPW28052   3.188   3.395   7.302
 6837WAT      O28053   4.169   3.536   7.264
 6837WAT     H128054   4.145   3.452   7.255
 6837WAT     H228055   4.156   3.569   7.185
 6837WAT    EPW28056   4.164   3.528   7.251
 6838WAT      O28057   4.152   3.260   7.198
 6838WAT     H128058   4.088   3.241   7.142
 6838WAT     H228059   4.224   3.262   7.148
 6838WAT    EPW28060   4.153   3.257   7.182
 6839WAT      O28061   4.874   4.858   7.493
 6839WAT     H128062   4.839   4.938   7.495
 6839WAT     H228063   4.806   4.805   7.478
 6839WAT    EPW28064   4.859   4.862   7.491
 6840WAT      O28065   3.907   3.598   7.659
 6840WAT     H128066   3.958   3.629   7.596
 6840WAT     H228067   3.943   3.629   7.732
 6840WAT    EPW28068   3.920   3.607   7.661
 6841WAT      O28069   4.549   4.459   7.503
 6841WAT     H128070   4.613   4.399   7.501
 6841WAT     H228071   4.477   4.412   7.518
 6841WAT    EPW28072   4.548   4.443   7.505
 6842WAT      O28073   3.532   3.098   7.536
 6842WAT     H128074   3.540   3.183   7.516
 6842WAT     H228075   3.512   3.061   7.459
 6842WAT    EPW28076   3.530   3.105   7.521
 6843WAT      O28077   4.501   3.082   7.473
 6843WAT     H128078   4.506   3.074   7.560
 6843WAT     H228079   4.541   3.010   7.443
 6843WAT    EPW28080   4.508   3.070   7.481
 6844WAT      O28081   3.471   3.506   7.654
 6844WAT     H128082   3.515   3.457   7.597
 6844WAT     H228083   3.404   3.454   7.678
 6844WAT    EPW28084   3.467   3.491   7.649
 6845WAT      O28085   4.764   4.241   7.076
 6845WAT     H128086   4.758   4.188   7.145
 6845WAT     H228087   4.850   4.247   7.063
 6845WAT    EPW28088   4.776   4.234   7.084
 6846WAT      O28089   3.590   4.183   7.596
 6846WAT     H128090   3.640   4.177   7.525
 6846WAT     H228091   3.519   4.136   7.575
 6846WAT    EPW28092   3.587   4.175   7.582
 6847WAT      O28093   3.403   4.833   7.818
 6847WAT     H128094   3.337   4.801   7.771
 6847WAT     H228095   3.448   4.881   7.760
 6847WAT    EPW28096   3.400   4.835   7.802
 6848WAT      O28097   4.575   3.897   6.992
 6848WAT     H128098   4.574   3.978   6.960
 6848WAT     H228099   4.547   3.907   7.074
 6848WAT    EPW28100   4.571   3.911   6.999
 6849WAT      O28101   3.724   4.154   7.352
 6849WAT     H128102   3.773   4.224   7.334
 6849WAT     H228103   3.768   4.088   7.316
 6849WAT    EPW28104   3.738   4.154   7.344
 6850WAT      O28105   4.914   3.368   6.956
 6850WAT     H128106   4.953   3.318   6.896
 6850WAT     H228107   4.865   3.422   6.909
 6850WAT    EPW28108   4.913   3.368   6.940
 6851WAT      O28109   3.265   4.314   7.821
 6851WAT     H128110   3.226   4.384   7.855
 6851WAT     H228111   3.343   4.344   7.795
 6851WAT    EPW28112   3.271   4.329   7.822
 6852WAT      O28113   3.247   4.046   7.270
 6852WAT     H128114   3.224   3.962   7.266
 6852WAT     H228115   3.327   4.048   7.236
 6852WAT    EPW28116   3.255   4.034   7.264
 6853WAT      O28117   4.797   3.253   7.186
 6853WAT     H128118   4.870   3.216   7.215
 6853WAT     H228119   4.823   3.297   7.115
 6853WAT    EPW28120   4.811   3.254   7.180
 6854WAT      O28121   4.084   4.583   7.612
 6854WAT     H128122   4.053   4.665   7.615
 6854WAT     H228123   4.105   4.573   7.528
 6854WAT    EPW28124   4.083   4.594   7.600
 6855WAT      O28125   3.148   4.504   7.242
 6855WAT     H128126   3.203   4.552   7.289
 6855WAT     H228127   3.138   4.432   7.291
 6855WAT    EPW28128   3.154   4.501   7.256
 6856WAT      O28129   4.448   3.523   7.678
 6856WAT     H128130   4.469   3.478   7.750
 6856WAT     H228131   4.389   3.471   7.639
 6856WAT    EPW28132   4.442   3.508   7.683
 6857WAT      O28133   3.154   4.328   7.014
 6857WAT     H128134   3.228   4.282   7.012
 6857WAT     H228135   3.170   4.389   7.075
 6857WAT    EPW28136   3.167   4.330   7.023
 6858WAT      O28137   3.210   4.056   7.736
 6858WAT     H128138   3.262   4.050   7.667
 6858WAT     H228139   3.230   4.134   7.770
 6858WAT    EPW28140   3.220   4.067   7.731
 6859WAT      O28141   3.863   3.441   7.151
 6859WAT     H128142   3.851   3.423   7.066
 6859WAT     H228143   3.849   3.527   7.156
 6859WAT    EPW28144   3.859   3.451   7.139
 6860WAT      O28145   3.644   4.553   7.541
 6860WAT     H128146   3.661   4.628   7.583
 6860WAT     H228147   3.711   4.502   7.561
 6860WAT    EPW28148   3.656   4.557   7.550
 6861WAT      O28149   3.520   3.749   7.111
 6861WAT     H128150   3.499   3.699   7.179
 6861WAT     H228151   3.474   3.715   7.045
 6861WAT    EPW28152   3.510   3.737   7.111
 6862WAT      O28153   3.749   3.999   7.746
 6862WAT     H128154   3.692   4.052   7.706
 6862WAT     H228155   3.718   3.919   7.727
 6862WAT    EPW28156   3.736   3.995   7.737
 6863WAT      O28157   4.440   3.457   7.287
 6863WAT     H128158   4.493   3.526   7.295
 6863WAT     H228159   4.360   3.492   7.290
 6863WAT    EPW28160   4.436   3.472   7.289
 6864WAT      O28161   4.255   3.883   7.094
 6864WAT     H128162   4.228   3.934   7.028
 6864WAT     H228163   4.199   3.901   7.158
 6864WAT    EPW28164   4.243   3.893   7.094
 6865WAT      O28165   4.737   4.251   7.495
 6865WAT     H128166   4.769   4.204   7.560
 6865WAT     H228167   4.734   4.195   7.428
 6865WAT    EPW28168   4.741   4.236   7.495
 6866WAT      O28169   4.185   4.368   7.801
 6866WAT     H128170   4.160   4.441   7.760
 6866WAT     H228171   4.198   4.394   7.883
 6866WAT    EPW28172   4.183   4.383   7.807
 6867WAT      O28173   3.830   4.881   7.340
 6867WAT     H128174   3.744   4.865   7.335
 6867WAT     H228175   3.865   4.824   7.285
 6867WAT    EPW28176   3.823   4.871   7.331
 6868WAT      O28177   3.675   3.146   7.054
 6868WAT     H128178   3.692   3.135   7.139
 6868WAT     H228179   3.628   3.220   7.052
 6868WAT    EPW28180   3.671   3.155   7.066
 6869WAT      O28181   4.023   4.784   7.146
 6869WAT     H128182   4.092   4.813   7.192
 6869WAT     H228183   4.000   4.853   7.099
 6869WAT    EPW28184   4.030   4.799   7.146
 6870WAT      O28185   3.513   4.034   7.196
 6870WAT     H128186   3.525   3.948   7.201
 6870WAT     H228187   3.572   4.066   7.251
 6870WAT    EPW28188   3.523   4.026   7.205
 6871WAT      O28189   3.143   3.129   7.267
 6871WAT     H128190   3.142   3.071   7.202
 6871WAT     H228191   3.100   3.089   7.331
 6871WAT    EPW28192   3.136   3.115   7.267
 6872WAT      O28193   4.106   3.929   7.320
 6872WAT     H128194   4.112   3.999   7.371
 6872WAT     H228195   4.097   3.863   7.376
 6872WAT    EPW28196   4.105   3.929   7.335
 6873WAT      O28197   3.531   3.379   7.021
 6873WAT     H128198   3.467   3.370   6.963
 6873WAT     H228199   3.597   3.413   6.974
 6873WAT    EPW28200   3.532   3.383   7.006
 6874WAT      O28201   3.969   4.170   7.698
 6874WAT     H128202   3.909   4.114   7.728
 6874WAT     H228203   4.010   4.195   7.771
 6874WAT    EPW28204   3.966   4.165   7.714
 6875WAT      O28205   3.661   4.772   6.873
 6875WAT     H128206   3.678   4.705   6.927
 6875WAT     H228207   3.663   4.842   6.926
 6875WAT    EPW28208   3.664   4.773   6.889
 6876WAT      O28209   3.657   3.727   7.664
 6876WAT     H128210   3.732   3.683   7.655
 6876WAT     H228211   3.598   3.665   7.681
 6876WAT    EPW28212   3.660   3.711   7.665
 6877WAT      O28213   4.966   4.793   7.059
 6877WAT     H128214   5.032   4.744   7.031
 6877WAT     H228215   4.919   4.738   7.108
 6877WAT    EPW28216   4.969   4.777   7.062
 6878WAT      O28217   3.192   3.775   7.276
 6878WAT     H128218   3.218   3.731   7.346
 6878WAT     H228219   3.190   3.714   7.213
 6878WAT    EPW28220   3.195   3.759   7.277
 6879WAT      O28221   3.669   3.911   6.905
 6879WAT     H128222   3.625   3.881   6.974
 6879WAT     H228223   3.617   3.893   6.838
 6879WAT    EPW28224   3.655   3.904   6.905
 6880WAT      O28225   4.831   4.095   7.710
 6880WAT     H128226   4.831   4.153   7.776
 6880WAT     H228227   4.912   4.063   7.711
 6880WAT    EPW28228   4.843   4.099   7.720
 6881WAT      O28229   3.794   3.711   7.125
 6881WAT     H128230   3.817   3.787   7.160
 6881WAT     H228231   3.707   3.714   7.123
 6881WAT    EPW28232   3.785   3.722   7.130
 6882WAT      O28233   3.240   3.348   7.674
 6882WAT     H128234   3.167   3.364   7.629
 6882WAT     H228235   3.237   3.262   7.690
 6882WAT    EPW28236   3.229   3.338   7.670
 6883WAT      O28237   5.034   4.538   7.841
 6883WAT     H128238   5.036   4.592   7.773
 6883WAT     H228239   5.107   4.556   7.885
 6883WAT    EPW28240   5.045   4.548   7.838
 6884WAT      O28241   4.633   4.483   7.076
 6884WAT     H128242   4.668   4.404   7.083
 6884WAT     H228243   4.554   4.475   7.111
 6884WAT    EPW28244   4.626   4.470   7.082
 6885WAT      O28245   4.692   3.629   7.583
 6885WAT     H128246   4.620   3.589   7.613
 6885WAT     H228247   4.686   3.710   7.616
 6885WAT    EPW28248   4.680   3.635   7.592
 6886WAT      O28249   4.343   4.297   6.945
 6886WAT     H128250   4.418   4.253   6.941
 6886WAT     H228251   4.312   4.291   6.863
 6886WAT    EPW28252   4.349   4.290   6.932
 6887WAT      O28253   3.967   4.851   7.581
 6887WAT     H128254   3.976   4.935   7.605
 6887WAT     H228255   3.927   4.856   7.504
 6887WAT    EPW28256   3.963   4.864   7.573
 6888WAT      O28257   4.830   3.795   6.950
 6888WAT     H128258   4.871   3.854   6.900
 6888WAT     H228259   4.747   3.823   6.951
 6888WAT    EPW28260   4.824   3.808   6.942
 6889WAT      O28261   3.903   4.061   6.948
 6889WAT     H128262   3.833   4.015   6.921
 6889WAT     H228263   3.874   4.143   6.950
 6889WAT    EPW28264   3.888   4.066   6.945
 6890WAT      O28265   4.600   3.686   7.328
 6890WAT     H128266   4.627   3.666   7.409
 6890WAT     H228267   4.673   3.714   7.289
 6890WAT    EPW28268   4.615   3.687   7.335
 6891WAT      O28269   4.726   3.253   7.456
 6891WAT     H128270   4.646   3.219   7.463
 6891WAT     H228271   4.735   3.269   7.371
 6891WAT    EPW28272   4.716   3.250   7.445
 6892WAT      O28273   4.715   4.067   7.286
 6892WAT     H128274   4.763   3.995   7.276
 6892WAT     H228275   4.633   4.038   7.283
 6892WAT    EPW28276   4.710   4.052   7.284
 6893WAT      O28277   3.457   3.507   7.256
 6893WAT     H128278   3.478   3.468   7.182
 6893WAT     H228279   3.375   3.480   7.271
 6893WAT    EPW28280   3.448   3.497   7.248
 6894WAT      O28281   4.334   4.277   7.567
 6894WAT     H128282   4.303   4.293   7.647
 6894WAT     H228283   4.370   4.198   7.574
 6894WAT    EPW28284   4.335   4.268   7.579
 6895WAT      O28285   4.103   4.169   7.458
 6895WAT     H128286   4.058   4.164   7.532
 6895WAT     H228287   4.178   4.206   7.481
 6895WAT    EPW28288   4.107   4.174   7.472
 6896WAT      O28289   4.552   4.913   7.775
 6896WAT     H128290   4.500   4.872   7.832
 6896WAT     H228291   4.631   4.885   7.796
 6896WAT    EPW28292   4.556   4.903   7.787
 6897WAT      O28293   4.823   3.818   7.227
 6897WAT     H128294   4.831   3.813   7.141
 6897WAT     H228295   4.901   3.792   7.256
 6897WAT    EPW28296   4.836   3.814   7.219
 6898WAT      O28297   4.117   4.553   7.325
 6898WAT     H128298   4.064   4.607   7.282
 6898WAT     H228299   4.075   4.477   7.322
 6898WAT    EPW28300   4.103   4.550   7.318
 6899WAT      O28301   3.359   3.642   6.905
 6899WAT     H128302   3.287   3.639   6.955
 6899WAT     H228303   3.361   3.564   6.867
 6899WAT    EPW28304   3.349   3.630   6.907
 6900WAT      O28305   4.242   3.360   7.587
 6900WAT     H128306   4.156   3.357   7.604
 6900WAT     H228307   4.255   3.290   7.536
 6900WAT    EPW28308   4.231   3.349   7.582
 6901WAT      O28309   3.696   4.559   7.050
 6901WAT     H128310   3.735   4.573   7.127
 6901WAT     H228311   3.613   4.542   7.071
 6901WAT    EPW28312   3.690   4.558   7.064
 6902WAT      O28313   4.640   3.891   7.667
 6902WAT     H128314   4.701   3.952   7.683
 6902WAT     H228315   4.578   3.935   7.624
 6902WAT    EPW28316   4.640   3.907   7.663
 6903WAT      O28317   4.641   4.712   7.423
 6903WAT     H128318   4.609   4.638   7.455
 6903WAT     H228319   4.688   4.687   7.354
 6903WAT    EPW28320   4.643   4.698   7.418
 6904WAT      O28321   3.440   4.469   7.110
 6904WAT     H128322   3.437   4.449   7.195
 6904WAT     H228323   3.453   4.392   7.071
 6904WAT    EPW28324   3.442   4.454   7.117
 6905WAT      O28325   3.752   4.304   6.941
 6905WAT     H128326   3.671   4.273   6.952
 6905WAT     H228327   3.749   4.384   6.976
 6905WAT    EPW28328   3.740   4.311   6.947
 6906WAT      O28329   3.953   3.172   7.013
 6906WAT     H128330   3.967   3.171   6.927
 6906WAT     H228331   3.866   3.180   7.020
 6906WAT    EPW28332   3.942   3.173   7.001
 6907WAT      O28333   4.311   3.764   7.642
 6907WAT     H128334   4.361   3.693   7.647
 6907WAT     H228335   4.301   3.789   7.725
 6907WAT    EPW28336   4.317   3.757   7.655
 6908WAT      O28337   3.288   3.659   7.509
 6908WAT     H128338   3.247   3.697   7.576
 6908WAT     H228339   3.340   3.600   7.548
 6908WAT    EPW28340   3.290   3.656   7.525
 6909WAT      O28341   4.473   3.923   7.262
 6909WAT     H128342   4.501   3.843   7.284
 6909WAT     H228343   4.400   3.907   7.217
 6909WAT    EPW28344   4.467   3.909   7.259
 6910WAT      O28345   3.860   3.965   7.206
 6910WAT     H128346   3.877   4.000   7.128
 6910WAT     H228347   3.940   3.954   7.241
 6910WAT    EPW28348   3.875   3.969   7.200
 6911WAT      O28349   4.763   4.823   6.867
 6911WAT     H128350   4.832   4.813   6.920
 6911WAT     H228351   4.739   4.741   6.849
 6911WAT    EPW28352   4.770   4.809   6.872
 6912WAT      O28353   4.364   4.493   7.151
 6912WAT     H128354   4.294   4.492   7.203
 6912WAT     H228355   4.343   4.437   7.087
 6912WAT    EPW28356   4.351   4.485   7.149
 6913WAT      O28357   3.472   4.605   7.976
 6913WAT     H128358   3.498   4.549   7.915
 6913WAT     H228359   3.469   4.681   7.933
 6913WAT    EPW28360   3.476   4.608   7.961
 6914WAT      O28361   4.085   4.336   7.054
 6914WAT     H128362   4.162   4.308   7.023
 6914WAT     H228363   4.073   4.412   7.013
 6914WAT    EPW28364   4.095   4.343   7.043
 6915WAT      O28365   4.167   3.793   6.107
 6915WAT     H128366   4.159   3.874   6.139
 6915WAT     H228367   4.238   3.762   6.146
 6915WAT    EPW28368   4.176   3.800   6.118
 6916WAT      O28369   4.741   4.575   5.211
 6916WAT     H128370   4.751   4.489   5.204
 6916WAT     H228371   4.704   4.598   5.135
 6916WAT    EPW28372   4.737   4.566   5.198
 6917WAT      O28373   4.421   4.039   5.597
 6917WAT     H128374   4.413   4.007   5.517
 6917WAT     H228375   4.340   4.036   5.630
 6917WAT    EPW28376   4.408   4.034   5.590
 6918WAT      O28377   3.836   4.338   6.677
 6918WAT     H128378   3.813   4.325   6.760
 6918WAT     H228379   3.766   4.313   6.632
 6918WAT    EPW28380   3.822   4.333   6.682
 6919WAT      O28381   3.733   3.584   6.209
 6919WAT     H128382   3.812   3.589   6.172
 6919WAT     H228383   3.715   3.498   6.208
 6919WAT    EPW28384   3.742   3.572   6.204
 6920WAT      O28385   3.826   4.575   6.376
 6920WAT     H128386   3.813   4.650   6.333
 6920WAT     H228387   3.913   4.573   6.388
 6920WAT    EPW28388   3.837   4.585   6.371
 6921WAT      O28389   4.139   4.557   5.815
 6921WAT     H128390   4.178   4.481   5.795
 6921WAT     H228391   4.121   4.592   5.737
 6921WAT    EPW28392   4.142   4.551   5.800
 6922WAT      O28393   4.097   3.886   6.607
 6922WAT     H128394   4.011   3.868   6.604
 6922WAT     H228395   4.109   3.914   6.689
 6922WAT    EPW28396   4.086   3.888   6.619
 6923WAT      O28397   4.587   3.037   6.487
 6923WAT     H128398   4.580   3.122   6.468
 6923WAT     H228399   4.519   3.021   6.539
 6923WAT    EPW28400   4.576   3.047   6.492
 6924WAT      O28401   3.116   3.709   5.908
 6924WAT     H128402   3.095   3.644   5.854
 6924WAT     H228403   3.056   3.704   5.971
 6924WAT    EPW28404   3.104   3.699   5.909
 6925WAT      O28405   3.214   4.762   5.586
 6925WAT     H128406   3.157   4.762   5.520
 6925WAT     H228407   3.278   4.710   5.558
 6925WAT    EPW28408   3.215   4.754   5.572
 6926WAT      O28409   4.365   4.737   5.079
 6926WAT     H128410   4.313   4.759   5.013
 6926WAT     H228411   4.324   4.667   5.114
 6926WAT    EPW28412   4.351   4.730   5.074
 6927WAT      O28413   3.427   3.250   6.111
 6927WAT     H128414   3.364   3.263   6.052
 6927WAT     H228415   3.461   3.173   6.087
 6927WAT    EPW28416   3.423   3.240   6.099
 6928WAT      O28417   3.765   3.448   6.879
 6928WAT     H128418   3.756   3.409   6.802
 6928WAT     H228419   3.809   3.520   6.861
 6928WAT    EPW28420   3.770   3.453   6.865
 6929WAT      O28421   4.753   3.473   5.500
 6929WAT     H128422   4.724   3.542   5.545
 6929WAT     H228423   4.691   3.413   5.513
 6929WAT    EPW28424   4.739   3.475   5.508
 6930WAT      O28425   4.444   4.729   6.308
 6930WAT     H128426   4.492   4.782   6.357
 6930WAT     H228427   4.471   4.745   6.227
 6930WAT    EPW28428   4.455   4.739   6.303
 6931WAT      O28429   3.317   3.365   6.837
 6931WAT     H128430   3.234   3.347   6.855
 6931WAT     H228431   3.333   3.322   6.762
 6931WAT    EPW28432   3.307   3.356   6.828
 6932WAT      O28433   3.531   4.516   5.790
 6932WAT     H128434   3.575   4.489   5.719
 6932WAT     H228435   3.570   4.474   5.855
 6932WAT    EPW28436   3.543   4.506   5.789
 6933WAT      O28437   3.977   3.156   6.740
 6933WAT     H128438   3.998   3.083   6.697
 6933WAT     H228439   3.905   3.184   6.699
 6933WAT    EPW28440   3.969   3.149   6.728
 6934WAT      O28441   4.214   3.988   5.159
 6934WAT     H128442   4.141   3.971   5.204
 6934WAT     H228443   4.187   4.042   5.096
 6934WAT    EPW28444   4.199   3.994   5.156
 6935WAT      O28445   4.474   4.937   5.234
 6935WAT     H128446   4.437   4.872   5.190
 6935WAT     H228447   4.444   4.927   5.315
 6935WAT    EPW28448   4.465   4.926   5.240
 6936WAT      O28449   3.708   4.815   6.279
 6936WAT     H128450   3.711   4.849   6.359
 6936WAT     H228451   3.744   4.876   6.229
 6936WAT    EPW28452   3.714   4.829   6.284
 6937WAT      O28453   4.921   3.375   6.029
 6937WAT     H128454   4.899   3.459   6.042
 6937WAT     H228455   4.938   3.345   6.109
 6937WAT    EPW28456   4.920   3.383   6.042
 6938WAT      O28457   3.105   3.505   6.527
 6938WAT     H128458   3.119   3.569   6.584
 6938WAT     H228459   3.162   3.523   6.463
 6938WAT    EPW28460   3.116   3.517   6.526
 6939WAT      O28461   4.298   4.538   6.613
 6939WAT     H128462   4.299   4.580   6.689
 6939WAT     H228463   4.383   4.525   6.596
 6939WAT    EPW28464   4.311   4.542   6.622
 6940WAT      O28465   4.359   3.435   5.161
 6940WAT     H128466   4.305   3.459   5.097
 6940WAT     H228467   4.314   3.452   5.233
 6940WAT    EPW28468   4.344   3.441   5.162
 6941WAT      O28469   3.445   4.704   6.198
 6941WAT     H128470   3.525   4.729   6.222
 6941WAT     H228471   3.443   4.720   6.112
 6941WAT    EPW28472   3.456   4.710   6.188
 6942WAT      O28473   4.188   4.840   6.288
 6942WAT     H128474   4.269   4.811   6.301
 6942WAT     H228475   4.170   4.819   6.206
 6942WAT    EPW28476   4.197   4.833   6.278
 6943WAT      O28477   4.787   4.803   5.571
 6943WAT     H128478   4.737   4.873   5.585
 6943WAT     H228479   4.731   4.742   5.544
 6943WAT    EPW28480   4.771   4.804   5.569
 6944WAT      O28481   4.333   4.609   5.444
 6944WAT     H128482   4.260   4.629   5.486
 6944WAT     H228483   4.305   4.573   5.369
 6944WAT    EPW28484   4.318   4.606   5.439
 6945WAT      O28485   3.569   4.546   6.501
 6945WAT     H128486   3.647   4.574   6.475
 6945WAT     H228487   3.553   4.594   6.573
 6945WAT    EPW28488   3.578   4.557   6.508
 6946WAT      O28489   3.619   4.104   5.955
 6946WAT     H128490   3.690   4.088   6.004
 6946WAT     H228491   3.642   4.074   5.876
 6946WAT    EPW28492   3.633   4.097   5.951
 6947WAT      O28493   4.332   3.466   6.389
 6947WAT     H128494   4.303   3.519   6.453
 6947WAT     H228495   4.269   3.406   6.383
 6947WAT    EPW28496   4.318   3.465   6.397
 6948WAT      O28497   3.819   4.103   6.164
 6948WAT     H128498   3.828   4.189   6.168
 6948WAT     H228499   3.793   4.081   6.244
 6948WAT    EPW28500   3.816   4.112   6.176
 6949WAT      O28501   4.427   4.271   6.096
 6949WAT     H128502   4.466   4.224   6.158
 6949WAT     H228503   4.398   4.341   6.139
 6949WAT    EPW28504   4.429   4.275   6.111
 6950WAT      O28505   4.538   3.086   5.624
 6950WAT     H128506   4.516   3.073   5.708
 6950WAT     H228507   4.544   3.005   5.591
 6950WAT    EPW28508   4.536   3.072   5.632
 6951WAT      O28509   3.089   4.522   6.810
 6951WAT     H128510   3.146   4.572   6.855
 6951WAT     H228511   3.097   4.443   6.847
 6951WAT    EPW28512   3.098   4.518   6.822
 6952WAT      O28513   4.722   3.534   6.484
 6952WAT     H128514   4.807   3.518   6.497
 6952WAT     H228515   4.691   3.548   6.564
 6952WAT    EPW28516   4.730   3.534   6.497
 6953WAT      O28517   4.777   4.302   5.234
 6953WAT     H128518   4.737   4.225   5.242
 6953WAT     H228519   4.848   4.284   5.188
 6953WAT    EPW28520   4.782   4.288   5.228
 6954WAT      O28521   3.302   5.043   5.662
 6954WAT     H128522   3.274   4.968   5.625
 6954WAT     H228523   3.349   5.080   5.599
 6954WAT    EPW28524   3.305   5.037   5.647
 6955WAT      O28525   3.326   3.621   6.062
 6955WAT     H128526   3.403   3.658   6.044
 6955WAT     H228527   3.270   3.665   6.010
 6955WAT    EPW28528   3.329   3.633   6.052
 6956WAT      O28529   4.990   4.635   6.585
 6956WAT     H128530   4.915   4.640   6.542
 6956WAT     H228531   4.971   4.584   6.654
 6956WAT    EPW28532   4.976   4.628   6.589
 6957WAT      O28533   4.565   3.935   5.028
 6957WAT     H128534   4.570   3.972   4.949
 6957WAT     H228535   4.484   3.953   5.054
 6957WAT    EPW28536   4.554   3.943   5.020
 6958WAT      O28537   4.794   3.409   5.050
 6958WAT     H128538   4.804   3.329   5.015
 6958WAT     H228539   4.765   3.457   4.983
 6958WAT    EPW28540   4.791   3.404   5.035
 6959WAT      O28541   3.284   4.408   5.873
 6959WAT     H128542   3.228   4.473   5.854
 6959WAT     H228543   3.358   4.434   5.837
 6959WAT    EPW28544   3.286   4.422   5.865
 6960WAT      O28545   3.903   3.697   6.866
 6960WAT     H128546   3.859   3.718   6.938
 6960WAT     H228547   3.869   3.750   6.805
 6960WAT    EPW28548   3.891   3.708   6.867
 6961WAT      O28549   5.012   3.775   6.337
 6961WAT     H128550   5.075   3.714   6.331
 6961WAT     H228551   4.960   3.756   6.270
 6961WAT    EPW28552   5.014   3.763   6.326
 6962WAT      O28553   3.579   4.370   6.024
 6962WAT     H128554   3.651   4.385   6.071
 6962WAT     H228555   3.589   4.289   5.995
 6962WAT    EPW28556   3.591   4.361   6.027
 6963WAT      O28557   4.349   3.604   5.763
 6963WAT     H128558   4.392   3.572   5.832
 6963WAT     H228559   4.290   3.542   5.745
 6963WAT    EPW28560   4.347   3.590   5.771
 6964WAT      O28561   3.225   4.128   5.842
 6964WAT     H128562   3.255   4.095   5.767
 6964WAT     H228563   3.239   4.214   5.834
 6964WAT    EPW28564   3.232   4.136   5.830
 6965WAT      O28565   4.749   4.659   6.433
 6965WAT     H128566   4.712   4.738   6.439
 6965WAT     H228567   4.757   4.648   6.347
 6965WAT    EPW28568   4.744   4.669   6.421
 6966WAT      O28569   3.452   3.846   6.732
 6966WAT     H128570   3.414   3.782   6.777
 6966WAT     H228571   3.457   3.814   6.651
 6966WAT    EPW28572   3.447   3.832   6.727
 6967WAT      O28573   3.518   3.921   6.259
 6967WAT     H128574   3.543   3.869   6.193
 6967WAT     H228575   3.462   3.976   6.221
 6967WAT    EPW28576   3.514   3.921   6.243
 6968WAT      O28577   4.507   3.514   5.977
 6968WAT     H128578   4.468   3.550   6.046
 6968WAT     H228579   4.579   3.563   5.966
 6968WAT    EPW28580   4.512   3.527   5.985
 6969WAT      O28581   4.182   3.234   6.419
 6969WAT     H128582   4.096   3.218   6.413
 6969WAT     H228583   4.195   3.243   6.505
 6969WAT    EPW28584   4.171   3.233   6.431
 6970WAT      O28585   4.253   3.492   5.417
 6970WAT     H128586   4.237   3.577   5.420
 6970WAT     H228587   4.177   3.457   5.391
 6970WAT    EPW28588   4.239   3.499   5.413
 6971WAT      O28589   3.344   4.094   6.797
 6971WAT     H128590   3.342   4.139   6.723
 6971WAT     H228591   3.382   4.018   6.775
 6971WAT    EPW28592   3.349   4.089   6.783
 6972WAT      O28593   4.439   4.239   6.482
 6972WAT     H128594   4.487   4.309   6.502
 6972WAT     H228595   4.491   4.193   6.428
 6972WAT    EPW28596   4.454   4.242   6.477
 6973WAT      O28597   3.951   4.597   6.683
 6973WAT     H128598   3.978   4.597   6.766
 6973WAT     H228599   3.914   4.518   6.673
 6973WAT    EPW28600   3.949   4.585   6.694
 6974WAT      O28601   3.973   3.595   6.083
 6974WAT     H128602   4.033   3.659   6.087
 6974WAT     H228603   4.021   3.522   6.085
 6974WAT    EPW28604   3.989   3.594   6.084
 6975WAT      O28605   4.240   4.711   6.028
 6975WAT     H128606   4.212   4.675   5.954
 6975WAT     H228607   4.320   4.740   6.007
 6975WAT    EPW28608   4.248   4.710   6.014
 6976WAT      O28609   4.270   4.292   5.849
 6976WAT     H128610   4.238   4.221   5.811
 6976WAT     H228611   4.319   4.260   5.914
 6976WAT    EPW28612   4.272   4.277   5.853
 6977WAT      O28613   4.585   4.113   6.270
 6977WAT     H128614   4.598   4.061   6.201
 6977WAT     H228615   4.663   4.118   6.307
 6977WAT    EPW28616   4.598   4.106   6.265
 6978WAT      O28617   4.301   4.706   6.842
 6978WAT     H128618   4.333   4.732   6.919
 6978WAT     H228619   4.325   4.770   6.788
 6978WAT    EPW28620   4.309   4.719   6.846
 6979WAT      O28621   4.814   3.101   6.648
 6979WAT     H128622   4.742   3.089   6.600
 6979WAT     H228623   4.793   3.066   6.726
 6979WAT    EPW28624   4.800   3.094   6.652
 6980WAT      O28625   3.032   3.088   5.351
 6980WAT     H128626   3.088   3.042   5.303
 6980WAT     H228627   3.035   3.049   5.429
 6980WAT    EPW28628   3.041   3.076   5.355
 6981WAT      O28629   4.667   4.322   5.971
 6981WAT     H128630   4.665   4.287   5.891
 6981WAT     H228631   4.590   4.300   6.005
 6981WAT    EPW28632   4.655   4.314   5.965
 6982WAT      O28633   4.181   4.051   5.734
 6982WAT     H128634   4.142   4.008   5.668
 6982WAT     H228635   4.213   3.987   5.783
 6982WAT    EPW28636   4.180   4.035   5.731
 6983WAT      O28637   3.370   4.109   6.085
 6983WAT     H128638   3.448   4.105   6.048
 6983WAT     H228639   3.314   4.103   6.018
 6983WAT    EPW28640   3.373   4.108   6.070
 6984WAT      O28641   4.985   4.720   5.222
 6984WAT     H128642   5.050   4.688   5.174
 6984WAT     H228643   4.922   4.660   5.216
 6984WAT    EPW28644   4.985   4.706   5.214
 6985WAT      O28645   4.646   3.977   6.028
 6985WAT     H128646   4.690   3.903   6.043
 6985WAT     H228647   4.595   3.957   5.960
 6985WAT    EPW28648   4.645   3.963   6.020
 6986WAT      O28649   3.346   4.227   6.554
 6986WAT     H128650   3.317   4.176   6.489
 6986WAT     H228651   3.323   4.307   6.529
 6986WAT    EPW28652   3.338   4.231   6.541
 6987WAT      O28653   4.818   4.090   5.831
 6987WAT     H128654   4.778   4.062   5.903
 6987WAT     H228655   4.901   4.068   5.844
 6987WAT    EPW28656   4.824   4.083   5.844
 6988WAT      O28657   4.535   3.488   6.704
 6988WAT     H128658   4.465   3.483   6.755
 6988WAT     H228659   4.523   3.423   6.647
 6988WAT    EPW28660   4.523   3.478   6.703
 6989WAT      O28661   3.196   3.383   5.981
 6989WAT     H128662   3.151   3.407   5.910
 6989WAT     H228663   3.243   3.454   6.000
 6989WAT    EPW28664   3.196   3.397   5.974
 6990WAT      O28665   4.974   4.555   5.924
 6990WAT     H128666   4.993   4.615   5.864
 6990WAT     H228667   5.029   4.573   5.989
 6990WAT    EPW28668   4.985   4.566   5.925
 6991WAT      O28669   4.397   3.809   6.795
 6991WAT     H128670   4.449   3.820   6.864
 6991WAT     H228671   4.333   3.867   6.808
 6991WAT    EPW28672   4.395   3.819   6.807
 6992WAT      O28673   4.665   3.821   6.666
 6992WAT     H128674   4.671   3.907   6.652
 6992WAT     H228675   4.579   3.809   6.681
 6992WAT    EPW28676   4.653   3.832   6.666
 6993WAT      O28677   4.623   4.695   4.986
 6993WAT     H128678   4.623   4.698   4.899
 6993WAT     H228679   4.540   4.706   5.007
 6993WAT    EPW28680   4.611   4.697   4.976
 6994WAT      O28681   4.585   3.664   5.626
 6994WAT     H128682   4.508   3.642   5.660
 6994WAT     H228683   4.605   3.739   5.666
 6994WAT    EPW28684   4.576   3.672   5.637
 6995WAT      O28685   4.960   3.969   6.774
 6995WAT     H128686   4.970   3.904   6.717
 6995WAT     H228687   5.040   4.002   6.783
 6995WAT    EPW28688   4.973   3.964   6.767
 6996WAT      O28689   4.833   4.167   6.392
 6996WAT     H128690   4.907   4.120   6.387
 6996WAT     H228691   4.843   4.227   6.328
 6996WAT    EPW28692   4.846   4.169   6.382
 6997WAT      O28693   3.810   4.386   6.171
 6997WAT     H128694   3.815   4.439   6.239
 6997WAT     H228695   3.858   4.425   6.110
 6997WAT    EPW28696   3.818   4.399   6.172
 6998WAT      O28697   3.616   4.271   6.517
 6998WAT     H128698   3.535   4.247   6.538
 6998WAT     H228699   3.609   4.357   6.501
 6998WAT    EPW28700   3.603   4.280   6.518
 6999WAT      O28701   4.546   3.315   6.477
 6999WAT     H128702   4.611   3.371   6.460
 6999WAT     H228703   4.476   3.353   6.442
 6999WAT    EPW28704   4.546   3.329   6.469
 7000WAT      O28705   4.096   4.057   6.193
 7000WAT     H128706   4.115   4.132   6.153
 7000WAT     H228707   4.009   4.050   6.183
 7000WAT    EPW28708   4.086   4.067   6.186
 7001WAT      O28709   3.720   3.616   6.483
 7001WAT     H128710   3.720   3.534   6.513
 7001WAT     H228711   3.736   3.607   6.398
 7001WAT    EPW28712   3.722   3.603   6.475
 7002WAT      O28713   4.703   3.144   6.212
 7002WAT     H128714   4.690   3.191   6.139
 7002WAT     H228715   4.775   3.178   6.246
 7002WAT    EPW28716   4.712   3.156   6.206
 7003WAT      O28717   3.929   3.110   6.386
 7003WAT     H128718   3.914   3.140   6.305
 7003WAT     H228719   3.865   3.148   6.432
 7003WAT    EPW28720   3.917   3.120   6.381
 7004WAT      O28721   3.900   4.552   5.960
 7004WAT     H128722   3.871   4.630   5.935
 7004WAT     H228723   3.974   4.541   5.916
 7004WAT    EPW28724   3.906   4.562   5.950
 7005WAT      O28725   4.257   4.212   6.694
 7005WAT     H128726   4.328   4.224   6.644
 7005WAT     H228727   4.194   4.254   6.652
 7005WAT    EPW28728   4.258   4.220   6.681
 7006WAT      O28729   4.571   4.481   6.571
 7006WAT     H128730   4.606   4.495   6.649
 7006WAT     H228731   4.619   4.531   6.518
 7006WAT    EPW28732   4.583   4.491   6.574
 7007WAT      O28733   4.818   3.830   5.068
 7007WAT     H128734   4.856   3.886   5.012
 7007WAT     H228735   4.733   3.848   5.060
 7007WAT    EPW28736   4.811   3.841   5.058
 7008WAT      O28737   3.577   3.744   6.050
 7008WAT     H128738   3.618   3.756   5.974
 7008WAT     H228739   3.630   3.690   6.094
 7008WAT    EPW28740   3.591   3.738   6.045
 7009WAT      O28741   4.273   3.667   6.579
 7009WAT     H128742   4.204   3.720   6.586
 7009WAT     H228743   4.317   3.680   6.653
 7009WAT    EPW28744   4.269   3.677   6.591
 7010WAT      O28745   4.392   3.648   6.193
 7010WAT     H128746   4.461   3.684   6.233
 7010WAT     H228747   4.366   3.586   6.248
 7010WAT    EPW28748   4.399   3.644   6.207
 7011WAT      O28749   4.099   4.807   6.559
 7011WAT     H128750   4.106   4.803   6.473
 7011WAT     H228751   4.065   4.729   6.581
 7011WAT    EPW28752   4.095   4.795   6.550
 7012WAT      O28753   4.568   3.692   5.350
 7012WAT     H128754   4.560   3.681   5.436
 7012WAT     H228755   4.638   3.744   5.342
 7012WAT    EPW28756   4.577   3.698   5.362
 7013WAT      O28757   3.895   3.175   6.119
 7013WAT     H128758   3.819   3.215   6.134
 7013WAT     H228759   3.879   3.125   6.050
 7013WAT    EPW28760   3.881   3.174   6.111
 7014WAT      O28761   4.512   3.326   5.479
 7014WAT     H128762   4.507   3.251   5.522
 7014WAT     H228763   4.429   3.355   5.479
 7014WAT    EPW28764   4.499   3.319   5.485
 7015WAT      O28765   4.656   4.090   5.369
 7015WAT     H128766   4.708   4.020   5.370
 7015WAT     H228767   4.578   4.057   5.350
 7015WAT    EPW28768   4.653   4.075   5.366
 7016WAT      O28769   4.056   4.279   6.517
 7016WAT     H128770   3.983   4.290   6.564
 7016WAT     H228771   4.065   4.355   6.476
 7016WAT    EPW28772   4.046   4.292   6.518
 7017WAT      O28773   3.079   3.234   6.564
 7017WAT     H128774   3.090   3.319   6.550
 7017WAT     H228775   3.158   3.207   6.592
 7017WAT    EPW28776   3.092   3.242   6.566
 7018WAT      O28777   4.523   4.271   5.706
 7018WAT     H128778   4.452   4.308   5.740
 7018WAT     H228779   4.494   4.196   5.673
 7018WAT    EPW28780   4.508   4.265   5.706
 7019WAT      O28781   4.107   4.531   6.411
 7019WAT     H128782   4.163   4.539   6.476
 7019WAT     H228783   4.158   4.527   6.340
 7019WAT    EPW28784   4.123   4.531   6.410
 7020WAT      O28785   4.934   3.753   6.602
 7020WAT     H128786   4.847   3.759   6.610
 7020WAT     H228787   4.948   3.767   6.517
 7020WAT    EPW28788   4.923   3.756   6.591
 7021WAT      O28789   4.403   3.883   6.456
 7021WAT     H128790   4.370   3.809   6.490
 7021WAT     H228791   4.476   3.857   6.418
 7021WAT    EPW28792   4.409   3.868   6.455
 7022WAT      O28793   3.279   4.878   6.577
 7022WAT     H128794   3.229   4.807   6.574
 7022WAT     H228795   3.224   4.941   6.605
 7022WAT    EPW28796   3.263   4.877   6.581
 7023WAT      O28797   4.162   4.001   6.855
 7023WAT     H128798   4.192   4.072   6.816
 7023WAT     H228799   4.082   4.024   6.881
 7023WAT    EPW28800   4.155   4.015   6.853
 7024WAT      O28801   4.523   4.777   6.049
 7024WAT     H128802   4.569   4.848   6.068
 7024WAT     H228803   4.584   4.715   6.036
 7024WAT    EPW28804   4.539   4.778   6.050
 7025WAT      O28805   4.116   4.313   6.087
 7025WAT     H128806   4.144   4.313   6.004
 7025WAT     H228807   4.166   4.373   6.125
 7025WAT    EPW28808   4.128   4.322   6.080
 7026WAT      O28809   4.697   4.556   6.815
 7026WAT     H128810   4.780   4.528   6.818
 7026WAT     H228811   4.665   4.531   6.892
 7026WAT    EPW28812   4.705   4.548   6.827
 7027WAT      O28813   3.475   3.742   6.470
 7027WAT     H128814   3.489   3.802   6.409
 7027WAT     H228815   3.551   3.700   6.476
 7027WAT    EPW28816   3.488   3.745   6.462
 7028WAT      O28817   3.285   3.594   6.332
 7028WAT     H128818   3.302   3.603   6.247
 7028WAT     H228819   3.354   3.633   6.370
 7028WAT    EPW28820   3.298   3.601   6.325
 7029WAT      O28821   4.797   3.853   5.343
 7029WAT     H128822   4.814   3.853   5.258
 7029WAT     H228823   4.869   3.819   5.379
 7029WAT    EPW28824   4.810   3.848   5.336
 7030WAT      O28825   3.371   3.212   6.601
 7030WAT     H128826   3.457   3.221   6.612
 7030WAT     H228827   3.355   3.250   6.525
 7030WAT    EPW28828   3.381   3.219   6.592
 7031WAT      O28829   4.613   3.744   6.334
 7031WAT     H128830   4.666   3.741   6.265
 7031WAT     H228831   4.643   3.680   6.386
 7031WAT    EPW28832   4.626   3.734   6.331
 7032WAT      O28833   3.241   4.091   6.337
 7032WAT     H128834   3.269   4.093   6.254
 7032WAT     H228835   3.222   4.007   6.350
 7032WAT    EPW28836   3.242   4.079   6.327
 7033WAT      O28837   4.227   3.262   6.691
 7033WAT     H128838   4.250   3.328   6.744
 7033WAT     H228839   4.147   3.241   6.719
 7033WAT    EPW28840   4.219   3.269   6.703
 7034WAT      O28841   4.210   3.363   5.659
 7034WAT     H128842   4.145   3.310   5.637
 7034WAT     H228843   4.224   3.409   5.587
 7034WAT    EPW28844   4.202   3.362   5.645
 7035WAT      O28845   4.667   3.278   5.973
 7035WAT     H128846   4.750   3.305   5.973
 7035WAT     H228847   4.621   3.352   5.978
 7035WAT    EPW28848   4.673   3.293   5.974
 7036WAT      O28849   3.722   4.029   6.418
 7036WAT     H128850   3.692   4.105   6.448
 7036WAT     H228851   3.655   3.996   6.374
 7036WAT    EPW28852   3.708   4.036   6.416
 7037WAT      O28853   4.615   3.910   5.747
 7037WAT     H128854   4.682   3.967   5.744
 7037WAT     H228855   4.552   3.950   5.702
 7037WAT    EPW28856   4.616   3.924   5.740
 7038WAT      O28857   4.618   4.590   5.461
 7038WAT     H128858   4.531   4.592   5.454
 7038WAT     H228859   4.645   4.597   5.378
 7038WAT    EPW28860   4.609   4.591   5.448
 7039WAT      O28861   3.674   3.316   6.231
 7039WAT     H128862   3.597   3.296   6.196
 7039WAT     H228863   3.662   3.302   6.317
 7039WAT    EPW28864   3.661   3.311   6.239
 7040WAT      O28865   4.942   3.272   6.296
 7040WAT     H128866   4.944   3.326   6.365
 7040WAT     H228867   5.008   3.217   6.309
 7040WAT    EPW28868   4.952   3.272   6.308
 7041WAT      O28869   4.112   3.356   6.098
 7041WAT     H128870   4.051   3.294   6.099
 7041WAT     H228871   4.171   3.326   6.041
 7041WAT    EPW28872   4.112   3.342   6.090
 7042WAT      O28873   4.298   4.507   6.204
 7042WAT     H128874   4.355   4.550   6.254
 7042WAT     H228875   4.276   4.564   6.142
 7042WAT    EPW28876   4.303   4.522   6.202
 7043WAT      O28877   4.361   4.880   6.631
 7043WAT     H128878   4.291   4.840   6.597
 7043WAT     H228879   4.336   4.964   6.636
 7043WAT    EPW28880   4.347   4.887   6.627
 7044WAT      O28881   3.825   3.840   6.611
 7044WAT     H128882   3.797   3.767   6.572
 7044WAT     H228883   3.792   3.903   6.560
 7044WAT    EPW28884   3.816   3.839   6.597
 7045WAT      O28885   4.888   4.296   6.145
 7045WAT     H128886   4.937   4.236   6.105
 7045WAT     H228887   4.821   4.308   6.091
 7045WAT    EPW28888   4.886   4.289   6.131
 7046WAT      O28889   3.754   4.787   6.613
 7046WAT     H128890   3.725   4.783   6.695
 7046WAT     H228891   3.821   4.731   6.613
 7046WAT    EPW28892   3.760   4.778   6.625
 7047WAT      O28893   4.721   4.583   6.044
 7047WAT     H128894   4.800   4.589   6.007
 7047WAT     H228895   4.694   4.504   6.019
 7047WAT    EPW28896   4.729   4.572   6.035
 7048WAT      O28897   3.317   3.316   6.357
 7048WAT     H128898   3.343   3.282   6.281
 7048WAT     H228899   3.313   3.402   6.341
 7048WAT    EPW28900   3.321   3.324   6.343
 7049WAT      O28901   4.314   3.290   5.910
 7049WAT     H128902   4.371   3.355   5.926
 7049WAT     H228903   4.283   3.310   5.831
 7049WAT    EPW28904   4.318   3.303   5.901
 7050WAT      O28905   3.447   4.690   6.720
 7050WAT     H128906   3.512   4.724   6.768
 7050WAT     H228907   3.409   4.760   6.685
 7050WAT    EPW28908   3.451   4.705   6.722
 7051WAT      O28909   4.307   3.858   5.879
 7051WAT     H128910   4.316   3.785   5.831
 7051WAT     H228911   4.258   3.832   5.947
 7051WAT    EPW28912   4.301   3.843   5.882
 7052WAT      O28913   3.312   4.475   6.421
 7052WAT     H128914   3.254   4.528   6.458
 7052WAT     H228915   3.389   4.509   6.443
 7052WAT    EPW28916   3.314   4.488   6.430
 7053WAT      O28917   4.423   3.945   5.335
 7053WAT     H128918   4.442   3.860   5.324
 7053WAT     H228919   4.352   3.957   5.287
 7053WAT    EPW28920   4.415   3.934   5.326
 7054WAT      O28921   4.814   4.874   5.063
 7054WAT     H128922   4.877   4.832   5.106
 7054WAT     H228923   4.755   4.811   5.048
 7054WAT    EPW28924   4.814   4.859   5.067
 7055WAT      O28925   4.739   4.097   6.659
 7055WAT     H128926   4.814   4.070   6.694
 7055WAT     H228927   4.762   4.129   6.582
 7055WAT    EPW28928   4.753   4.098   6.653
 7056WAT      O28929   4.254   4.501   5.189
 7056WAT     H128930   4.168   4.491   5.193
 7056WAT     H228931   4.283   4.424   5.160
 7056WAT    EPW28932   4.246   4.488   5.186
 7057WAT      O28933   4.783   3.550   6.802
 7057WAT     H128934   4.782   3.634   6.826
 7057WAT     H228935   4.699   3.533   6.784
 7057WAT    EPW28936   4.770   3.560   6.803
 7058WAT      O28937   4.582   4.154   6.889
 7058WAT     H128938   4.646   4.184   6.940
 7058WAT     H228939   4.620   4.146   6.811
 7058WAT    EPW28940   4.597   4.157   6.885
 7059WAT      O28941   3.412   4.735   5.926
 7059WAT     H128942   3.458   4.681   5.874
 7059WAT     H228943   3.440   4.814   5.902
 7059WAT    EPW28944   3.423   4.739   5.914
 7060WAT      O28945   3.282   4.916   6.296
 7060WAT     H128946   3.282   4.899   6.382
 7060WAT     H228947   3.328   4.850   6.262
 7060WAT    EPW28948   3.288   4.904   6.304
 7061WAT      O28949   3.452   4.552   3.041
 7061WAT     H128950   3.496   4.597   2.981
 7061WAT     H228951   3.505   4.487   3.062
 7061WAT    EPW28952   3.466   4.549   3.036
 7062WAT      O28953   3.234   4.678   3.700
 7062WAT     H128954   3.319   4.681   3.719
 7062WAT     H228955   3.227   4.606   3.650
 7062WAT    EPW28956   3.245   4.668   3.695
 7063WAT      O28957   3.257   4.465   3.508
 7063WAT     H128958   3.254   4.383   3.479
 7063WAT     H228959   3.341   4.487   3.498
 7063WAT    EPW28960   3.269   4.456   3.502
 7064WAT      O28961   3.472   4.642   4.054
 7064WAT     H128962   3.527   4.582   4.086
 7064WAT     H228963   3.495   4.715   4.096
 7064WAT    EPW28964   3.484   4.644   4.065
 7065WAT      O28965   4.813   3.270   4.120
 7065WAT     H128966   4.759   3.235   4.061
 7065WAT     H228967   4.817   3.354   4.098
 7065WAT    EPW28968   4.806   3.277   4.108
 7066WAT      O28969   4.902   4.652   4.719
 7066WAT     H128970   4.816   4.666   4.707
 7066WAT     H228971   4.906   4.610   4.795
 7066WAT    EPW28972   4.890   4.648   4.729
 7067WAT      O28973   3.057   4.369   3.931
 7067WAT     H128974   3.098   4.445   3.946
 7067WAT     H228975   3.121   4.316   3.904
 7067WAT    EPW28976   3.073   4.372   3.929
 7068WAT      O28977   4.960   3.811   4.415
 7068WAT     H128978   4.996   3.771   4.346
 7068WAT     H228979   4.874   3.799   4.404
 7068WAT    EPW28980   4.953   3.803   4.403
 7069WAT      O28981   4.832   3.023   4.613
 7069WAT     H128982   4.833   3.054   4.531
 7069WAT     H228983   4.749   3.001   4.626
 7069WAT    EPW28984   4.820   3.025   4.603
 7070WAT      O28985   4.384   4.432   4.098
 7070WAT     H128986   4.353   4.439   4.016
 7070WAT     H228987   4.312   4.413   4.145
 7070WAT    EPW28988   4.369   4.430   4.093
 7071WAT      O28989   4.586   4.065   4.320
 7071WAT     H128990   4.506   4.064   4.286
 7071WAT     H228991   4.573   4.093   4.402
 7071WAT    EPW28992   4.573   4.069   4.327
 7072WAT      O28993   4.799   4.118   3.887
 7072WAT     H128994   4.728   4.067   3.894
 7072WAT     H228995   4.766   4.194   3.859
 7072WAT    EPW28996   4.784   4.122   3.884
 7073WAT      O28997   4.824   4.613   4.001
 7073WAT     H128998   4.779   4.621   3.927
 7073WAT     H228999   4.763   4.592   4.060
 7073WAT    EPW29000   4.809   4.611   3.999
 7074WAT      O29001   4.893   4.007   4.861
 7074WAT     H129002   4.862   3.953   4.799
 7074WAT     H229003   4.831   4.068   4.866
 7074WAT    EPW29004   4.879   4.008   4.852
 7075WAT      O29005   4.811   4.241   4.510
 7075WAT     H129006   4.737   4.213   4.547
 7075WAT     H229007   4.785   4.277   4.435
 7075WAT    EPW29008   4.796   4.242   4.504
 7076WAT      O29009   4.759   3.823   4.692
 7076WAT     H129010   4.702   3.884   4.718
 7076WAT     H229011   4.729   3.799   4.614
 7076WAT    EPW29012   4.746   3.829   4.684
 7077WAT      O29013   4.537   5.051   4.160
 7077WAT     H129014   4.463   5.093   4.178
 7077WAT     H229015   4.510   4.974   4.129
 7077WAT    EPW29016   4.522   5.046   4.158
 7078WAT      O29017   4.678   3.790   4.418
 7078WAT     H129018   4.616   3.729   4.409
 7078WAT     H229019   4.639   3.862   4.387
 7078WAT    EPW29020   4.663   3.792   4.412
 7079WAT      O29021   4.552   3.985   3.893
 7079WAT     H129022   4.522   4.014   3.816
 7079WAT     H229023   4.480   3.974   3.940
 7079WAT    EPW29024   4.537   3.988   3.888
 7080WAT      O29025   4.800   3.088   4.336
 7080WAT     H129026   4.721   3.070   4.367
 7080WAT     H229027   4.785   3.154   4.280
 7080WAT    EPW29028   4.786   3.095   4.332
 7081WAT      O29029   4.738   4.298   4.247
 7081WAT     H129030   4.679   4.234   4.259
 7081WAT     H229031   4.688   4.366   4.226
 7081WAT    EPW29032   4.722   4.298   4.246
 7082WAT      O29033   4.618   4.546   4.189
 7082WAT     H129034   4.545   4.517   4.152
 7082WAT     H229035   4.590   4.591   4.257
 7082WAT    EPW29036   4.603   4.548   4.193
 7083WAT      O29037   3.501   4.642   3.473
 7083WAT     H129038   3.509   4.672   3.555
 7083WAT     H229039   3.580   4.610   3.456
 7083WAT    EPW29040   3.514   4.642   3.483
 7084WAT      O29041   4.701   3.575   4.846
 7084WAT     H129042   4.704   3.661   4.834
 7084WAT     H229043   4.650   3.548   4.780
 7084WAT    EPW29044   4.694   3.584   4.834
 7085WAT      O29045   4.293   3.183   1.819
 7085WAT     H129046   4.273   3.250   1.767
 7085WAT     H229047   4.355   3.216   1.871
 7085WAT    EPW29048   4.299   3.198   1.819
 7086WAT      O29049   3.209   4.254   1.739
 7086WAT     H129050   3.192   4.262   1.825
 7086WAT     H229051   3.203   4.169   1.725
 7086WAT    EPW29052   3.206   4.243   1.750
 7087WAT      O29053   4.810   4.631   1.517
 7087WAT     H129054   4.870   4.575   1.547
 7087WAT     H229055   4.759   4.580   1.467
 7087WAT    EPW29056   4.812   4.615   1.514
 7088WAT      O29057   3.154   3.598   1.378
 7088WAT     H129058   3.089   3.646   1.345
 7088WAT     H229059   3.123   3.516   1.372
 7088WAT    EPW29060   3.140   3.593   1.373
 7089WAT      O29061   3.444   4.220   1.312
 7089WAT     H129062   3.420   4.175   1.241
 7089WAT     H229063   3.450   4.158   1.374
 7089WAT    EPW29064   3.441   4.204   1.311
 7090WAT      O29065   3.444   4.395   1.703
 7090WAT     H129066   3.500   4.358   1.758
 7090WAT     H229067   3.373   4.344   1.709
 7090WAT    EPW29068   3.442   4.382   1.712
 7091WAT      O29069   3.879   3.303   1.656
 7091WAT     H129070   3.870   3.362   1.592
 7091WAT     H229071   3.965   3.288   1.659
 7091WAT    EPW29072   3.890   3.309   1.647
 7092WAT      O29073   3.326   4.669   1.307
 7092WAT     H129074   3.373   4.677   1.233
 7092WAT     H229075   3.365   4.602   1.348
 7092WAT    EPW29076   3.339   4.660   1.302
 7093WAT      O29077   3.032   4.529   2.410
 7093WAT     H129078   3.107   4.531   2.455
 7093WAT     H229079   3.002   4.448   2.424
 7093WAT    EPW29080   3.039   4.517   2.419
 7094WAT      O29081   3.416   3.995   1.894
 7094WAT     H129082   3.361   3.989   1.826
 7094WAT     H229083   3.467   3.925   1.886
 7094WAT    EPW29084   3.415   3.984   1.883
 7095WAT      O29085   3.818   3.240   2.291
 7095WAT     H129086   3.903   3.257   2.300
 7095WAT     H229087   3.809   3.161   2.327
 7095WAT    EPW29088   3.829   3.231   2.298
 7096WAT      O29089   3.885   4.675   2.599
 7096WAT     H129090   3.909   4.701   2.519
 7096WAT     H229091   3.888   4.588   2.594
 7096WAT    EPW29092   3.889   4.666   2.586
 7097WAT      O29093   3.571   3.764   1.887
 7097WAT     H129094   3.629   3.703   1.908
 7097WAT     H229095   3.496   3.719   1.880
 7097WAT    EPW29096   3.568   3.748   1.889
 7098WAT      O29097   3.899   4.429   2.084
 7098WAT     H129098   3.930   4.347   2.087
 7098WAT     H229099   3.970   4.478   2.075
 7098WAT    EPW29100   3.914   4.424   2.083
 7099WAT      O29101   4.035   4.361   1.684
 7099WAT     H129102   4.050   4.285   1.725
 7099WAT     H229103   4.044   4.341   1.600
 7099WAT    EPW29104   4.038   4.347   1.678
 7100WAT      O29105   4.217   4.036   2.778
 7100WAT     H129106   4.223   3.950   2.771
 7100WAT     H229107   4.253   4.054   2.855
 7100WAT    EPW29108   4.223   4.026   2.788
 7101WAT      O29109   3.615   3.337   1.752
 7101WAT     H129110   3.568   3.386   1.698
 7101WAT     H229111   3.697   3.348   1.724
 7101WAT    EPW29112   3.620   3.346   1.740
 7102WAT      O29113   3.869   3.305   2.026
 7102WAT     H129114   3.850   3.281   2.108
 7102WAT     H229115   3.955   3.319   2.029
 7102WAT    EPW29116   3.879   3.304   2.039
 7103WAT      O29117   4.315   3.425   1.185
 7103WAT     H129118   4.277   3.500   1.209
 7103WAT     H229119   4.344   3.392   1.260
 7103WAT    EPW29120   4.314   3.431   1.199
 7104WAT      O29121   3.177   3.765   2.103
 7104WAT     H129122   3.189   3.850   2.116
 7104WAT     H229123   3.113   3.744   2.159
 7104WAT    EPW29124   3.169   3.774   2.113
 7105WAT      O29125   3.176   4.712   1.974
 7105WAT     H129126   3.114   4.762   1.940
 7105WAT     H229127   3.217   4.680   1.904
 7105WAT    EPW29128   3.173   4.714   1.959
 7106WAT      O29129   3.775   4.451   1.656
 7106WAT     H129130   3.748   4.472   1.737
 7106WAT     H229131   3.859   4.431   1.667
 7106WAT    EPW29132   3.783   4.451   1.670
 7107WAT      O29133   4.409   4.713   1.430
 7107WAT     H129134   4.469   4.776   1.429
 7107WAT     H229135   4.351   4.741   1.489
 7107WAT    EPW29136   4.409   4.726   1.439
 7108WAT      O29137   3.540   3.278   2.200
 7108WAT     H129138   3.485   3.282   2.267
 7108WAT     H229139   3.618   3.271   2.237
 7108WAT    EPW29140   3.543   3.278   2.215
 7109WAT      O29141   3.310   4.633   1.739
 7109WAT     H129142   3.363   4.564   1.745
 7109WAT     H229143   3.353   4.688   1.687
 7109WAT    EPW29144   3.324   4.631   1.732
 7110WAT      O29145   4.509   4.654   2.405
 7110WAT     H129146   4.516   4.741   2.408
 7110WAT     H229147   4.461   4.640   2.334
 7110WAT    EPW29148   4.503   4.665   2.395
 7111WAT      O29149   3.477   4.379   2.089
 7111WAT     H129150   3.524   4.350   2.021
 7111WAT     H229151   3.506   4.332   2.156
 7111WAT    EPW29152   3.488   4.367   2.089
 7112WAT      O29153   3.729   4.797   1.998
 7112WAT     H129154   3.811   4.810   1.973
 7112WAT     H229155   3.682   4.833   1.933
 7112WAT    EPW29156   3.734   4.804   1.985
 7113WAT      O29157   4.290   3.742   1.610
 7113WAT     H129158   4.247   3.671   1.582
 7113WAT     H229159   4.364   3.709   1.642
 7113WAT    EPW29160   4.295   3.726   1.611
 7114WAT      O29161   4.202   3.676   1.236
 7114WAT     H129162   4.262   3.719   1.190
 7114WAT     H229163   4.127   3.693   1.195
 7114WAT    EPW29164   4.200   3.685   1.223
 7115WAT      O29165   4.591   4.927   1.397
 7115WAT     H129166   4.640   4.909   1.326
 7115WAT     H229167   4.645   4.974   1.447
 7115WAT    EPW29168   4.606   4.931   1.394
 7116WAT      O29169   3.645   4.813   2.514
 7116WAT     H129170   3.702   4.760   2.554
 7116WAT     H229171   3.572   4.766   2.509
 7116WAT    EPW29172   3.643   4.798   2.519
 7117WAT      O29173   3.080   3.505   2.714
 7117WAT     H129174   3.111   3.560   2.774
 7117WAT     H229175   3.136   3.512   2.648
 7117WAT    EPW29176   3.093   3.514   2.713
 7118WAT      O29177   4.060   4.562   1.261
 7118WAT     H129178   4.030   4.627   1.310
 7118WAT     H229179   4.138   4.591   1.234
 7118WAT    EPW29180   4.067   4.576   1.264
 7119WAT      O29181   4.405   3.323   1.424
 7119WAT     H129182   4.343   3.300   1.479
 7119WAT     H229183   4.477   3.325   1.473
 7119WAT    EPW29184   4.407   3.320   1.439
 7120WAT      O29185   3.218   3.398   1.656
 7120WAT     H129186   3.199   3.314   1.640
 7120WAT     H229187   3.166   3.418   1.723
 7120WAT    EPW29188   3.208   3.388   1.663
 7121WAT      O29189   3.397   4.718   2.423
 7121WAT     H129190   3.355   4.654   2.465
 7121WAT     H229191   3.424   4.681   2.349
 7121WAT    EPW29192   3.395   4.703   2.418
 7122WAT      O29193   4.134   3.554   1.479
 7122WAT     H129194   4.047   3.545   1.474
 7122WAT     H229195   4.155   3.589   1.402
 7122WAT    EPW29196   4.124   3.558   1.467
 7123WAT      O29197   4.158   3.293   1.564
 7123WAT     H129198   4.117   3.254   1.497
 7123WAT     H229199   4.157   3.377   1.543
 7123WAT    EPW29200   4.152   3.299   1.551
 7124WAT      O29201   4.870   4.849   1.803
 7124WAT     H129202   4.834   4.927   1.816
 7124WAT     H229203   4.801   4.797   1.787
 7124WAT    EPW29204   4.854   4.853   1.803
 7125WAT      O29205   4.512   4.446   1.774
 7125WAT     H129206   4.547   4.379   1.817
 7125WAT     H229207   4.431   4.452   1.807
 7125WAT    EPW29208   4.505   4.437   1.785
 7126WAT      O29209   3.535   4.483   2.649
 7126WAT     H129210   3.539   4.408   2.694
 7126WAT     H229211   3.557   4.543   2.709
 7126WAT    EPW29212   3.539   4.481   2.665
 7127WAT      O29213   3.785   4.065   2.274
 7127WAT     H129214   3.783   4.028   2.353
 7127WAT     H229215   3.746   4.005   2.223
 7127WAT    EPW29216   3.779   4.050   2.278
 7128WAT      O29217   4.450   4.222   2.433
 7128WAT     H129218   4.477   4.167   2.495
 7128WAT     H229219   4.423   4.292   2.479
 7128WAT    EPW29220   4.450   4.224   2.449
 7129WAT      O29221   3.204   4.429   2.998
 7129WAT     H129222   3.282   4.466   3.013
 7129WAT     H229223   3.218   4.345   3.017
 7129WAT    EPW29224   3.217   4.422   3.003
 7130WAT      O29225   3.463   3.429   1.972
 7130WAT     H129226   3.492   3.379   1.907
 7130WAT     H229227   3.469   3.378   2.042
 7130WAT    EPW29228   3.468   3.414   1.973
 7131WAT      O29229   4.790   4.205   1.379
 7131WAT     H129230   4.786   4.171   1.459
 7131WAT     H229231   4.875   4.224   1.370
 7131WAT    EPW29232   4.802   4.203   1.390
 7132WAT      O29233   3.580   4.220   1.878
 7132WAT     H129234   3.628   4.200   1.808
 7132WAT     H229235   3.528   4.151   1.888
 7132WAT    EPW29236   3.579   4.207   1.869
 7133WAT      O29237   3.408   4.844   2.056
 7133WAT     H129238   3.328   4.814   2.038
 7133WAT     H229239   3.441   4.861   1.977
 7133WAT    EPW29240   3.401   4.842   2.042
 7134WAT      O29241   3.312   3.560   2.232
 7134WAT     H129242   3.398   3.574   2.232
 7134WAT     H229243   3.280   3.632   2.194
 7134WAT    EPW29244   3.320   3.573   2.227
 7135WAT      O29245   4.552   3.912   1.368
 7135WAT     H129246   4.562   3.989   1.328
 7135WAT     H229247   4.584   3.926   1.448
 7135WAT    EPW29248   4.558   3.925   1.374
 7136WAT      O29249   3.683   4.181   1.623
 7136WAT     H129250   3.713   4.262   1.613
 7136WAT     H229251   3.750   4.131   1.598
 7136WAT    EPW29252   3.697   4.186   1.617
 7137WAT      O29253   4.953   3.395   1.192
 7137WAT     H129254   4.907   3.321   1.185
 7137WAT     H229255   4.901   3.455   1.154
 7137WAT    EPW29256   4.938   3.393   1.185
 7138WAT      O29257   3.219   4.304   2.019
 7138WAT     H129258   3.164   4.363   2.052
 7138WAT     H229259   3.298   4.335   2.038
 7138WAT    EPW29260   3.222   4.317   2.027
 7139WAT      O29261   3.246   3.985   1.676
 7139WAT     H129262   3.223   3.902   1.662
 7139WAT     H229263   3.308   3.999   1.616
 7139WAT    EPW29264   3.252   3.975   1.665
 7140WAT      O29265   4.631   3.305   1.591
 7140WAT     H129266   4.717   3.293   1.588
 7140WAT     H229267   4.620   3.354   1.663
 7140WAT    EPW29268   4.642   3.311   1.601
 7141WAT      O29269   4.115   4.603   2.048
 7141WAT     H129270   4.084   4.680   2.018
 7141WAT     H229271   4.153   4.568   1.978
 7141WAT    EPW29272   4.116   4.609   2.033
 7142WAT      O29273   3.151   4.470   1.579
 7142WAT     H129274   3.201   4.526   1.623
 7142WAT     H229275   3.148   4.400   1.631
 7142WAT    EPW29276   3.158   4.468   1.593
 7143WAT      O29277   3.574   4.245   2.311
 7143WAT     H129278   3.605   4.307   2.364
 7143WAT     H229279   3.642   4.193   2.297
 7143WAT    EPW29280   3.588   4.247   2.316
 7144WAT      O29281   3.169   4.317   1.342
 7144WAT     H129282   3.248   4.281   1.337
 7144WAT     H229283   3.174   4.366   1.414
 7144WAT    EPW29284   3.181   4.319   1.352
 7145WAT      O29285   3.241   4.045   2.104
 7145WAT     H129286   3.299   4.020   2.044
 7145WAT     H229287   3.231   4.130   2.087
 7145WAT    EPW29288   3.248   4.054   2.092
 7146WAT      O29289   3.864   3.499   1.458
 7146WAT     H129290   3.849   3.478   1.375
 7146WAT     H229291   3.828   3.578   1.466
 7146WAT    EPW29292   3.857   3.508   1.447
 7147WAT      O29293   4.819   4.759   2.478
 7147WAT     H129294   4.772   4.783   2.548
 7147WAT     H229295   4.855   4.833   2.451
 7147WAT    EPW29296   4.817   4.774   2.484
 7148WAT      O29297   3.705   4.529   1.911
 7148WAT     H129298   3.706   4.612   1.939
 7148WAT     H229299   3.763   4.489   1.962
 7148WAT    EPW29300   3.714   4.536   1.922
 7149WAT      O29301   3.484   3.753   1.471
 7149WAT     H129302   3.471   3.684   1.523
 7149WAT     H229303   3.455   3.727   1.394
 7149WAT    EPW29304   3.478   3.739   1.468
 7150WAT      O29305   3.635   3.862   2.148
 7150WAT     H129306   3.618   3.857   2.063
 7150WAT     H229307   3.629   3.780   2.175
 7150WAT    EPW29308   3.632   3.849   2.139
 7151WAT      O29309   3.565   3.894   2.424
 7151WAT     H129310   3.580   3.879   2.339
 7151WAT     H229311   3.497   3.948   2.424
 7151WAT    EPW29312   3.557   3.900   2.412
 7152WAT      O29313   3.908   4.724   2.321
 7152WAT     H129314   3.869   4.646   2.312
 7152WAT     H229315   3.981   4.716   2.274
 7152WAT    EPW29316   3.913   4.711   2.312
 7153WAT      O29317   4.501   4.498   2.808
 7153WAT     H129318   4.458   4.500   2.884
 7153WAT     H229319   4.559   4.434   2.820
 7153WAT    EPW29320   4.503   4.489   2.821
 7154WAT      O29321   4.640   4.199   1.874
 7154WAT     H129322   4.680   4.156   1.939
 7154WAT     H229323   4.687   4.179   1.804
 7154WAT    EPW29324   4.653   4.189   1.873
 7155WAT      O29325   4.376   4.600   2.166
 7155WAT     H129326   4.292   4.594   2.142
 7155WAT     H229327   4.401   4.677   2.134
 7155WAT    EPW29328   4.367   4.611   2.158
 7156WAT      O29329   4.250   4.232   2.224
 7156WAT     H129330   4.212   4.297   2.268
 7156WAT     H229331   4.307   4.198   2.281
 7156WAT    EPW29332   4.253   4.236   2.239
 7157WAT      O29333   3.731   4.709   1.559
 7157WAT     H129334   3.750   4.634   1.599
 7157WAT     H229335   3.809   4.736   1.528
 7157WAT    EPW29336   3.746   4.702   1.560
 7158WAT      O29337   3.717   3.157   1.384
 7158WAT     H129338   3.703   3.129   1.465
 7158WAT     H229339   3.663   3.225   1.377
 7158WAT    EPW29340   3.707   3.163   1.395
 7159WAT      O29341   3.962   4.765   1.419
 7159WAT     H129342   4.021   4.768   1.483
 7159WAT     H229343   3.963   4.845   1.386
 7159WAT    EPW29344   3.971   4.777   1.424
 7160WAT      O29345   4.674   4.285   2.822
 7160WAT     H129346   4.616   4.229   2.789
 7160WAT     H229347   4.674   4.266   2.908
 7160WAT    EPW29348   4.666   4.274   2.830
 7161WAT      O29349   3.465   4.034   1.513
 7161WAT     H129350   3.485   3.949   1.504
 7161WAT     H229351   3.534   4.066   1.555
 7161WAT    EPW29352   3.478   4.026   1.518
 7162WAT      O29353   3.138   3.130   1.606
 7162WAT     H129354   3.155   3.077   1.539
 7162WAT     H229355   3.119   3.076   1.671
 7162WAT    EPW29356   3.138   3.115   1.606
 7163WAT      O29357   4.108   3.955   1.653
 7163WAT     H129358   4.110   4.006   1.724
 7163WAT     H229359   4.150   3.883   1.679
 7163WAT    EPW29360   4.114   3.952   1.667
 7164WAT      O29361   4.565   4.389   2.232
 7164WAT     H129362   4.498   4.436   2.201
 7164WAT     H229363   4.527   4.329   2.281
 7164WAT    EPW29364   4.550   4.387   2.234
 7165WAT      O29365   3.562   3.383   1.336
 7165WAT     H129366   3.501   3.375   1.275
 7165WAT     H229367   3.625   3.428   1.297
 7165WAT    EPW29368   3.562   3.389   1.321
 7166WAT      O29369   3.997   4.169   2.109
 7166WAT     H129370   3.941   4.130   2.163
 7166WAT     H229371   4.071   4.173   2.154
 7166WAT    EPW29372   3.999   4.164   2.123
 7167WAT      O29373   3.702   4.787   1.162
 7167WAT     H129374   3.724   4.712   1.200
 7167WAT     H229375   3.697   4.844   1.229
 7167WAT    EPW29376   3.704   4.785   1.178
 7168WAT      O29377   3.361   4.075   2.359
 7168WAT     H129378   3.423   4.136   2.346
 7168WAT     H229379   3.328   4.062   2.280
 7168WAT    EPW29380   3.365   4.082   2.345
 7169WAT      O29381   3.712   3.542   2.008
 7169WAT     H129382   3.769   3.476   2.007
 7169WAT     H229383   3.635   3.503   1.994
 7169WAT    EPW29384   3.709   3.527   2.006
 7170WAT      O29385   4.980   4.806   1.388
 7170WAT     H129386   5.051   4.759   1.369
 7170WAT     H229387   4.928   4.750   1.428
 7170WAT    EPW29388   4.983   4.791   1.391
 7171WAT      O29389   3.183   3.715   1.643
 7171WAT     H129390   3.221   3.679   1.712
 7171WAT     H229391   3.194   3.656   1.580
 7171WAT    EPW29392   3.190   3.701   1.644
 7172WAT      O29393   3.745   3.896   1.209
 7172WAT     H129394   3.731   3.850   1.282
 7172WAT     H229395   3.673   3.881   1.162
 7172WAT    EPW29396   3.732   3.887   1.212
 7173WAT      O29397   4.774   4.027   2.054
 7173WAT     H129398   4.739   3.958   2.095
 7173WAT     H229399   4.856   4.028   2.084
 7173WAT    EPW29400   4.781   4.017   2.065
 7174WAT      O29401   3.756   3.753   1.447
 7174WAT     H129402   3.787   3.824   1.489
 7174WAT     H229403   3.671   3.753   1.468
 7174WAT    EPW29404   3.748   3.764   1.456
 7175WAT      O29405   3.163   3.352   2.111
 7175WAT     H129406   3.136   3.384   2.035
 7175WAT     H229407   3.220   3.412   2.140
 7175WAT    EPW29408   3.168   3.366   2.104
 7176WAT      O29409   4.984   4.542   2.187
 7176WAT     H129410   4.992   4.592   2.116
 7176WAT     H229411   5.054   4.562   2.235
 7176WAT    EPW29412   4.995   4.552   2.184
 7177WAT      O29413   4.408   4.045   2.998
 7177WAT     H129414   4.389   3.986   3.059
 7177WAT     H229415   4.453   4.106   3.042
 7177WAT    EPW29416   4.412   4.046   3.014
 7178WAT      O29417   4.664   4.450   1.371
 7178WAT     H129418   4.699   4.370   1.376
 7178WAT     H229419   4.586   4.441   1.410
 7178WAT    EPW29420   4.658   4.437   1.378
 7179WAT      O29421   4.299   4.231   1.379
 7179WAT     H129422   4.341   4.297   1.419
 7179WAT     H229423   4.311   4.248   1.295
 7179WAT    EPW29424   4.307   4.243   1.373
 7180WAT      O29425   3.872   4.400   2.541
 7180WAT     H129426   3.819   4.360   2.597
 7180WAT     H229427   3.819   4.421   2.475
 7180WAT    EPW29428   3.856   4.397   2.539
 7181WAT      O29429   3.998   4.842   1.942
 7181WAT     H129430   3.995   4.929   1.951
 7181WAT     H229431   4.039   4.831   1.866
 7181WAT    EPW29432   4.004   4.853   1.932
 7182WAT      O29433   3.748   4.497   2.305
 7182WAT     H129434   3.679   4.538   2.271
 7182WAT     H229435   3.790   4.465   2.235
 7182WAT    EPW29436   3.744   4.498   2.290
 7183WAT      O29437   4.627   4.751   2.852
 7183WAT     H129438   4.631   4.761   2.938
 7183WAT     H229439   4.591   4.672   2.841
 7183WAT    EPW29440   4.622   4.741   2.863
 7184WAT      O29441   4.795   3.787   1.290
 7184WAT     H129442   4.846   3.846   1.250
 7184WAT     H229443   4.718   3.827   1.297
 7184WAT    EPW29444   4.791   3.801   1.285
 7185WAT      O29445   3.958   4.065   1.283
 7185WAT     H129446   3.886   4.035   1.245
 7185WAT     H229447   3.941   4.150   1.294
 7185WAT    EPW29448   3.945   4.073   1.279
 7186WAT      O29449   3.584   3.614   2.256
 7186WAT     H129450   3.641   3.565   2.212
 7186WAT     H229451   3.599   3.592   2.339
 7186WAT    EPW29452   3.595   3.604   2.262
 7187WAT      O29453   4.551   3.703   1.710
 7187WAT     H129454   4.565   3.625   1.747
 7187WAT     H229455   4.626   3.720   1.670
 7187WAT    EPW29456   4.564   3.694   1.710
 7188WAT      O29457   4.726   4.080   1.622
 7188WAT     H129458   4.768   4.004   1.626
 7188WAT     H229459   4.643   4.059   1.641
 7188WAT    EPW29460   4.720   4.066   1.625
 7189WAT      O29461   3.005   3.239   2.745
 7189WAT     H129462   3.033   3.321   2.748
 7189WAT     H229463   2.953   3.232   2.815
 7189WAT    EPW29464   3.001   3.250   2.756
 7190WAT      O29465   3.466   3.494   1.578
 7190WAT     H129466   3.485   3.455   1.502
 7190WAT     H229467   3.387   3.463   1.598
 7190WAT    EPW29468   3.457   3.483   1.570
 7191WAT      O29469   4.367   4.169   1.948
 7191WAT     H129470   4.348   4.191   2.031
 7191WAT     H229471   4.453   4.183   1.942
 7191WAT    EPW29472   4.377   4.175   1.960
 7192WAT      O29473   4.108   4.146   1.850
 7192WAT     H129474   4.062   4.146   1.924
 7192WAT     H229475   4.190   4.158   1.877
 7192WAT    EPW29476   4.113   4.148   1.865
 7193WAT      O29477   4.484   4.107   2.716
 7193WAT     H129478   4.397   4.108   2.712
 7193WAT     H229479   4.501   4.059   2.787
 7193WAT    EPW29480   4.474   4.100   2.726
 7194WAT      O29481   3.299   4.897   2.803
 7194WAT     H129482   3.266   4.817   2.812
 7194WAT     H229483   3.231   4.949   2.823
 7194WAT    EPW29484   3.284   4.893   2.807
 7195WAT      O29485   4.472   4.861   2.123
 7195WAT     H129486   4.414   4.925   2.129
 7195WAT     H229487   4.522   4.872   2.193
 7195WAT    EPW29488   4.471   4.872   2.134
 7196WAT      O29489   4.133   4.413   2.407
 7196WAT     H129490   4.062   4.405   2.456
 7196WAT     H229491   4.196   4.432   2.464
 7196WAT    EPW29492   4.131   4.415   2.422
 7197WAT      O29493   3.536   3.643   2.543
 7197WAT     H129494   3.546   3.725   2.517
 7197WAT     H229495   3.584   3.638   2.615
 7197WAT    EPW29496   3.544   3.654   2.550
 7198WAT      O29497   3.269   3.561   2.508
 7198WAT     H129498   3.268   3.560   2.421
 7198WAT     H229499   3.351   3.582   2.527
 7198WAT    EPW29500   3.281   3.564   2.498
 7199WAT      O29501   4.780   3.804   1.575
 7199WAT     H129502   4.792   3.789   1.490
 7199WAT     H229503   4.852   3.772   1.612
 7199WAT    EPW29504   4.792   3.797   1.568
 7200WAT      O29505   4.237   4.500   1.820
 7200WAT     H129506   4.235   4.576   1.779
 7200WAT     H229507   4.177   4.452   1.779
 7200WAT    EPW29508   4.228   4.504   1.808
 7201WAT      O29509   3.164   4.076   2.552
 7201WAT     H129510   3.232   4.084   2.498
 7201WAT     H229511   3.157   3.990   2.562
 7201WAT    EPW29512   3.173   4.065   2.545
 7202WAT      O29513   3.379   3.649   1.227
 7202WAT     H129514   3.304   3.640   1.271
 7202WAT     H229515   3.390   3.571   1.188
 7202WAT    EPW29516   3.370   3.636   1.228
 7203WAT      O29517   3.714   4.545   1.317
 7203WAT     H129518   3.759   4.578   1.384
 7203WAT     H229519   3.636   4.527   1.353
 7203WAT    EPW29520   3.709   4.547   1.333
 7204WAT      O29521   4.646   4.694   1.735
 7204WAT     H129522   4.606   4.619   1.755
 7204WAT     H229523   4.685   4.676   1.659
 7204WAT    EPW29524   4.646   4.680   1.727
 7205WAT      O29525   3.471   4.468   1.431
 7205WAT     H129526   3.472   4.449   1.517
 7205WAT     H229527   3.463   4.390   1.394
 7205WAT    EPW29528   3.470   4.454   1.438
 7206WAT      O29529   3.737   4.271   1.250
 7206WAT     H129530   3.654   4.248   1.266
 7206WAT     H229531   3.739   4.355   1.275
 7206WAT    EPW29532   3.725   4.280   1.256
 7207WAT      O29533   4.375   4.461   2.559
 7207WAT     H129534   4.408   4.463   2.639
 7207WAT     H229535   4.416   4.526   2.518
 7207WAT    EPW29536   4.386   4.471   2.564
 7208WAT      O29537   3.996   3.187   1.356
 7208WAT     H129538   4.007   3.167   1.272
 7208WAT     H229539   3.909   3.193   1.363
 7208WAT    EPW29540   3.984   3.185   1.344
 7209WAT      O29541   4.821   4.351   2.571
 7209WAT     H129542   4.785   4.348   2.650
 7209WAT     H229543   4.834   4.267   2.551
 7209WAT    EPW29544   4.818   4.338   2.580
 7210WAT      O29545   3.848   4.824   2.830
 7210WAT     H129546   3.909   4.815   2.891
 7210WAT     H229547   3.873   4.768   2.767
 7210WAT    EPW29548   3.861   4.814   2.829
 7211WAT      O29549   3.368   3.284   2.417
 7211WAT     H129550   3.323   3.214   2.444
 7211WAT     H229551   3.328   3.351   2.457
 7211WAT    EPW29552   3.355   3.283   2.427
 7212WAT      O29553   3.582   4.702   2.834
 7212WAT     H129554   3.662   4.735   2.845
 7212WAT     H229555   3.534   4.772   2.816
 7212WAT    EPW29556   3.587   4.717   2.833
 7213WAT      O29557   3.315   3.650   1.882
 7213WAT     H129558   3.265   3.680   1.947
 7213WAT     H229559   3.342   3.572   1.911
 7213WAT    EPW29560   3.312   3.643   1.896
 7214WAT      O29561   3.269   4.526   2.573
 7214WAT     H129562   3.240   4.563   2.647
 7214WAT     H229563   3.348   4.495   2.595
 7214WAT    EPW29564   3.277   4.527   2.587
 7215WAT      O29565   4.471   3.985   1.676
 7215WAT     H129566   4.484   3.903   1.703
 7215WAT     H229567   4.446   4.027   1.748
 7215WAT    EPW29568   4.469   3.979   1.690
 7216WAT      O29569   3.466   4.783   1.563
 7216WAT     H129570   3.435   4.777   1.483
 7216WAT     H229571   3.547   4.751   1.556
 7216WAT    EPW29572   3.474   4.777   1.550
 7217WAT      O29573   3.864   3.993   1.533
 7217WAT     H129574   3.895   4.020   1.455
 7217WAT     H229575   3.937   3.978   1.579
 7217WAT    EPW29576   3.880   3.995   1.528
 7218WAT      O29577   4.779   4.859   1.201
 7218WAT     H129578   4.846   4.854   1.256
 7218WAT     H229579   4.760   4.776   1.184
 7218WAT    EPW29580   4.786   4.846   1.206
 7219WAT      O29581   4.427   4.442   1.507
 7219WAT     H129582   4.450   4.442   1.591
 7219WAT     H229583   4.412   4.527   1.489
 7219WAT    EPW29584   4.428   4.455   1.516
 7220WAT      O29585   3.524   4.631   2.191
 7220WAT     H129586   3.505   4.556   2.150
 7220WAT     H229587   3.492   4.692   2.138
 7220WAT    EPW29588   3.517   4.629   2.177
 7221WAT      O29589   4.040   4.322   1.407
 7221WAT     H129590   4.121   4.292   1.395
 7221WAT     H229591   4.039   4.397   1.362
 7221WAT    EPW29592   4.052   4.329   1.398
 7222WAT      O29593   3.299   4.956   2.530
 7222WAT     H129594   3.305   4.930   2.614
 7222WAT     H229595   3.327   4.886   2.486
 7222WAT    EPW29596   3.304   4.941   2.536
 7223WAT      O29597   4.164   3.803   0.350
 7223WAT     H129598   4.148   3.886   0.371
 7223WAT     H229599   4.236   3.784   0.395
 7223WAT    EPW29600   4.172   3.812   0.360
 7224WAT      O29601   3.231   4.501   0.523
 7224WAT     H129602   3.256   4.490   0.606
 7224WAT     H229603   3.177   4.434   0.509
 7224WAT    EPW29604   3.227   4.489   0.533
 7225WAT      O29605   3.846   4.300   0.995
 7225WAT     H129606   3.816   4.285   1.076
 7225WAT     H229607   3.776   4.285   0.945
 7225WAT    EPW29608   3.831   4.296   1.000
 7226WAT      O29609   3.777   3.572   0.533
 7226WAT     H129610   3.854   3.576   0.493
 7226WAT     H229611   3.759   3.486   0.533
 7226WAT    EPW29612   3.786   3.560   0.527
 7227WAT      O29613   3.833   4.603   0.722
 7227WAT     H129614   3.853   4.657   0.657
 7227WAT     H229615   3.910   4.571   0.746
 7227WAT    EPW29616   3.847   4.606   0.716
 7228WAT      O29617   4.168   3.834   0.952
 7228WAT     H129618   4.092   3.842   0.911
 7228WAT     H229619   4.165   3.895   1.014
 7228WAT    EPW29620   4.156   3.844   0.955
 7229WAT      O29621   4.627   3.088   0.884
 7229WAT     H129622   4.615   3.159   0.835
 7229WAT     H229623   4.547   3.071   0.914
 7229WAT    EPW29624   4.613   3.096   0.881
 7230WAT      O29625   3.168   3.827   0.331
 7230WAT     H129626   3.124   3.902   0.339
 7230WAT     H229627   3.110   3.767   0.357
 7230WAT    EPW29628   3.153   3.830   0.336
 7231WAT      O29629   3.430   3.175   0.399
 7231WAT     H129630   3.427   3.227   0.330
 7231WAT     H229631   3.503   3.129   0.387
 7231WAT    EPW29632   3.441   3.176   0.387
 7232WAT      O29633   3.785   3.487   1.190
 7232WAT     H129634   3.773   3.447   1.113
 7232WAT     H229635   3.831   3.558   1.169
 7232WAT    EPW29636   3.790   3.492   1.175
 7233WAT      O29637   4.411   4.772   0.594
 7233WAT     H129638   4.473   4.815   0.638
 7233WAT     H229639   4.435   4.782   0.510
 7233WAT    EPW29640   4.424   4.780   0.588
 7234WAT      O29641   3.382   3.385   1.122
 7234WAT     H129642   3.300   3.355   1.116
 7234WAT     H229643   3.422   3.351   1.052
 7234WAT    EPW29644   3.376   3.375   1.111
 7235WAT      O29645   4.009   3.111   1.085
 7235WAT     H129646   4.055   3.040   1.064
 7235WAT     H229647   3.931   3.097   1.048
 7235WAT    EPW29648   4.004   3.099   1.076
 7236WAT      O29649   3.625   4.818   0.612
 7236WAT     H129650   3.642   4.822   0.697
 7236WAT     H229651   3.542   4.792   0.609
 7236WAT    EPW29652   3.615   4.815   0.624
 7237WAT      O29653   4.911   3.359   0.449
 7237WAT     H129654   4.974   3.332   0.395
 7237WAT     H229655   4.915   3.301   0.515
 7237WAT    EPW29656   4.921   3.346   0.451
 7238WAT      O29657   3.125   3.493   0.869
 7238WAT     H129658   3.110   3.570   0.906
 7238WAT     H229659   3.185   3.511   0.808
 7238WAT    EPW29660   3.132   3.507   0.865
 7239WAT      O29661   4.333   4.548   0.916
 7239WAT     H129662   4.309   4.574   0.995
 7239WAT     H229663   4.420   4.538   0.923
 7239WAT    EPW29664   4.342   4.550   0.928
 7240WAT      O29665   3.360   4.755   0.542
 7240WAT     H129666   3.324   4.677   0.526
 7240WAT     H229667   3.361   4.794   0.464
 7240WAT    EPW29668   3.355   4.749   0.528
 7241WAT      O29669   4.153   4.833   0.667
 7241WAT     H129670   4.232   4.808   0.639
 7241WAT     H229671   4.099   4.800   0.607
 7241WAT    EPW29672   4.157   4.825   0.654
 7242WAT      O29673   3.570   4.544   0.838
 7242WAT     H129674   3.644   4.578   0.807
 7242WAT     H229675   3.557   4.589   0.912
 7242WAT    EPW29676   3.579   4.556   0.844
 7243WAT      O29677   3.804   4.211   0.239
 7243WAT     H129678   3.814   4.176   0.318
 7243WAT     H229679   3.798   4.141   0.187
 7243WAT    EPW29680   3.805   4.195   0.243
 7244WAT      O29681   4.354   3.478   0.650
 7244WAT     H129682   4.347   3.530   0.719
 7244WAT     H229683   4.289   3.421   0.659
 7244WAT    EPW29684   4.344   3.477   0.661
 7245WAT      O29685   3.852   4.147   0.504
 7245WAT     H129686   3.835   4.231   0.522
 7245WAT     H229687   3.826   4.105   0.576
 7245WAT    EPW29688   3.846   4.153   0.518
 7246WAT      O29689   4.466   4.250   0.566
 7246WAT     H129690   4.392   4.208   0.585
 7246WAT     H229691   4.451   4.331   0.593
 7246WAT    EPW29692   4.453   4.256   0.573
 7247WAT      O29693   3.122   4.532   1.162
 7247WAT     H129694   3.182   4.579   1.205
 7247WAT     H229695   3.129   4.453   1.198
 7247WAT    EPW29696   3.132   4.527   1.174
 7248WAT      O29697   4.773   3.526   0.808
 7248WAT     H129698   4.858   3.507   0.803
 7248WAT     H229699   4.761   3.547   0.892
 7248WAT    EPW29700   4.783   3.527   0.819
 7249WAT      O29701   3.367   3.650   0.417
 7249WAT     H129702   3.446   3.681   0.396
 7249WAT     H229703   3.313   3.709   0.383
 7249WAT    EPW29704   3.371   3.663   0.409
 7250WAT      O29705   5.012   4.662   0.905
 7250WAT     H129706   4.933   4.671   0.868
 7250WAT     H229707   4.995   4.618   0.978
 7250WAT    EPW29708   4.998   4.657   0.910
 7251WAT      O29709   3.939   3.716   1.129
 7251WAT     H129710   3.883   3.774   1.161
 7251WAT     H229711   3.946   3.737   1.045
 7251WAT    EPW29712   3.932   3.728   1.121
 7252WAT      O29713   5.028   3.784   0.661
 7252WAT     H129714   5.090   3.722   0.656
 7252WAT     H229715   4.966   3.754   0.608
 7252WAT    EPW29716   5.028   3.770   0.652
 7253WAT      O29717   3.568   4.329   0.345
 7253WAT     H129718   3.610   4.361   0.415
 7253WAT     H229719   3.631   4.293   0.297
 7253WAT    EPW29720   3.583   4.328   0.348
 7254WAT      O29721   4.755   4.689   0.778
 7254WAT     H129722   4.701   4.757   0.786
 7254WAT     H229723   4.746   4.666   0.694
 7254WAT    EPW29724   4.746   4.696   0.767
 7255WAT      O29725   3.506   3.840   1.067
 7255WAT     H129726   3.462   3.779   1.112
 7255WAT     H229727   3.500   3.812   0.985
 7255WAT    EPW29728   3.499   3.827   1.062
 7256WAT      O29729   3.546   3.925   0.585
 7256WAT     H129730   3.574   3.874   0.520
 7256WAT     H229731   3.498   3.985   0.545
 7256WAT    EPW29732   3.543   3.926   0.570
 7257WAT      O29733   4.616   3.635   0.380
 7257WAT     H129734   4.549   3.669   0.423
 7257WAT     H229735   4.603   3.663   0.298
 7257WAT    EPW29736   4.604   3.644   0.374
 7258WAT      O29737   3.936   4.758   0.511
 7258WAT     H129738   3.929   4.703   0.444
 7258WAT     H229739   3.914   4.835   0.477
 7258WAT    EPW29740   3.932   4.761   0.496
 7259WAT      O29741   4.160   3.266   0.708
 7259WAT     H129742   4.173   3.180   0.701
 7259WAT     H229743   4.176   3.283   0.792
 7259WAT    EPW29744   4.164   3.256   0.719
 7260WAT      O29745   3.356   4.069   1.100
 7260WAT     H129746   3.355   4.112   1.024
 7260WAT     H229747   3.409   4.001   1.085
 7260WAT    EPW29748   3.364   4.066   1.087
 7261WAT      O29749   4.520   4.244   0.964
 7261WAT     H129750   4.555   4.322   0.948
 7261WAT     H229751   4.555   4.192   0.903
 7261WAT    EPW29752   4.530   4.248   0.952
 7262WAT      O29753   3.920   4.574   1.022
 7262WAT     H129754   3.957   4.569   1.101
 7262WAT     H229755   3.896   4.492   1.006
 7262WAT    EPW29756   3.922   4.561   1.031
 7263WAT      O29757   4.010   3.572   0.392
 7263WAT     H129758   4.063   3.639   0.374
 7263WAT     H229759   4.064   3.503   0.390
 7263WAT    EPW29760   4.026   3.572   0.389
 7264WAT      O29761   4.438   4.528   0.250
 7264WAT     H129762   4.375   4.531   0.190
 7264WAT     H229763   4.453   4.612   0.269
 7264WAT    EPW29764   4.431   4.541   0.244
 7265WAT      O29765   4.243   4.399   0.049
 7265WAT     H129766   4.187   4.372   0.111
 7265WAT     H229767   4.311   4.345   0.057
 7265WAT    EPW29768   4.245   4.387   0.059
 7266WAT      O29769   4.607   4.094   0.742
 7266WAT     H129770   4.570   4.152   0.689
 7266WAT     H229771   4.692   4.112   0.736
 7266WAT    EPW29772   4.614   4.105   0.733
 7267WAT      O29773   4.303   4.673   1.174
 7267WAT     H129774   4.341   4.684   1.251
 7267WAT     H229775   4.318   4.748   1.133
 7267WAT    EPW29776   4.311   4.685   1.179
 7268WAT      O29777   4.789   3.179   1.095
 7268WAT     H129778   4.732   3.155   1.032
 7268WAT     H229779   4.763   3.133   1.164
 7268WAT    EPW29780   4.776   3.169   1.096
 7269WAT      O29781   4.239   4.120   0.663
 7269WAT     H129782   4.195   4.151   0.732
 7269WAT     H229783   4.276   4.047   0.693
 7269WAT    EPW29784   4.238   4.114   0.678
 7270WAT      O29785   4.634   4.374   0.380
 7270WAT     H129786   4.580   4.419   0.328
 7270WAT     H229787   4.580   4.327   0.430
 7270WAT    EPW29788   4.618   4.374   0.380
 7271WAT      O29789   4.074   4.306   0.263
 7271WAT     H129790   3.990   4.290   0.245
 7271WAT     H229791   4.101   4.235   0.306
 7271WAT    EPW29792   4.066   4.293   0.266
 7272WAT      O29793   3.393   4.114   0.440
 7272WAT     H129794   3.437   4.186   0.418
 7272WAT     H229795   3.355   4.090   0.365
 7272WAT    EPW29796   3.394   4.121   0.426
 7273WAT      O29797   4.711   3.957   0.481
 7273WAT     H129798   4.714   3.894   0.542
 7273WAT     H229799   4.644   4.007   0.507
 7273WAT    EPW29800   4.701   3.955   0.494
 7274WAT      O29801   3.354   4.201   0.857
 7274WAT     H129802   3.317   4.151   0.796
 7274WAT     H229803   3.323   4.281   0.840
 7274WAT    EPW29804   3.344   4.206   0.846
 7275WAT      O29805   4.927   4.055   0.345
 7275WAT     H129806   4.861   4.021   0.390
 7275WAT     H229807   4.894   4.064   0.264
 7275WAT    EPW29808   4.913   4.051   0.339
 7276WAT      O29809   4.519   3.498   1.016
 7276WAT     H129810   4.459   3.467   1.072
 7276WAT     H229811   4.523   3.437   0.954
 7276WAT    EPW29812   4.511   3.484   1.015
 7277WAT      O29813   4.943   4.661   0.373
 7277WAT     H129814   4.976   4.661   0.292
 7277WAT     H229815   4.998   4.611   0.418
 7277WAT    EPW29816   4.956   4.654   0.367
 7278WAT      O29817   4.432   3.822   1.128
 7278WAT     H129818   4.471   3.837   1.205
 7278WAT     H229819   4.378   3.889   1.119
 7278WAT    EPW29820   4.430   3.834   1.138
 7279WAT      O29821   4.669   3.850   0.960
 7279WAT     H129822   4.691   3.933   0.972
 7279WAT     H229823   4.594   3.842   1.005
 7279WAT    EPW29824   4.661   3.861   0.968
 7280WAT      O29825   4.974   3.941   1.141
 7280WAT     H129826   4.982   3.885   1.074
 7280WAT     H229827   5.050   3.984   1.140
 7280WAT    EPW29828   4.986   3.939   1.131
 7281WAT      O29829   4.875   4.176   0.732
 7281WAT     H129830   4.946   4.128   0.715
 7281WAT     H229831   4.871   4.232   0.666
 7281WAT    EPW29832   4.885   4.177   0.720
 7282WAT      O29833   3.775   4.414   0.521
 7282WAT     H129834   3.785   4.465   0.592
 7282WAT     H229835   3.813   4.460   0.458
 7282WAT    EPW29836   3.782   4.429   0.522
 7283WAT      O29837   3.622   4.268   0.832
 7283WAT     H129838   3.541   4.237   0.843
 7283WAT     H229839   3.611   4.354   0.826
 7283WAT    EPW29840   3.609   4.276   0.833
 7284WAT      O29841   4.565   3.344   0.784
 7284WAT     H129842   4.634   3.397   0.774
 7284WAT     H229843   4.507   3.376   0.726
 7284WAT    EPW29844   4.567   3.357   0.774
 7285WAT      O29845   4.108   4.077   0.423
 7285WAT     H129846   4.155   4.090   0.496
 7285WAT     H229847   4.026   4.088   0.450
 7285WAT    EPW29848   4.103   4.080   0.438
 7286WAT      O29849   3.736   3.624   0.800
 7286WAT     H129850   3.736   3.547   0.841
 7286WAT     H229851   3.755   3.603   0.717
 7286WAT    EPW29852   3.739   3.609   0.794
 7287WAT      O29853   4.648   3.101   0.552
 7287WAT     H129854   4.629   3.183   0.528
 7287WAT     H229855   4.730   3.107   0.581
 7287WAT    EPW29856   4.658   3.114   0.553
 7288WAT      O29857   3.887   3.223   0.774
 7288WAT     H129858   3.972   3.228   0.754
 7288WAT     H229859   3.878   3.141   0.803
 7288WAT    EPW29860   3.898   3.211   0.776
 7289WAT      O29861   3.870   4.567   0.308
 7289WAT     H129862   3.799   4.574   0.258
 7289WAT     H229863   3.931   4.539   0.253
 7289WAT    EPW29864   3.868   4.564   0.293
 7290WAT      O29865   4.276   4.249   1.093
 7290WAT     H129866   4.353   4.253   1.052
 7290WAT     H229867   4.219   4.264   1.029
 7290WAT    EPW29868   4.279   4.252   1.077
 7291WAT      O29869   4.608   4.506   0.926
 7291WAT     H129870   4.644   4.531   1.001
 7291WAT     H229871   4.650   4.553   0.866
 7291WAT    EPW29872   4.619   4.517   0.928
 7292WAT      O29873   3.628   3.748   0.384
 7292WAT     H129874   3.669   3.751   0.307
 7292WAT     H229875   3.675   3.691   0.430
 7292WAT    EPW29876   3.641   3.740   0.379
 7293WAT      O29877   4.363   3.664   0.853
 7293WAT     H129878   4.299   3.707   0.895
 7293WAT     H229879   4.412   3.631   0.917
 7293WAT    EPW29880   4.360   3.666   0.869
 7294WAT      O29881   4.384   3.719   0.501
 7294WAT     H129882   4.395   3.776   0.566
 7294WAT     H229883   4.367   3.644   0.543
 7294WAT    EPW29884   4.383   3.716   0.517
 7295WAT      O29885   4.067   4.795   0.928
 7295WAT     H129886   4.086   4.787   0.843
 7295WAT     H229887   4.028   4.720   0.947
 7295WAT    EPW29888   4.064   4.783   0.918
 7296WAT      O29889   3.889   3.145   0.403
 7296WAT     H129890   3.841   3.200   0.450
 7296WAT     H229891   3.829   3.101   0.356
 7296WAT    EPW29892   3.873   3.146   0.403
 7297WAT      O29893   4.097   4.255   0.876
 7297WAT     H129894   4.018   4.252   0.913
 7297WAT     H229895   4.098   4.333   0.837
 7297WAT    EPW29896   4.086   4.266   0.876
 7298WAT      O29897   3.131   3.269   1.033
 7298WAT     H129898   3.130   3.340   0.984
 7298WAT     H229899   3.054   3.232   1.018
 7298WAT    EPW29900   3.120   3.274   1.024
 7299WAT      O29901   3.660   4.832   0.330
 7299WAT     H129902   3.658   4.818   0.416
 7299WAT     H229903   3.645   4.753   0.296
 7299WAT    EPW29904   3.658   4.818   0.338
 7300WAT      O29905   4.093   4.507   0.759
 7300WAT     H129906   4.166   4.533   0.798
 7300WAT     H229907   4.116   4.501   0.675
 7300WAT    EPW29908   4.107   4.510   0.752
 7301WAT      O29909   4.955   3.767   0.928
 7301WAT     H129910   4.868   3.767   0.933
 7301WAT     H229911   4.970   3.784   0.844
 7301WAT    EPW29912   4.944   3.769   0.916
 7302WAT      O29913   4.404   3.901   0.711
 7302WAT     H129914   4.401   3.835   0.768
 7302WAT     H229915   4.478   3.942   0.732
 7302WAT    EPW29916   4.414   3.897   0.723
 7303WAT      O29917   3.293   4.892   0.947
 7303WAT     H129918   3.239   4.824   0.938
 7303WAT     H229919   3.242   4.954   0.981
 7303WAT    EPW29920   3.277   4.891   0.951
 7304WAT      O29921   4.205   4.000   1.178
 7304WAT     H129922   4.231   4.078   1.149
 7304WAT     H229923   4.124   4.014   1.206
 7304WAT    EPW29924   4.197   4.013   1.178
 7305WAT      O29925   4.491   4.796   0.328
 7305WAT     H129926   4.451   4.873   0.314
 7305WAT     H229927   4.565   4.819   0.369
 7305WAT    EPW29928   4.496   4.811   0.332
 7306WAT      O29929   4.149   4.480   0.487
 7306WAT     H129930   4.132   4.429   0.418
 7306WAT     H229931   4.236   4.481   0.491
 7306WAT    EPW29932   4.159   4.473   0.477
 7307WAT      O29933   4.740   4.592   1.152
 7307WAT     H129934   4.824   4.567   1.153
 7307WAT     H229935   4.705   4.549   1.219
 7307WAT    EPW29936   4.747   4.582   1.162
 7308WAT      O29937   3.492   3.750   0.800
 7308WAT     H129938   3.500   3.811   0.738
 7308WAT     H229939   3.570   3.711   0.801
 7308WAT    EPW29940   3.505   3.753   0.791
 7309WAT      O29941   3.321   3.571   0.674
 7309WAT     H129942   3.336   3.591   0.590
 7309WAT     H229943   3.378   3.622   0.717
 7309WAT    EPW29944   3.332   3.582   0.668
 7310WAT      O29945   3.489   3.244   0.905
 7310WAT     H129946   3.439   3.173   0.916
 7310WAT     H229947   3.477   3.266   0.822
 7310WAT    EPW29948   3.480   3.236   0.895
 7311WAT      O29949   4.707   3.775   0.693
 7311WAT     H129950   4.724   3.691   0.709
 7311WAT     H229951   4.686   3.807   0.771
 7311WAT    EPW29952   4.706   3.767   0.707
 7312WAT      O29953   3.229   4.045   0.665
 7312WAT     H129954   3.269   4.064   0.589
 7312WAT     H229955   3.205   3.961   0.654
 7312WAT    EPW29956   3.231   4.035   0.652
 7313WAT      O29957   4.200   3.282   0.980
 7313WAT     H129958   4.231   3.332   1.045
 7313WAT     H229959   4.133   3.240   1.017
 7313WAT    EPW29960   4.195   3.283   0.995
 7314WAT      O29961   4.626   3.359   0.431
 7314WAT     H129962   4.713   3.353   0.424
 7314WAT     H229963   4.611   3.444   0.421
 7314WAT    EPW29964   4.637   3.371   0.429
 7315WAT      O29965   3.751   4.035   0.736
 7315WAT     H129966   3.715   4.107   0.770
 7315WAT     H229967   3.684   3.998   0.693
 7315WAT    EPW29968   3.736   4.040   0.735
 7316WAT      O29969   3.729   3.304   0.563
 7316WAT     H129970   3.645   3.301   0.586
 7316WAT     H229971   3.770   3.276   0.635
 7316WAT    EPW29972   3.722   3.300   0.577
 7317WAT      O29973   4.910   3.160   0.643
 7317WAT     H129974   4.926   3.183   0.726
 7317WAT     H229975   4.976   3.106   0.624
 7317WAT    EPW29976   4.922   3.156   0.653
 7318WAT      O29977   4.131   3.310   0.424
 7318WAT     H129978   4.065   3.258   0.400
 7318WAT     H229979   4.134   3.300   0.510
 7318WAT    EPW29980   4.122   3.301   0.433
 7319WAT      O29981   4.398   4.502   0.643
 7319WAT     H129982   4.379   4.508   0.728
 7319WAT     H229983   4.416   4.584   0.620
 7319WAT    EPW29984   4.398   4.515   0.652
 7320WAT      O29985   4.327   4.887   0.988
 7320WAT     H129986   4.252   4.849   0.962
 7320WAT     H229987   4.306   4.971   0.996
 7320WAT    EPW29988   4.312   4.894   0.985
 7321WAT      O29989   3.904   3.833   0.867
 7321WAT     H129990   3.854   3.767   0.842
 7321WAT     H229991   3.864   3.903   0.834
 7321WAT    EPW29992   3.891   3.834   0.858
 7322WAT      O29993   4.890   4.299   0.478
 7322WAT     H129994   4.906   4.226   0.435
 7322WAT     H229995   4.816   4.328   0.442
 7322WAT    EPW29996   4.881   4.293   0.466
 7323WAT      O29997   3.753   4.821   0.883
 7323WAT     H129998   3.746   4.813   0.969
 7323WAT     H229999   3.795   4.748   0.859
 7323WAT    EPW30000   3.758   4.809   0.892
 7324WAT      O30001   4.712   4.609   0.518
 7324WAT     H130002   4.778   4.636   0.468
 7324WAT     H230003   4.683   4.538   0.477
 7324WAT    EPW30004   4.717   4.603   0.504
 7325WAT      O30005   3.462   3.323   0.644
 7325WAT     H130006   3.426   3.274   0.582
 7325WAT     H230007   3.411   3.394   0.644
 7325WAT    EPW30008   3.449   3.326   0.635
 7326WAT      O30009   4.390   3.222   0.329
 7326WAT     H130010   4.450   3.277   0.360
 7326WAT     H230011   4.315   3.258   0.355
 7326WAT    EPW30012   4.388   3.236   0.337
 7327WAT      O30013   3.464   4.696   1.064
 7327WAT     H130014   3.538   4.731   1.094
 7327WAT     H230015   3.422   4.763   1.027
 7327WAT    EPW30016   3.469   4.711   1.063
 7328WAT      O30017   3.303   4.472   0.788
 7328WAT     H130018   3.253   4.531   0.827
 7328WAT     H230019   3.384   4.502   0.800
 7328WAT    EPW30020   3.308   4.485   0.796
 7329WAT      O30021   4.792   4.097   0.998
 7329WAT     H130022   4.858   4.064   1.045
 7329WAT     H230023   4.832   4.132   0.929
 7329WAT    EPW30024   4.808   4.098   0.995
 7330WAT      O30025   4.770   3.578   1.092
 7330WAT     H130026   4.767   3.648   1.143
 7330WAT     H230027   4.687   3.553   1.085
 7330WAT    EPW30028   4.757   3.585   1.098
 7331WAT      O30029   4.884   3.641   0.462
 7331WAT     H130030   4.799   3.648   0.443
 7331WAT     H230031   4.898   3.555   0.462
 7331WAT    EPW30032   4.874   3.629   0.459
 7332WAT      O30033   3.732   3.379   0.938
 7332WAT     H130034   3.789   3.332   0.893
 7332WAT     H230035   3.658   3.334   0.932
 7332WAT    EPW30036   3.730   3.366   0.931
 7333WAT      O30037   4.574   4.136   1.219
 7333WAT     H130038   4.649   4.166   1.250
 7333WAT     H230039   4.573   4.165   1.136
 7333WAT    EPW30040   4.585   4.144   1.211
 7334WAT      O30041   3.609   4.583   0.195
 7334WAT     H130042   3.571   4.512   0.230
 7334WAT     H230043   3.571   4.590   0.117
 7334WAT    EPW30044   3.597   4.573   0.189
 7335WAT      O30045   3.246   4.964   0.682
 7335WAT     H130046   3.263   4.938   0.764
 7335WAT     H230047   3.272   4.896   0.634
 7335WAT    EPW30048   3.253   4.950   0.687
 7336WAT      O30049   4.229   1.291   7.423
 7336WAT     H130050   4.215   1.338   7.350
 7336WAT     H230051   4.315   1.284   7.426
 7336WAT    EPW30052   4.239   1.297   7.412
 7337WAT      O30053   3.200   2.422   7.420
 7337WAT     H130054   3.186   2.424   7.506
 7337WAT     H230055   3.196   2.337   7.401
 7337WAT    EPW30056   3.197   2.410   7.430
 7338WAT      O30057   4.827   2.787   7.214
 7338WAT     H130058   4.891   2.731   7.235
 7338WAT     H230059   4.770   2.738   7.170
 7338WAT    EPW30060   4.828   2.772   7.211
 7339WAT      O30061   3.161   1.763   7.053
 7339WAT     H130062   3.096   1.811   7.019
 7339WAT     H230063   3.130   1.682   7.050
 7339WAT    EPW30064   3.146   1.758   7.048
 7340WAT      O30065   3.474   2.355   6.991
 7340WAT     H130066   3.443   2.313   6.921
 7340WAT     H230067   3.486   2.292   7.049
 7340WAT    EPW30068   3.471   2.340   6.989
 7341WAT      O30069   4.437   2.136   7.530
 7341WAT     H130070   4.449   2.121   7.445
 7341WAT     H230071   4.394   2.066   7.558
 7341WAT    EPW30072   4.433   2.124   7.522
 7342WAT      O30073   3.448   2.532   7.375
 7342WAT     H130074   3.504   2.496   7.432
 7342WAT     H230075   3.373   2.490   7.390
 7342WAT    EPW30076   3.445   2.521   7.386
 7343WAT      O30077   3.863   1.434   7.359
 7343WAT     H130078   3.876   1.492   7.295
 7343WAT     H230079   3.885   1.357   7.322
 7343WAT    EPW30080   3.868   1.431   7.344
 7344WAT      O30081   3.297   2.796   6.960
 7344WAT     H130082   3.351   2.807   6.892
 7344WAT     H230083   3.339   2.738   7.010
 7344WAT    EPW30084   3.311   2.789   6.957
 7345WAT      O30085   3.410   2.148   7.548
 7345WAT     H130086   3.357   2.155   7.479
 7345WAT     H230087   3.462   2.081   7.527
 7345WAT    EPW30088   3.410   2.139   7.534
 7346WAT      O30089   3.558   1.939   7.452
 7346WAT     H130090   3.608   1.911   7.518
 7346WAT     H230091   3.487   1.889   7.458
 7346WAT    EPW30092   3.555   1.927   7.463
 7347WAT      O30093   3.890   2.588   7.653
 7347WAT     H130094   3.922   2.508   7.669
 7347WAT     H230095   3.960   2.640   7.657
 7347WAT    EPW30096   3.905   2.584   7.656
 7348WAT      O30097   3.973   2.503   7.315
 7348WAT     H130098   4.019   2.440   7.355
 7348WAT     H230099   3.995   2.494   7.231
 7348WAT    EPW30100   3.983   2.492   7.309
 7349WAT      O30101   3.601   1.489   7.443
 7349WAT     H130102   3.565   1.538   7.381
 7349WAT     H230103   3.684   1.478   7.416
 7349WAT    EPW30104   3.608   1.495   7.430
 7350WAT      O30105   3.962   1.467   7.618
 7350WAT     H130106   3.937   1.547   7.641
 7350WAT     H230107   3.932   1.458   7.537
 7350WAT    EPW30108   3.954   1.477   7.609
 7351WAT      O30109   4.365   1.617   6.850
 7351WAT     H130110   4.317   1.680   6.885
 7351WAT     H230111   4.382   1.564   6.917
 7351WAT    EPW30112   4.361   1.618   6.865
 7352WAT      O30113   3.195   1.915   7.745
 7352WAT     H130114   3.197   2.001   7.760
 7352WAT     H230115   3.192   1.880   7.825
 7352WAT    EPW30116   3.195   1.922   7.759
 7353WAT      O30117   3.173   2.872   7.594
 7353WAT     H130118   3.111   2.920   7.557
 7353WAT     H230119   3.218   2.841   7.527
 7353WAT    EPW30120   3.171   2.875   7.579
 7354WAT      O30121   3.784   2.710   7.301
 7354WAT     H130122   3.738   2.707   7.375
 7354WAT     H230123   3.845   2.649   7.312
 7354WAT    EPW30124   3.787   2.701   7.314
 7355WAT      O30125   4.391   2.892   7.094
 7355WAT     H130126   4.460   2.944   7.103
 7355WAT     H230127   4.417   2.817   7.130
 7355WAT    EPW30128   4.405   2.888   7.101
 7356WAT      O30129   4.171   2.909   7.258
 7356WAT     H130130   4.186   2.976   7.312
 7356WAT     H230131   4.239   2.911   7.204
 7356WAT    EPW30132   4.183   2.919   7.258
 7357WAT      O30133   3.329   2.783   7.381
 7357WAT     H130134   3.379   2.714   7.395
 7357WAT     H230135   3.384   2.843   7.348
 7357WAT    EPW30136   3.344   2.782   7.378
 7358WAT      O30137   4.920   1.601   7.539
 7358WAT     H130138   4.875   1.673   7.559
 7358WAT     H230139   4.858   1.542   7.521
 7358WAT    EPW30140   4.904   1.603   7.539
 7359WAT      O30141   3.483   2.586   7.718
 7359WAT     H130142   3.527   2.643   7.669
 7359WAT     H230143   3.520   2.509   7.697
 7359WAT    EPW30144   3.495   2.583   7.707
 7360WAT      O30145   3.784   2.962   7.552
 7360WAT     H130146   3.859   2.992   7.585
 7360WAT     H230147   3.725   3.023   7.575
 7360WAT    EPW30148   3.786   2.976   7.560
 7361WAT      O30149   4.102   1.854   7.472
 7361WAT     H130150   4.124   1.799   7.407
 7361WAT     H230151   4.176   1.861   7.519
 7361WAT    EPW30152   4.116   1.847   7.469
 7362WAT      O30153   4.194   1.799   6.986
 7362WAT     H130154   4.218   1.879   7.012
 7362WAT     H230155   4.117   1.812   6.946
 7362WAT    EPW30156   4.186   1.812   6.984
 7363WAT      O30157   4.596   3.085   7.089
 7363WAT     H130158   4.641   3.058   7.020
 7363WAT     H230159   4.653   3.135   7.132
 7363WAT    EPW30160   4.611   3.089   7.085
 7364WAT      O30161   4.038   2.728   6.896
 7364WAT     H130162   4.003   2.784   6.953
 7364WAT     H230163   4.118   2.761   6.882
 7364WAT    EPW30164   4.044   2.741   6.902
 7365WAT      O30165   4.404   1.444   7.064
 7365WAT     H130166   4.461   1.378   7.066
 7365WAT     H230167   4.425   1.491   7.134
 7365WAT    EPW30168   4.415   1.441   7.074
 7366WAT      O30169   3.216   1.555   7.321
 7366WAT     H130170   3.195   1.471   7.313
 7366WAT     H230171   3.165   1.582   7.387
 7366WAT    EPW30172   3.205   1.546   7.330
 7367WAT      O30173   4.176   1.698   7.249
 7367WAT     H130174   4.137   1.621   7.238
 7367WAT     H230175   4.177   1.732   7.169
 7367WAT    EPW30176   4.170   1.692   7.236
 7368WAT      O30177   4.155   1.415   7.187
 7368WAT     H130178   4.091   1.391   7.134
 7368WAT     H230179   4.225   1.418   7.135
 7368WAT    EPW30180   4.156   1.412   7.172
 7369WAT      O30181   4.872   3.019   7.504
 7369WAT     H130182   4.830   3.095   7.502
 7369WAT     H230183   4.810   2.960   7.485
 7369WAT    EPW30184   4.856   3.021   7.501
 7370WAT      O30185   3.931   1.742   7.663
 7370WAT     H130186   3.977   1.776   7.597
 7370WAT     H230187   3.973   1.770   7.734
 7370WAT    EPW30188   3.944   1.751   7.663
 7371WAT      O30189   4.598   2.591   7.502
 7371WAT     H130190   4.662   2.532   7.497
 7371WAT     H230191   4.526   2.542   7.502
 7371WAT    EPW30192   4.597   2.575   7.502
 7372WAT      O30193   3.554   1.222   7.510
 7372WAT     H130194   3.563   1.308   7.498
 7372WAT     H230195   3.528   1.194   7.432
 7372WAT    EPW30196   3.552   1.231   7.496
 7373WAT      O30197   4.496   1.254   7.474
 7373WAT     H130198   4.501   1.240   7.559
 7373WAT     H230199   4.534   1.184   7.439
 7373WAT    EPW30200   4.502   1.242   7.481
 7374WAT      O30201   3.494   1.625   7.660
 7374WAT     H130202   3.530   1.575   7.598
 7374WAT     H230203   3.423   1.579   7.685
 7374WAT    EPW30204   3.489   1.611   7.655
 7375WAT      O30205   4.788   2.380   7.074
 7375WAT     H130206   4.783   2.323   7.140
 7375WAT     H230207   4.873   2.387   7.058
 7375WAT    EPW30208   4.800   2.373   7.082
 7376WAT      O30209   3.578   2.364   7.578
 7376WAT     H130210   3.641   2.351   7.519
 7376WAT     H230211   3.526   2.295   7.568
 7376WAT    EPW30212   3.580   2.352   7.567
 7377WAT      O30213   3.371   2.996   7.745
 7377WAT     H130214   3.307   2.961   7.696
 7377WAT     H230215   3.426   3.029   7.686
 7377WAT    EPW30216   3.370   2.995   7.729
 7378WAT      O30217   4.585   2.056   6.991
 7378WAT     H130218   4.576   2.139   6.966
 7378WAT     H230219   4.553   2.055   7.073
 7378WAT    EPW30220   4.579   2.068   7.000
 7379WAT      O30221   3.749   2.335   7.364
 7379WAT     H130222   3.808   2.397   7.347
 7379WAT     H230223   3.778   2.266   7.318
 7379WAT    EPW30224   3.762   2.334   7.355
 7380WAT      O30225   4.918   1.519   6.962
 7380WAT     H130226   4.957   1.464   6.907
 7380WAT     H230227   4.878   1.576   6.908
 7380WAT    EPW30228   4.918   1.520   6.946
 7381WAT      O30229   3.226   2.474   7.701
 7381WAT     H130230   3.177   2.537   7.735
 7381WAT     H230231   3.306   2.508   7.701
 7381WAT    EPW30232   3.231   2.488   7.706
 7382WAT      O30233   3.253   2.162   7.323
 7382WAT     H130234   3.226   2.080   7.315
 7382WAT     H230235   3.323   2.166   7.271
 7382WAT    EPW30236   3.260   2.150   7.314
 7383WAT      O30237   4.795   1.413   7.190
 7383WAT     H130238   4.866   1.371   7.218
 7383WAT     H230239   4.822   1.456   7.119
 7383WAT    EPW30240   4.809   1.413   7.184
 7384WAT      O30241   4.124   2.744   7.654
 7384WAT     H130242   4.105   2.829   7.655
 7384WAT     H230243   4.148   2.730   7.572
 7384WAT    EPW30244   4.125   2.755   7.642
 7385WAT      O30245   3.149   2.623   7.237
 7385WAT     H130246   3.207   2.678   7.270
 7385WAT     H230247   3.147   2.558   7.296
 7385WAT    EPW30248   3.157   2.621   7.251
 7386WAT      O30249   4.452   1.663   7.687
 7386WAT     H130250   4.474   1.612   7.754
 7386WAT     H230251   4.389   1.617   7.646
 7386WAT    EPW30252   4.446   1.649   7.691
 7387WAT      O30253   3.165   2.458   7.007
 7387WAT     H130254   3.241   2.415   7.005
 7387WAT     H230255   3.174   2.512   7.075
 7387WAT    EPW30256   3.178   2.460   7.017
 7388WAT      O30257   3.222   2.199   7.743
 7388WAT     H130258   3.284   2.176   7.686
 7388WAT     H230259   3.228   2.286   7.747
 7388WAT    EPW30260   3.232   2.208   7.735
 7389WAT      O30261   3.891   1.607   7.148
 7389WAT     H130262   3.877   1.585   7.065
 7389WAT     H230263   3.869   1.691   7.151
 7389WAT    EPW30264   3.886   1.616   7.136
 7390WAT      O30265   3.667   2.714   7.554
 7390WAT     H130266   3.696   2.795   7.561
 7390WAT     H230267   3.731   2.665   7.588
 7390WAT    EPW30268   3.681   2.719   7.560
 7391WAT      O30269   3.516   1.880   7.103
 7391WAT     H130270   3.498   1.822   7.167
 7391WAT     H230271   3.477   1.846   7.033
 7391WAT    EPW30272   3.508   1.866   7.102
 7392WAT      O30273   3.707   2.069   7.853
 7392WAT     H130274   3.655   2.126   7.812
 7392WAT     H230275   3.694   1.995   7.809
 7392WAT    EPW30276   3.697   2.067   7.841
 7393WAT      O30277   4.432   1.595   7.291
 7393WAT     H130278   4.487   1.662   7.303
 7393WAT     H230279   4.353   1.633   7.289
 7393WAT    EPW30280   4.429   1.610   7.293
 7394WAT      O30281   4.260   2.045   7.098
 7394WAT     H130282   4.235   2.100   7.034
 7394WAT     H230283   4.199   2.059   7.160
 7394WAT    EPW30284   4.247   2.055   7.098
 7395WAT      O30285   4.791   2.385   7.486
 7395WAT     H130286   4.796   2.339   7.560
 7395WAT     H230287   4.767   2.325   7.426
 7395WAT    EPW30288   4.788   2.369   7.488
 7396WAT      O30289   4.251   2.519   7.771
 7396WAT     H130290   4.219   2.594   7.740
 7396WAT     H230291   4.296   2.545   7.842
 7396WAT    EPW30292   4.253   2.534   7.777
 7397WAT      O30293   3.783   3.022   7.283
 7397WAT     H130294   3.791   2.988   7.363
 7397WAT     H230295   3.831   2.968   7.233
 7397WAT    EPW30296   3.792   3.009   7.288
 7398WAT      O30297   3.666   1.282   7.075
 7398WAT     H130298   3.616   1.247   7.138
 7398WAT     H230299   3.627   1.358   7.059
 7398WAT    EPW30300   3.653   1.288   7.082
 7399WAT      O30301   3.954   2.908   7.090
 7399WAT     H130302   4.022   2.904   7.145
 7399WAT     H230303   3.958   2.989   7.058
 7399WAT    EPW30304   3.965   2.920   7.094
 7400WAT      O30305   3.496   2.151   7.185
 7400WAT     H130306   3.497   2.066   7.164
 7400WAT     H230307   3.563   2.159   7.240
 7400WAT    EPW30308   3.506   2.140   7.190
 7401WAT      O30309   3.121   1.288   7.296
 7401WAT     H130310   3.120   1.232   7.229
 7401WAT     H230311   3.086   1.242   7.361
 7401WAT    EPW30312   3.116   1.273   7.296
 7402WAT      O30313   4.092   2.083   7.314
 7402WAT     H130314   4.107   2.152   7.365
 7402WAT     H230315   4.091   2.016   7.370
 7402WAT    EPW30316   4.094   2.083   7.330
 7403WAT      O30317   3.557   1.525   7.007
 7403WAT     H130318   3.499   1.515   6.943
 7403WAT     H230319   3.626   1.559   6.967
 7403WAT    EPW30320   3.558   1.528   6.992
 7404WAT      O30321   4.032   2.352   7.716
 7404WAT     H130322   4.000   2.304   7.781
 7404WAT     H230323   4.099   2.394   7.752
 7404WAT    EPW30324   4.037   2.351   7.731
 7405WAT      O30325   3.676   2.933   6.876
 7405WAT     H130326   3.696   2.866   6.929
 7405WAT     H230327   3.676   3.002   6.930
 7405WAT    EPW30328   3.679   2.933   6.892
 7406WAT      O30329   3.672   1.841   7.688
 7406WAT     H130330   3.750   1.804   7.676
 7406WAT     H230331   3.618   1.774   7.694
 7406WAT    EPW30332   3.676   1.826   7.687
 7407WAT      O30333   4.987   2.958   7.073
 7407WAT     H130334   5.054   2.909   7.046
 7407WAT     H230335   4.936   2.902   7.117
 7407WAT    EPW30336   4.989   2.943   7.076
 7408WAT      O30337   3.190   1.892   7.302
 7408WAT     H130338   3.228   1.849   7.368
 7408WAT     H230339   3.198   1.837   7.235
 7408WAT    EPW30340   3.197   1.877   7.302
 7409WAT      O30341   3.683   2.048   6.897
 7409WAT     H130342   3.649   2.005   6.966
 7409WAT     H230343   3.629   2.028   6.832
 7409WAT    EPW30344   3.670   2.038   6.898
 7410WAT      O30345   4.824   2.251   7.726
 7410WAT     H130346   4.820   2.313   7.788
 7410WAT     H230347   4.909   2.227   7.727
 7410WAT    EPW30348   4.836   2.256   7.736
 7411WAT      O30349   3.794   1.868   7.128
 7411WAT     H130350   3.810   1.946   7.164
 7411WAT     H230351   3.707   1.861   7.132
 7411WAT    EPW30352   3.783   1.879   7.134
 7412WAT      O30353   3.245   1.505   7.696
 7412WAT     H130354   3.178   1.540   7.652
 7412WAT     H230355   3.228   1.420   7.694
 7412WAT    EPW30356   3.232   1.498   7.689
 7413WAT      O30357   5.052   2.722   7.881
 7413WAT     H130358   5.051   2.768   7.807
 7413WAT     H230359   5.130   2.742   7.917
 7413WAT    EPW30360   5.064   2.732   7.876
 7414WAT      O30361   4.653   2.622   7.087
 7414WAT     H130362   4.688   2.542   7.091
 7414WAT     H230363   4.578   2.614   7.131
 7414WAT    EPW30364   4.647   2.609   7.094
 7415WAT      O30365   4.692   1.778   7.590
 7415WAT     H130366   4.624   1.735   7.623
 7415WAT     H230367   4.687   1.857   7.627
 7415WAT    EPW30368   4.681   1.783   7.600
 7416WAT      O30369   4.326   2.462   6.992
 7416WAT     H130370   4.398   2.413   6.986
 7416WAT     H230371   4.297   2.466   6.910
 7416WAT    EPW30372   4.333   2.455   6.979
 7417WAT      O30373   4.045   3.042   7.625
 7417WAT     H130374   4.025   3.121   7.657
 7417WAT     H230375   4.103   3.060   7.561
 7417WAT    EPW30376   4.051   3.056   7.620
 7418WAT      O30377   4.836   1.944   6.954
 7418WAT     H130378   4.886   2.000   6.910
 7418WAT     H230379   4.757   1.982   6.955
 7418WAT    EPW30380   4.832   1.958   6.948
 7419WAT      O30381   3.892   2.221   6.954
 7419WAT     H130382   3.829   2.170   6.921
 7419WAT     H230383   3.859   2.301   6.946
 7419WAT    EPW30384   3.878   2.225   6.948
 7420WAT      O30385   4.592   1.822   7.336
 7420WAT     H130386   4.620   1.805   7.417
 7420WAT     H230387   4.665   1.847   7.295
 7420WAT    EPW30388   4.607   1.823   7.342
 7421WAT      O30389   4.720   1.422   7.458
 7421WAT     H130390   4.640   1.390   7.464
 7421WAT     H230391   4.730   1.436   7.372
 7421WAT    EPW30392   4.710   1.419   7.446
 7422WAT      O30393   4.730   2.203   7.285
 7422WAT     H130394   4.771   2.127   7.276
 7422WAT     H230395   4.646   2.182   7.278
 7422WAT    EPW30396   4.724   2.189   7.282
 7423WAT      O30397   3.471   1.642   7.249
 7423WAT     H130398   3.489   1.600   7.175
 7423WAT     H230399   3.390   1.617   7.268
 7423WAT    EPW30400   3.462   1.632   7.241
 7424WAT      O30401   4.376   2.412   7.536
 7424WAT     H130402   4.349   2.438   7.615
 7424WAT     H230403   4.402   2.330   7.549
 7424WAT    EPW30404   4.376   2.404   7.549
 7425WAT      O30405   4.125   2.319   7.455
 7425WAT     H130406   4.090   2.322   7.535
 7425WAT     H230407   4.205   2.353   7.467
 7425WAT    EPW30408   4.132   2.325   7.469
 7426WAT      O30409   4.547   3.044   7.744
 7426WAT     H130410   4.501   3.032   7.818
 7426WAT     H230411   4.621   3.000   7.759
 7426WAT    EPW30412   4.551   3.035   7.758
 7427WAT      O30413   4.816   1.946   7.231
 7427WAT     H130414   4.826   1.944   7.144
 7427WAT     H230415   4.895   1.921   7.261
 7427WAT    EPW30416   4.829   1.942   7.222
 7428WAT      O30417   4.183   2.672   7.392
 7428WAT     H130418   4.176   2.746   7.348
 7428WAT     H230419   4.114   2.625   7.366
 7428WAT    EPW30420   4.172   2.676   7.382
 7429WAT      O30421   3.377   1.773   6.883
 7429WAT     H130422   3.304   1.770   6.931
 7429WAT     H230423   3.380   1.694   6.846
 7429WAT    EPW30424   3.367   1.761   6.884
 7430WAT      O30425   4.234   1.524   7.586
 7430WAT     H130426   4.150   1.514   7.606
 7430WAT     H230427   4.250   1.458   7.531
 7430WAT    EPW30428   4.224   1.513   7.581
 7431WAT      O30429   3.699   2.704   7.036
 7431WAT     H130430   3.739   2.712   7.113
 7431WAT     H230431   3.618   2.680   7.057
 7431WAT    EPW30432   3.693   2.701   7.050
 7432WAT      O30433   4.646   2.035   7.689
 7432WAT     H130434   4.706   2.097   7.705
 7432WAT     H230435   4.588   2.075   7.638
 7432WAT    EPW30436   4.647   2.050   7.684
 7433WAT      O30437   4.659   2.853   7.423
 7433WAT     H130438   4.635   2.775   7.454
 7433WAT     H230439   4.706   2.833   7.353
 7433WAT    EPW30440   4.663   2.839   7.417
 7434WAT      O30441   3.449   2.607   7.104
 7434WAT     H130442   3.454   2.588   7.189
 7434WAT     H230443   3.456   2.529   7.066
 7434WAT    EPW30444   3.451   2.592   7.111
 7435WAT      O30445   3.737   2.453   6.908
 7435WAT     H130446   3.658   2.422   6.928
 7435WAT     H230447   3.739   2.531   6.947
 7435WAT    EPW30448   3.726   2.460   6.917
 7436WAT      O30449   3.943   1.310   7.032
 7436WAT     H130450   3.955   1.318   6.946
 7436WAT     H230451   3.856   1.312   7.041
 7436WAT    EPW30452   3.932   1.311   7.021
 7437WAT      O30453   4.320   1.907   7.644
 7437WAT     H130454   4.368   1.834   7.651
 7437WAT     H230455   4.312   1.934   7.726
 7437WAT    EPW30456   4.326   1.900   7.657
 7438WAT      O30457   3.325   1.802   7.527
 7438WAT     H130458   3.282   1.837   7.594
 7438WAT     H230459   3.371   1.738   7.564
 7438WAT    EPW30460   3.326   1.798   7.542
 7439WAT      O30461   4.482   2.066   7.261
 7439WAT     H130462   4.503   1.984   7.282
 7439WAT     H230463   4.408   2.058   7.216
 7439WAT    EPW30464   4.474   2.053   7.257
 7440WAT      O30465   3.505   2.974   7.279
 7440WAT     H130466   3.481   3.006   7.202
 7440WAT     H230467   3.592   2.967   7.273
 7440WAT    EPW30468   3.514   2.978   7.267
 7441WAT      O30469   3.843   2.128   7.209
 7441WAT     H130470   3.861   2.162   7.131
 7441WAT     H230471   3.922   2.113   7.243
 7441WAT    EPW30472   3.858   2.131   7.202
 7442WAT      O30473   4.771   2.992   6.897
 7442WAT     H130474   4.843   2.988   6.946
 7442WAT     H230475   4.753   2.908   6.879
 7442WAT    EPW30476   4.779   2.979   6.901
 7443WAT      O30477   4.400   2.632   7.202
 7443WAT     H130478   4.347   2.626   7.271
 7443WAT     H230479   4.363   2.580   7.142
 7443WAT    EPW30480   4.387   2.623   7.203
 7444WAT      O30481   3.377   2.766   7.913
 7444WAT     H130482   3.418   2.709   7.861
 7444WAT     H230483   3.387   2.842   7.872
 7444WAT    EPW30484   3.385   2.769   7.900
 7445WAT      O30485   4.055   2.497   7.056
 7445WAT     H130486   4.137   2.472   7.040
 7445WAT     H230487   4.044   2.565   7.002
 7445WAT    EPW30488   4.065   2.503   7.045
 7446WAT      O30489   4.312   1.360   5.544
 7446WAT     H130490   4.338   1.423   5.489
 7446WAT     H230491   4.386   1.330   5.578
 7446WAT    EPW30492   4.327   1.365   5.541
 7447WAT      O30493   4.178   1.949   5.996
 7447WAT     H130494   4.153   2.030   6.015
 7447WAT     H230495   4.241   1.932   6.055
 7447WAT    EPW30496   4.184   1.959   6.007
 7448WAT      O30497   3.160   2.425   5.564
 7448WAT     H130498   3.078   2.410   5.589
 7448WAT     H230499   3.180   2.355   5.516
 7448WAT    EPW30500   3.151   2.412   5.560
 7449WAT      O30501   4.801   2.777   5.286
 7449WAT     H130502   4.861   2.719   5.312
 7449WAT     H230503   4.746   2.729   5.238
 7449WAT    EPW30504   4.801   2.761   5.283
 7450WAT      O30505   3.148   1.729   5.216
 7450WAT     H130506   3.073   1.706   5.177
 7450WAT     H230507   3.160   1.668   5.276
 7450WAT    EPW30508   3.138   1.717   5.219
 7451WAT      O30509   3.428   2.368   5.087
 7451WAT     H130510   3.406   2.328   5.013
 7451WAT     H230511   3.453   2.302   5.139
 7451WAT    EPW30512   3.429   2.353   5.084
 7452WAT      O30513   4.446   2.150   5.641
 7452WAT     H130514   4.450   2.130   5.556
 7452WAT     H230515   4.399   2.085   5.675
 7452WAT    EPW30516   4.440   2.137   5.633
 7453WAT      O30517   3.412   2.565   5.562
 7453WAT     H130518   3.481   2.511   5.560
 7453WAT     H230519   3.343   2.512   5.565
 7453WAT    EPW30520   3.412   2.549   5.562
 7454WAT      O30521   3.844   1.419   5.428
 7454WAT     H130522   3.827   1.494   5.387
 7454WAT     H230523   3.928   1.404   5.408
 7454WAT    EPW30524   3.854   1.428   5.419
 7455WAT      O30525   3.236   2.534   6.176
 7455WAT     H130526   3.244   2.541   6.263
 7455WAT     H230527   3.153   2.509   6.166
 7455WAT    EPW30528   3.225   2.532   6.188
 7456WAT      O30529   3.841   2.452   6.645
 7456WAT     H130530   3.820   2.449   6.729
 7456WAT     H230531   3.772   2.418   6.604
 7456WAT    EPW30532   3.828   2.446   6.651
 7457WAT      O30533   3.387   2.217   5.659
 7457WAT     H130534   3.341   2.213   5.585
 7457WAT     H230535   3.429   2.141   5.661
 7457WAT    EPW30536   3.386   2.205   5.649
 7458WAT      O30537   3.822   1.763   6.235
 7458WAT     H130538   3.885   1.757   6.176
 7458WAT     H230539   3.782   1.685   6.231
 7458WAT    EPW30540   3.825   1.751   6.226
 7459WAT      O30541   3.757   2.708   6.396
 7459WAT     H130542   3.719   2.784   6.376
 7459WAT     H230543   3.829   2.732   6.439
 7459WAT    EPW30544   3.762   2.723   6.399
 7460WAT      O30545   3.514   1.981   5.677
 7460WAT     H130546   3.587   1.936   5.693
 7460WAT     H230547   3.453   1.920   5.672
 7460WAT    EPW30548   3.516   1.966   5.678
 7461WAT      O30549   3.972   2.613   5.827
 7461WAT     H130550   3.990   2.527   5.830
 7461WAT     H230551   4.050   2.650   5.816
 7461WAT    EPW30552   3.986   2.606   5.826
 7462WAT      O30553   4.010   2.570   5.429
 7462WAT     H130554   4.044   2.502   5.472
 7462WAT     H230555   4.055   2.572   5.355
 7462WAT    EPW30556   4.022   2.560   5.425
 7463WAT      O30557   4.175   1.986   6.691
 7463WAT     H130558   4.093   1.977   6.661
 7463WAT     H230559   4.169   2.051   6.749
 7463WAT    EPW30560   4.162   1.994   6.695
 7464WAT      O30561   3.597   1.480   5.551
 7464WAT     H130562   3.558   1.529   5.491
 7464WAT     H230563   3.680   1.475   5.521
 7464WAT    EPW30564   3.604   1.486   5.537
 7465WAT      O30565   4.594   1.227   6.489
 7465WAT     H130566   4.573   1.297   6.441
 7465WAT     H230567   4.520   1.207   6.530
 7465WAT    EPW30568   4.580   1.234   6.488
 7466WAT      O30569   3.922   1.381   5.707
 7466WAT     H130570   3.949   1.462   5.725
 7466WAT     H230571   3.890   1.388   5.626
 7466WAT    EPW30572   3.921   1.394   5.698
 7467WAT      O30573   4.359   1.669   4.935
 7467WAT     H130574   4.310   1.728   4.977
 7467WAT     H230575   4.387   1.617   4.999
 7467WAT    EPW30576   4.356   1.670   4.951
 7468WAT      O30577   3.217   1.917   5.926
 7468WAT     H130578   3.212   2.004   5.930
 7468WAT     H230579   3.146   1.891   5.971
 7468WAT    EPW30580   3.206   1.926   5.933
 7469WAT      O30581   3.212   2.885   5.726
 7469WAT     H130582   3.141   2.930   5.700
 7469WAT     H230583   3.249   2.860   5.651
 7469WAT    EPW30584   3.207   2.888   5.711
 7470WAT      O30585   3.838   2.794   5.483
 7470WAT     H130586   3.809   2.827   5.407
 7470WAT     H230587   3.882   2.723   5.458
 7470WAT    EPW30588   3.840   2.789   5.468
 7471WAT      O30589   4.421   2.940   5.150
 7471WAT     H130590   4.350   2.988   5.133
 7471WAT     H230591   4.482   3.000   5.165
 7471WAT    EPW30592   4.419   2.956   5.150
 7472WAT      O30593   3.438   1.449   5.945
 7472WAT     H130594   3.415   1.375   5.906
 7472WAT     H230595   3.499   1.424   6.003
 7472WAT    EPW30596   3.444   1.435   5.948
 7473WAT      O30597   3.796   1.599   6.873
 7473WAT     H130598   3.807   1.565   6.794
 7473WAT     H230599   3.837   1.676   6.868
 7473WAT    EPW30600   3.804   1.606   6.861
 7474WAT      O30601   3.326   2.813   5.480
 7474WAT     H130602   3.376   2.744   5.499
 7474WAT     H230603   3.374   2.859   5.424
 7474WAT    EPW30604   3.340   2.810   5.475
 7475WAT      O30605   4.940   1.613   5.670
 7475WAT     H130606   4.888   1.682   5.668
 7475WAT     H230607   4.885   1.545   5.663
 7475WAT    EPW30608   4.924   1.613   5.668
 7476WAT      O30609   3.383   1.502   6.787
 7476WAT     H130610   3.303   1.474   6.766
 7476WAT     H230611   3.435   1.461   6.731
 7476WAT    EPW30612   3.379   1.492   6.776
 7477WAT      O30613   3.852   3.012   5.883
 7477WAT     H130614   3.900   3.009   5.810
 7477WAT     H230615   3.779   3.052   5.858
 7477WAT    EPW30616   3.848   3.018   5.868
 7478WAT      O30617   3.991   1.329   6.758
 7478WAT     H130618   4.013   1.260   6.710
 7478WAT     H230619   3.932   1.371   6.709
 7478WAT    EPW30620   3.985   1.325   6.744
 7479WAT      O30621   4.187   1.855   5.061
 7479WAT     H130622   4.201   1.940   5.074
 7479WAT     H230623   4.107   1.853   5.026
 7479WAT    EPW30624   4.177   1.867   5.058
 7480WAT      O30625   4.625   3.133   5.197
 7480WAT     H130626   4.672   3.133   5.123
 7480WAT     H230627   4.686   3.137   5.260
 7480WAT    EPW30628   4.641   3.134   5.195
 7481WAT      O30629   3.617   2.947   6.374
 7481WAT     H130630   3.664   2.970   6.444
 7481WAT     H230631   3.535   2.942   6.405
 7481WAT    EPW30632   3.612   2.950   6.389
 7482WAT      O30633   4.842   1.551   6.102
 7482WAT     H130634   4.905   1.542   6.043
 7482WAT     H230635   4.860   1.490   6.161
 7482WAT    EPW30636   4.854   1.540   6.102
 7483WAT      O30637   3.096   1.645   6.524
 7483WAT     H130638   3.088   1.719   6.569
 7483WAT     H230639   3.162   1.662   6.468
 7483WAT    EPW30640   3.105   1.658   6.522
 7484WAT      O30641   4.324   2.700   6.588
 7484WAT     H130642   4.308   2.725   6.670
 7484WAT     H230643   4.411   2.692   6.586
 7484WAT    EPW30644   4.335   2.703   6.600
 7485WAT      O30645   4.070   2.788   5.024
 7485WAT     H130646   3.993   2.828   5.023
 7485WAT     H230647   4.097   2.793   4.941
 7485WAT    EPW30648   4.063   2.795   5.012
 7486WAT      O30649   4.447   1.496   5.131
 7486WAT     H130650   4.486   1.418   5.141
 7486WAT     H230651   4.435   1.523   5.213
 7486WAT    EPW30652   4.451   1.489   5.144
 7487WAT      O30653   3.199   1.549   5.419
 7487WAT     H130654   3.177   1.466   5.404
 7487WAT     H230655   3.160   1.567   5.495
 7487WAT    EPW30656   3.190   1.539   5.428
 7488WAT      O30657   3.332   2.784   6.102
 7488WAT     H130658   3.323   2.702   6.129
 7488WAT     H230659   3.408   2.784   6.059
 7488WAT    EPW30660   3.342   2.772   6.100
 7489WAT      O30661   4.157   1.692   5.293
 7489WAT     H130662   4.104   1.736   5.346
 7489WAT     H230663   4.165   1.745   5.224
 7489WAT    EPW30664   4.151   1.706   5.290
 7490WAT      O30665   4.272   3.002   6.293
 7490WAT     H130666   4.249   3.078   6.329
 7490WAT     H230667   4.195   2.963   6.276
 7490WAT    EPW30668   4.257   3.007   6.296
 7491WAT      O30669   4.096   1.415   5.321
 7491WAT     H130670   4.067   1.386   5.244
 7491WAT     H230671   4.117   1.498   5.304
 7491WAT    EPW30672   4.095   1.423   5.307
 7492WAT      O30673   4.817   3.030   5.591
 7492WAT     H130674   4.754   3.080   5.623
 7492WAT     H230675   4.775   2.960   5.560
 7492WAT    EPW30676   4.802   3.027   5.591
 7493WAT      O30677   4.009   1.641   5.751
 7493WAT     H130678   4.000   1.702   5.690
 7493WAT     H230679   3.991   1.683   5.826
 7493WAT    EPW30680   4.005   1.656   5.753
 7494WAT      O30681   4.538   2.580   5.563
 7494WAT     H130682   4.608   2.532   5.585
 7494WAT     H230683   4.471   2.537   5.599
 7494WAT    EPW30684   4.538   2.566   5.571
 7495WAT      O30685   3.537   2.632   6.545
 7495WAT     H130686   3.607   2.666   6.504
 7495WAT     H230687   3.527   2.684   6.614
 7495WAT    EPW30688   3.546   2.645   6.549
 7496WAT      O30689   3.587   1.214   5.633
 7496WAT     H130690   3.589   1.299   5.613
 7496WAT     H230691   3.571   1.176   5.557
 7496WAT    EPW30692   3.585   1.221   5.619
 7497WAT      O30693   3.757   2.254   5.940
 7497WAT     H130694   3.785   2.238   6.022
 7497WAT     H230695   3.695   2.195   5.928
 7497WAT    EPW30696   3.752   2.243   5.951
 7498WAT      O30697   4.334   1.647   6.318
 7498WAT     H130698   4.335   1.693   6.392
 7498WAT     H230699   4.269   1.591   6.329
 7498WAT    EPW30700   4.325   1.646   6.330
 7499WAT      O30701   3.862   2.268   6.198
 7499WAT     H130702   3.848   2.354   6.207
 7499WAT     H230703   3.843   2.236   6.277
 7499WAT    EPW30704   3.857   2.276   6.211
 7500WAT      O30705   4.478   2.388   6.216
 7500WAT     H130706   4.400   2.362   6.244
 7500WAT     H230707   4.476   2.475   6.224
 7500WAT    EPW30708   4.466   2.397   6.221
 7501WAT      O30709   4.534   1.256   5.667
 7501WAT     H130710   4.526   1.236   5.752
 7501WAT     H230711   4.563   1.181   5.632
 7501WAT    EPW30712   4.537   1.242   5.675
 7502WAT      O30713   3.101   2.663   6.813
 7502WAT     H130714   3.159   2.710   6.857
 7502WAT     H230715   3.109   2.583   6.847
 7502WAT    EPW30716   3.111   2.658   6.825
 7503WAT      O30717   4.716   1.691   6.428
 7503WAT     H130718   4.799   1.674   6.450
 7503WAT     H230719   4.673   1.683   6.504
 7503WAT    EPW30720   4.722   1.687   6.443
 7504WAT      O30721   3.517   1.639   5.759
 7504WAT     H130722   3.542   1.585   5.696
 7504WAT     H230723   3.498   1.587   5.825
 7504WAT    EPW30724   3.518   1.624   5.759
 7505WAT      O30725   4.707   2.359   5.184
 7505WAT     H130726   4.735   2.336   5.264
 7505WAT     H230727   4.780   2.382   5.142
 7505WAT    EPW30728   4.722   2.359   5.190
 7506WAT      O30729   3.607   2.391   5.650
 7506WAT     H130730   3.667   2.378   5.588
 7506WAT     H230731   3.558   2.319   5.646
 7506WAT    EPW30732   3.609   2.378   5.640
 7507WAT      O30733   3.438   3.039   5.792
 7507WAT     H130734   3.359   3.007   5.773
 7507WAT     H230735   3.441   3.115   5.749
 7507WAT    EPW30736   3.427   3.046   5.783
 7508WAT      O30737   3.394   1.788   6.105
 7508WAT     H130738   3.475   1.797   6.073
 7508WAT     H230739   3.344   1.823   6.043
 7508WAT    EPW30740   3.399   1.795   6.091
 7509WAT      O30741   5.018   2.801   6.595
 7509WAT     H130742   4.943   2.806   6.551
 7509WAT     H230743   4.999   2.753   6.665
 7509WAT    EPW30744   5.004   2.795   6.599
 7510WAT      O30745   4.560   2.128   5.124
 7510WAT     H130746   4.599   2.204   5.142
 7510WAT     H230747   4.521   2.106   5.199
 7510WAT    EPW30748   4.560   2.136   5.138
 7511WAT      O30749   3.781   2.381   5.436
 7511WAT     H130750   3.837   2.447   5.424
 7511WAT     H230751   3.810   2.319   5.382
 7511WAT    EPW30752   3.793   2.382   5.426
 7512WAT      O30753   4.908   1.569   5.151
 7512WAT     H130754   4.959   1.512   5.109
 7512WAT     H230755   4.869   1.613   5.086
 7512WAT    EPW30756   4.910   1.567   5.135
 7513WAT      O30757   3.238   2.502   5.842
 7513WAT     H130758   3.198   2.484   5.766
 7513WAT     H230759   3.186   2.561   5.879
 7513WAT    EPW30760   3.224   2.508   5.836
 7514WAT      O30761   3.932   1.842   6.881
 7514WAT     H130762   3.884   1.872   6.947
 7514WAT     H230763   3.914   1.896   6.815
 7514WAT    EPW30764   3.922   1.854   6.881
 7515WAT      O30765   5.022   1.941   6.316
 7515WAT     H130766   5.076   1.873   6.315
 7515WAT     H230767   4.962   1.921   6.255
 7515WAT    EPW30768   5.021   1.928   6.306
 7516WAT      O30769   3.251   2.197   5.422
 7516WAT     H130770   3.228   2.113   5.426
 7516WAT     H230771   3.321   2.197   5.370
 7516WAT    EPW30772   3.258   2.185   5.415
 7517WAT      O30773   4.775   1.406   5.337
 7517WAT     H130774   4.849   1.364   5.354
 7517WAT     H230775   4.799   1.472   5.285
 7517WAT    EPW30776   4.789   1.410   5.332
 7518WAT      O30777   4.188   2.788   5.794
 7518WAT     H130778   4.136   2.857   5.779
 7518WAT     H230779   4.217   2.767   5.714
 7518WAT    EPW30780   4.185   2.795   5.780
 7519WAT      O30781   3.144   2.629   5.377
 7519WAT     H130782   3.200   2.690   5.403
 7519WAT     H230783   3.146   2.570   5.442
 7519WAT    EPW30784   3.152   2.629   5.391
 7520WAT      O30785   3.591   2.447   6.044
 7520WAT     H130786   3.648   2.487   6.097
 7520WAT     H230787   3.640   2.386   6.005
 7520WAT    EPW30788   3.607   2.444   6.046
 7521WAT      O30789   4.476   1.686   5.780
 7521WAT     H130790   4.508   1.654   5.855
 7521WAT     H230791   4.409   1.632   5.762
 7521WAT    EPW30792   4.471   1.673   5.788
 7522WAT      O30793   3.175   2.467   5.153
 7522WAT     H130794   3.256   2.438   5.140
 7522WAT     H230795   3.182   2.519   5.222
 7522WAT    EPW30796   3.188   2.470   5.161
 7523WAT      O30797   3.215   2.209   5.885
 7523WAT     H130798   3.266   2.207   5.814
 7523WAT     H230799   3.225   2.290   5.916
 7523WAT    EPW30800   3.224   2.221   5.879
 7524WAT      O30801   3.774   1.639   5.287
 7524WAT     H130802   3.794   1.653   5.203
 7524WAT     H230803   3.808   1.707   5.328
 7524WAT    EPW30804   3.782   1.651   5.281
 7525WAT      O30805   4.776   2.815   6.443
 7525WAT     H130806   4.736   2.892   6.451
 7525WAT     H230807   4.779   2.803   6.357
 7525WAT    EPW30808   4.770   2.824   6.431
 7526WAT      O30809   3.728   2.709   5.733
 7526WAT     H130810   3.747   2.739   5.653
 7526WAT     H230811   3.803   2.674   5.760
 7526WAT    EPW30812   3.742   2.708   5.725
 7527WAT      O30813   3.476   1.976   6.724
 7527WAT     H130814   3.439   1.911   6.768
 7527WAT     H230815   3.489   1.942   6.644
 7527WAT    EPW30816   3.472   1.962   6.718
 7528WAT      O30817   3.501   1.886   5.249
 7528WAT     H130818   3.497   1.818   5.304
 7528WAT     H230819   3.460   1.857   5.178
 7528WAT    EPW30820   3.494   1.872   5.247
 7529WAT      O30821   3.535   2.088   5.932
 7529WAT     H130822   3.519   2.060   5.851
 7529WAT     H230823   3.571   2.019   5.971
 7529WAT    EPW30824   3.538   2.074   5.926
 7530WAT      O30825   3.580   2.037   6.277
 7530WAT     H130826   3.603   1.988   6.208
 7530WAT     H230827   3.528   2.098   6.243
 7530WAT    EPW30828   3.576   2.039   6.262
 7531WAT      O30829   4.612   1.874   6.027
 7531WAT     H130830   4.540   1.896   6.071
 7531WAT     H230831   4.608   1.924   5.955
 7531WAT    EPW30832   4.601   1.885   6.023
 7532WAT      O30833   4.019   2.867   6.273
 7532WAT     H130834   3.984   2.841   6.197
 7532WAT     H230835   3.973   2.938   6.294
 7532WAT    EPW30836   4.007   2.874   6.265
 7533WAT      O30837   4.165   1.443   6.410
 7533WAT     H130838   4.182   1.360   6.386
 7533WAT     H230839   4.190   1.445   6.494
 7533WAT    EPW30840   4.171   1.431   6.419
 7534WAT      O30841   4.397   1.588   5.390
 7534WAT     H130842   4.452   1.654   5.406
 7534WAT     H230843   4.323   1.628   5.369
 7534WAT    EPW30844   4.394   1.604   5.390
 7535WAT      O30845   3.357   2.217   6.782
 7535WAT     H130846   3.346   2.256   6.705
 7535WAT     H230847   3.400   2.144   6.763
 7535WAT    EPW30848   3.362   2.212   6.768
 7536WAT      O30849   4.507   2.406   6.662
 7536WAT     H130850   4.541   2.484   6.641
 7536WAT     H230851   4.536   2.354   6.598
 7536WAT    EPW30852   4.517   2.410   6.650
 7537WAT      O30853   3.941   2.710   6.638
 7537WAT     H130854   3.972   2.716   6.720
 7537WAT     H230855   3.907   2.630   6.634
 7537WAT    EPW30856   3.940   2.699   6.650
 7538WAT      O30857   3.987   1.747   6.012
 7538WAT     H130858   4.050   1.808   6.009
 7538WAT     H230859   4.029   1.676   6.041
 7538WAT    EPW30860   4.003   1.745   6.016
 7539WAT      O30861   4.202   2.141   5.120
 7539WAT     H130862   4.256   2.209   5.121
 7539WAT     H230863   4.177   2.134   5.204
 7539WAT    EPW30864   4.206   2.150   5.133
 7540WAT      O30865   4.734   2.403   5.662
 7540WAT     H130866   4.756   2.354   5.730
 7540WAT     H230867   4.755   2.354   5.593
 7540WAT    EPW30868   4.740   2.389   5.662
 7541WAT      O30869   4.390   2.827   5.992
 7541WAT     H130870   4.324   2.805   5.939
 7541WAT     H230871   4.424   2.898   5.955
 7541WAT    EPW30872   4.385   2.834   5.979
 7542WAT      O30873   4.386   2.469   5.960
 7542WAT     H130874   4.311   2.501   5.992
 7542WAT     H230875   4.417   2.420   6.025
 7542WAT    EPW30876   4.379   2.467   5.974
 7543WAT      O30877   3.678   1.300   5.224
 7543WAT     H130878   3.725   1.329   5.292
 7543WAT     H230879   3.632   1.370   5.200
 7543WAT    EPW30880   3.678   1.315   5.231
 7544WAT      O30881   4.590   2.264   6.439
 7544WAT     H130882   4.560   2.311   6.372
 7544WAT     H230883   4.676   2.277   6.436
 7544WAT    EPW30884   4.599   2.273   6.429
 7545WAT      O30885   4.289   2.832   6.840
 7545WAT     H130886   4.328   2.850   6.917
 7545WAT     H230887   4.313   2.898   6.789
 7545WAT    EPW30888   4.299   2.844   6.844
 7546WAT      O30889   4.722   1.367   6.690
 7546WAT     H130890   4.685   1.320   6.626
 7546WAT     H230891   4.726   1.311   6.756
 7546WAT    EPW30892   4.717   1.352   6.690
 7547WAT      O30893   3.493   2.168   5.278
 7547WAT     H130894   3.495   2.081   5.271
 7547WAT     H230895   3.573   2.189   5.304
 7547WAT    EPW30896   3.505   2.158   5.281
 7548WAT      O30897   4.241   2.278   6.308
 7548WAT     H130898   4.192   2.312   6.371
 7548WAT     H230899   4.276   2.207   6.345
 7548WAT    EPW30900   4.239   2.272   6.323
 7549WAT      O30901   3.098   1.294   5.365
 7549WAT     H130902   3.106   1.233   5.304
 7549WAT     H230903   3.071   1.250   5.435
 7549WAT    EPW30904   3.095   1.279   5.366
 7550WAT      O30905   4.122   2.121   5.390
 7550WAT     H130906   4.121   2.184   5.450
 7550WAT     H230907   4.081   2.055   5.429
 7550WAT    EPW30908   4.116   2.120   5.404
 7551WAT      O30909   4.652   2.572   5.997
 7551WAT     H130910   4.693   2.583   5.921
 7551WAT     H230911   4.570   2.554   5.973
 7551WAT    EPW30912   4.646   2.571   5.982
 7552WAT      O30913   3.534   1.515   5.126
 7552WAT     H130914   3.475   1.514   5.062
 7552WAT     H230915   3.601   1.558   5.090
 7552WAT    EPW30916   3.535   1.522   5.111
 7553WAT      O30917   4.002   2.333   5.828
 7553WAT     H130918   3.921   2.306   5.846
 7553WAT     H230919   4.051   2.294   5.888
 7553WAT    EPW30920   3.997   2.323   5.840
 7554WAT      O30921   3.422   2.231   6.146
 7554WAT     H130922   3.455   2.311   6.133
 7554WAT     H230923   3.434   2.191   6.070
 7554WAT    EPW30924   3.429   2.237   6.133
 7555WAT      O30925   3.724   1.832   5.772
 7555WAT     H130926   3.782   1.832   5.706
 7555WAT     H230927   3.680   1.758   5.760
 7555WAT    EPW30928   3.726   1.821   5.760
 7556WAT      O30929   4.966   2.981   5.176
 7556WAT     H130930   5.039   2.944   5.147
 7556WAT     H230931   4.917   2.913   5.201
 7556WAT    EPW30932   4.970   2.965   5.175
 7557WAT      O30933   3.198   1.920   5.441
 7557WAT     H130934   3.225   1.881   5.514
 7557WAT     H230935   3.221   1.864   5.378
 7557WAT    EPW30936   3.206   1.906   5.442
 7558WAT      O30937   4.717   2.211   6.146
 7558WAT     H130938   4.715   2.139   6.197
 7558WAT     H230939   4.639   2.248   6.161
 7558WAT    EPW30940   4.705   2.206   6.156
 7559WAT      O30941   3.697   2.103   4.962
 7559WAT     H130942   3.711   2.052   5.032
 7559WAT     H230943   3.623   2.072   4.929
 7559WAT    EPW30944   3.688   2.091   4.968
 7560WAT      O30945   3.324   2.319   6.529
 7560WAT     H130946   3.286   2.273   6.465
 7560WAT     H230947   3.302   2.402   6.511
 7560WAT    EPW30948   3.315   2.325   6.517
 7561WAT      O30949   4.813   2.232   5.881
 7561WAT     H130950   4.786   2.227   5.963
 7561WAT     H230951   4.900   2.220   5.888
 7561WAT    EPW30952   4.822   2.230   5.894
 7562WAT      O30953   3.764   1.935   5.170
 7562WAT     H130954   3.799   1.987   5.230
 7562WAT     H230955   3.688   1.910   5.206
 7562WAT    EPW30956   3.758   1.939   5.184
 7563WAT      O30957   4.588   1.621   6.675
 7563WAT     H130958   4.519   1.623   6.729
 7563WAT     H230959   4.617   1.539   6.682
 7563WAT    EPW30960   4.583   1.609   6.684
 7564WAT      O30961   3.174   1.565   5.916
 7564WAT     H130962   3.158   1.564   5.830
 7564WAT     H230963   3.256   1.534   5.922
 7564WAT    EPW30964   3.184   1.560   5.904
 7565WAT      O30965   4.943   2.732   5.958
 7565WAT     H130966   4.970   2.783   5.893
 7565WAT     H230967   5.009   2.732   6.014
 7565WAT    EPW30968   4.957   2.739   5.956
 7566WAT      O30969   4.466   1.946   6.764
 7566WAT     H130970   4.490   1.973   6.843
 7566WAT     H230971   4.381   1.968   6.760
 7566WAT    EPW30972   4.457   1.953   6.775
 7567WAT      O30973   4.692   2.011   6.613
 7567WAT     H130974   4.709   2.092   6.640
 7567WAT     H230975   4.620   1.989   6.658
 7567WAT    EPW30976   4.684   2.019   6.624
 7568WAT      O30977   4.593   2.618   5.176
 7568WAT     H130978   4.621   2.535   5.173
 7568WAT     H230979   4.571   2.635   5.094
 7568WAT    EPW30980   4.594   2.608   5.164
 7569WAT      O30981   4.710   1.786   5.669
 7569WAT     H130982   4.645   1.741   5.706
 7569WAT     H230983   4.704   1.865   5.705
 7569WAT    EPW30984   4.700   1.791   5.680
 7570WAT      O30985   5.000   2.096   6.793
 7570WAT     H130986   5.005   2.041   6.726
 7570WAT     H230987   5.079   2.133   6.797
 7570WAT    EPW30988   5.012   2.094   6.784
 7571WAT      O30989   4.860   2.343   6.441
 7571WAT     H130990   4.928   2.297   6.412
 7571WAT     H230991   4.853   2.407   6.382
 7571WAT    EPW30992   4.869   2.346   6.428
 7572WAT      O30993   4.293   2.423   5.041
 7572WAT     H130994   4.379   2.423   5.024
 7572WAT     H230995   4.259   2.465   4.973
 7572WAT    EPW30996   4.301   2.429   5.029
 7573WAT      O30997   3.812   2.547   6.183
 7573WAT     H130998   3.792   2.591   6.256
 7573WAT     H230999   3.844   2.609   6.130
 7573WAT    EPW31000   3.814   2.563   6.186
 7574WAT      O31001   3.602   2.365   6.521
 7574WAT     H131002   3.523   2.329   6.522
 7574WAT     H231003   3.585   2.451   6.527
 7574WAT    EPW31004   3.588   2.373   6.522
 7575WAT      O31005   4.556   1.475   6.343
 7575WAT     H131006   4.615   1.538   6.358
 7575WAT     H231007   4.482   1.518   6.329
 7575WAT    EPW31008   4.554   1.490   6.343
 7576WAT      O31009   4.104   2.217   6.074
 7576WAT     H131010   4.159   2.230   6.140
 7576WAT     H231011   4.025   2.218   6.111
 7576WAT    EPW31012   4.100   2.219   6.089
 7577WAT      O31013   3.777   1.753   6.510
 7577WAT     H131014   3.790   1.670   6.535
 7577WAT     H231015   3.802   1.754   6.427
 7577WAT    EPW31016   3.782   1.741   6.502
 7578WAT      O31017   4.004   2.965   5.641
 7578WAT     H131018   4.011   3.044   5.605
 7578WAT     H231019   3.944   2.924   5.592
 7578WAT    EPW31020   3.996   2.970   5.629
 7579WAT      O31021   4.641   1.270   6.173
 7579WAT     H131022   4.610   1.343   6.209
 7579WAT     H231023   4.725   1.271   6.196
 7579WAT    EPW31024   4.649   1.281   6.182
 7580WAT      O31025   3.896   1.374   6.365
 7580WAT     H131026   3.977   1.406   6.360
 7580WAT     H231027   3.904   1.293   6.333
 7580WAT    EPW31028   3.909   1.367   6.360
 7581WAT      O31029   3.897   2.779   6.037
 7581WAT     H131030   3.876   2.852   5.993
 7581WAT     H231031   3.932   2.728   5.976
 7581WAT    EPW31032   3.899   2.782   6.021
 7582WAT      O31033   4.241   2.407   6.732
 7582WAT     H131034   4.323   2.407   6.702
 7582WAT     H231035   4.192   2.415   6.660
 7582WAT    EPW31036   4.246   2.408   6.717
 7583WAT      O31037   4.601   2.663   6.602
 7583WAT     H131038   4.636   2.686   6.679
 7583WAT     H231039   4.655   2.700   6.544
 7583WAT    EPW31040   4.614   2.672   6.605
 7584WAT      O31041   4.812   1.997   5.072
 7584WAT     H131042   4.860   2.049   5.022
 7584WAT     H231043   4.734   2.035   5.074
 7584WAT    EPW31044   4.808   2.010   5.065
 7585WAT      O31045   3.889   2.298   4.995
 7585WAT     H131046   3.828   2.239   4.974
 7585WAT     H231047   3.844   2.373   4.997
 7585WAT    EPW31048   3.873   2.301   4.992
 7586WAT      O31049   3.661   1.872   6.044
 7586WAT     H131050   3.697   1.853   5.967
 7586WAT     H231051   3.716   1.836   6.101
 7586WAT    EPW31052   3.674   1.864   6.041
 7587WAT      O31053   4.343   1.820   6.537
 7587WAT     H131054   4.277   1.857   6.580
 7587WAT     H231055   4.405   1.811   6.598
 7587WAT    EPW31056   4.342   1.824   6.552
 7588WAT      O31057   4.378   1.889   6.176
 7588WAT     H131058   4.386   1.942   6.244
 7588WAT     H231059   4.364   1.811   6.213
 7588WAT    EPW31060   4.377   1.885   6.192
 7589WAT      O31061   4.083   2.954   6.577
 7589WAT     H131062   4.038   2.987   6.509
 7589WAT     H231063   4.050   2.873   6.585
 7589WAT    EPW31064   4.071   2.947   6.568
 7590WAT      O31065   4.560   1.821   5.435
 7590WAT     H131066   4.595   1.804   5.513
 7590WAT     H231067   4.625   1.862   5.392
 7590WAT    EPW31068   4.575   1.825   5.440
 7591WAT      O31069   3.896   1.323   5.993
 7591WAT     H131070   3.811   1.320   6.014
 7591WAT     H231071   3.895   1.331   5.906
 7591WAT    EPW31072   3.883   1.324   5.983
 7592WAT      O31073   4.754   1.415   5.615
 7592WAT     H131074   4.677   1.380   5.638
 7592WAT     H231075   4.746   1.426   5.529
 7592WAT    EPW31076   4.741   1.411   5.606
 7593WAT      O31077   4.799   2.254   5.427
 7593WAT     H131078   4.886   2.250   5.428
 7593WAT     H231079   4.775   2.171   5.415
 7593WAT    EPW31080   4.808   2.241   5.425
 7594WAT      O31081   4.087   2.419   6.499
 7594WAT     H131082   4.009   2.423   6.538
 7594WAT     H231083   4.097   2.498   6.465
 7594WAT    EPW31084   4.077   2.431   6.500
 7595WAT      O31085   3.114   1.425   6.696
 7595WAT     H131086   3.115   1.496   6.645
 7595WAT     H231087   3.030   1.403   6.699
 7595WAT    EPW31088   3.102   1.432   6.689
 7596WAT      O31089   3.607   3.031   6.103
 7596WAT     H131090   3.615   3.005   6.186
 7596WAT     H231091   3.600   2.956   6.059
 7596WAT    EPW31092   3.607   3.016   6.109
 7597WAT      O31093   3.458   1.634   5.369
 7597WAT     H131094   3.480   1.596   5.294
 7597WAT     H231095   3.378   1.604   5.385
 7597WAT    EPW31096   3.450   1.624   5.360
 7598WAT      O31097   4.354   2.410   5.686
 7598WAT     H131098   4.362   2.426   5.771
 7598WAT     H231099   4.392   2.332   5.676
 7598WAT    EPW31100   4.361   2.400   5.697
 7599WAT      O31101   4.112   2.346   5.566
 7599WAT     H131102   4.063   2.331   5.637
 7599WAT     H231103   4.190   2.366   5.598
 7599WAT    EPW31104   4.116   2.347   5.581
 7600WAT      O31105   4.176   2.654   6.362
 7600WAT     H131106   4.219   2.674   6.435
 7600WAT     H231107   4.129   2.725   6.345
 7600WAT    EPW31108   4.176   2.667   6.370
 7601WAT      O31109   4.955   1.918   6.584
 7601WAT     H131110   4.869   1.933   6.591
 7601WAT     H231111   4.971   1.934   6.500
 7601WAT    EPW31112   4.945   1.922   6.572
 7602WAT      O31113   4.389   2.060   6.396
 7602WAT     H131114   4.381   1.994   6.452
 7602WAT     H231115   4.465   2.097   6.418
 7602WAT    EPW31116   4.399   2.056   6.407
 7603WAT      O31117   3.364   2.948   6.511
 7603WAT     H131118   3.287   2.911   6.529
 7603WAT     H231119   3.355   3.029   6.542
 7603WAT    EPW31120   3.351   2.955   6.518
 7604WAT      O31121   4.158   2.186   6.881
 7604WAT     H131122   4.184   2.257   6.838
 7604WAT     H231123   4.075   2.202   6.900
 7604WAT    EPW31124   4.150   2.199   6.877
 7605WAT      O31125   4.489   3.073   5.902
 7605WAT     H131126   4.422   3.129   5.906
 7605WAT     H231127   4.558   3.123   5.919
 7605WAT    EPW31128   4.489   3.089   5.905
 7606WAT      O31129   4.150   2.534   6.098
 7606WAT     H131130   4.105   2.460   6.103
 7606WAT     H231131   4.151   2.563   6.181
 7606WAT    EPW31132   4.144   2.527   6.111
 7607WAT      O31133   4.725   2.727   6.842
 7607WAT     H131134   4.807   2.697   6.841
 7607WAT     H231135   4.691   2.691   6.914
 7607WAT    EPW31136   4.732   2.717   6.852
 7608WAT      O31137   3.519   1.855   6.478
 7608WAT     H131138   3.535   1.914   6.416
 7608WAT     H231139   3.597   1.818   6.490
 7608WAT    EPW31140   3.533   1.859   6.471
 7609WAT      O31141   3.317   1.712   6.355
 7609WAT     H131142   3.340   1.724   6.272
 7609WAT     H231143   3.380   1.753   6.400
 7609WAT    EPW31144   3.330   1.720   6.350
 7610WAT      O31145   4.774   1.983   5.353
 7610WAT     H131146   4.796   1.986   5.269
 7610WAT     H231147   4.845   1.952   5.392
 7610WAT    EPW31148   4.787   1.979   5.346
 7611WAT      O31149   3.557   1.372   6.607
 7611WAT     H131150   3.580   1.289   6.592
 7611WAT     H231151   3.523   1.398   6.531
 7611WAT    EPW31152   3.555   1.363   6.593
 7612WAT      O31153   4.195   2.775   5.512
 7612WAT     H131154   4.149   2.847   5.527
 7612WAT     H231155   4.135   2.715   5.491
 7612WAT    EPW31156   4.180   2.776   5.511
 7613WAT      O31157   4.700   1.981   6.332
 7613WAT     H131158   4.701   1.893   6.330
 7613WAT     H231159   4.695   2.000   6.417
 7613WAT    EPW31160   4.699   1.971   6.344
 7614WAT      O31161   3.198   2.200   6.315
 7614WAT     H131162   3.258   2.214   6.253
 7614WAT     H231163   3.183   2.114   6.310
 7614WAT    EPW31164   3.205   2.189   6.305
 7615WAT      O31165   3.348   1.791   5.032
 7615WAT     H131166   3.281   1.777   5.085
 7615WAT     H231167   3.357   1.715   4.989
 7615WAT    EPW31168   3.339   1.778   5.033
 7616WAT      O31169   4.237   1.439   6.679
 7616WAT     H131170   4.271   1.501   6.730
 7616WAT     H231171   4.162   1.418   6.720
 7616WAT    EPW31172   4.231   1.445   6.693
 7617WAT      O31173   4.257   1.517   5.763
 7617WAT     H131174   4.181   1.558   5.754
 7617WAT     H231175   4.262   1.468   5.691
 7617WAT    EPW31176   4.247   1.516   5.751
 7618WAT      O31177   4.572   1.598   6.026
 7618WAT     H131178   4.651   1.566   6.044
 7618WAT     H231179   4.580   1.683   6.040
 7618WAT    EPW31180   4.585   1.606   6.031
 7619WAT      O31181   3.772   2.157   6.439
 7619WAT     H131182   3.722   2.221   6.471
 7619WAT     H231183   3.716   2.110   6.391
 7619WAT    EPW31184   3.756   2.159   6.437
 7620WAT      O31185   4.650   2.028   5.792
 7620WAT     H131186   4.706   2.092   5.814
 7620WAT     H231187   4.589   2.070   5.745
 7620WAT    EPW31188   4.649   2.044   5.788
 7621WAT      O31189   4.625   2.836   5.492
 7621WAT     H131190   4.613   2.759   5.530
 7621WAT     H231191   4.681   2.820   5.428
 7621WAT    EPW31192   4.632   2.822   5.488
 7622WAT      O31193   3.675   2.495   4.990
 7622WAT     H131194   3.602   2.463   5.024
 7622WAT     H231195   3.672   2.580   5.011
 7622WAT    EPW31196   3.664   2.503   4.998
 7623WAT      O31197   3.691   1.526   6.252
 7623WAT     H131198   3.615   1.499   6.285
 7623WAT     H231199   3.748   1.468   6.281
 7623WAT    EPW31200   3.688   1.514   6.261
 7624WAT      O31201   4.892   1.347   6.291
 7624WAT     H131202   4.875   1.370   6.374
 7624WAT     H231203   4.973   1.316   6.295
 7624WAT    EPW31204   4.901   1.346   6.304
 7625WAT      O31205   4.083   1.505   6.100
 7625WAT     H131206   4.029   1.446   6.067
 7625WAT     H231207   4.162   1.473   6.082
 7625WAT    EPW31208   4.087   1.492   6.092
 7626WAT      O31209   4.427   2.671   6.225
 7626WAT     H131210   4.351   2.672   6.267
 7626WAT     H231211   4.407   2.700   6.145
 7626WAT    EPW31212   4.413   2.675   6.220
 7627WAT      O31213   4.355   3.018   6.643
 7627WAT     H131214   4.286   2.987   6.600
 7627WAT     H231215   4.330   3.099   6.665
 7627WAT    EPW31216   4.341   3.026   6.640
 7628WAT      O31217   3.901   1.974   6.625
 7628WAT     H131218   3.865   1.903   6.589
 7628WAT     H231219   3.869   2.039   6.577
 7628WAT    EPW31220   3.891   1.973   6.612
 7629WAT      O31221   3.947   1.291   5.120
 7629WAT     H131222   3.960   1.307   5.035
 7629WAT     H231223   3.861   1.304   5.129
 7629WAT    EPW31224   3.936   1.295   5.109
 7630WAT      O31225   4.842   2.467   6.184
 7630WAT     H131226   4.827   2.382   6.171
 7630WAT     H231227   4.785   2.506   6.130
 7630WAT    EPW31228   4.831   2.460   6.174
 7631WAT      O31229   3.767   2.924   6.613
 7631WAT     H131230   3.741   2.951   6.692
 7631WAT     H231231   3.817   2.855   6.630
 7631WAT    EPW31232   3.771   2.918   6.627
 7632WAT      O31233   4.735   2.787   6.158
 7632WAT     H131234   4.805   2.799   6.107
 7632WAT     H231235   4.694   2.720   6.121
 7632WAT    EPW31236   4.740   2.779   6.145
 7633WAT      O31237   3.445   1.464   6.372
 7633WAT     H131238   3.390   1.401   6.347
 7633WAT     H231239   3.398   1.537   6.364
 7633WAT    EPW31240   3.430   1.466   6.367
 7634WAT      O31241   4.340   1.429   6.010
 7634WAT     H131242   4.405   1.483   6.030
 7634WAT     H231243   4.314   1.457   5.932
 7634WAT    EPW31244   4.346   1.441   6.001
 7635WAT      O31245   3.465   2.819   6.740
 7635WAT     H131246   3.533   2.860   6.776
 7635WAT     H231247   3.443   2.870   6.672
 7635WAT    EPW31248   3.472   2.832   6.735
 7636WAT      O31249   4.330   1.930   5.758
 7636WAT     H131250   4.375   1.855   5.768
 7636WAT     H231251   4.277   1.931   5.827
 7636WAT    EPW31252   4.329   1.919   5.770
 7637WAT      O31253   3.302   1.806   5.681
 7637WAT     H131254   3.266   1.831   5.756
 7637WAT     H231255   3.355   1.741   5.704
 7637WAT    EPW31256   3.305   1.800   5.695
 7638WAT      O31257   3.282   2.583   6.447
 7638WAT     H131258   3.231   2.647   6.479
 7638WAT     H231259   3.362   2.607   6.471
 7638WAT    EPW31260   3.286   2.596   6.456
 7639WAT      O31261   4.421   2.059   5.373
 7639WAT     H131262   4.449   1.980   5.395
 7639WAT     H231263   4.334   2.053   5.382
 7639WAT    EPW31264   4.412   2.047   5.378
 7640WAT      O31265   3.873   2.188   5.261
 7640WAT     H131266   3.891   2.225   5.184
 7640WAT     H231267   3.952   2.169   5.293
 7640WAT    EPW31268   3.888   2.191   5.254
 7641WAT      O31269   4.812   3.127   4.990
 7641WAT     H131270   4.872   3.093   5.044
 7641WAT     H231271   4.783   3.058   4.946
 7641WAT    EPW31272   4.817   3.112   4.992
 7642WAT      O31273   4.790   2.256   6.703
 7642WAT     H131274   4.862   2.219   6.736
 7642WAT     H231275   4.819   2.297   6.632
 7642WAT    EPW31276   4.805   2.256   6.697
 7643WAT      O31277   4.818   1.712   6.797
 7643WAT     H131278   4.809   1.791   6.832
 7643WAT     H231279   4.740   1.696   6.761
 7643WAT    EPW31280   4.805   1.722   6.797
 7644WAT      O31281   4.877   1.832   6.099
 7644WAT     H131282   4.795   1.856   6.081
 7644WAT     H231283   4.872   1.745   6.105
 7644WAT    EPW31284   4.864   1.823   6.098
 7645WAT      O31285   3.809   1.483   6.605
 7645WAT     H131286   3.840   1.450   6.531
 7645WAT     H231287   3.727   1.451   6.609
 7645WAT    EPW31288   3.801   1.473   6.595
 7646WAT      O31289   4.559   2.320   6.926
 7646WAT     H131290   4.638   2.343   6.954
 7646WAT     H231291   4.560   2.339   6.841
 7646WAT    EPW31292   4.571   2.326   6.917
 7647WAT      O31293   3.554   2.824   5.920
 7647WAT     H131294   3.625   2.808   5.873
 7647WAT     H231295   3.516   2.892   5.879
 7647WAT    EPW31296   3.559   2.832   5.907
 7648WAT      O31297   4.187   2.619   5.215
 7648WAT     H131298   4.218   2.555   5.164
 7648WAT     H231299   4.147   2.672   5.159
 7648WAT    EPW31300   4.186   2.617   5.199
 7649WAT      O31301   3.237   2.994   6.260
 7649WAT     H131302   3.284   2.982   6.331
 7649WAT     H231303   3.265   2.932   6.205
 7649WAT    EPW31304   3.248   2.983   6.262
 7650WAT      O31305   4.231   1.291   3.656
 7650WAT     H131306   4.233   1.340   3.584
 7650WAT     H231307   4.315   1.272   3.670
 7650WAT    EPW31308   4.244   1.295   3.648
 7651WAT      O31309   4.216   1.961   4.091
 7651WAT     H131310   4.183   2.041   4.082
 7651WAT     H231311   4.278   1.971   4.152
 7651WAT    EPW31312   4.220   1.974   4.099
 7652WAT      O31313   3.122   1.754   3.292
 7652WAT     H131314   3.059   1.725   3.240
 7652WAT     H231315   3.136   1.686   3.346
 7652WAT    EPW31316   3.115   1.740   3.293
 7653WAT      O31317   4.486   2.059   3.821
 7653WAT     H131318   4.433   2.128   3.826
 7653WAT     H231319   4.431   1.991   3.824
 7653WAT    EPW31320   4.470   2.059   3.822
 7654WAT      O31321   3.850   1.445   3.534
 7654WAT     H131322   3.867   1.515   3.485
 7654WAT     H231323   3.927   1.404   3.539
 7654WAT    EPW31324   3.864   1.449   3.527
 7655WAT      O31325   3.727   2.468   4.709
 7655WAT     H131326   3.704   2.497   4.788
 7655WAT     H231327   3.693   2.527   4.655
 7655WAT    EPW31328   3.719   2.481   4.713
 7656WAT      O31329   3.813   1.778   4.241
 7656WAT     H131330   3.798   1.762   4.156
 7656WAT     H231331   3.775   1.711   4.281
 7656WAT    EPW31332   3.805   1.766   4.234
 7657WAT      O31333   3.492   2.155   3.677
 7657WAT     H131334   3.500   2.227   3.726
 7657WAT     H231335   3.465   2.095   3.734
 7657WAT    EPW31336   3.489   2.157   3.693
 7658WAT      O31337   3.979   2.411   3.458
 7658WAT     H131338   3.934   2.456   3.518
 7658WAT     H231339   3.980   2.464   3.389
 7658WAT    EPW31340   3.973   2.425   3.457
 7659WAT      O31341   4.127   2.012   4.719
 7659WAT     H131342   4.044   1.987   4.715
 7659WAT     H231343   4.134   2.068   4.652
 7659WAT    EPW31344   4.116   2.017   4.708
 7660WAT      O31345   3.586   1.543   3.619
 7660WAT     H131346   3.554   1.602   3.563
 7660WAT     H231347   3.668   1.532   3.592
 7660WAT    EPW31348   3.594   1.550   3.607
 7661WAT      O31349   4.592   1.244   4.603
 7661WAT     H131350   4.569   1.312   4.553
 7661WAT     H231351   4.520   1.224   4.646
 7661WAT    EPW31352   4.578   1.251   4.602
 7662WAT      O31353   3.861   1.401   3.842
 7662WAT     H131354   3.909   1.474   3.841
 7662WAT     H231355   3.827   1.399   3.761
 7662WAT    EPW31356   3.863   1.412   3.830
 7663WAT      O31357   4.335   1.645   3.058
 7663WAT     H131358   4.292   1.715   3.087
 7663WAT     H231359   4.349   1.597   3.129
 7663WAT    EPW31360   4.331   1.648   3.073
 7664WAT      O31361   3.209   1.969   4.043
 7664WAT     H131362   3.179   2.049   4.025
 7664WAT     H231363   3.140   1.928   4.077
 7664WAT    EPW31364   3.195   1.975   4.046
 7665WAT      O31365   3.430   1.457   4.028
 7665WAT     H131366   3.407   1.388   3.979
 7665WAT     H231367   3.480   1.423   4.090
 7665WAT    EPW31368   3.434   1.442   4.030
 7666WAT      O31369   3.766   1.613   4.990
 7666WAT     H131370   3.776   1.565   4.918
 7666WAT     H231371   3.817   1.682   4.975
 7666WAT    EPW31372   3.775   1.616   4.977
 7667WAT      O31373   4.906   1.645   3.758
 7667WAT     H131374   4.865   1.722   3.762
 7667WAT     H231375   4.843   1.589   3.734
 7667WAT    EPW31376   4.890   1.648   3.755
 7668WAT      O31377   3.359   1.536   4.907
 7668WAT     H131378   3.282   1.499   4.892
 7668WAT     H231379   3.410   1.505   4.843
 7668WAT    EPW31380   3.355   1.526   4.896
 7669WAT      O31381   3.990   1.345   4.854
 7669WAT     H131382   4.013   1.275   4.807
 7669WAT     H231383   3.918   1.373   4.814
 7669WAT    EPW31384   3.983   1.339   4.841
 7670WAT      O31385   4.102   1.866   3.680
 7670WAT     H131386   4.120   1.840   3.599
 7670WAT     H231387   4.178   1.855   3.723
 7670WAT    EPW31388   4.116   1.861   3.675
 7671WAT      O31389   4.156   1.868   3.149
 7671WAT     H131390   4.182   1.948   3.125
 7671WAT     H231391   4.072   1.867   3.127
 7671WAT    EPW31392   4.148   1.880   3.143
 7672WAT      O31393   4.839   1.563   4.203
 7672WAT     H131394   4.897   1.553   4.139
 7672WAT     H231395   4.863   1.503   4.262
 7672WAT    EPW31396   4.851   1.553   4.202
 7673WAT      O31397   3.082   1.631   4.623
 7673WAT     H131398   3.074   1.684   4.692
 7673WAT     H231399   3.148   1.666   4.579
 7673WAT    EPW31400   3.090   1.644   4.627
 7674WAT      O31401   3.895   2.686   3.049
 7674WAT     H131402   3.829   2.687   3.105
 7674WAT     H231403   3.882   2.756   2.999
 7674WAT    EPW31404   3.884   2.696   3.050
 7675WAT      O31405   4.380   1.489   3.286
 7675WAT     H131406   4.437   1.424   3.304
 7675WAT     H231407   4.416   1.558   3.325
 7675WAT    EPW31408   4.394   1.489   3.294
 7676WAT      O31409   3.196   1.577   3.498
 7676WAT     H131410   3.179   1.492   3.489
 7676WAT     H231411   3.170   1.594   3.580
 7676WAT    EPW31412   3.189   1.567   3.509
 7677WAT      O31413   4.162   1.777   3.418
 7677WAT     H131414   4.099   1.717   3.410
 7677WAT     H231415   4.165   1.815   3.339
 7677WAT    EPW31416   4.153   1.774   3.405
 7678WAT      O31417   4.149   1.409   3.418
 7678WAT     H131418   4.097   1.382   3.354
 7678WAT     H231419   4.218   1.441   3.375
 7678WAT    EPW31420   4.151   1.410   3.402
 7679WAT      O31421   4.000   1.654   3.844
 7679WAT     H131422   4.023   1.723   3.795
 7679WAT     H231423   4.033   1.673   3.922
 7679WAT    EPW31424   4.008   1.667   3.848
 7680WAT      O31425   3.419   1.320   3.614
 7680WAT     H131426   3.473   1.388   3.610
 7680WAT     H231427   3.454   1.262   3.559
 7680WAT    EPW31428   3.432   1.322   3.605
 7681WAT      O31429   3.819   2.221   4.185
 7681WAT     H131430   3.811   2.282   4.247
 7681WAT     H231431   3.756   2.241   4.129
 7681WAT    EPW31432   3.809   2.233   4.186
 7682WAT      O31433   4.270   1.709   4.448
 7682WAT     H131434   4.293   1.740   4.527
 7682WAT     H231435   4.236   1.631   4.466
 7682WAT    EPW31436   4.269   1.702   4.462
 7683WAT      O31437   3.785   2.394   4.397
 7683WAT     H131438   3.748   2.470   4.414
 7683WAT     H231439   3.783   2.352   4.473
 7683WAT    EPW31440   3.780   2.399   4.411
 7684WAT      O31441   4.435   1.143   3.777
 7684WAT     H131442   4.472   1.183   3.845
 7684WAT     H231443   4.502   1.108   3.735
 7684WAT    EPW31444   4.450   1.144   3.781
 7685WAT      O31445   3.141   2.676   4.973
 7685WAT     H131446   3.209   2.676   4.919
 7685WAT     H231447   3.152   2.604   5.020
 7685WAT    EPW31448   3.153   2.665   4.972
 7686WAT      O31449   4.678   1.714   4.532
 7686WAT     H131450   4.763   1.698   4.536
 7686WAT     H231451   4.650   1.700   4.614
 7686WAT    EPW31452   4.686   1.710   4.545
 7687WAT      O31453   3.516   1.671   3.863
 7687WAT     H131454   3.536   1.628   3.789
 7687WAT     H231455   3.488   1.608   3.916
 7687WAT    EPW31456   3.515   1.655   3.860
 7688WAT      O31457   3.361   1.911   4.273
 7688WAT     H131458   3.443   1.937   4.260
 7688WAT     H231459   3.322   1.929   4.197
 7688WAT    EPW31460   3.367   1.918   4.260
 7689WAT      O31461   5.022   2.824   4.666
 7689WAT     H131462   4.951   2.873   4.652
 7689WAT     H231463   5.005   2.785   4.743
 7689WAT    EPW31464   5.009   2.825   4.675
 7690WAT      O31465   4.588   2.124   3.192
 7690WAT     H131466   4.588   2.205   3.161
 7690WAT     H231467   4.544   2.130   3.267
 7690WAT    EPW31468   4.582   2.137   3.198
 7691WAT      O31469   4.998   1.582   3.136
 7691WAT     H131470   4.947   1.542   3.195
 7691WAT     H231471   4.941   1.626   3.086
 7691WAT    EPW31472   4.982   1.582   3.137
 7692WAT      O31473   3.923   1.843   4.965
 7692WAT     H131474   3.875   1.879   5.028
 7692WAT     H231475   3.897   1.885   4.893
 7692WAT    EPW31476   3.912   1.854   4.964
 7693WAT      O31477   4.928   1.988   4.432
 7693WAT     H131478   4.939   1.940   4.360
 7693WAT     H231479   4.843   2.006   4.431
 7693WAT    EPW31480   4.917   1.983   4.421
 7694WAT      O31481   3.166   2.142   3.517
 7694WAT     H131482   3.205   2.066   3.537
 7694WAT     H231483   3.233   2.195   3.499
 7694WAT    EPW31484   3.182   2.139   3.517
 7695WAT      O31485   4.838   1.470   3.337
 7695WAT     H131486   4.888   1.416   3.384
 7695WAT     H231487   4.778   1.497   3.394
 7695WAT    EPW31488   4.837   1.466   3.352
 7696WAT      O31489   4.523   1.666   3.861
 7696WAT     H131490   4.551   1.634   3.938
 7696WAT     H231491   4.541   1.602   3.805
 7696WAT    EPW31492   4.529   1.652   3.864
 7697WAT      O31493   3.220   2.392   3.202
 7697WAT     H131494   3.247   2.336   3.140
 7697WAT     H231495   3.283   2.386   3.262
 7697WAT    EPW31496   3.234   2.383   3.201
 7698WAT      O31497   3.900   1.657   3.368
 7698WAT     H131498   3.874   1.647   3.285
 7698WAT     H231499   3.875   1.738   3.387
 7698WAT    EPW31500   3.892   1.667   3.358
 7699WAT      O31501   3.454   1.996   4.873
 7699WAT     H131502   3.416   1.937   4.924
 7699WAT     H231503   3.462   1.955   4.796
 7699WAT    EPW31504   3.449   1.982   4.869
 7700WAT      O31505   3.556   2.004   3.438
 7700WAT     H131506   3.541   2.048   3.512
 7700WAT     H231507   3.508   1.932   3.448
 7700WAT    EPW31508   3.547   2.000   3.451
 7701WAT      O31509   3.565   2.257   4.067
 7701WAT     H131510   3.550   2.308   3.999
 7701WAT     H231511   3.527   2.181   4.045
 7701WAT    EPW31512   3.557   2.253   4.054
 7702WAT      O31513   3.541   2.104   4.483
 7702WAT     H131514   3.581   2.067   4.415
 7702WAT     H231515   3.493   2.167   4.446
 7702WAT    EPW31516   3.540   2.108   4.467
 7703WAT      O31517   4.606   1.898   4.156
 7703WAT     H131518   4.545   1.922   4.214
 7703WAT     H231519   4.620   1.971   4.110
 7703WAT    EPW31520   4.599   1.913   4.158
 7704WAT      O31521   4.157   1.466   4.518
 7704WAT     H131522   4.178   1.385   4.491
 7704WAT     H231523   4.181   1.466   4.602
 7704WAT    EPW31524   4.163   1.454   4.526
 7705WAT      O31525   4.451   1.740   3.376
 7705WAT     H131526   4.511   1.788   3.417
 7705WAT     H231527   4.376   1.765   3.411
 7705WAT    EPW31528   4.449   1.750   3.387
 7706WAT      O31529   3.345   2.249   4.848
 7706WAT     H131530   3.385   2.290   4.782
 7706WAT     H231531   3.385   2.171   4.850
 7706WAT    EPW31532   3.357   2.243   4.838
 7707WAT      O31533   4.435   2.565   4.667
 7707WAT     H131534   4.454   2.641   4.629
 7707WAT     H231535   4.462   2.505   4.609
 7707WAT    EPW31536   4.442   2.567   4.653
 7708WAT      O31537   3.698   1.337   3.310
 7708WAT     H131538   3.728   1.357   3.389
 7708WAT     H231539   3.647   1.406   3.290
 7708WAT    EPW31540   3.695   1.350   3.319
 7709WAT      O31541   4.537   2.335   4.534
 7709WAT     H131542   4.544   2.317   4.449
 7709WAT     H231543   4.618   2.361   4.556
 7709WAT    EPW31544   4.550   2.337   4.525
 7710WAT      O31545   4.497   2.749   4.941
 7710WAT     H131546   4.464   2.816   4.986
 7710WAT     H231547   4.469   2.762   4.860
 7710WAT    EPW31548   4.488   2.761   4.936
 7711WAT      O31549   4.733   1.379   4.801
 7711WAT     H131550   4.695   1.333   4.738
 7711WAT     H231551   4.739   1.323   4.867
 7711WAT    EPW31552   4.728   1.364   4.802
 7712WAT      O31553   3.356   2.334   3.453
 7712WAT     H131554   3.430   2.288   3.464
 7712WAT     H231555   3.358   2.391   3.519
 7712WAT    EPW31556   3.367   2.335   3.465
 7713WAT      O31557   4.097   2.256   4.573
 7713WAT     H131558   4.062   2.336   4.570
 7713WAT     H231559   4.177   2.268   4.540
 7713WAT    EPW31560   4.104   2.270   4.568
 7714WAT      O31561   3.161   1.297   3.516
 7714WAT     H131562   3.163   1.247   3.444
 7714WAT     H231563   3.245   1.303   3.538
 7714WAT    EPW31564   3.174   1.290   3.508
 7715WAT      O31565   4.216   2.130   3.625
 7715WAT     H131566   4.230   2.172   3.700
 7715WAT     H231567   4.167   2.062   3.649
 7715WAT    EPW31568   4.211   2.126   3.640
 7716WAT      O31569   3.549   1.563   3.239
 7716WAT     H131570   3.489   1.549   3.177
 7716WAT     H231571   3.615   1.599   3.195
 7716WAT    EPW31572   3.550   1.566   3.223
 7717WAT      O31573   4.103   2.223   4.077
 7717WAT     H131574   4.016   2.225   4.087
 7717WAT     H231575   4.131   2.292   4.123
 7717WAT    EPW31576   4.094   2.234   4.086
 7718WAT      O31577   3.416   2.292   4.321
 7718WAT     H131578   3.427   2.363   4.370
 7718WAT     H231579   3.469   2.305   4.253
 7718WAT    EPW31580   3.425   2.305   4.318
 7719WAT      O31581   3.763   1.733   3.977
 7719WAT     H131582   3.821   1.712   3.916
 7719WAT     H231583   3.686   1.718   3.939
 7719WAT    EPW31584   3.760   1.728   3.963
 7720WAT      O31585   3.254   1.891   3.597
 7720WAT     H131586   3.295   1.898   3.673
 7720WAT     H231587   3.307   1.840   3.550
 7720WAT    EPW31588   3.268   1.884   3.601
 7721WAT      O31589   4.594   2.217   4.287
 7721WAT     H131590   4.620   2.146   4.330
 7721WAT     H231591   4.605   2.196   4.203
 7721WAT    EPW31592   4.600   2.204   4.281
 7722WAT      O31593   3.667   2.028   3.164
 7722WAT     H131594   3.626   2.030   3.241
 7722WAT     H231595   3.602   2.025   3.106
 7722WAT    EPW31596   3.652   2.028   3.167
 7723WAT      O31597   4.685   2.407   3.915
 7723WAT     H131598   4.600   2.427   3.925
 7723WAT     H231599   4.706   2.444   3.839
 7723WAT    EPW31600   4.675   2.415   3.905
 7724WAT      O31601   3.822   1.913   3.427
 7724WAT     H131602   3.868   1.983   3.404
 7724WAT     H231603   3.741   1.943   3.435
 7724WAT    EPW31604   3.817   1.928   3.425
 7725WAT      O31605   4.610   1.635   4.793
 7725WAT     H131606   4.536   1.636   4.839
 7725WAT     H231607   4.639   1.553   4.802
 7725WAT    EPW31608   4.603   1.623   4.801
 7726WAT      O31609   3.154   1.521   4.025
 7726WAT     H131610   3.146   1.549   3.943
 7726WAT     H231611   3.240   1.510   4.035
 7726WAT    EPW31612   3.166   1.523   4.015
 7727WAT      O31613   4.860   2.911   3.866
 7727WAT     H131614   4.845   2.843   3.813
 7727WAT     H231615   4.850   2.980   3.813
 7727WAT    EPW31616   4.856   2.911   3.851
 7728WAT      O31617   4.422   2.166   4.878
 7728WAT     H131618   4.452   2.140   4.956
 7728WAT     H231619   4.455   2.246   4.870
 7728WAT    EPW31620   4.431   2.174   4.889
 7729WAT      O31621   4.646   2.064   4.730
 7729WAT     H131622   4.685   2.142   4.738
 7729WAT     H231623   4.573   2.073   4.777
 7729WAT    EPW31624   4.641   2.077   4.738
 7730WAT      O31625   4.701   1.856   3.769
 7730WAT     H131626   4.645   1.796   3.799
 7730WAT     H231627   4.664   1.932   3.793
 7730WAT    EPW31628   4.687   1.858   3.777
 7731WAT      O31629   4.965   2.136   4.877
 7731WAT     H131630   4.962   2.069   4.821
 7731WAT     H231631   5.044   2.169   4.864
 7731WAT    EPW31632   4.976   2.131   4.867
 7732WAT      O31633   4.806   2.450   4.528
 7732WAT     H131634   4.883   2.491   4.527
 7732WAT     H231635   4.771   2.470   4.451
 7732WAT    EPW31636   4.813   2.459   4.517
 7733WAT      O31637   4.346   2.405   3.204
 7733WAT     H131638   4.430   2.428   3.211
 7733WAT     H231639   4.333   2.398   3.118
 7733WAT    EPW31640   4.357   2.407   3.193
 7734WAT      O31641   4.531   1.488   4.450
 7734WAT     H131642   4.581   1.557   4.469
 7734WAT     H231643   4.458   1.524   4.418
 7734WAT    EPW31644   4.528   1.503   4.448
 7735WAT      O31645   3.992   2.074   4.370
 7735WAT     H131646   4.009   2.131   4.433
 7735WAT     H231647   3.940   2.118   4.316
 7735WAT    EPW31648   3.987   2.089   4.371
 7736WAT      O31649   3.718   1.731   4.616
 7736WAT     H131650   3.734   1.664   4.670
 7736WAT     H231651   3.715   1.693   4.538
 7736WAT    EPW31652   3.720   1.716   4.613
 7737WAT      O31653   4.643   1.293   4.284
 7737WAT     H131654   4.609   1.364   4.322
 7737WAT     H231655   4.727   1.295   4.308
 7737WAT    EPW31656   4.650   1.304   4.293
 7738WAT      O31657   3.887   1.391   4.493
 7738WAT     H131658   3.970   1.417   4.497
 7738WAT     H231659   3.890   1.314   4.452
 7738WAT    EPW31660   3.899   1.384   4.488
 7739WAT      O31661   4.197   2.499   4.794
 7739WAT     H131662   4.266   2.527   4.749
 7739WAT     H231663   4.130   2.523   4.744
 7739WAT    EPW31664   4.197   2.507   4.780
 7740WAT      O31665   4.839   1.994   3.183
 7740WAT     H131666   4.877   2.038   3.118
 7740WAT     H231667   4.761   2.032   3.189
 7740WAT    EPW31668   4.833   2.006   3.174
 7741WAT      O31669   3.974   2.286   3.094
 7741WAT     H131670   3.919   2.312   3.032
 7741WAT     H231671   4.000   2.360   3.132
 7741WAT    EPW31672   3.970   2.300   3.090
 7742WAT      O31673   3.643   1.997   4.252
 7742WAT     H131674   3.692   2.064   4.224
 7742WAT     H231675   3.697   1.929   4.248
 7742WAT    EPW31676   3.658   1.997   4.247
 7743WAT      O31677   4.337   1.835   4.687
 7743WAT     H131678   4.268   1.884   4.709
 7743WAT     H231679   4.355   1.791   4.760
 7743WAT    EPW31680   4.329   1.836   4.701
 7744WAT      O31681   4.375   1.939   4.318
 7744WAT     H131682   4.380   1.999   4.381
 7744WAT     H231683   4.366   1.864   4.362
 7744WAT    EPW31684   4.375   1.937   4.333
 7745WAT      O31685   4.639   1.920   3.505
 7745WAT     H131686   4.651   1.888   3.585
 7745WAT     H231687   4.716   1.957   3.486
 7745WAT    EPW31688   4.652   1.921   3.514
 7746WAT      O31689   3.863   1.386   4.128
 7746WAT     H131690   3.779   1.373   4.150
 7746WAT     H231691   3.860   1.390   4.041
 7746WAT    EPW31692   3.850   1.384   4.119
 7747WAT      O31693   3.985   2.519   4.617
 7747WAT     H131694   3.906   2.507   4.652
 7747WAT     H231695   3.972   2.585   4.561
 7747WAT    EPW31696   3.971   2.527   4.614
 7748WAT      O31697   3.135   1.411   4.783
 7748WAT     H131698   3.122   1.476   4.726
 7748WAT     H231699   3.054   1.391   4.810
 7748WAT    EPW31700   3.121   1.418   4.779
 7749WAT      O31701   3.435   1.714   3.453
 7749WAT     H131702   3.469   1.687   3.377
 7749WAT     H231703   3.364   1.664   3.462
 7749WAT    EPW31704   3.430   1.703   3.443
 7750WAT      O31705   4.295   2.264   3.865
 7750WAT     H131706   4.232   2.254   3.925
 7750WAT     H231707   4.338   2.335   3.892
 7750WAT    EPW31708   4.292   2.273   3.878
 7751WAT      O31709   4.907   1.927   4.699
 7751WAT     H131710   4.823   1.947   4.708
 7751WAT     H231711   4.926   1.952   4.618
 7751WAT    EPW31712   4.897   1.934   4.689
 7752WAT      O31713   4.361   2.114   4.543
 7752WAT     H131714   4.383   2.057   4.606
 7752WAT     H231715   4.421   2.177   4.551
 7752WAT    EPW31716   4.373   2.115   4.554
 7753WAT      O31717   4.748   2.870   4.908
 7753WAT     H131718   4.812   2.811   4.916
 7753WAT     H231719   4.675   2.822   4.913
 7753WAT    EPW31720   4.747   2.854   4.910
 7754WAT      O31721   3.481   1.876   4.628
 7754WAT     H131722   3.497   1.947   4.581
 7754WAT     H231723   3.556   1.832   4.626
 7754WAT    EPW31724   3.494   1.880   4.621
 7755WAT      O31725   3.302   1.728   4.479
 7755WAT     H131726   3.310   1.770   4.403
 7755WAT     H231727   3.355   1.773   4.533
 7755WAT    EPW31728   3.311   1.741   4.476
 7756WAT      O31729   4.895   2.029   3.459
 7756WAT     H131730   4.890   2.021   3.372
 7756WAT     H231731   4.951   1.966   3.482
 7756WAT    EPW31732   4.903   2.019   3.449
 7757WAT      O31733   3.500   1.403   4.705
 7757WAT     H131734   3.465   1.324   4.705
 7757WAT     H231735   3.487   1.433   4.624
 7757WAT    EPW31736   3.493   1.396   4.693
 7758WAT      O31737   4.652   1.992   4.462
 7758WAT     H131738   4.653   1.905   4.469
 7758WAT     H231739   4.642   2.019   4.544
 7758WAT    EPW31740   4.651   1.983   4.475
 7759WAT      O31741   3.147   2.251   4.270
 7759WAT     H131742   3.232   2.265   4.285
 7759WAT     H231743   3.129   2.182   4.320
 7759WAT    EPW31744   3.157   2.242   4.280
 7760WAT      O31745   3.334   1.790   3.111
 7760WAT     H131746   3.269   1.788   3.169
 7760WAT     H231747   3.337   1.708   3.081
 7760WAT    EPW31748   3.325   1.778   3.115
 7761WAT      O31749   4.232   1.466   4.785
 7761WAT     H131750   4.263   1.530   4.837
 7761WAT     H231751   4.159   1.442   4.825
 7761WAT    EPW31752   4.226   1.472   4.798
 7762WAT      O31753   4.227   1.487   3.853
 7762WAT     H131754   4.160   1.539   3.829
 7762WAT     H231755   4.230   1.427   3.789
 7762WAT    EPW31756   4.217   1.486   3.840
 7763WAT      O31757   4.574   1.619   4.132
 7763WAT     H131758   4.653   1.589   4.153
 7763WAT     H231759   4.581   1.705   4.141
 7763WAT    EPW31760   4.586   1.627   4.136
 7764WAT      O31761   3.759   2.205   4.622
 7764WAT     H131762   3.740   2.279   4.665
 7764WAT     H231763   3.684   2.184   4.582
 7764WAT    EPW31764   3.745   2.213   4.622
 7765WAT      O31765   4.648   2.147   4.023
 7765WAT     H131766   4.681   2.222   3.995
 7765WAT     H231767   4.596   2.121   3.958
 7765WAT    EPW31768   4.645   2.154   4.009
 7766WAT      O31769   3.702   1.573   4.389
 7766WAT     H131770   3.622   1.538   4.394
 7766WAT     H231771   3.755   1.508   4.410
 7766WAT    EPW31772   3.698   1.558   4.393
 7767WAT      O31773   4.897   1.369   4.399
 7767WAT     H131774   4.897   1.412   4.475
 7767WAT     H231775   4.975   1.329   4.398
 7767WAT    EPW31776   4.909   1.370   4.410
 7768WAT      O31777   4.075   1.598   4.133
 7768WAT     H131778   4.014   1.537   4.142
 7768WAT     H231779   4.149   1.553   4.131
 7768WAT    EPW31780   4.077   1.582   4.134
 7769WAT      O31781   3.859   1.956   4.716
 7769WAT     H131782   3.814   1.896   4.672
 7769WAT     H231783   3.822   2.031   4.692
 7769WAT    EPW31784   3.847   1.958   4.706
 7770WAT      O31785   3.964   1.304   3.235
 7770WAT     H131786   3.976   1.318   3.150
 7770WAT     H231787   3.881   1.326   3.248
 7770WAT    EPW31788   3.953   1.309   3.224
 7771WAT      O31789   4.693   2.492   4.275
 7771WAT     H131790   4.663   2.411   4.259
 7771WAT     H231791   4.630   2.544   4.244
 7771WAT    EPW31792   4.679   2.487   4.268
 7772WAT      O31793   3.441   1.489   4.449
 7772WAT     H131794   3.384   1.427   4.427
 7772WAT     H231795   3.392   1.562   4.452
 7772WAT    EPW31796   3.425   1.491   4.446
 7773WAT      O31797   4.332   1.472   4.105
 7773WAT     H131798   4.404   1.521   4.113
 7773WAT     H231799   4.311   1.480   4.021
 7773WAT    EPW31800   4.340   1.481   4.094
 7774WAT      O31801   4.313   1.846   3.851
 7774WAT     H131802   4.370   1.781   3.862
 7774WAT     H231803   4.290   1.867   3.933
 7774WAT    EPW31804   4.318   1.839   3.865
 7775WAT      O31805   3.394   1.926   3.833
 7775WAT     H131806   3.336   1.933   3.899
 7775WAT     H231807   3.434   1.851   3.849
 7775WAT    EPW31808   3.391   1.916   3.845
 7776WAT      O31809   4.432   2.097   3.444
 7776WAT     H131810   4.498   2.045   3.465
 7776WAT     H231811   4.382   2.096   3.515
 7776WAT    EPW31812   4.434   2.089   3.457
 7777WAT      O31813   3.952   2.151   3.345
 7777WAT     H131814   3.930   2.173   3.263
 7777WAT     H231815   3.927   2.220   3.392
 7777WAT    EPW31816   3.945   2.165   3.340
 7778WAT      O31817   4.769   2.309   4.773
 7778WAT     H131818   4.841   2.273   4.807
 7778WAT     H231819   4.800   2.353   4.703
 7778WAT    EPW31820   4.785   2.311   4.767
 7779WAT      O31821   4.810   1.734   4.958
 7779WAT     H131822   4.797   1.819   4.976
 7779WAT     H231823   4.745   1.715   4.903
 7779WAT    EPW31824   4.798   1.744   4.952
 7780WAT      O31825   4.880   1.843   4.195
 7780WAT     H131826   4.795   1.863   4.184
 7780WAT     H231827   4.879   1.756   4.202
 7780WAT    EPW31828   4.867   1.833   4.194
 7781WAT      O31829   3.769   1.473   4.734
 7781WAT     H131830   3.804   1.445   4.659
 7781WAT     H231831   3.688   1.440   4.732
 7781WAT    EPW31832   3.762   1.464   4.722
 7782WAT      O31833   4.537   2.420   4.889
 7782WAT     H131834   4.618   2.396   4.865
 7782WAT     H231835   4.515   2.479   4.828
 7782WAT    EPW31836   4.546   2.425   4.876
 7783WAT      O31837   4.059   2.523   3.211
 7783WAT     H131838   4.140   2.553   3.203
 7783WAT     H231839   4.010   2.582   3.170
 7783WAT    EPW31840   4.063   2.536   3.204
 7784WAT      O31841   4.248   1.344   1.777
 7784WAT     H131842   4.247   1.394   1.705
 7784WAT     H231843   4.332   1.327   1.789
 7784WAT    EPW31844   4.260   1.349   1.768
 7785WAT      O31845   4.199   1.982   2.236
 7785WAT     H131846   4.175   2.061   2.264
 7785WAT     H231847   4.256   1.955   2.296
 7785WAT    EPW31848   4.204   1.990   2.249
 7786WAT      O31849   3.182   2.393   1.725
 7786WAT     H131850   3.099   2.393   1.753
 7786WAT     H231851   3.189   2.317   1.684
 7786WAT    EPW31852   3.171   2.382   1.723
 7787WAT      O31853   4.822   2.814   1.566
 7787WAT     H131854   4.889   2.760   1.579
 7787WAT     H231855   4.765   2.764   1.522
 7787WAT    EPW31856   4.823   2.798   1.561
 7788WAT      O31857   3.150   1.740   1.368
 7788WAT     H131858   3.085   1.788   1.335
 7788WAT     H231859   3.120   1.658   1.363
 7788WAT    EPW31860   3.136   1.735   1.362
 7789WAT      O31861   3.418   2.342   1.343
 7789WAT     H131862   3.402   2.305   1.266
 7789WAT     H231863   3.445   2.276   1.393
 7789WAT    EPW31864   3.420   2.327   1.339
 7790WAT      O31865   4.448   2.141   1.888
 7790WAT     H131866   4.450   2.128   1.801
 7790WAT     H231867   4.391   2.081   1.916
 7790WAT    EPW31868   4.440   2.130   1.879
 7791WAT      O31869   3.452   2.517   1.705
 7791WAT     H131870   3.522   2.471   1.727
 7791WAT     H231871   3.385   2.467   1.730
 7791WAT    EPW31872   3.453   2.503   1.712
 7792WAT      O31873   3.911   1.472   1.670
 7792WAT     H131874   3.896   1.542   1.620
 7792WAT     H231875   3.984   1.438   1.636
 7792WAT    EPW31876   3.919   1.477   1.657
 7793WAT      O31877   3.349   2.799   1.301
 7793WAT     H131878   3.398   2.810   1.229
 7793WAT     H231879   3.386   2.730   1.340
 7793WAT    EPW31880   3.362   2.791   1.296
 7794WAT      O31881   3.194   2.443   2.426
 7794WAT     H131882   3.233   2.499   2.480
 7794WAT     H231883   3.109   2.459   2.438
 7794WAT    EPW31884   3.187   2.453   2.436
 7795WAT      O31885   3.853   2.455   2.900
 7795WAT     H131886   3.867   2.528   2.945
 7795WAT     H231887   3.768   2.458   2.881
 7795WAT    EPW31888   3.843   2.467   2.904
 7796WAT      O31889   3.340   2.147   1.881
 7796WAT     H131890   3.301   2.151   1.804
 7796WAT     H231891   3.401   2.085   1.870
 7796WAT    EPW31892   3.344   2.138   1.868
 7797WAT      O31893   3.767   1.847   2.394
 7797WAT     H131894   3.845   1.839   2.357
 7797WAT     H231895   3.749   1.766   2.422
 7797WAT    EPW31896   3.775   1.834   2.393
 7798WAT      O31897   3.528   1.957   1.816
 7798WAT     H131898   3.596   1.917   1.852
 7798WAT     H231899   3.464   1.897   1.820
 7798WAT    EPW31900   3.528   1.943   1.822
 7799WAT      O31901   3.993   2.628   2.104
 7799WAT     H131902   4.012   2.543   2.105
 7799WAT     H231903   4.070   2.666   2.088
 7799WAT    EPW31904   4.008   2.621   2.102
 7800WAT      O31905   4.148   2.012   2.786
 7800WAT     H131906   4.062   1.996   2.778
 7800WAT     H231907   4.154   2.054   2.862
 7800WAT    EPW31908   4.136   2.016   2.796
 7801WAT      O31909   3.636   1.461   1.742
 7801WAT     H131910   3.594   1.512   1.684
 7801WAT     H231911   3.719   1.468   1.719
 7801WAT    EPW31912   3.642   1.470   1.730
 7802WAT      O31913   4.563   1.247   2.753
 7802WAT     H131914   4.547   1.314   2.699
 7802WAT     H231915   4.486   1.231   2.789
 7802WAT    EPW31916   4.550   1.255   2.750
 7803WAT      O31917   3.943   1.403   1.946
 7803WAT     H131918   3.944   1.485   1.977
 7803WAT     H231919   3.929   1.413   1.861
 7803WAT    EPW31920   3.941   1.417   1.938
 7804WAT      O31921   4.330   1.640   1.172
 7804WAT     H131922   4.291   1.707   1.212
 7804WAT     H231923   4.348   1.585   1.237
 7804WAT    EPW31924   4.327   1.642   1.187
 7805WAT      O31925   3.169   1.878   2.088
 7805WAT     H131926   3.157   1.964   2.082
 7805WAT     H231927   3.106   1.853   2.143
 7805WAT    EPW31928   3.158   1.887   2.095
 7806WAT      O31929   3.249   2.925   1.972
 7806WAT     H131930   3.178   2.958   1.933
 7806WAT     H231931   3.284   2.873   1.910
 7806WAT    EPW31932   3.244   2.922   1.957
 7807WAT      O31933   3.707   2.724   1.700
 7807WAT     H131934   3.724   2.725   1.786
 7807WAT     H231935   3.771   2.675   1.667
 7807WAT    EPW31936   3.719   2.717   1.708
 7808WAT      O31937   4.352   2.914   1.445
 7808WAT     H131938   4.422   2.958   1.474
 7808WAT     H231939   4.368   2.832   1.467
 7808WAT    EPW31940   4.365   2.909   1.452
 7809WAT      O31941   4.203   2.966   1.670
 7809WAT     H131942   4.242   3.032   1.711
 7809WAT     H231943   4.250   2.956   1.597
 7809WAT    EPW31944   4.216   2.974   1.665
 7810WAT      O31945   3.433   1.434   2.159
 7810WAT     H131946   3.419   1.359   2.116
 7810WAT     H231947   3.489   1.410   2.221
 7810WAT    EPW31948   3.439   1.419   2.162
 7811WAT      O31949   3.785   1.637   3.106
 7811WAT     H131950   3.795   1.593   3.031
 7811WAT     H231951   3.813   1.717   3.086
 7811WAT    EPW31952   3.790   1.642   3.092
 7812WAT      O31953   3.355   2.781   1.751
 7812WAT     H131954   3.408   2.712   1.752
 7812WAT     H231955   3.391   2.833   1.691
 7812WAT    EPW31956   3.368   2.779   1.742
 7813WAT      O31957   4.925   1.602   1.878
 7813WAT     H131958   4.877   1.674   1.892
 7813WAT     H231959   4.865   1.542   1.857
 7813WAT    EPW31960   4.909   1.604   1.877
 7814WAT      O31961   3.360   1.522   3.025
 7814WAT     H131962   3.281   1.492   3.004
 7814WAT     H231963   3.411   1.495   2.959
 7814WAT    EPW31964   3.356   1.514   3.012
 7815WAT      O31965   3.539   2.655   2.072
 7815WAT     H131966   3.610   2.678   2.028
 7815WAT     H231967   3.568   2.597   2.130
 7815WAT    EPW31968   3.554   2.650   2.074
 7816WAT      O31969   3.848   2.984   2.075
 7816WAT     H131970   3.933   2.996   2.059
 7816WAT     H231971   3.843   2.991   2.162
 7816WAT    EPW31972   3.860   2.986   2.086
 7817WAT      O31973   3.981   1.348   2.965
 7817WAT     H131974   3.997   1.279   2.914
 7817WAT     H231975   3.909   1.383   2.930
 7817WAT    EPW31976   3.973   1.343   2.952
 7818WAT      O31977   4.099   1.821   1.827
 7818WAT     H131978   4.131   1.790   1.752
 7818WAT     H231979   4.169   1.851   1.868
 7818WAT    EPW31980   4.114   1.821   1.822
 7819WAT      O31981   4.188   1.845   1.310
 7819WAT     H131982   4.201   1.923   1.347
 7819WAT     H231983   4.113   1.855   1.268
 7819WAT    EPW31984   4.179   1.858   1.309
 7820WAT      O31985   4.575   3.034   1.554
 7820WAT     H131986   4.582   3.119   1.574
 7820WAT     H231987   4.594   2.994   1.629
 7820WAT    EPW31988   4.579   3.041   1.568
 7821WAT      O31989   4.851   1.540   2.331
 7821WAT     H131990   4.913   1.531   2.271
 7821WAT     H231991   4.869   1.478   2.389
 7821WAT    EPW31992   4.863   1.530   2.331
 7822WAT      O31993   3.089   1.618   2.685
 7822WAT     H131994   3.078   1.689   2.734
 7822WAT     H231995   3.156   1.639   2.633
 7822WAT    EPW31996   3.097   1.632   2.684
 7823WAT      O31997   4.489   2.761   2.625
 7823WAT     H131998   4.426   2.813   2.592
 7823WAT     H231999   4.553   2.817   2.642
 7823WAT    EPW32000   4.489   2.777   2.622
 7824WAT      O32001   3.956   2.716   1.353
 7824WAT     H132002   3.969   2.791   1.395
 7824WAT     H232003   3.969   2.656   1.415
 7824WAT    EPW32004   3.960   2.718   1.368
 7825WAT      O32005   4.382   1.458   1.377
 7825WAT     H132006   4.443   1.395   1.374
 7825WAT     H232007   4.404   1.504   1.448
 7825WAT    EPW32008   4.394   1.455   1.387
 7826WAT      O32009   3.225   1.546   1.649
 7826WAT     H132010   3.197   1.464   1.635
 7826WAT     H232011   3.178   1.572   1.718
 7826WAT    EPW32012   3.214   1.538   1.657
 7827WAT      O32013   3.327   2.817   2.400
 7827WAT     H132014   3.268   2.796   2.339
 7827WAT     H232015   3.396   2.842   2.354
 7827WAT    EPW32016   3.328   2.817   2.384
 7828WAT      O32017   4.159   1.730   1.565
 7828WAT     H132018   4.083   1.691   1.549
 7828WAT     H232019   4.177   1.773   1.491
 7828WAT    EPW32020   4.151   1.731   1.552
 7829WAT      O32021   4.140   1.403   1.512
 7829WAT     H132022   4.081   1.373   1.455
 7829WAT     H232023   4.210   1.419   1.463
 7829WAT    EPW32024   4.142   1.401   1.496
 7830WAT      O32025   4.816   3.114   1.863
 7830WAT     H132026   4.766   3.173   1.904
 7830WAT     H232027   4.762   3.046   1.851
 7830WAT    EPW32028   4.800   3.113   1.868
 7831WAT      O32029   3.949   1.673   2.005
 7831WAT     H132030   3.998   1.719   1.949
 7831WAT     H232031   3.966   1.711   2.082
 7831WAT    EPW32032   3.959   1.686   2.009
 7832WAT      O32033   4.645   2.615   1.900
 7832WAT     H132034   4.708   2.555   1.891
 7832WAT     H232035   4.573   2.567   1.908
 7832WAT    EPW32036   4.644   2.599   1.900
 7833WAT      O32037   3.582   1.199   1.800
 7833WAT     H132038   3.599   1.283   1.783
 7833WAT     H232039   3.558   1.167   1.722
 7833WAT    EPW32040   3.581   1.206   1.786
 7834WAT      O32041   3.799   2.286   2.254
 7834WAT     H132042   3.828   2.282   2.336
 7834WAT     H232043   3.736   2.225   2.251
 7834WAT    EPW32044   3.794   2.276   2.266
 7835WAT      O32045   4.317   1.648   2.543
 7835WAT     H132046   4.320   1.685   2.622
 7835WAT     H232047   4.254   1.589   2.551
 7835WAT    EPW32048   4.308   1.645   2.556
 7836WAT      O32049   3.907   2.293   2.507
 7836WAT     H132050   3.918   2.378   2.523
 7836WAT     H232051   3.861   2.265   2.576
 7836WAT    EPW32052   3.902   2.302   2.520
 7837WAT      O32053   4.506   1.257   1.829
 7837WAT     H132054   4.507   1.238   1.914
 7837WAT     H232055   4.535   1.183   1.791
 7837WAT    EPW32056   4.510   1.243   1.836
 7838WAT      O32057   3.233   2.633   3.052
 7838WAT     H132058   3.320   2.640   3.048
 7838WAT     H232059   3.220   2.560   3.098
 7838WAT    EPW32060   3.244   2.623   3.058
 7839WAT      O32061   4.696   1.687   2.671
 7839WAT     H132062   4.781   1.670   2.682
 7839WAT     H232063   4.663   1.681   2.752
 7839WAT    EPW32064   4.703   1.683   2.685
 7840WAT      O32065   3.504   1.596   1.947
 7840WAT     H132066   3.540   1.541   1.890
 7840WAT     H232067   3.488   1.546   2.017
 7840WAT    EPW32068   3.507   1.581   1.949
 7841WAT      O32069   4.775   2.392   1.436
 7841WAT     H132070   4.775   2.343   1.508
 7841WAT     H232071   4.860   2.405   1.420
 7841WAT    EPW32072   4.788   2.387   1.444
 7842WAT      O32073   3.534   2.308   1.995
 7842WAT     H132074   3.593   2.330   1.936
 7842WAT     H232075   3.473   2.266   1.949
 7842WAT    EPW32076   3.533   2.305   1.980
 7843WAT      O32077   3.495   3.069   2.018
 7843WAT     H132078   3.413   3.042   2.004
 7843WAT     H232079   3.486   3.133   2.077
 7843WAT    EPW32080   3.481   3.074   2.025
 7844WAT      O32081   3.340   1.838   2.308
 7844WAT     H132082   3.419   1.842   2.271
 7844WAT     H232083   3.286   1.844   2.240
 7844WAT    EPW32084   3.344   1.839   2.293
 7845WAT      O32085   4.564   2.066   1.339
 7845WAT     H132086   4.565   2.149   1.312
 7845WAT     H232087   4.536   2.071   1.421
 7845WAT    EPW32088   4.560   2.079   1.347
 7846WAT      O32089   3.687   2.364   1.758
 7846WAT     H132090   3.755   2.417   1.746
 7846WAT     H232091   3.708   2.294   1.710
 7846WAT    EPW32092   3.700   2.361   1.749
 7847WAT      O32093   4.911   1.535   1.281
 7847WAT     H132094   4.946   1.480   1.224
 7847WAT     H232095   4.866   1.591   1.231
 7847WAT    EPW32096   4.909   1.535   1.265
 7848WAT      O32097   3.281   2.545   2.081
 7848WAT     H132098   3.233   2.610   2.115
 7848WAT     H232099   3.355   2.585   2.057
 7848WAT    EPW32100   3.285   2.561   2.082
 7849WAT      O32101   3.887   1.891   3.065
 7849WAT     H132102   3.825   1.937   3.105
 7849WAT     H232103   3.883   1.920   2.982
 7849WAT    EPW32104   3.877   1.902   3.058
 7850WAT      O32105   5.075   1.946   2.485
 7850WAT     H132106   5.142   1.893   2.466
 7850WAT     H232107   5.008   1.912   2.441
 7850WAT    EPW32108   5.075   1.933   2.476
 7851WAT      O32109   3.240   2.140   1.623
 7851WAT     H132110   3.218   2.056   1.621
 7851WAT     H232111   3.319   2.142   1.586
 7851WAT    EPW32112   3.248   2.128   1.617
 7852WAT      O32113   4.780   1.425   1.506
 7852WAT     H132114   4.852   1.386   1.536
 7852WAT     H232115   4.808   1.470   1.437
 7852WAT    EPW32116   4.795   1.426   1.500
 7853WAT      O32117   4.226   2.770   2.026
 7853WAT     H132118   4.189   2.847   2.010
 7853WAT     H232119   4.242   2.738   1.947
 7853WAT    EPW32120   4.223   2.776   2.012
 7854WAT      O32121   3.179   2.634   1.592
 7854WAT     H132122   3.233   2.685   1.638
 7854WAT     H232123   3.175   2.560   1.639
 7854WAT    EPW32124   3.186   2.631   1.606
 7855WAT      O32125   3.621   2.494   2.280
 7855WAT     H132126   3.668   2.561   2.309
 7855WAT     H232127   3.680   2.431   2.266
 7855WAT    EPW32128   3.636   2.494   2.282
 7856WAT      O32129   4.468   1.692   2.025
 7856WAT     H132130   4.504   1.658   2.096
 7856WAT     H232131   4.405   1.635   2.004
 7856WAT    EPW32132   4.464   1.679   2.032
 7857WAT      O32133   3.166   2.472   1.360
 7857WAT     H132134   3.240   2.425   1.358
 7857WAT     H232135   3.178   2.525   1.428
 7857WAT    EPW32136   3.179   2.473   1.369
 7858WAT      O32137   3.186   2.284   2.069
 7858WAT     H132138   3.228   2.242   2.006
 7858WAT     H232139   3.202   2.368   2.052
 7858WAT    EPW32140   3.195   2.290   2.058
 7859WAT      O32141   3.887   1.675   1.480
 7859WAT     H132142   3.868   1.641   1.401
 7859WAT     H232143   3.855   1.756   1.475
 7859WAT    EPW32144   3.879   1.682   1.467
 7860WAT      O32145   3.779   2.741   1.966
 7860WAT     H132146   3.795   2.818   2.004
 7860WAT     H232147   3.845   2.690   1.993
 7860WAT    EPW32148   3.791   2.745   1.976
 7861WAT      O32149   3.459   1.993   2.974
 7861WAT     H132150   3.418   1.929   3.018
 7861WAT     H232151   3.462   1.963   2.892
 7861WAT    EPW32152   3.453   1.979   2.969
 7862WAT      O32153   3.503   1.863   1.440
 7862WAT     H132154   3.493   1.796   1.494
 7862WAT     H232155   3.464   1.836   1.367
 7862WAT    EPW32156   3.496   1.849   1.437
 7863WAT      O32157   3.561   2.147   2.217
 7863WAT     H132158   3.564   2.183   2.138
 7863WAT     H232159   3.565   2.062   2.201
 7863WAT    EPW32160   3.562   2.140   2.203
 7864WAT      O32161   3.591   2.041   2.516
 7864WAT     H132162   3.649   1.989   2.476
 7864WAT     H232163   3.541   2.070   2.451
 7864WAT    EPW32164   3.592   2.038   2.500
 7865WAT      O32165   4.614   1.872   2.283
 7865WAT     H132166   4.538   1.885   2.324
 7865WAT     H232167   4.604   1.913   2.207
 7865WAT    EPW32168   4.602   1.880   2.278
 7866WAT      O32169   4.149   1.426   2.606
 7866WAT     H132170   4.173   1.344   2.589
 7866WAT     H232171   4.174   1.438   2.688
 7866WAT    EPW32172   4.156   1.416   2.615
 7867WAT      O32173   4.408   1.607   1.607
 7867WAT     H132174   4.466   1.670   1.624
 7867WAT     H232175   4.332   1.649   1.603
 7867WAT    EPW32176   4.406   1.622   1.609
 7868WAT      O32177   3.290   2.213   2.995
 7868WAT     H132178   3.295   2.254   2.918
 7868WAT     H232179   3.355   2.155   2.992
 7868WAT    EPW32180   3.300   2.210   2.983
 7869WAT      O32181   4.511   2.507   2.793
 7869WAT     H132182   4.504   2.588   2.761
 7869WAT     H232183   4.546   2.462   2.727
 7869WAT    EPW32184   4.515   2.512   2.778
 7870WAT      O32185   4.001   1.785   2.255
 7870WAT     H132186   4.065   1.845   2.251
 7870WAT     H232187   4.044   1.711   2.274
 7870WAT    EPW32188   4.017   1.783   2.257
 7871WAT      O32189   4.217   2.051   1.510
 7871WAT     H132190   4.209   2.135   1.489
 7871WAT     H232191   4.152   2.038   1.567
 7871WAT    EPW32192   4.206   2.061   1.516
 7872WAT      O32193   4.813   2.383   1.882
 7872WAT     H132194   4.804   2.339   1.957
 7872WAT     H232195   4.776   2.330   1.823
 7872WAT    EPW32196   4.807   2.369   1.884
 7873WAT      O32197   4.422   2.778   2.230
 7873WAT     H132198   4.370   2.804   2.165
 7873WAT     H232199   4.493   2.828   2.220
 7873WAT    EPW32200   4.425   2.789   2.219
 7874WAT      O32201   4.326   2.511   2.194
 7874WAT     H132202   4.355   2.591   2.174
 7874WAT     H232203   4.255   2.526   2.243
 7874WAT    EPW32204   4.320   2.525   2.198
 7875WAT      O32205   3.732   2.983   1.625
 7875WAT     H132206   3.718   2.901   1.649
 7875WAT     H232207   3.810   2.981   1.587
 7875WAT    EPW32208   3.741   2.971   1.623
 7876WAT      O32209   3.660   1.260   1.365
 7876WAT     H132210   3.615   1.223   1.430
 7876WAT     H232211   3.622   1.338   1.356
 7876WAT    EPW32212   3.648   1.266   1.373
 7877WAT      O32213   3.979   2.954   1.502
 7877WAT     H132214   4.045   2.956   1.558
 7877WAT     H232215   3.993   3.024   1.451
 7877WAT    EPW32216   3.991   2.965   1.503
 7878WAT      O32217   4.625   2.382   2.558
 7878WAT     H132218   4.620   2.309   2.510
 7878WAT     H232219   4.710   2.388   2.577
 7878WAT    EPW32220   4.637   2.372   2.554
 7879WAT      O32221   4.707   1.385   2.944
 7879WAT     H132222   4.661   1.336   2.887
 7879WAT     H232223   4.714   1.334   3.014
 7879WAT    EPW32224   4.701   1.370   2.946
 7880WAT      O32225   3.495   2.133   1.513
 7880WAT     H132226   3.491   2.049   1.491
 7880WAT     H232227   3.573   2.142   1.550
 7880WAT    EPW32228   3.506   2.122   1.515
 7881WAT      O32229   4.284   2.371   2.553
 7881WAT     H132230   4.225   2.397   2.611
 7881WAT     H232231   4.306   2.291   2.580
 7881WAT    EPW32232   4.279   2.363   2.565
 7882WAT      O32233   3.123   1.285   1.605
 7882WAT     H132234   3.121   1.231   1.537
 7882WAT     H232235   3.093   1.237   1.671
 7882WAT    EPW32236   3.118   1.270   1.604
 7883WAT      O32237   4.006   2.048   1.697
 7883WAT     H132238   4.028   2.114   1.749
 7883WAT     H232239   4.021   1.977   1.746
 7883WAT    EPW32240   4.011   2.047   1.712
 7884WAT      O32241   4.669   2.594   2.260
 7884WAT     H132242   4.674   2.681   2.261
 7884WAT     H232243   4.652   2.576   2.177
 7884WAT    EPW32244   4.668   2.604   2.248
 7885WAT      O32245   3.555   1.512   1.323
 7885WAT     H132246   3.496   1.514   1.258
 7885WAT     H232247   3.622   1.558   1.291
 7885WAT    EPW32248   3.556   1.519   1.309
 7886WAT      O32249   4.030   2.351   2.114
 7886WAT     H132250   3.951   2.329   2.144
 7886WAT     H232251   4.085   2.322   2.176
 7886WAT    EPW32252   4.027   2.344   2.128
 7887WAT      O32253   3.696   2.977   1.169
 7887WAT     H132254   3.704   2.901   1.211
 7887WAT     H232255   3.701   3.036   1.233
 7887WAT    EPW32256   3.698   2.975   1.185
 7888WAT      O32257   3.701   1.788   1.956
 7888WAT     H132258   3.779   1.751   1.967
 7888WAT     H232259   3.647   1.720   1.951
 7888WAT    EPW32260   3.705   1.772   1.957
 7889WAT      O32261   4.977   3.004   1.442
 7889WAT     H132262   5.044   2.964   1.403
 7889WAT     H232263   4.937   2.939   1.485
 7889WAT    EPW32264   4.981   2.988   1.442
 7890WAT      O32265   3.186   1.866   1.626
 7890WAT     H132266   3.223   1.828   1.696
 7890WAT     H232267   3.197   1.806   1.564
 7890WAT    EPW32268   3.193   1.851   1.627
 7891WAT      O32269   4.680   2.153   2.391
 7891WAT     H132270   4.708   2.098   2.453
 7891WAT     H232271   4.627   2.104   2.342
 7891WAT    EPW32272   4.676   2.137   2.393
 7892WAT      O32273   3.658   2.119   1.216
 7892WAT     H132274   3.691   2.058   1.269
 7892WAT     H232275   3.612   2.072   1.158
 7892WAT    EPW32276   3.656   2.103   1.215
 7893WAT      O32277   3.291   2.330   2.739
 7893WAT     H132278   3.308   2.281   2.668
 7893WAT     H232279   3.342   2.399   2.729
 7893WAT    EPW32280   3.301   2.333   2.727
 7894WAT      O32281   4.820   2.234   2.137
 7894WAT     H132282   4.792   2.233   2.219
 7894WAT     H232283   4.906   2.243   2.145
 7894WAT    EPW32284   4.829   2.235   2.150
 7895WAT      O32285   3.766   1.929   1.408
 7895WAT     H132286   3.778   1.994   1.465
 7895WAT     H232287   3.684   1.903   1.423
 7895WAT    EPW32288   3.756   1.935   1.419
 7896WAT      O32289   4.592   1.640   2.931
 7896WAT     H132290   4.515   1.644   2.973
 7896WAT     H232291   4.619   1.558   2.945
 7896WAT    EPW32292   4.585   1.629   2.939
 7897WAT      O32293   3.153   1.506   2.118
 7897WAT     H132294   3.142   1.538   2.037
 7897WAT     H232295   3.239   1.498   2.125
 7897WAT    EPW32296   3.164   1.509   2.107
 7898WAT      O32297   4.966   2.835   2.174
 7898WAT     H132298   5.004   2.896   2.123
 7898WAT     H232299   5.007   2.845   2.250
 7898WAT    EPW32300   4.978   2.846   2.177
 7899WAT      O32301   4.442   1.987   2.995
 7899WAT     H132302   4.491   2.010   3.063
 7899WAT     H232303   4.367   2.029   3.008
 7899WAT    EPW32304   4.438   1.996   3.007
 7900WAT      O32305   4.563   2.103   2.775
 7900WAT     H132306   4.623   2.159   2.803
 7900WAT     H232307   4.534   2.066   2.849
 7900WAT    EPW32308   4.568   2.106   2.790
 7901WAT      O32309   4.660   2.644   1.425
 7901WAT     H132310   4.691   2.563   1.437
 7901WAT     H232311   4.582   2.641   1.464
 7901WAT    EPW32312   4.653   2.632   1.433
 7902WAT      O32313   4.705   1.790   1.913
 7902WAT     H132314   4.638   1.746   1.947
 7902WAT     H232315   4.701   1.867   1.954
 7902WAT    EPW32316   4.695   1.795   1.924
 7903WAT      O32317   4.970   2.101   2.965
 7903WAT     H132318   4.974   2.043   2.899
 7903WAT     H232319   5.050   2.136   2.965
 7903WAT    EPW32320   4.982   2.098   2.955
 7904WAT      O32321   4.903   2.377   2.601
 7904WAT     H132322   4.961   2.315   2.585
 7904WAT     H232323   4.911   2.432   2.534
 7904WAT    EPW32324   4.912   2.376   2.589
 7905WAT      O32325   4.356   2.468   1.316
 7905WAT     H132326   4.431   2.426   1.298
 7905WAT     H232327   4.311   2.462   1.241
 7905WAT    EPW32328   4.361   2.461   1.302
 7906WAT      O32329   3.936   2.571   2.523
 7906WAT     H132330   3.953   2.628   2.586
 7906WAT     H232331   3.888   2.616   2.466
 7906WAT    EPW32332   3.931   2.586   2.524
 7907WAT      O32333   3.579   2.483   2.844
 7907WAT     H132334   3.555   2.517   2.921
 7907WAT     H232335   3.572   2.550   2.788
 7907WAT    EPW32336   3.574   2.498   2.847
 7908WAT      O32337   4.534   1.476   2.585
 7908WAT     H132338   4.593   1.537   2.605
 7908WAT     H232339   4.463   1.522   2.564
 7908WAT    EPW32340   4.533   1.492   2.585
 7909WAT      O32341   4.137   2.236   2.350
 7909WAT     H132342   4.195   2.278   2.400
 7909WAT     H232343   4.064   2.239   2.398
 7909WAT    EPW32344   4.135   2.243   2.365
 7910WAT      O32345   3.715   1.742   2.732
 7910WAT     H132346   3.730   1.674   2.786
 7910WAT     H232347   3.717   1.706   2.653
 7910WAT    EPW32348   3.717   1.727   2.728
 7911WAT      O32349   4.099   3.006   1.946
 7911WAT     H132350   4.157   3.071   1.959
 7911WAT     H232351   4.107   2.989   1.861
 7911WAT    EPW32352   4.109   3.013   1.935
 7912WAT      O32353   4.630   1.268   2.426
 7912WAT     H132354   4.597   1.339   2.464
 7912WAT     H232355   4.715   1.274   2.441
 7912WAT    EPW32356   4.637   1.279   2.434
 7913WAT      O32357   3.872   1.403   2.609
 7913WAT     H132358   3.959   1.411   2.602
 7913WAT     H232359   3.858   1.319   2.590
 7913WAT    EPW32360   3.883   1.392   2.605
 7914WAT      O32361   3.812   2.696   2.313
 7914WAT     H132362   3.810   2.782   2.327
 7914WAT     H232363   3.873   2.687   2.251
 7914WAT    EPW32364   3.821   2.707   2.306
 7915WAT      O32365   4.302   2.375   2.928
 7915WAT     H132366   4.371   2.406   2.885
 7915WAT     H232367   4.234   2.408   2.886
 7915WAT    EPW32368   4.302   2.384   2.916
 7916WAT      O32369   4.810   1.948   1.294
 7916WAT     H132370   4.856   2.007   1.249
 7916WAT     H232371   4.731   1.984   1.302
 7916WAT    EPW32372   4.805   1.962   1.288
 7917WAT      O32373   3.953   2.209   1.347
 7917WAT     H132374   3.903   2.271   1.311
 7917WAT     H232375   4.017   2.254   1.387
 7917WAT    EPW32376   3.955   2.225   1.348
 7918WAT      O32377   3.589   1.877   2.190
 7918WAT     H132378   3.624   1.850   2.115
 7918WAT     H232379   3.650   1.861   2.249
 7918WAT    EPW32380   3.603   1.871   2.187
 7919WAT      O32381   4.331   1.801   2.773
 7919WAT     H132382   4.268   1.861   2.781
 7919WAT     H232383   4.380   1.814   2.844
 7919WAT    EPW32384   4.329   1.812   2.785
 7920WAT      O32385   4.379   1.897   2.423
 7920WAT     H132386   4.371   1.955   2.488
 7920WAT     H232387   4.360   1.821   2.461
 7920WAT    EPW32388   4.375   1.894   2.438
 7921WAT      O32389   4.588   1.825   1.663
 7921WAT     H132390   4.616   1.808   1.744
 7921WAT     H232391   4.659   1.856   1.623
 7921WAT    EPW32392   4.602   1.827   1.669
 7922WAT      O32393   3.896   1.328   2.228
 7922WAT     H132394   3.811   1.329   2.249
 7922WAT     H232395   3.895   1.334   2.141
 7922WAT    EPW32396   3.883   1.329   2.219
 7923WAT      O32397   4.723   1.430   1.785
 7923WAT     H132398   4.645   1.394   1.801
 7923WAT     H232399   4.721   1.446   1.699
 7923WAT    EPW32400   4.711   1.427   1.775
 7924WAT      O32401   4.724   2.225   1.658
 7924WAT     H132402   4.763   2.149   1.640
 7924WAT     H232403   4.639   2.206   1.652
 7924WAT    EPW32404   4.717   2.211   1.654
 7925WAT      O32405   4.104   2.475   2.767
 7925WAT     H132406   4.024   2.457   2.797
 7925WAT     H232407   4.102   2.561   2.754
 7925WAT    EPW32408   4.092   2.485   2.769
 7926WAT      O32409   3.132   1.420   2.880
 7926WAT     H132410   3.130   1.484   2.820
 7926WAT     H232411   3.047   1.402   2.893
 7926WAT    EPW32412   3.119   1.427   2.873
 7927WAT      O32413   3.772   2.969   2.358
 7927WAT     H132414   3.774   2.968   2.445
 7927WAT     H232415   3.689   2.951   2.339
 7927WAT    EPW32416   3.760   2.966   2.368
 7928WAT      O32417   3.482   1.617   1.571
 7928WAT     H132418   3.493   1.578   1.494
 7928WAT     H232419   3.401   1.596   1.594
 7928WAT    EPW32420   3.472   1.608   1.563
 7929WAT      O32421   4.451   2.419   1.957
 7929WAT     H132422   4.399   2.431   2.026
 7929WAT     H232423   4.440   2.335   1.937
 7929WAT    EPW32424   4.442   2.408   1.964
 7930WAT      O32425   4.066   2.269   1.848
 7930WAT     H132426   4.059   2.293   1.931
 7930WAT     H232427   4.049   2.343   1.804
 7930WAT    EPW32428   4.063   2.283   1.854
 7931WAT      O32429   4.059   2.747   2.706
 7931WAT     H132430   4.109   2.811   2.673
 7931WAT     H232431   4.000   2.790   2.754
 7931WAT    EPW32432   4.058   2.763   2.708
 7932WAT      O32433   4.959   1.943   2.738
 7932WAT     H132434   4.878   1.949   2.705
 7932WAT     H232435   5.010   1.944   2.667
 7932WAT    EPW32436   4.955   1.944   2.722
 7933WAT      O32437   4.342   2.105   2.609
 7933WAT     H132438   4.278   2.077   2.660
 7933WAT     H232439   4.412   2.105   2.661
 7933WAT    EPW32440   4.343   2.101   2.624
 7934WAT      O32441   4.200   2.138   3.030
 7934WAT     H132442   4.242   2.207   2.997
 7934WAT     H232443   4.122   2.171   3.051
 7934WAT    EPW32444   4.195   2.153   3.028
 7935WAT      O32445   4.179   2.631   2.401
 7935WAT     H132446   4.105   2.609   2.442
 7935WAT     H232447   4.186   2.717   2.418
 7935WAT    EPW32448   4.169   2.641   2.410
 7936WAT      O32449   3.474   1.881   2.713
 7936WAT     H132450   3.500   1.939   2.653
 7936WAT     H232451   3.546   1.833   2.728
 7936WAT    EPW32452   3.489   1.882   2.706
 7937WAT      O32453   3.313   1.713   2.553
 7937WAT     H132454   3.319   1.751   2.474
 7937WAT     H232455   3.356   1.769   2.605
 7937WAT    EPW32456   3.320   1.727   2.549
 7938WAT      O32457   4.808   1.971   1.573
 7938WAT     H132458   4.819   1.967   1.487
 7938WAT     H232459   4.884   1.943   1.605
 7938WAT    EPW32460   4.821   1.966   1.565
 7939WAT      O32461   3.504   1.404   2.815
 7939WAT     H132462   3.470   1.324   2.814
 7939WAT     H232463   3.494   1.432   2.732
 7939WAT    EPW32464   3.497   1.397   2.802
 7940WAT      O32465   4.243   2.699   1.753
 7940WAT     H132466   4.226   2.781   1.727
 7940WAT     H232467   4.170   2.655   1.733
 7940WAT    EPW32468   4.230   2.705   1.747
 7941WAT      O32469   4.718   1.960   2.599
 7941WAT     H132470   4.700   1.875   2.606
 7941WAT     H232471   4.663   1.997   2.656
 7941WAT    EPW32472   4.707   1.953   2.609
 7942WAT      O32473   3.292   2.193   2.488
 7942WAT     H132474   3.239   2.261   2.474
 7942WAT     H232475   3.237   2.126   2.497
 7942WAT    EPW32476   3.276   2.193   2.488
 7943WAT      O32477   3.369   1.782   1.207
 7943WAT     H132478   3.296   1.775   1.254
 7943WAT     H232479   3.376   1.705   1.168
 7943WAT    EPW32480   3.359   1.770   1.208
 7944WAT      O32481   4.215   1.472   2.873
 7944WAT     H132482   4.251   1.534   2.922
 7944WAT     H232483   4.142   1.451   2.916
 7944WAT    EPW32484   4.209   1.478   2.887
 7945WAT      O32485   4.259   1.510   2.004
 7945WAT     H132486   4.183   1.521   2.044
 7945WAT     H232487   4.239   1.459   1.936
 7945WAT    EPW32488   4.245   1.504   2.000
 7946WAT      O32489   3.684   2.738   1.302
 7946WAT     H132490   3.766   2.718   1.327
 7946WAT     H232491   3.634   2.690   1.355
 7946WAT    EPW32492   3.689   2.728   1.314
 7947WAT      O32493   4.584   1.593   2.257
 7947WAT     H132494   4.662   1.559   2.274
 7947WAT     H232495   4.592   1.676   2.283
 7947WAT    EPW32496   4.597   1.600   2.263
 7948WAT      O32497   3.730   2.196   2.704
 7948WAT     H132498   3.680   2.254   2.747
 7948WAT     H232499   3.674   2.158   2.648
 7948WAT    EPW32500   3.714   2.199   2.702
 7949WAT      O32501   4.646   2.030   2.051
 7949WAT     H132502   4.704   2.092   2.070
 7949WAT     H232503   4.588   2.071   2.001
 7949WAT    EPW32504   4.646   2.045   2.047
 7950WAT      O32505   4.670   2.885   1.782
 7950WAT     H132506   4.650   2.813   1.828
 7950WAT     H232507   4.724   2.855   1.721
 7950WAT    EPW32508   4.675   2.870   1.780
 7951WAT      O32509   3.487   2.593   1.435
 7951WAT     H132510   3.482   2.583   1.521
 7951WAT     H232511   3.466   2.514   1.404
 7951WAT    EPW32512   3.483   2.580   1.443
 7952WAT      O32513   3.755   2.374   1.238
 7952WAT     H132514   3.716   2.297   1.226
 7952WAT     H232515   3.696   2.421   1.281
 7952WAT    EPW32516   3.741   2.369   1.243
 7953WAT      O32517   3.707   1.596   2.495
 7953WAT     H132518   3.631   1.555   2.499
 7953WAT     H232519   3.765   1.534   2.515
 7953WAT    EPW32520   3.704   1.581   2.499
 7954WAT      O32521   4.893   1.332   2.518
 7954WAT     H132522   4.893   1.352   2.603
 7954WAT     H232523   4.971   1.295   2.505
 7954WAT    EPW32524   4.905   1.330   2.528
 7955WAT      O32525   4.105   1.522   2.258
 7955WAT     H132526   4.044   1.460   2.263
 7955WAT     H232527   4.178   1.481   2.283
 7955WAT    EPW32528   4.107   1.507   2.262
 7956WAT      O32529   4.295   2.884   2.454
 7956WAT     H132530   4.284   2.970   2.444
 7956WAT     H232531   4.339   2.860   2.383
 7956WAT    EPW32532   4.300   2.893   2.442
 7957WAT      O32533   3.872   1.970   2.797
 7957WAT     H132534   3.824   1.904   2.766
 7957WAT     H232535   3.826   2.041   2.774
 7957WAT    EPW32536   3.858   1.970   2.789
 7958WAT      O32537   3.938   1.299   1.352
 7958WAT     H132538   3.948   1.315   1.267
 7958WAT     H232539   3.851   1.297   1.362
 7958WAT    EPW32540   3.927   1.301   1.341
 7959WAT      O32541   4.919   2.525   2.362
 7959WAT     H132542   4.968   2.521   2.289
 7959WAT     H232543   4.839   2.542   2.331
 7959WAT    EPW32544   4.914   2.527   2.346
 7960WAT      O32545   4.690   2.874   2.256
 7960WAT     H132546   4.771   2.878   2.226
 7960WAT     H232547   4.683   2.945   2.307
 7960WAT    EPW32548   4.701   2.885   2.259
 7961WAT      O32549   3.459   1.480   2.551
 7961WAT     H132550   3.405   1.415   2.530
 7961WAT     H232551   3.409   1.551   2.546
 7961WAT    EPW32552   3.444   1.481   2.547
 7962WAT      O32553   4.373   1.405   2.239
 7962WAT     H132554   4.436   1.461   2.259
 7962WAT     H232555   4.346   1.432   2.160
 7962WAT    EPW32556   4.378   1.417   2.230
 7963WAT      O32557   4.306   1.920   1.984
 7963WAT     H132558   4.359   1.854   2.003
 7963WAT     H232559   4.271   1.941   2.061
 7963WAT    EPW32560   4.309   1.913   1.998
 7964WAT      O32561   3.315   1.785   1.862
 7964WAT     H132562   3.268   1.805   1.933
 7964WAT     H232563   3.364   1.717   1.888
 7964WAT    EPW32564   3.316   1.778   1.876
 7965WAT      O32565   3.342   2.606   2.590
 7965WAT     H132566   3.287   2.635   2.651
 7965WAT     H232567   3.352   2.674   2.537
 7965WAT    EPW32568   3.335   2.620   2.591
 7966WAT      O32569   4.474   2.074   1.612
 7966WAT     H132570   4.500   1.993   1.631
 7966WAT     H232571   4.391   2.064   1.587
 7966WAT    EPW32572   4.466   2.061   1.611
 7967WAT      O32573   3.454   2.933   1.540
 7967WAT     H132574   3.442   2.901   1.460
 7967WAT     H232575   3.540   2.947   1.544
 7967WAT    EPW32576   3.465   2.931   1.529
 7968WAT      O32577   3.781   2.154   1.574
 7968WAT     H132578   3.827   2.192   1.511
 7968WAT     H232579   3.842   2.119   1.626
 7968WAT    EPW32580   3.796   2.155   1.573
 7969WAT      O32581   4.731   3.016   1.314
 7969WAT     H132582   4.811   3.019   1.350
 7969WAT     H232583   4.678   3.028   1.383
 7969WAT    EPW32584   4.735   3.018   1.330
 7970WAT      O32585   4.784   2.265   2.845
 7970WAT     H132586   4.847   2.218   2.881
 7970WAT     H232587   4.824   2.306   2.779
 7970WAT    EPW32588   4.799   2.264   2.841
 7971WAT      O32589   4.403   2.656   1.523
 7971WAT     H132590   4.361   2.646   1.599
 7971WAT     H232591   4.368   2.596   1.471
 7971WAT    EPW32592   4.392   2.646   1.527
 7972WAT      O32593   4.827   1.763   3.013
 7972WAT     H132594   4.810   1.831   3.065
 7972WAT     H232595   4.748   1.731   2.994
 7972WAT    EPW32596   4.813   1.768   3.018
 7973WAT      O32597   4.888   1.818   2.322
 7973WAT     H132598   4.804   1.843   2.317
 7973WAT     H232599   4.882   1.732   2.333
 7973WAT    EPW32600   4.874   1.809   2.323
 7974WAT      O32601   3.767   1.490   2.852
 7974WAT     H132602   3.802   1.466   2.775
 7974WAT     H232603   3.687   1.455   2.850
 7974WAT    EPW32604   3.760   1.481   2.840
 7975WAT      O32605   4.608   2.371   3.036
 7975WAT     H132606   4.675   2.339   2.991
 7975WAT     H232607   4.574   2.431   2.983
 7975WAT    EPW32608   4.613   2.375   3.022
 7976WAT      O32609   3.535   2.886   2.227
 7976WAT     H132610   3.537   2.810   2.184
 7976WAT     H232611   3.521   2.945   2.164
 7976WAT    EPW32612   3.533   2.884   2.211
 7977WAT      O32613   4.177   2.319   1.464
 7977WAT     H132614   4.235   2.368   1.420
 7977WAT     H232615   4.139   2.376   1.518
 7977WAT    EPW32616   4.180   2.335   1.465
 7978WAT      O32617   3.222   3.055   2.502
 7978WAT     H132618   3.220   3.041   2.589
 7978WAT     H232619   3.254   2.981   2.471
 7978WAT    EPW32620   3.226   3.042   2.510
 7979WAT      O32621   4.187   1.954   0.364
 7979WAT     H132622   4.157   2.031   0.389
 7979WAT     H232623   4.251   1.937   0.421
 7979WAT    EPW32624   4.192   1.963   0.376
 7980WAT      O32625   3.237   2.645   0.517
 7980WAT     H132626   3.259   2.638   0.601
 7980WAT     H232627   3.181   2.579   0.504
 7980WAT    EPW32628   3.232   2.634   0.528
 7981WAT      O32629   3.842   2.469   0.994
 7981WAT     H132630   3.821   2.438   1.073
 7981WAT     H232631   3.770   2.457   0.947
 7981WAT    EPW32632   3.828   2.462   0.999
 7982WAT      O32633   3.782   1.737   0.560
 7982WAT     H132634   3.860   1.745   0.520
 7982WAT     H232635   3.763   1.652   0.552
 7982WAT    EPW32636   3.791   1.726   0.553
 7983WAT      O32637   3.843   2.757   0.757
 7983WAT     H132638   3.860   2.812   0.691
 7983WAT     H232639   3.922   2.725   0.777
 7983WAT    EPW32640   3.857   2.761   0.751
 7984WAT      O32641   4.104   2.023   0.922
 7984WAT     H132642   4.017   2.011   0.920
 7984WAT     H232643   4.118   2.061   0.999
 7984WAT    EPW32644   4.093   2.027   0.933
 7985WAT      O32645   4.554   1.208   0.824
 7985WAT     H132646   4.547   1.290   0.794
 7985WAT     H232647   4.488   1.201   0.881
 7985WAT    EPW32648   4.543   1.219   0.828
 7986WAT      O32649   3.170   1.980   0.329
 7986WAT     H132650   3.125   2.055   0.337
 7986WAT     H232651   3.113   1.919   0.355
 7986WAT    EPW32652   3.155   1.982   0.334
 7987WAT      O32653   3.445   1.370   0.374
 7987WAT     H132654   3.444   1.423   0.305
 7987WAT     H232655   3.505   1.310   0.353
 7987WAT    EPW32656   3.454   1.369   0.361
 7988WAT      O32657   3.786   1.628   1.208
 7988WAT     H132658   3.785   1.590   1.129
 7988WAT     H232659   3.830   1.702   1.194
 7988WAT    EPW32660   3.793   1.633   1.194
 7989WAT      O32661   4.407   2.951   0.596
 7989WAT     H132662   4.482   2.988   0.623
 7989WAT     H232663   4.410   2.960   0.509
 7989WAT    EPW32664   4.419   2.958   0.587
 7990WAT      O32665   3.377   1.521   1.107
 7990WAT     H132666   3.295   1.492   1.098
 7990WAT     H232667   3.418   1.490   1.037
 7990WAT    EPW32668   3.371   1.512   1.096
 7991WAT      O32669   3.968   1.347   1.082
 7991WAT     H132670   3.986   1.276   1.035
 7991WAT     H232671   3.895   1.378   1.045
 7991WAT    EPW32672   3.960   1.341   1.069
 7992WAT      O32673   3.640   2.977   0.651
 7992WAT     H132674   3.659   2.988   0.736
 7992WAT     H232675   3.560   2.942   0.653
 7992WAT    EPW32676   3.631   2.973   0.664
 7993WAT      O32677   4.899   1.526   0.481
 7993WAT     H132678   4.961   1.487   0.434
 7993WAT     H232679   4.895   1.476   0.553
 7993WAT    EPW32680   4.908   1.513   0.485
 7994WAT      O32681   3.117   1.640   0.857
 7994WAT     H132682   3.104   1.717   0.896
 7994WAT     H232683   3.176   1.659   0.795
 7994WAT    EPW32684   3.124   1.654   0.853
 7995WAT      O32685   4.355   2.693   0.900
 7995WAT     H132686   4.316   2.732   0.968
 7995WAT     H232687   4.440   2.703   0.917
 7995WAT    EPW32688   4.362   2.700   0.913
 7996WAT      O32689   3.383   2.894   0.548
 7996WAT     H132690   3.344   2.818   0.527
 7996WAT     H232691   3.385   2.937   0.472
 7996WAT    EPW32692   3.377   2.889   0.534
 7997WAT      O32693   4.159   2.989   0.709
 7997WAT     H132694   4.236   2.970   0.674
 7997WAT     H232695   4.102   2.956   0.652
 7997WAT    EPW32696   4.162   2.981   0.696
 7998WAT      O32697   3.570   2.708   0.838
 7998WAT     H132698   3.651   2.735   0.816
 7998WAT     H232699   3.554   2.751   0.912
 7998WAT    EPW32700   3.580   2.719   0.846
 7999WAT      O32701   3.778   2.336   0.285
 7999WAT     H132702   3.793   2.303   0.364
 7999WAT     H232703   3.771   2.266   0.233
 7999WAT    EPW32704   3.779   2.321   0.289
 8000WAT      O32705   4.332   1.654   0.687
 8000WAT     H132706   4.319   1.703   0.758
 8000WAT     H232707   4.263   1.601   0.686
 8000WAT    EPW32708   4.320   1.653   0.697
 8001WAT      O32709   3.845   2.283   0.549
 8001WAT     H132710   3.836   2.368   0.567
 8001WAT     H232711   3.815   2.244   0.622
 8001WAT    EPW32712   3.839   2.290   0.563
 8002WAT      O32713   4.408   2.412   0.474
 8002WAT     H132714   4.367   2.367   0.536
 8002WAT     H232715   4.401   2.495   0.501
 8002WAT    EPW32716   4.401   2.417   0.487
 8003WAT      O32717   3.137   2.674   1.160
 8003WAT     H132718   3.199   2.720   1.201
 8003WAT     H232719   3.138   2.598   1.203
 8003WAT    EPW32720   3.147   2.669   1.173
 8004WAT      O32721   4.730   1.688   0.776
 8004WAT     H132722   4.812   1.672   0.800
 8004WAT     H232723   4.687   1.694   0.851
 8004WAT    EPW32724   4.736   1.687   0.791
 8005WAT      O32725   3.371   1.800   0.409
 8005WAT     H132726   3.451   1.832   0.393
 8005WAT     H232727   3.318   1.861   0.375
 8005WAT    EPW32728   3.375   1.814   0.401
 8006WAT      O32729   5.017   2.799   0.928
 8006WAT     H132730   4.943   2.817   0.885
 8006WAT     H232731   4.990   2.765   1.003
 8006WAT    EPW32732   5.002   2.796   0.933
 8007WAT      O32733   3.930   1.868   1.190
 8007WAT     H132734   3.885   1.903   1.256
 8007WAT     H232735   3.903   1.913   1.121
 8007WAT    EPW32736   3.919   1.880   1.190
 8008WAT      O32737   5.011   1.938   0.666
 8008WAT     H132738   5.071   1.874   0.666
 8008WAT     H232739   4.954   1.911   0.606
 8008WAT    EPW32740   5.012   1.924   0.657
 8009WAT      O32741   3.568   2.484   0.399
 8009WAT     H132742   3.614   2.508   0.468
 8009WAT     H232743   3.625   2.440   0.350
 8009WAT    EPW32744   3.583   2.481   0.402
 8010WAT      O32745   4.774   2.856   0.803
 8010WAT     H132746   4.732   2.932   0.815
 8010WAT     H232747   4.757   2.837   0.720
 8010WAT    EPW32748   4.765   2.865   0.792
 8011WAT      O32749   3.472   1.988   1.050
 8011WAT     H132750   3.436   1.923   1.097
 8011WAT     H232751   3.472   1.957   0.969
 8011WAT    EPW32752   3.467   1.974   1.045
 8012WAT      O32753   3.545   2.071   0.593
 8012WAT     H132754   3.577   2.024   0.526
 8012WAT     H232755   3.495   2.131   0.554
 8012WAT    EPW32756   3.542   2.073   0.577
 8013WAT      O32757   4.602   1.800   0.382
 8013WAT     H132758   4.541   1.830   0.437
 8013WAT     H232759   4.568   1.815   0.304
 8013WAT    EPW32760   4.588   1.807   0.379
 8014WAT      O32761   3.950   2.909   0.545
 8014WAT     H132762   3.946   2.848   0.482
 8014WAT     H232763   3.927   2.983   0.503
 8014WAT    EPW32764   3.946   2.911   0.529
 8015WAT      O32765   4.143   1.438   0.717
 8015WAT     H132766   4.168   1.356   0.703
 8015WAT     H232767   4.163   1.451   0.801
 8015WAT    EPW32768   4.150   1.428   0.727
 8016WAT      O32769   3.342   2.225   1.106
 8016WAT     H132770   3.342   2.272   1.033
 8016WAT     H232771   3.390   2.155   1.085
 8016WAT    EPW32772   3.349   2.221   1.092
 8017WAT      O32773   4.474   2.429   0.913
 8017WAT     H132774   4.426   2.493   0.879
 8017WAT     H232775   4.503   2.386   0.843
 8017WAT    EPW32776   4.472   2.432   0.898
 8018WAT      O32777   3.949   2.722   1.067
 8018WAT     H132778   3.954   2.717   1.153
 8018WAT     H232779   3.916   2.645   1.043
 8018WAT    EPW32780   3.945   2.710   1.076
 8019WAT      O32781   4.011   1.744   0.411
 8019WAT     H132782   4.068   1.806   0.389
 8019WAT     H232783   4.058   1.670   0.404
 8019WAT    EPW32784   4.026   1.742   0.407
 8020WAT      O32785   4.520   2.697   0.257
 8020WAT     H132786   4.447   2.666   0.222
 8020WAT     H232787   4.510   2.783   0.255
 8020WAT    EPW32788   4.508   2.705   0.252
 8021WAT      O32789   4.303   2.514   0.227
 8021WAT     H132790   4.218   2.493   0.232
 8021WAT     H232791   4.339   2.467   0.291
 8021WAT    EPW32792   4.296   2.504   0.237
 8022WAT      O32793   4.611   2.295   0.710
 8022WAT     H132794   4.611   2.256   0.632
 8022WAT     H232795   4.695   2.307   0.727
 8022WAT    EPW32796   4.623   2.291   0.701
 8023WAT      O32797   4.429   2.868   1.180
 8023WAT     H132798   4.391   2.885   1.256
 8023WAT     H232799   4.411   2.938   1.131
 8023WAT    EPW32800   4.420   2.881   1.184
 8024WAT      O32801   4.793   1.274   0.951
 8024WAT     H132802   4.715   1.257   0.916
 8024WAT     H232803   4.789   1.238   1.030
 8024WAT    EPW32804   4.781   1.266   0.957
 8025WAT      O32805   4.253   2.282   0.670
 8025WAT     H132806   4.197   2.308   0.731
 8025WAT     H232807   4.293   2.214   0.706
 8025WAT    EPW32808   4.251   2.276   0.684
 8026WAT      O32809   4.665   2.518   0.413
 8026WAT     H132810   4.633   2.568   0.349
 8026WAT     H232811   4.597   2.468   0.436
 8026WAT    EPW32812   4.650   2.518   0.407
 8027WAT      O32813   4.044   2.436   0.311
 8027WAT     H132814   3.962   2.419   0.288
 8027WAT     H232815   4.070   2.364   0.352
 8027WAT    EPW32816   4.036   2.423   0.313
 8028WAT      O32817   3.391   2.266   0.460
 8028WAT     H132818   3.435   2.340   0.447
 8028WAT     H232819   3.355   2.250   0.382
 8028WAT    EPW32820   3.392   2.274   0.446
 8029WAT      O32821   4.647   2.136   0.480
 8029WAT     H132822   4.663   2.070   0.535
 8029WAT     H232823   4.569   2.117   0.446
 8029WAT    EPW32824   4.638   2.124   0.483
 8030WAT      O32825   3.343   2.362   0.866
 8030WAT     H132826   3.307   2.310   0.807
 8030WAT     H232827   3.314   2.441   0.844
 8030WAT    EPW32828   3.334   2.366   0.854
 8031WAT      O32829   4.885   2.213   0.354
 8031WAT     H132830   4.812   2.187   0.394
 8031WAT     H232831   4.857   2.246   0.278
 8031WAT    EPW32832   4.870   2.214   0.349
 8032WAT      O32833   4.549   1.649   0.998
 8032WAT     H132834   4.480   1.650   1.052
 8032WAT     H232835   4.531   1.584   0.943
 8032WAT    EPW32836   4.536   1.640   0.998
 8033WAT      O32837   4.938   2.812   0.396
 8033WAT     H132838   4.971   2.817   0.315
 8033WAT     H232839   5.000   2.768   0.440
 8033WAT    EPW32840   4.952   2.806   0.390
 8034WAT      O32841   4.417   1.993   1.111
 8034WAT     H132842   4.458   1.999   1.188
 8034WAT     H232843   4.339   2.030   1.127
 8034WAT    EPW32844   4.411   2.000   1.125
 8035WAT      O32845   4.632   2.044   0.932
 8035WAT     H132846   4.660   2.124   0.956
 8035WAT     H232847   4.569   2.027   0.990
 8035WAT    EPW32848   4.627   2.054   0.944
 8036WAT      O32849   4.954   2.118   1.130
 8036WAT     H132850   4.959   2.061   1.064
 8036WAT     H232851   5.034   2.153   1.132
 8036WAT    EPW32852   4.967   2.115   1.120
 8037WAT      O32853   4.878   2.348   0.764
 8037WAT     H132854   4.942   2.290   0.751
 8037WAT     H232855   4.884   2.401   0.696
 8037WAT    EPW32856   4.889   2.347   0.752
 8038WAT      O32857   3.788   2.557   0.564
 8038WAT     H132858   3.799   2.610   0.633
 8038WAT     H232859   3.822   2.604   0.498
 8038WAT    EPW32860   3.795   2.572   0.564
 8039WAT      O32861   3.610   2.431   0.842
 8039WAT     H132862   3.529   2.402   0.855
 8039WAT     H232863   3.600   2.517   0.833
 8039WAT    EPW32864   3.596   2.439   0.843
 8040WAT      O32865   4.536   1.481   0.767
 8040WAT     H132866   4.608   1.525   0.743
 8040WAT     H232867   4.471   1.527   0.731
 8040WAT    EPW32868   4.537   1.494   0.758
 8041WAT      O32869   4.095   2.205   0.458
 8041WAT     H132870   4.149   2.226   0.524
 8041WAT     H232871   4.016   2.214   0.492
 8041WAT    EPW32872   4.091   2.210   0.473
 8042WAT      O32873   3.725   1.756   0.830
 8042WAT     H132874   3.734   1.677   0.864
 8042WAT     H232875   3.754   1.747   0.748
 8042WAT    EPW32876   3.731   1.743   0.823
 8043WAT      O32877   4.657   1.253   0.516
 8043WAT     H132878   4.631   1.334   0.498
 8043WAT     H232879   4.729   1.264   0.565
 8043WAT    EPW32880   4.664   1.266   0.521
 8044WAT      O32881   3.875   1.350   0.762
 8044WAT     H132882   3.960   1.361   0.748
 8044WAT     H232883   3.868   1.265   0.779
 8044WAT    EPW32884   3.886   1.339   0.762
 8045WAT      O32885   3.858   2.719   0.346
 8045WAT     H132886   3.780   2.729   0.309
 8045WAT     H232887   3.909   2.691   0.281
 8045WAT    EPW32888   3.854   2.717   0.331
 8046WAT      O32889   4.251   2.378   1.072
 8046WAT     H132890   4.328   2.382   1.030
 8046WAT     H232891   4.193   2.391   1.009
 8046WAT    EPW32892   4.254   2.381   1.057
 8047WAT      O32893   4.630   2.674   0.954
 8047WAT     H132894   4.627   2.591   0.928
 8047WAT     H232895   4.675   2.714   0.891
 8047WAT    EPW32896   4.636   2.668   0.941
 8048WAT      O32897   3.636   1.898   0.391
 8048WAT     H132898   3.677   1.892   0.314
 8048WAT     H232899   3.682   1.845   0.443
 8048WAT    EPW32900   3.649   1.889   0.387
 8049WAT      O32901   4.302   1.838   0.893
 8049WAT     H132902   4.228   1.884   0.903
 8049WAT     H232903   4.344   1.851   0.969
 8049WAT    EPW32904   4.297   1.847   0.906
 8050WAT      O32905   4.393   1.885   0.539
 8050WAT     H132906   4.403   1.942   0.605
 8050WAT     H232907   4.370   1.811   0.579
 8050WAT    EPW32908   4.391   1.883   0.555
 8051WAT      O32909   4.144   2.895   0.974
 8051WAT     H132910   4.134   2.903   0.888
 8051WAT     H232911   4.086   2.833   0.996
 8051WAT    EPW32912   4.134   2.887   0.964
 8052WAT      O32913   3.883   1.330   0.377
 8052WAT     H132914   3.833   1.378   0.430
 8052WAT     H232915   3.827   1.292   0.323
 8052WAT    EPW32916   3.868   1.332   0.377
 8053WAT      O32917   4.079   2.406   0.857
 8053WAT     H132918   4.001   2.407   0.897
 8053WAT     H232919   4.087   2.487   0.827
 8053WAT    EPW32920   4.069   2.418   0.859
 8054WAT      O32921   3.129   1.412   1.015
 8054WAT     H132922   3.124   1.485   0.968
 8054WAT     H232923   3.052   1.373   0.999
 8054WAT    EPW32924   3.117   1.417   1.006
 8055WAT      O32925   3.644   2.998   0.373
 8055WAT     H132926   3.653   2.986   0.459
 8055WAT     H232927   3.625   2.918   0.343
 8055WAT    EPW32928   3.643   2.984   0.381
 8056WAT      O32929   4.107   2.663   0.767
 8056WAT     H132930   4.188   2.679   0.795
 8056WAT     H232931   4.116   2.658   0.680
 8056WAT    EPW32932   4.121   2.665   0.758
 8057WAT      O32933   4.914   1.939   0.923
 8057WAT     H132934   4.827   1.948   0.922
 8057WAT     H232935   4.937   1.948   0.840
 8057WAT    EPW32936   4.904   1.942   0.911
 8058WAT      O32937   4.399   2.062   0.754
 8058WAT     H132938   4.364   2.001   0.806
 8058WAT     H232939   4.471   2.086   0.797
 8058WAT    EPW32940   4.404   2.057   0.768
 8059WAT      O32941   3.285   3.045   0.949
 8059WAT     H132942   3.231   2.978   0.940
 8059WAT     H232943   3.235   3.108   0.982
 8059WAT    EPW32944   3.270   3.045   0.953
 8060WAT      O32945   4.168   2.132   1.168
 8060WAT     H132946   4.194   2.213   1.146
 8060WAT     H232947   4.099   2.146   1.220
 8060WAT    EPW32948   4.162   2.146   1.172
 8061WAT      O32949   4.499   2.968   0.332
 8061WAT     H132950   4.462   3.045   0.315
 8061WAT     H232951   4.568   2.988   0.381
 8061WAT    EPW32952   4.504   2.983   0.337
 8062WAT      O32953   4.123   2.641   0.494
 8062WAT     H132954   4.102   2.577   0.438
 8062WAT     H232955   4.208   2.654   0.480
 8062WAT    EPW32956   4.133   2.634   0.484
 8063WAT      O32957   3.483   1.884   0.792
 8063WAT     H132958   3.499   1.945   0.732
 8063WAT     H232959   3.560   1.844   0.802
 8063WAT    EPW32960   3.497   1.887   0.785
 8064WAT      O32961   3.312   1.715   0.660
 8064WAT     H132962   3.328   1.735   0.577
 8064WAT     H232963   3.369   1.763   0.705
 8064WAT    EPW32964   3.322   1.725   0.655
 8065WAT      O32965   3.497   1.390   0.895
 8065WAT     H132966   3.451   1.316   0.899
 8065WAT     H232967   3.486   1.416   0.812
 8065WAT    EPW32968   3.489   1.383   0.883
 8066WAT      O32969   4.691   1.946   0.675
 8066WAT     H132970   4.703   1.862   0.691
 8066WAT     H232971   4.667   1.978   0.753
 8066WAT    EPW32972   4.689   1.939   0.689
 8067WAT      O32973   3.225   2.195   0.677
 8067WAT     H132974   3.268   2.215   0.604
 8067WAT     H232975   3.201   2.112   0.665
 8067WAT    EPW32976   3.228   2.185   0.664
 8068WAT      O32977   4.201   1.472   0.988
 8068WAT     H132978   4.234   1.532   1.041
 8068WAT     H232979   4.128   1.446   1.030
 8068WAT    EPW32980   4.195   1.477   1.002
 8069WAT      O32981   4.620   1.525   0.433
 8069WAT     H132982   4.707   1.521   0.437
 8069WAT     H232983   4.605   1.610   0.421
 8069WAT    EPW32984   4.631   1.537   0.432
 8070WAT      O32985   3.722   2.179   0.777
 8070WAT     H132986   3.688   2.256   0.801
 8070WAT     H232987   3.662   2.146   0.724
 8070WAT    EPW32988   3.708   2.186   0.773
 8071WAT      O32989   3.729   1.469   0.560
 8071WAT     H132990   3.643   1.461   0.575
 8071WAT     H232991   3.766   1.424   0.625
 8071WAT    EPW32992   3.722   1.461   0.571
 8072WAT      O32993   4.874   1.328   0.679
 8072WAT     H132994   4.860   1.312   0.764
 8072WAT     H232995   4.950   1.289   0.664
 8072WAT    EPW32996   4.883   1.320   0.689
 8073WAT      O32997   4.124   1.483   0.430
 8073WAT     H132998   4.058   1.435   0.400
 8073WAT     H232999   4.120   1.472   0.516
 8073WAT    EPW33000   4.114   1.474   0.438
 8074WAT      O33001   4.399   2.685   0.509
 8074WAT     H133002   4.413   2.757   0.556
 8074WAT     H233003   4.443   2.699   0.436
 8074WAT    EPW33004   4.407   2.698   0.505
 8075WAT      O33005   4.370   3.059   0.986
 8075WAT     H133006   4.305   3.003   0.969
 8075WAT     H233007   4.330   3.137   0.987
 8075WAT    EPW33008   4.354   3.062   0.984
 8076WAT      O33009   3.832   1.983   0.950
 8076WAT     H133010   3.798   1.913   0.911
 8076WAT     H233011   3.796   2.050   0.907
 8076WAT    EPW33012   3.821   1.982   0.938
 8077WAT      O33013   4.914   2.447   0.504
 8077WAT     H133014   4.922   2.370   0.464
 8077WAT     H233015   4.839   2.479   0.474
 8077WAT    EPW33016   4.904   2.441   0.494
 8078WAT      O33017   3.798   2.991   0.911
 8078WAT     H133018   3.763   2.979   0.990
 8078WAT     H233019   3.825   2.911   0.889
 8078WAT    EPW33020   3.797   2.977   0.919
 8079WAT      O33021   4.713   2.765   0.550
 8079WAT     H133022   4.779   2.789   0.497
 8079WAT     H233023   4.690   2.687   0.518
 8079WAT    EPW33024   4.720   2.757   0.537
 8080WAT      O33025   3.458   1.473   0.635
 8080WAT     H133026   3.434   1.432   0.562
 8080WAT     H233027   3.407   1.544   0.636
 8080WAT    EPW33028   3.447   1.478   0.624
 8081WAT      O33029   4.378   1.380   0.349
 8081WAT     H133030   4.440   1.438   0.372
 8081WAT     H233031   4.304   1.421   0.369
 8081WAT    EPW33032   4.376   1.395   0.355
 8082WAT      O33033   3.473   2.863   1.055
 8082WAT     H133034   3.539   2.908   1.091
 8082WAT     H233035   3.419   2.925   1.026
 8082WAT    EPW33036   3.475   2.879   1.056
 8083WAT      O33037   3.304   2.630   0.784
 8083WAT     H133038   3.252   2.688   0.823
 8083WAT     H233039   3.384   2.663   0.796
 8083WAT    EPW33040   3.308   2.643   0.791
 8084WAT      O33041   4.760   2.281   1.018
 8084WAT     H133042   4.826   2.239   1.058
 8084WAT     H233043   4.797   2.315   0.947
 8084WAT    EPW33044   4.775   2.280   1.014
 8085WAT      O33045   4.786   1.719   1.125
 8085WAT     H133046   4.776   1.795   1.167
 8085WAT     H233047   4.705   1.702   1.096
 8085WAT    EPW33048   4.772   1.728   1.127
 8086WAT      O33049   4.877   1.807   0.453
 8086WAT     H133050   4.792   1.813   0.434
 8086WAT     H233051   4.889   1.721   0.464
 8086WAT    EPW33052   4.866   1.795   0.452
 8087WAT      O33053   3.750   1.496   0.954
 8087WAT     H133054   3.794   1.459   0.888
 8087WAT     H233055   3.670   1.462   0.948
 8087WAT    EPW33056   3.745   1.486   0.943
 8088WAT      O33057   4.589   2.326   1.244
 8088WAT     H133058   4.653   2.348   1.298
 8088WAT     H233059   4.627   2.325   1.166
 8088WAT    EPW33060   4.604   2.329   1.241
 8089WAT      O33061   3.587   2.737   0.269
 8089WAT     H133062   3.563   2.664   0.309
 8089WAT     H233063   3.545   2.734   0.192
 8089WAT    EPW33064   3.577   2.726   0.263
 8090WAT      O33065   3.234   3.091   0.678
 8090WAT     H133066   3.257   3.076   0.760
 8090WAT     H233067   3.273   3.027   0.633
 8090WAT    EPW33068   3.243   3.079   0.684
 8091WAT      O33069   3.237   0.578   7.458
 8091WAT     H133070   3.227   0.601   7.541
 8091WAT     H233071   3.212   0.494   7.456
 8091WAT    EPW33072   3.232   0.569   7.470
 8092WAT      O33073   4.813   0.938   7.207
 8092WAT     H133074   4.873   0.882   7.237
 8092WAT     H233075   4.763   0.890   7.155
 8092WAT    EPW33076   4.815   0.923   7.204
 8093WAT      O33077   3.424   0.528   7.015
 8093WAT     H133078   3.393   0.478   6.950
 8093WAT     H233079   3.431   0.472   7.082
 8093WAT    EPW33080   3.420   0.512   7.016
 8094WAT      O33081   4.523   0.219   7.503
 8094WAT     H133082   4.548   0.233   7.421
 8094WAT     H233083   4.501   0.135   7.504
 8094WAT    EPW33084   4.523   0.208   7.491
 8095WAT      O33085   3.462   0.746   7.412
 8095WAT     H133086   3.523   0.748   7.475
 8095WAT     H233087   3.410   0.680   7.437
 8095WAT    EPW33088   3.463   0.736   7.425
 8096WAT      O33089   3.335   1.012   7.041
 8096WAT     H133090   3.351   1.012   6.955
 8096WAT     H233091   3.358   0.931   7.065
 8096WAT    EPW33092   3.340   1.000   7.032
 8097WAT      O33093   3.342   0.272   7.595
 8097WAT     H133094   3.299   0.262   7.520
 8097WAT     H233095   3.353   0.191   7.624
 8097WAT    EPW33096   3.337   0.259   7.588
 8098WAT      O33097   3.920   0.716   7.671
 8098WAT     H133098   3.961   0.645   7.699
 8098WAT     H233099   3.982   0.778   7.671
 8098WAT    EPW33100   3.935   0.715   7.675
 8099WAT      O33101   4.038   0.660   7.335
 8099WAT     H133102   4.065   0.589   7.378
 8099WAT     H233103   4.058   0.643   7.252
 8099WAT    EPW33104   4.045   0.647   7.329
 8100WAT      O33105   3.186   1.064   7.633
 8100WAT     H133106   3.113   1.104   7.605
 8100WAT     H233107   3.220   1.031   7.560
 8100WAT    EPW33108   3.180   1.065   7.618
 8101WAT      O33109   3.773   0.731   7.345
 8101WAT     H133110   3.756   0.755   7.427
 8101WAT     H233111   3.857   0.710   7.347
 8101WAT    EPW33112   3.783   0.732   7.357
 8102WAT      O33113   4.399   1.048   7.102
 8102WAT     H133114   4.468   1.100   7.112
 8102WAT     H233115   4.425   0.971   7.132
 8102WAT    EPW33116   4.413   1.044   7.108
 8103WAT      O33117   4.186   1.064   7.273
 8103WAT     H133118   4.199   1.135   7.321
 8103WAT     H233119   4.253   1.066   7.217
 8103WAT    EPW33120   4.198   1.075   7.272
 8104WAT      O33121   3.306   0.972   7.399
 8104WAT     H133122   3.362   0.906   7.414
 8104WAT     H233123   3.355   1.030   7.355
 8104WAT    EPW33124   3.322   0.971   7.394
 8105WAT      O33125   3.512   0.704   7.790
 8105WAT     H133126   3.559   0.756   7.739
 8105WAT     H233127   3.528   0.624   7.759
 8105WAT    EPW33128   3.521   0.700   7.778
 8106WAT      O33129   3.782   1.062   7.557
 8106WAT     H133130   3.856   1.106   7.570
 8106WAT     H233131   3.723   1.125   7.545
 8106WAT    EPW33132   3.784   1.078   7.557
 8107WAT      O33133   4.598   1.244   7.092
 8107WAT     H133134   4.643   1.220   7.021
 8107WAT     H233135   4.654   1.294   7.136
 8107WAT    EPW33136   4.613   1.248   7.088
 8108WAT      O33137   4.069   0.872   6.923
 8108WAT     H133138   4.034   0.928   6.980
 8108WAT     H233139   4.143   0.912   6.898
 8108WAT    EPW33140   4.074   0.886   6.928
 8109WAT      O33141   4.856   1.182   7.500
 8109WAT     H133142   4.815   1.259   7.498
 8109WAT     H233143   4.794   1.126   7.475
 8109WAT    EPW33144   4.841   1.185   7.496
 8110WAT      O33145   4.566   0.785   7.510
 8110WAT     H133146   4.637   0.734   7.504
 8110WAT     H233147   4.501   0.727   7.520
 8110WAT    EPW33148   4.567   0.769   7.511
 8111WAT      O33149   4.779   0.541   7.055
 8111WAT     H133150   4.793   0.506   7.134
 8111WAT     H233151   4.860   0.560   7.028
 8111WAT    EPW33152   4.793   0.538   7.063
 8112WAT      O33153   3.533   0.481   7.618
 8112WAT     H133154   3.580   0.474   7.544
 8112WAT     H233155   3.478   0.413   7.613
 8112WAT    EPW33156   3.532   0.470   7.606
 8113WAT      O33157   3.439   1.100   7.749
 8113WAT     H133158   3.358   1.097   7.716
 8113WAT     H233159   3.485   1.140   7.686
 8113WAT    EPW33160   3.433   1.106   7.735
 8114WAT      O33161   4.537   0.132   6.980
 8114WAT     H133162   4.558   0.208   6.942
 8114WAT     H233163   4.460   0.149   7.017
 8114WAT    EPW33164   4.529   0.146   6.980
 8115WAT      O33165   3.658   0.476   7.360
 8115WAT     H133166   3.687   0.557   7.349
 8115WAT     H233167   3.724   0.427   7.329
 8115WAT    EPW33168   3.672   0.480   7.354
 8116WAT      O33169   3.246   0.661   7.725
 8116WAT     H133170   3.206   0.729   7.763
 8116WAT     H233171   3.330   0.675   7.743
 8116WAT    EPW33172   3.252   0.673   7.733
 8117WAT      O33173   3.204   0.283   7.345
 8117WAT     H133174   3.197   0.199   7.321
 8117WAT     H233175   3.276   0.310   7.303
 8117WAT    EPW33176   3.214   0.274   7.336
 8118WAT      O33177   4.127   0.912   7.663
 8118WAT     H133178   4.097   0.994   7.655
 8118WAT     H233179   4.163   0.896   7.585
 8118WAT    EPW33180   4.128   0.922   7.650
 8119WAT      O33181   3.149   0.775   7.275
 8119WAT     H133182   3.198   0.839   7.308
 8119WAT     H233183   3.158   0.711   7.334
 8119WAT    EPW33184   3.158   0.775   7.289
 8120WAT      O33185   3.163   0.669   7.017
 8120WAT     H133186   3.238   0.623   7.014
 8120WAT     H233187   3.163   0.704   7.096
 8120WAT    EPW33188   3.174   0.667   7.028
 8121WAT      O33189   3.168   0.399   7.774
 8121WAT     H133190   3.222   0.351   7.725
 8121WAT     H233191   3.202   0.479   7.769
 8121WAT    EPW33192   3.181   0.404   7.766
 8122WAT      O33193   3.678   0.811   7.594
 8122WAT     H133194   3.701   0.895   7.587
 8122WAT     H233195   3.748   0.773   7.629
 8122WAT    EPW33196   3.691   0.818   7.598
 8123WAT      O33197   3.370   8.063   7.709
 8123WAT     H133198   3.398   8.067   7.792
 8123WAT     H233199   3.368   7.978   7.692
 8123WAT    EPW33200   3.373   8.051   7.719
 8124WAT      O33201   4.315   0.250   7.121
 8124WAT     H133202   4.272   0.275   7.050
 8124WAT     H233203   4.253   0.243   7.181
 8124WAT    EPW33204   4.299   0.253   7.119
 8125WAT      O33205   4.785   0.617   7.496
 8125WAT     H133206   4.792   0.573   7.572
 8125WAT     H233207   4.795   0.555   7.436
 8125WAT    EPW33208   4.788   0.601   7.499
 8126WAT      O33209   4.258   0.702   7.792
 8126WAT     H133210   4.221   0.776   7.764
 8126WAT     H233211   4.307   0.727   7.859
 8126WAT    EPW33212   4.260   0.716   7.797
 8127WAT      O33213   3.730   0.980   7.232
 8127WAT     H133214   3.746   0.905   7.274
 8127WAT     H233215   3.810   1.008   7.209
 8127WAT    EPW33216   3.744   0.973   7.235
 8128WAT      O33217   3.968   1.048   7.111
 8128WAT     H133218   4.035   1.051   7.166
 8128WAT     H233219   3.963   1.129   7.080
 8128WAT    EPW33220   3.977   1.060   7.115
 8129WAT      O33221   3.452   0.348   7.226
 8129WAT     H133222   3.497   0.279   7.197
 8129WAT     H233223   3.509   0.391   7.275
 8129WAT    EPW33224   3.467   0.344   7.229
 8130WAT      O33225   4.110   0.239   7.318
 8130WAT     H133226   4.126   0.306   7.372
 8130WAT     H233227   4.106   0.170   7.372
 8130WAT    EPW33228   4.112   0.239   7.334
 8131WAT      O33229   4.071   0.497   7.759
 8131WAT     H133230   4.051   0.459   7.835
 8131WAT     H233231   4.137   0.551   7.780
 8131WAT    EPW33232   4.078   0.499   7.773
 8132WAT      O33233   3.656   1.105   6.858
 8132WAT     H133234   3.672   1.028   6.895
 8132WAT     H233235   3.662   1.162   6.924
 8132WAT    EPW33236   3.659   1.102   6.873
 8133WAT      O33237   4.969   1.113   7.064
 8133WAT     H133238   5.032   1.063   7.029
 8133WAT     H233239   4.920   1.056   7.108
 8133WAT    EPW33240   4.971   1.097   7.065
 8134WAT      O33241   3.476   0.132   6.811
 8134WAT     H133242   3.463   0.050   6.835
 8134WAT     H233243   3.559   0.132   6.782
 8134WAT    EPW33244   3.486   0.120   6.810
 8135WAT      O33245   4.799   0.494   7.749
 8135WAT     H133246   4.807   0.559   7.806
 8135WAT     H233247   4.875   0.451   7.757
 8135WAT    EPW33248   4.812   0.497   7.758
 8136WAT      O33249   5.044   0.887   7.859
 8136WAT     H133250   5.046   0.945   7.794
 8136WAT     H233251   5.116   0.905   7.905
 8136WAT    EPW33252   5.055   0.898   7.856
 8137WAT      O33253   4.652   0.784   7.051
 8137WAT     H133254   4.688   0.705   7.051
 8137WAT     H233255   4.580   0.774   7.099
 8137WAT    EPW33256   4.647   0.771   7.058
 8138WAT      O33257   4.365   0.577   6.998
 8138WAT     H133258   4.430   0.519   6.997
 8138WAT     H233259   4.338   0.579   6.915
 8138WAT    EPW33260   4.371   0.569   6.986
 8139WAT      O33261   4.035   1.187   7.604
 8139WAT     H133262   4.009   1.262   7.639
 8139WAT     H233263   4.097   1.212   7.547
 8139WAT    EPW33264   4.041   1.202   7.601
 8140WAT      O33265   3.923   0.440   6.985
 8140WAT     H133266   3.851   0.483   6.958
 8140WAT     H233267   3.976   0.504   7.011
 8140WAT    EPW33268   3.920   0.456   6.985
 8141WAT      O33269   4.821   0.416   7.303
 8141WAT     H133270   4.892   0.366   7.309
 8141WAT     H233271   4.756   0.358   7.290
 8141WAT    EPW33272   4.822   0.400   7.302
 8142WAT      O33273   4.380   0.581   7.570
 8142WAT     H133274   4.343   0.625   7.636
 8142WAT     H233275   4.432   0.524   7.610
 8142WAT    EPW33276   4.382   0.579   7.586
 8143WAT      O33277   4.147   0.453   7.489
 8143WAT     H133278   4.111   0.454   7.569
 8143WAT     H233279   4.227   0.486   7.502
 8143WAT    EPW33280   4.153   0.458   7.503
 8144WAT      O33281   4.534   1.191   7.741
 8144WAT     H133282   4.477   1.147   7.789
 8144WAT     H233283   4.608   1.147   7.751
 8144WAT    EPW33284   4.537   1.178   7.749
 8145WAT      O33285   4.231   0.837   7.418
 8145WAT     H133286   4.217   0.908   7.370
 8145WAT     H233287   4.168   0.782   7.393
 8145WAT    EPW33288   4.220   0.839   7.407
 8146WAT      O33289   3.677   0.859   6.987
 8146WAT     H133290   3.723   0.890   7.055
 8146WAT     H233291   3.600   0.839   7.022
 8146WAT    EPW33292   3.672   0.861   7.003
 8147WAT      O33293   4.535   0.404   7.712
 8147WAT     H133294   4.619   0.424   7.725
 8147WAT     H233295   4.538   0.340   7.653
 8147WAT    EPW33296   4.548   0.398   7.705
 8148WAT      O33297   4.642   1.028   7.403
 8148WAT     H133298   4.612   0.954   7.440
 8148WAT     H233299   4.690   1.000   7.336
 8148WAT    EPW33300   4.645   1.013   7.399
 8149WAT      O33301   3.455   0.779   7.131
 8149WAT     H133302   3.466   0.766   7.217
 8149WAT     H233303   3.443   0.698   7.100
 8149WAT    EPW33304   3.455   0.765   7.139
 8150WAT      O33305   3.700   0.592   6.911
 8150WAT     H133306   3.620   0.566   6.935
 8150WAT     H233307   3.702   0.676   6.935
 8150WAT    EPW33308   3.689   0.601   6.918
 8151WAT      O33309   4.589   0.261   7.233
 8151WAT     H133310   4.606   0.206   7.167
 8151WAT     H233311   4.510   0.293   7.212
 8151WAT    EPW33312   4.580   0.257   7.220
 8152WAT      O33313   3.495   1.122   7.245
 8152WAT     H133314   3.448   1.098   7.175
 8152WAT     H233315   3.564   1.069   7.242
 8152WAT    EPW33316   3.498   1.111   7.234
 8153WAT      O33317   3.855   0.327   7.230
 8153WAT     H133318   3.873   0.358   7.151
 8153WAT     H233319   3.931   0.294   7.257
 8153WAT    EPW33320   3.869   0.326   7.223
 8154WAT      O33321   4.763   1.174   6.884
 8154WAT     H133322   4.834   1.159   6.933
 8154WAT     H233323   4.739   1.094   6.857
 8154WAT    EPW33324   4.770   1.160   6.887
 8155WAT      O33325   4.416   0.784   7.193
 8155WAT     H133326   4.380   0.776   7.272
 8155WAT     H233327   4.382   0.716   7.149
 8155WAT    EPW33328   4.406   0.773   7.198
 8156WAT      O33329   3.425   0.922   7.971
 8156WAT     H133330   3.456   0.850   7.933
 8156WAT     H233331   3.442   0.984   7.913
 8156WAT    EPW33332   3.432   0.920   7.957
 8157WAT      O33333   4.101   0.634   7.067
 8157WAT     H133334   4.182   0.607   7.048
 8157WAT     H233335   4.092   0.707   7.020
 8157WAT    EPW33336   4.112   0.641   7.057
 8158WAT      O33337   3.214   0.560   5.542
 8158WAT     H133338   3.210   0.590   5.624
 8158WAT     H233339   3.227   0.475   5.552
 8158WAT    EPW33340   3.215   0.552   5.555
 8159WAT      O33341   4.806   0.955   5.334
 8159WAT     H133342   4.868   0.900   5.360
 8159WAT     H233343   4.760   0.908   5.276
 8159WAT    EPW33344   4.808   0.940   5.330
 8160WAT      O33345   3.439   0.521   5.111
 8160WAT     H133346   3.407   0.475   5.044
 8160WAT     H233347   3.451   0.462   5.173
 8160WAT    EPW33348   3.436   0.506   5.110
 8161WAT      O33349   4.501   0.284   5.645
 8161WAT     H133350   4.526   0.271   5.562
 8161WAT     H233351   4.452   0.213   5.662
 8161WAT    EPW33352   4.497   0.271   5.635
 8162WAT      O33353   3.446   0.702   5.494
 8162WAT     H133354   3.497   0.668   5.556
 8162WAT     H233355   3.373   0.655   5.499
 8162WAT    EPW33356   3.443   0.690   5.504
 8163WAT      O33357   3.279   0.932   5.063
 8163WAT     H133358   3.334   0.953   4.999
 8163WAT     H233359   3.327   0.884   5.117
 8163WAT    EPW33360   3.294   0.928   5.062
 8164WAT      O33361   3.223   0.789   6.202
 8164WAT     H133362   3.242   0.774   6.286
 8164WAT     H233363   3.154   0.737   6.187
 8164WAT    EPW33364   3.215   0.779   6.212
 8165WAT      O33365   3.830   0.637   6.661
 8165WAT     H133366   3.800   0.617   6.740
 8165WAT     H233367   3.761   0.628   6.609
 8165WAT    EPW33368   3.816   0.633   6.665
 8166WAT      O33369   3.356   0.338   5.753
 8166WAT     H133370   3.343   0.296   5.678
 8166WAT     H233371   3.412   0.287   5.796
 8166WAT    EPW33372   3.363   0.325   5.748
 8167WAT      O33373   3.849   0.936   6.376
 8167WAT     H133374   3.867   0.996   6.316
 8167WAT     H233375   3.928   0.905   6.398
 8167WAT    EPW33376   3.863   0.940   6.371
 8168WAT      O33377   3.965   0.734   5.801
 8168WAT     H133378   3.990   0.656   5.829
 8168WAT     H233379   4.039   0.779   5.796
 8168WAT    EPW33380   3.979   0.729   5.804
 8169WAT      O33381   4.063   0.694   5.455
 8169WAT     H133382   4.086   0.622   5.498
 8169WAT     H233383   4.079   0.674   5.371
 8169WAT    EPW33384   4.069   0.680   5.449
 8170WAT      O33385   3.181   1.045   5.729
 8170WAT     H133386   3.115   1.088   5.690
 8170WAT     H233387   3.224   1.009   5.662
 8170WAT    EPW33388   3.177   1.046   5.713
 8171WAT      O33389   3.790   0.704   5.454
 8171WAT     H133390   3.764   0.735   5.532
 8171WAT     H233391   3.876   0.699   5.462
 8171WAT    EPW33392   3.799   0.708   5.467
 8172WAT      O33393   4.382   1.066   5.216
 8172WAT     H133394   4.451   1.119   5.217
 8172WAT     H233395   4.415   0.989   5.239
 8172WAT    EPW33396   4.397   1.062   5.220
 8173WAT      O33397   4.218   1.124   5.429
 8173WAT     H133398   4.239   1.204   5.456
 8173WAT     H233399   4.272   1.112   5.361
 8173WAT    EPW33400   4.229   1.134   5.423
 8174WAT      O33401   3.330   0.953   5.508
 8174WAT     H133402   3.378   0.881   5.520
 8174WAT     H233403   3.382   1.006   5.463
 8174WAT    EPW33404   3.345   0.950   5.503
 8175WAT      O33405   4.420   1.102   6.241
 8175WAT     H133406   4.492   1.150   6.234
 8175WAT     H233407   4.403   1.078   6.158
 8175WAT    EPW33408   4.428   1.106   6.227
 8176WAT      O33409   3.486   0.798   5.853
 8176WAT     H133410   3.551   0.793   5.795
 8176WAT     H233411   3.504   0.735   5.910
 8176WAT    EPW33412   3.498   0.788   5.853
 8177WAT      O33413   3.787   1.067   5.768
 8177WAT     H133414   3.862   1.089   5.731
 8177WAT     H233415   3.730   1.123   5.733
 8177WAT    EPW33416   3.789   1.078   5.757
 8178WAT      O33417   4.585   1.257   5.194
 8178WAT     H133418   4.638   1.235   5.129
 8178WAT     H233419   4.638   1.299   5.250
 8178WAT    EPW33420   4.601   1.260   5.193
 8179WAT      O33421   3.603   1.179   6.340
 8179WAT     H133422   3.646   1.147   6.409
 8179WAT     H233423   3.540   1.120   6.326
 8179WAT    EPW33424   3.600   1.165   6.348
 8180WAT      O33425   4.313   0.854   6.608
 8180WAT     H133426   4.311   0.890   6.687
 8180WAT     H233427   4.398   0.836   6.597
 8180WAT    EPW33428   4.326   0.856   6.618
 8181WAT      O33429   4.072   0.892   5.041
 8181WAT     H133430   4.051   0.945   5.108
 8181WAT     H233431   4.146   0.927   5.010
 8181WAT    EPW33432   4.080   0.905   5.046
 8182WAT      O33433   3.380   1.026   6.235
 8182WAT     H133434   3.332   0.954   6.231
 8182WAT     H233435   3.420   1.030   6.158
 8182WAT    EPW33436   3.379   1.016   6.223
 8183WAT      O33437   4.169   1.172   6.336
 8183WAT     H133438   4.248   1.151   6.306
 8183WAT     H233439   4.116   1.147   6.271
 8183WAT    EPW33440   4.173   1.165   6.322
 8184WAT      O33441   4.885   1.171   5.615
 8184WAT     H133442   4.849   1.249   5.629
 8184WAT     H233443   4.816   1.120   5.600
 8184WAT    EPW33444   4.869   1.175   5.615
 8185WAT      O33445   4.575   0.781   5.653
 8185WAT     H133446   4.644   0.740   5.618
 8185WAT     H233447   4.510   0.725   5.643
 8185WAT    EPW33448   4.576   0.767   5.646
 8186WAT      O33449   3.522   0.891   6.558
 8186WAT     H133450   3.589   0.945   6.547
 8186WAT     H233451   3.483   0.920   6.630
 8186WAT    EPW33452   3.526   0.903   6.567
 8187WAT      O33453   3.754   0.419   5.939
 8187WAT     H133454   3.772   0.420   6.025
 8187WAT     H233455   3.694   0.356   5.932
 8187WAT    EPW33456   3.748   0.410   5.951
 8188WAT      O33457   3.813   0.466   6.206
 8188WAT     H133458   3.800   0.552   6.210
 8188WAT     H233459   3.750   0.433   6.256
 8188WAT    EPW33460   3.802   0.474   6.214
 8189WAT      O33461   4.414   0.561   6.214
 8189WAT     H133462   4.362   0.518   6.269
 8189WAT     H233463   4.397   0.645   6.231
 8189WAT    EPW33464   4.404   0.567   6.224
 8190WAT      O33465   3.066   0.805   6.786
 8190WAT     H133466   3.106   0.778   6.859
 8190WAT     H233467   3.040   0.731   6.749
 8190WAT    EPW33468   3.068   0.790   6.792
 8191WAT      O33469   4.767   0.551   5.149
 8191WAT     H133470   4.769   0.516   5.228
 8191WAT     H233471   4.851   0.565   5.130
 8191WAT    EPW33472   4.780   0.548   5.158
 8192WAT      O33473   3.550   0.533   5.692
 8192WAT     H133474   3.602   0.489   5.638
 8192WAT     H233475   3.489   0.474   5.714
 8192WAT    EPW33476   3.548   0.518   5.687
 8193WAT      O33477   3.380   1.214   5.815
 8193WAT     H133478   3.312   1.168   5.784
 8193WAT     H233479   3.439   1.210   5.751
 8193WAT    EPW33480   3.379   1.206   5.801
 8194WAT      O33481   4.987   0.969   6.545
 8194WAT     H133482   4.910   0.969   6.503
 8194WAT     H233483   4.968   0.928   6.621
 8194WAT    EPW33484   4.973   0.963   6.550
 8195WAT      O33485   4.522   0.132   5.082
 8195WAT     H133486   4.547   0.208   5.047
 8195WAT     H233487   4.446   0.150   5.119
 8195WAT    EPW33488   4.515   0.146   5.082
 8196WAT      O33489   3.690   0.445   5.464
 8196WAT     H133490   3.720   0.527   5.453
 8196WAT     H233491   3.751   0.396   5.426
 8196WAT    EPW33492   3.704   0.450   5.457
 8197WAT      O33493   3.232   0.707   5.785
 8197WAT     H133494   3.181   0.765   5.825
 8197WAT     H233495   3.313   0.737   5.799
 8197WAT    EPW33496   3.236   0.720   5.793
 8198WAT      O33497   3.285   0.270   5.492
 8198WAT     H133498   3.264   0.188   5.470
 8198WAT     H233499   3.345   0.292   5.433
 8198WAT    EPW33500   3.291   0.261   5.480
 8199WAT      O33501   4.182   0.911   5.779
 8199WAT     H133502   4.139   0.983   5.756
 8199WAT     H233503   4.226   0.889   5.707
 8199WAT    EPW33504   4.182   0.918   5.765
 8200WAT      O33505   3.145   0.783   5.378
 8200WAT     H133506   3.201   0.839   5.415
 8200WAT     H233507   3.139   0.718   5.437
 8200WAT    EPW33508   3.152   0.782   5.392
 8201WAT      O33509   3.561   0.604   6.033
 8201WAT     H133510   3.611   0.648   6.090
 8201WAT     H233511   3.619   0.560   5.986
 8201WAT    EPW33512   3.577   0.604   6.035
 8202WAT      O33513   3.160   0.620   5.147
 8202WAT     H133514   3.242   0.592   5.138
 8202WAT     H233515   3.164   0.676   5.214
 8202WAT    EPW33516   3.173   0.624   5.156
 8203WAT      O33517   3.177   0.474   5.917
 8203WAT     H133518   3.219   0.420   5.863
 8203WAT     H233519   3.199   0.553   5.888
 8203WAT    EPW33520   3.187   0.478   5.905
 8204WAT      O33521   4.732   0.975   6.411
 8204WAT     H133522   4.691   1.052   6.419
 8204WAT     H233523   4.733   0.962   6.324
 8204WAT    EPW33524   4.726   0.985   6.399
 8205WAT      O33525   3.719   0.811   5.696
 8205WAT     H133526   3.733   0.896   5.709
 8205WAT     H233527   3.787   0.772   5.735
 8205WAT    EPW33528   3.731   0.817   5.704
 8206WAT      O33529   3.534   0.240   5.949
 8206WAT     H133530   3.485   0.285   6.006
 8206WAT     H233531   3.551   0.165   5.991
 8206WAT    EPW33532   3.529   0.236   5.964
 8207WAT      O33533   3.950   1.112   6.168
 8207WAT     H133534   3.935   1.043   6.117
 8207WAT     H233535   3.937   1.180   6.115
 8207WAT    EPW33536   3.946   1.112   6.153
 8208WAT      O33537   3.322   0.366   6.820
 8208WAT     H133538   3.333   0.408   6.744
 8208WAT     H233539   3.369   0.293   6.809
 8208WAT    EPW33540   3.330   0.361   6.807
 8209WAT      O33541   4.537   0.525   6.644
 8209WAT     H133542   4.563   0.607   6.627
 8209WAT     H233543   4.576   0.478   6.582
 8209WAT    EPW33544   4.546   0.530   6.632
 8210WAT      O33545   3.927   0.903   6.685
 8210WAT     H133546   3.967   0.893   6.762
 8210WAT     H233547   3.894   0.824   6.669
 8210WAT    EPW33548   3.928   0.890   6.694
 8211WAT      O33549   4.304   0.252   5.230
 8211WAT     H133550   4.262   0.281   5.159
 8211WAT     H233551   4.241   0.246   5.290
 8211WAT    EPW33552   4.288   0.255   5.229
 8212WAT      O33553   4.799   0.652   5.564
 8212WAT     H133554   4.815   0.615   5.641
 8212WAT     H233555   4.788   0.584   5.510
 8212WAT    EPW33556   4.800   0.636   5.567
 8213WAT      O33557   4.352   0.974   5.993
 8213WAT     H133558   4.297   0.951   5.929
 8213WAT     H233559   4.401   1.036   5.956
 8213WAT    EPW33560   4.351   0.980   5.978
 8214WAT      O33561   4.367   0.612   5.941
 8214WAT     H133562   4.291   0.651   5.957
 8214WAT     H233563   4.384   0.570   6.016
 8214WAT    EPW33564   4.358   0.611   5.955
 8215WAT      O33565   3.772   0.956   5.347
 8215WAT     H133566   3.785   0.877   5.382
 8215WAT     H233567   3.852   0.985   5.332
 8215WAT    EPW33568   3.785   0.949   5.350
 8216WAT      O33569   4.010   1.060   5.255
 8216WAT     H133570   4.073   1.084   5.310
 8216WAT     H233571   3.992   1.133   5.211
 8216WAT    EPW33572   4.017   1.074   5.256
 8217WAT      O33573   4.675   0.389   6.441
 8217WAT     H133574   4.664   0.392   6.355
 8217WAT     H233575   4.757   0.413   6.453
 8217WAT    EPW33576   4.685   0.393   6.430
 8218WAT      O33577   4.303   1.004   6.846
 8218WAT     H133578   4.341   1.019   6.923
 8218WAT     H233579   4.328   1.071   6.797
 8218WAT    EPW33580   4.312   1.016   6.850
 8219WAT      O33581   3.489   0.335   5.312
 8219WAT     H133582   3.534   0.268   5.277
 8219WAT     H233583   3.549   0.375   5.362
 8219WAT    EPW33584   3.505   0.331   5.314
 8220WAT      O33585   4.230   0.426   6.376
 8220WAT     H133586   4.180   0.474   6.429
 8220WAT     H233587   4.267   0.368   6.430
 8220WAT    EPW33588   4.228   0.424   6.392
 8221WAT      O33589   4.110   0.248   5.438
 8221WAT     H133590   4.122   0.319   5.487
 8221WAT     H233591   4.101   0.184   5.497
 8221WAT    EPW33592   4.111   0.249   5.454
 8222WAT      O33593   4.619   0.742   5.927
 8222WAT     H133594   4.613   0.771   5.845
 8222WAT     H233595   4.542   0.705   5.942
 8222WAT    EPW33596   4.607   0.741   5.917
 8223WAT      O33597   4.018   0.461   5.853
 8223WAT     H133598   3.934   0.442   5.866
 8223WAT     H233599   4.054   0.444   5.931
 8223WAT    EPW33600   4.011   0.456   5.867
 8224WAT      O33601   3.650   1.130   4.994
 8224WAT     H133602   3.668   1.051   5.026
 8224WAT     H233603   3.653   1.182   5.065
 8224WAT    EPW33604   3.653   1.126   5.009
 8225WAT      O33605   3.373   0.412   6.102
 8225WAT     H133606   3.429   0.478   6.092
 8225WAT     H233607   3.305   0.434   6.051
 8225WAT    EPW33608   3.371   0.425   6.093
 8226WAT      O33609   4.965   1.118   5.181
 8226WAT     H133610   5.025   1.064   5.148
 8226WAT     H233611   4.914   1.065   5.228
 8226WAT    EPW33612   4.966   1.102   5.183
 8227WAT      O33613   4.661   0.447   6.162
 8227WAT     H133614   4.650   0.406   6.086
 8227WAT     H233615   4.584   0.486   6.176
 8227WAT    EPW33616   4.648   0.447   6.153
 8228WAT      O33617   3.504   0.144   4.920
 8228WAT     H133618   3.478   0.062   4.932
 8228WAT     H233619   3.591   0.139   4.918
 8228WAT    EPW33620   3.513   0.131   4.921
 8229WAT      O33621   3.342   0.522   6.588
 8229WAT     H133622   3.325   0.472   6.518
 8229WAT     H233623   3.304   0.598   6.568
 8229WAT    EPW33624   3.334   0.526   6.575
 8230WAT      O33625   4.810   0.549   5.824
 8230WAT     H133626   4.775   0.611   5.875
 8230WAT     H233627   4.883   0.527   5.867
 8230WAT    EPW33628   4.815   0.555   5.838
 8231WAT      O33629   4.991   0.880   5.967
 8231WAT     H133630   5.021   0.944   5.914
 8231WAT     H233631   5.054   0.874   6.028
 8231WAT    EPW33632   5.005   0.889   5.968
 8232WAT      O33633   4.664   0.805   5.156
 8232WAT     H133634   4.696   0.724   5.151
 8232WAT     H233635   4.589   0.795   5.200
 8232WAT    EPW33636   4.658   0.792   5.161
 8233WAT      O33637   4.933   0.339   6.838
 8233WAT     H133638   4.915   0.255   6.825
 8233WAT     H233639   5.020   0.341   6.843
 8233WAT    EPW33640   4.943   0.327   6.837
 8234WAT      O33641   4.935   0.496   6.439
 8234WAT     H133642   5.007   0.456   6.412
 8234WAT     H233643   4.915   0.550   6.373
 8234WAT    EPW33644   4.942   0.498   6.426
 8235WAT      O33645   4.366   0.588   5.104
 8235WAT     H133646   4.429   0.527   5.102
 8235WAT     H233647   4.338   0.591   5.021
 8235WAT    EPW33648   4.371   0.579   5.091
 8236WAT      O33649   3.753   0.740   6.191
 8236WAT     H133650   3.766   0.789   6.262
 8236WAT     H233651   3.786   0.789   6.126
 8236WAT    EPW33652   3.760   0.755   6.192
 8237WAT      O33653   3.591   0.622   6.522
 8237WAT     H133654   3.518   0.590   6.558
 8237WAT     H233655   3.578   0.709   6.523
 8237WAT    EPW33656   3.578   0.630   6.528
 8238WAT      O33657   4.080   0.440   6.135
 8238WAT     H133658   4.129   0.420   6.205
 8238WAT     H233659   3.999   0.438   6.166
 8238WAT    EPW33660   4.075   0.437   6.150
 8239WAT      O33661   4.044   1.130   5.665
 8239WAT     H133662   4.029   1.214   5.684
 8239WAT     H233663   4.088   1.134   5.590
 8239WAT    EPW33664   4.048   1.143   5.657
 8240WAT      O33665   3.863   0.910   5.997
 8240WAT     H133666   3.826   0.961   5.937
 8240WAT     H233667   3.910   0.853   5.951
 8240WAT    EPW33668   3.864   0.909   5.982
 8241WAT      O33669   4.273   0.527   6.739
 8241WAT     H133670   4.351   0.527   6.700
 8241WAT     H233671   4.220   0.563   6.680
 8241WAT    EPW33672   4.277   0.533   6.724
 8242WAT      O33673   4.587   0.803   6.585
 8242WAT     H133674   4.617   0.837   6.659
 8242WAT     H233675   4.631   0.845   6.523
 8242WAT    EPW33676   4.598   0.814   6.587
 8243WAT      O33677   3.927   0.462   5.102
 8243WAT     H133678   3.856   0.505   5.075
 8243WAT     H233679   3.980   0.525   5.131
 8243WAT    EPW33680   3.925   0.477   5.102
 8244WAT      O33681   4.084   1.121   6.597
 8244WAT     H133682   4.097   1.121   6.511
 8244WAT     H233683   4.042   1.045   6.611
 8244WAT    EPW33684   4.080   1.110   6.586
 8245WAT      O33685   4.766   0.428   5.398
 8245WAT     H133686   4.835   0.376   5.406
 8245WAT     H233687   4.699   0.373   5.389
 8245WAT    EPW33688   4.766   0.412   5.398
 8246WAT      O33689   4.082   0.594   6.540
 8246WAT     H133690   4.004   0.595   6.579
 8246WAT     H233691   4.088   0.673   6.503
 8246WAT    EPW33692   4.071   0.606   6.541
 8247WAT      O33693   3.634   1.269   6.075
 8247WAT     H133694   3.630   1.256   6.161
 8247WAT     H233695   3.607   1.193   6.042
 8247WAT    EPW33696   3.630   1.256   6.083
 8248WAT      O33697   4.399   0.549   5.672
 8248WAT     H133698   4.393   0.563   5.758
 8248WAT     H233699   4.441   0.472   5.667
 8248WAT    EPW33700   4.405   0.539   5.684
 8249WAT      O33701   4.143   0.471   5.601
 8249WAT     H133702   4.103   0.466   5.678
 8249WAT     H233703   4.224   0.496   5.622
 8249WAT    EPW33704   4.149   0.474   5.616
 8250WAT      O33705   4.113   0.845   6.421
 8250WAT     H133706   4.169   0.858   6.487
 8250WAT     H233707   4.165   0.843   6.350
 8250WAT    EPW33708   4.129   0.846   6.420
 8251WAT      O33709   3.249   1.190   6.610
 8251WAT     H133710   3.190   1.127   6.597
 8251WAT     H233711   3.201   1.257   6.640
 8251WAT    EPW33712   3.233   1.191   6.613
 8252WAT      O33713   4.165   0.318   6.897
 8252WAT     H133714   4.198   0.378   6.843
 8252WAT     H233715   4.084   0.347   6.912
 8252WAT    EPW33716   4.158   0.331   6.891
 8253WAT      O33717   4.494   1.209   5.940
 8253WAT     H133718   4.438   1.273   5.959
 8253WAT     H233719   4.559   1.220   5.997
 8253WAT    EPW33720   4.496   1.220   5.951
 8254WAT      O33721   4.130   0.702   6.060
 8254WAT     H133722   4.110   0.622   6.089
 8254WAT     H233723   4.171   0.739   6.127
 8254WAT    EPW33724   4.133   0.695   6.074
 8255WAT      O33725   4.694   0.916   6.814
 8255WAT     H133726   4.777   0.889   6.804
 8255WAT     H233727   4.668   0.875   6.886
 8255WAT    EPW33728   4.703   0.906   6.823
 8256WAT      O33729   4.273   0.860   5.521
 8256WAT     H133730   4.256   0.941   5.494
 8256WAT     H233731   4.201   0.816   5.501
 8256WAT    EPW33732   4.260   0.865   5.514
 8257WAT      O33733   3.297   0.364   6.360
 8257WAT     H133734   3.313   0.383   6.276
 8257WAT     H233735   3.275   0.280   6.358
 8257WAT    EPW33736   3.296   0.354   6.347
 8258WAT      O33737   3.675   0.876   5.104
 8258WAT     H133738   3.720   0.898   5.176
 8258WAT     H233739   3.597   0.853   5.136
 8258WAT    EPW33740   3.670   0.876   5.120
 8259WAT      O33741   3.592   0.396   6.360
 8259WAT     H133742   3.598   0.468   6.408
 8259WAT     H233743   3.507   0.379   6.359
 8259WAT    EPW33744   3.581   0.404   6.367
 8260WAT      O33745   4.625   0.356   5.895
 8260WAT     H133746   4.685   0.413   5.866
 8260WAT     H233747   4.590   0.325   5.822
 8260WAT    EPW33748   4.629   0.360   5.880
 8261WAT      O33749   4.649   1.030   5.551
 8261WAT     H133750   4.619   0.955   5.584
 8261WAT     H233751   4.689   1.006   5.477
 8261WAT    EPW33752   4.651   1.015   5.545
 8262WAT      O33753   3.448   0.774   5.221
 8262WAT     H133754   3.455   0.760   5.306
 8262WAT     H233755   3.445   0.693   5.187
 8262WAT    EPW33756   3.448   0.760   5.228
 8263WAT      O33757   3.706   0.611   5.021
 8263WAT     H133758   3.626   0.580   5.040
 8263WAT     H233759   3.703   0.694   5.047
 8263WAT    EPW33760   3.694   0.619   5.027
 8264WAT      O33761   4.324   0.829   6.229
 8264WAT     H133762   4.368   0.883   6.281
 8264WAT     H233763   4.335   0.864   6.150
 8264WAT    EPW33764   4.332   0.842   6.225
 8265WAT      O33765   4.357   1.192   6.642
 8265WAT     H133766   4.284   1.154   6.613
 8265WAT     H233767   4.333   1.274   6.660
 8265WAT    EPW33768   4.343   1.198   6.641
 8266WAT      O33769   4.864   0.637   6.209
 8266WAT     H133770   4.806   0.577   6.185
 8266WAT     H233771   4.823   0.712   6.192
 8266WAT    EPW33772   4.849   0.639   6.203
 8267WAT      O33773   3.714   1.099   6.586
 8267WAT     H133774   3.713   1.102   6.673
 8267WAT     H233775   3.784   1.049   6.568
 8267WAT    EPW33776   3.724   1.092   6.596
 8268WAT      O33777   4.757   0.883   6.130
 8268WAT     H133778   4.828   0.899   6.082
 8268WAT     H233779   4.700   0.850   6.072
 8268WAT    EPW33780   4.759   0.880   6.114
 8269WAT      O33781   3.406   1.026   6.773
 8269WAT     H133782   3.481   1.065   6.793
 8269WAT     H233783   3.363   1.085   6.726
 8269WAT    EPW33784   3.411   1.040   6.769
 8270WAT      O33785   3.279   0.777   6.473
 8270WAT     H133786   3.219   0.834   6.500
 8270WAT     H233787   3.355   0.818   6.487
 8270WAT    EPW33788   3.282   0.791   6.479
 8271WAT      O33789   4.554   0.246   5.364
 8271WAT     H133790   4.584   0.185   5.310
 8271WAT     H233791   4.477   0.269   5.329
 8271WAT    EPW33792   4.547   0.241   5.351
 8272WAT      O33793   3.541   1.103   5.385
 8272WAT     H133794   3.558   1.168   5.330
 8272WAT     H233795   3.610   1.050   5.377
 8272WAT    EPW33796   3.553   1.105   5.376
 8273WAT      O33797   3.863   0.293   5.313
 8273WAT     H133798   3.883   0.341   5.243
 8273WAT     H233799   3.940   0.274   5.348
 8273WAT    EPW33800   3.877   0.298   5.308
 8274WAT      O33801   4.765   1.186   4.997
 8274WAT     H133802   4.834   1.168   5.048
 8274WAT     H233803   4.741   1.108   4.967
 8274WAT    EPW33804   4.772   1.172   5.001
 8275WAT      O33805   4.894   0.581   6.705
 8275WAT     H133806   4.899   0.506   6.750
 8275WAT     H233807   4.907   0.555   6.623
 8275WAT    EPW33808   4.897   0.566   6.700
 8276WAT      O33809   4.427   0.799   5.291
 8276WAT     H133810   4.388   0.798   5.369
 8276WAT     H233811   4.393   0.731   5.250
 8276WAT    EPW33812   4.416   0.789   5.297
 8277WAT      O33813   4.581   0.406   6.906
 8277WAT     H133814   4.652   0.441   6.942
 8277WAT     H233815   4.579   0.440   6.826
 8277WAT    EPW33816   4.591   0.416   6.899
 8278WAT      O33817   3.499   1.039   5.988
 8278WAT     H133818   3.502   0.962   5.946
 8278WAT     H233819   3.456   1.091   5.933
 8278WAT    EPW33820   3.493   1.035   5.974
 8279WAT      O33821   4.108   0.654   5.185
 8279WAT     H133822   4.187   0.624   5.162
 8279WAT     H233823   4.098   0.726   5.137
 8279WAT    EPW33824   4.118   0.660   5.174
 8280WAT      O33825   3.261   1.256   6.340
 8280WAT     H133826   3.263   1.234   6.425
 8280WAT     H233827   3.294   1.187   6.300
 8280WAT    EPW33828   3.266   1.243   6.347
 8281WAT      O33829   3.214   0.549   3.589
 8281WAT     H133830   3.135   0.548   3.627
 8281WAT     H233831   3.235   0.464   3.586
 8281WAT    EPW33832   3.206   0.536   3.594
 8282WAT      O33833   4.790   0.943   3.418
 8282WAT     H133834   4.865   0.909   3.446
 8282WAT     H233835   4.758   0.881   3.365
 8282WAT    EPW33836   4.796   0.928   3.414
 8283WAT      O33837   3.456   0.533   3.222
 8283WAT     H133838   3.419   0.483   3.161
 8283WAT     H233839   3.479   0.475   3.283
 8283WAT    EPW33840   3.454   0.517   3.222
 8284WAT      O33841   4.496   0.262   3.753
 8284WAT     H133842   4.529   0.248   3.674
 8284WAT     H233843   4.446   0.192   3.767
 8284WAT    EPW33844   4.494   0.250   3.744
 8285WAT      O33845   3.434   0.719   3.624
 8285WAT     H133846   3.485   0.686   3.687
 8285WAT     H233847   3.365   0.665   3.622
 8285WAT    EPW33848   3.431   0.706   3.633
 8286WAT      O33849   3.339   0.985   3.225
 8286WAT     H133850   3.365   0.984   3.142
 8286WAT     H233851   3.371   0.910   3.257
 8286WAT    EPW33852   3.347   0.974   3.217
 8287WAT      O33853   3.184   0.798   4.307
 8287WAT     H133854   3.212   0.778   4.387
 8287WAT     H233855   3.120   0.740   4.293
 8287WAT    EPW33856   3.179   0.786   4.316
 8288WAT      O33857   3.829   0.657   4.771
 8288WAT     H133858   3.799   0.638   4.850
 8288WAT     H233859   3.760   0.644   4.719
 8288WAT    EPW33860   3.815   0.653   4.775
 8289WAT      O33861   3.385   0.363   3.834
 8289WAT     H133862   3.372   0.321   3.759
 8289WAT     H233863   3.429   0.306   3.883
 8289WAT    EPW33864   3.390   0.349   3.831
 8290WAT      O33865   3.818   0.931   4.494
 8290WAT     H133866   3.822   1.007   4.451
 8290WAT     H233867   3.902   0.913   4.512
 8290WAT    EPW33868   3.831   0.940   4.490
 8291WAT      O33869   3.978   0.739   3.888
 8291WAT     H133870   3.986   0.656   3.911
 8291WAT     H233871   4.060   0.770   3.893
 8291WAT    EPW33872   3.991   0.731   3.892
 8292WAT      O33873   4.050   0.686   3.549
 8292WAT     H133874   4.068   0.614   3.594
 8292WAT     H233875   4.067   0.664   3.467
 8292WAT    EPW33876   4.055   0.673   3.544
 8293WAT      O33877   3.117   1.145   3.745
 8293WAT     H133878   3.126   1.197   3.675
 8293WAT     H233879   3.161   1.074   3.724
 8293WAT    EPW33880   3.125   1.142   3.732
 8294WAT      O33881   3.788   0.773   3.562
 8294WAT     H133882   3.772   0.797   3.645
 8294WAT     H233883   3.873   0.754   3.563
 8294WAT    EPW33884   3.798   0.774   3.575
 8295WAT      O33885   4.391   1.041   3.323
 8295WAT     H133886   4.449   1.105   3.337
 8295WAT     H233887   4.435   0.969   3.345
 8295WAT    EPW33888   4.406   1.040   3.328
 8296WAT      O33889   4.187   1.061   3.502
 8296WAT     H133890   4.201   1.137   3.543
 8296WAT     H233891   4.249   1.058   3.441
 8296WAT    EPW33892   4.198   1.072   3.499
 8297WAT      O33893   3.299   0.965   3.623
 8297WAT     H133894   3.345   0.897   3.652
 8297WAT     H233895   3.355   1.010   3.573
 8297WAT    EPW33896   3.314   0.962   3.620
 8298WAT      O33897   4.421   1.125   4.342
 8298WAT     H133898   4.495   1.172   4.339
 8298WAT     H233899   4.411   1.098   4.260
 8298WAT    EPW33900   4.431   1.128   4.329
 8299WAT      O33901   3.510   0.841   3.962
 8299WAT     H133902   3.579   0.843   3.909
 8299WAT     H233903   3.524   0.770   4.011
 8299WAT    EPW33904   3.522   0.831   3.961
 8300WAT      O33905   3.860   1.107   3.911
 8300WAT     H133906   3.936   1.098   3.870
 8300WAT     H233907   3.843   1.193   3.904
 8300WAT    EPW33908   3.869   1.119   3.904
 8301WAT      O33909   4.546   1.271   3.355
 8301WAT     H133910   4.612   1.262   3.298
 8301WAT     H233911   4.584   1.307   3.425
 8301WAT    EPW33912   4.561   1.275   3.357
 8302WAT      O33913   3.610   1.178   4.464
 8302WAT     H133914   3.643   1.167   4.544
 8302WAT     H233915   3.546   1.118   4.460
 8302WAT    EPW33916   3.606   1.168   4.476
 8303WAT      O33917   4.311   0.873   4.709
 8303WAT     H133918   4.309   0.908   4.789
 8303WAT     H233919   4.395   0.853   4.697
 8303WAT    EPW33920   4.323   0.875   4.719
 8304WAT      O33921   4.059   0.878   3.142
 8304WAT     H133922   4.027   0.932   3.203
 8304WAT     H233923   4.133   0.916   3.117
 8304WAT    EPW33924   4.065   0.891   3.148
 8305WAT      O33925   3.369   1.042   4.349
 8305WAT     H133926   3.325   0.966   4.352
 8305WAT     H233927   3.395   1.047   4.266
 8305WAT    EPW33928   3.367   1.032   4.337
 8306WAT      O33929   4.175   1.199   4.445
 8306WAT     H133930   4.251   1.176   4.409
 8306WAT     H233931   4.117   1.182   4.382
 8306WAT    EPW33932   4.177   1.193   4.430
 8307WAT      O33933   4.846   1.185   3.694
 8307WAT     H133934   4.798   1.258   3.696
 8307WAT     H233935   4.786   1.122   3.683
 8307WAT    EPW33936   4.830   1.187   3.693
 8308WAT      O33937   4.584   0.743   3.741
 8308WAT     H133938   4.647   0.692   3.710
 8308WAT     H233939   4.513   0.694   3.737
 8308WAT    EPW33940   4.583   0.728   3.736
 8309WAT      O33941   3.552   0.893   4.612
 8309WAT     H133942   3.632   0.919   4.589
 8309WAT     H233943   3.539   0.931   4.689
 8309WAT    EPW33944   3.562   0.902   4.620
 8310WAT      O33945   3.751   0.417   4.037
 8310WAT     H133946   3.770   0.424   4.122
 8310WAT     H233947   3.688   0.357   4.036
 8310WAT    EPW33948   3.745   0.409   4.049
 8311WAT      O33949   3.828   0.480   4.294
 8311WAT     H133950   3.810   0.565   4.301
 8311WAT     H233951   3.784   0.444   4.361
 8311WAT    EPW33952   3.819   0.487   4.305
 8312WAT      O33953   4.405   0.586   4.312
 8312WAT     H133954   4.355   0.542   4.368
 8312WAT     H233955   4.393   0.669   4.334
 8312WAT    EPW33956   4.396   0.592   4.323
 8313WAT      O33957   3.071   0.856   4.892
 8313WAT     H133958   3.133   0.862   4.953
 8313WAT     H233959   3.076   0.773   4.865
 8313WAT    EPW33960   3.081   0.844   4.897
 8314WAT      O33961   4.809   0.483   3.267
 8314WAT     H133962   4.811   0.440   3.343
 8314WAT     H233963   4.882   0.532   3.270
 8314WAT    EPW33964   4.820   0.484   3.279
 8315WAT      O33965   3.569   0.571   3.815
 8315WAT     H133966   3.627   0.540   3.758
 8315WAT     H233967   3.512   0.506   3.824
 8315WAT    EPW33968   3.569   0.557   3.808
 8316WAT      O33969   3.351   1.240   3.871
 8316WAT     H133970   3.270   1.216   3.850
 8316WAT     H233971   3.386   1.262   3.794
 8316WAT    EPW33972   3.345   1.240   3.856
 8317WAT      O33973   4.996   0.996   4.659
 8317WAT     H133974   4.922   0.994   4.613
 8317WAT     H233975   4.976   0.954   4.733
 8317WAT    EPW33976   4.982   0.989   4.663
 8318WAT      O33977   4.503   0.107   3.184
 8318WAT     H133978   4.537   0.179   3.149
 8318WAT     H233979   4.433   0.136   3.228
 8318WAT    EPW33980   4.498   0.122   3.186
 8319WAT      O33981   3.712   0.507   3.583
 8319WAT     H133982   3.737   0.589   3.566
 8319WAT     H233983   3.773   0.458   3.544
 8319WAT    EPW33984   3.725   0.512   3.575
 8320WAT      O33985   3.249   0.765   3.895
 8320WAT     H133986   3.212   0.826   3.946
 8320WAT     H233987   3.334   0.783   3.902
 8320WAT    EPW33988   3.256   0.777   3.904
 8321WAT      O33989   3.323   0.281   3.571
 8321WAT     H133990   3.306   0.198   3.550
 8321WAT     H233991   3.392   0.301   3.521
 8321WAT    EPW33992   3.331   0.272   3.561
 8322WAT      O33993   4.235   0.859   3.884
 8322WAT     H133994   4.196   0.934   3.863
 8322WAT     H233995   4.273   0.834   3.810
 8322WAT    EPW33996   4.235   0.866   3.870
 8323WAT      O33997   3.159   0.791   3.459
 8323WAT     H133998   3.208   0.846   3.507
 8323WAT     H233999   3.167   0.715   3.502
 8323WAT    EPW34000   3.168   0.788   3.473
 8324WAT      O34001   3.568   0.625   4.125
 8324WAT     H134002   3.625   0.664   4.179
 8324WAT     H234003   3.619   0.580   4.071
 8324WAT    EPW34004   3.584   0.624   4.125
 8325WAT      O34005   3.180   0.671   3.208
 8325WAT     H134006   3.255   0.627   3.213
 8325WAT     H234007   3.176   0.713   3.284
 8325WAT    EPW34008   3.191   0.671   3.220
 8326WAT      O34009   3.200   0.509   3.980
 8326WAT     H134010   3.251   0.461   3.928
 8326WAT     H234011   3.216   0.591   3.955
 8326WAT    EPW34012   3.210   0.514   3.969
 8327WAT      O34013   4.739   0.991   4.519
 8327WAT     H134014   4.697   1.067   4.528
 8327WAT     H234015   4.736   0.976   4.434
 8327WAT    EPW34016   4.732   1.000   4.508
 8328WAT      O34017   3.747   0.869   3.817
 8328WAT     H134018   3.769   0.951   3.837
 8328WAT     H234019   3.813   0.822   3.847
 8328WAT    EPW34020   3.760   0.874   3.825
 8329WAT      O34021   3.523   0.251   4.055
 8329WAT     H134022   3.475   0.302   4.106
 8329WAT     H234023   3.534   0.178   4.102
 8329WAT    EPW34024   3.517   0.248   4.069
 8330WAT      O34025   3.937   1.169   4.297
 8330WAT     H134026   3.933   1.096   4.250
 8330WAT     H234027   3.921   1.232   4.239
 8330WAT    EPW34028   3.934   1.168   4.282
 8331WAT      O34029   3.334   0.368   4.910
 8331WAT     H134030   3.343   0.406   4.832
 8331WAT     H234031   3.383   0.296   4.902
 8331WAT    EPW34032   3.343   0.363   4.897
 8332WAT      O34033   4.533   0.538   4.746
 8332WAT     H134034   4.559   0.620   4.731
 8332WAT     H234035   4.574   0.492   4.684
 8332WAT    EPW34036   4.543   0.544   4.735
 8333WAT      O34037   3.924   0.924   4.801
 8333WAT     H134038   3.963   0.916   4.879
 8333WAT     H234039   3.893   0.844   4.785
 8333WAT    EPW34040   3.925   0.911   4.811
 8334WAT      O34041   4.311   0.250   3.341
 8334WAT     H134042   4.271   0.278   3.269
 8334WAT     H234043   4.246   0.244   3.399
 8334WAT    EPW34044   4.296   0.253   3.339
 8335WAT      O34045   4.783   0.563   3.676
 8335WAT     H134046   4.783   0.531   3.757
 8335WAT     H234047   4.791   0.491   3.626
 8335WAT    EPW34048   4.784   0.548   3.680
 8336WAT      O34049   4.371   0.985   4.095
 8336WAT     H134050   4.336   0.943   4.026
 8336WAT     H234051   4.410   1.054   4.059
 8336WAT    EPW34052   4.372   0.989   4.079
 8337WAT      O34053   4.369   0.626   4.037
 8337WAT     H134054   4.300   0.681   4.037
 8337WAT     H234055   4.370   0.595   4.118
 8337WAT    EPW34056   4.359   0.630   4.049
 8338WAT      O34057   3.730   1.032   3.484
 8338WAT     H134058   3.744   0.952   3.515
 8338WAT     H234059   3.806   1.053   3.445
 8338WAT    EPW34060   3.743   1.023   3.483
 8339WAT      O34061   3.964   1.049   3.337
 8339WAT     H134062   4.033   1.050   3.391
 8339WAT     H234063   3.967   1.128   3.299
 8339WAT    EPW34064   3.975   1.061   3.340
 8340WAT      O34065   4.672   0.404   4.544
 8340WAT     H134066   4.659   0.410   4.457
 8340WAT     H234067   4.756   0.424   4.553
 8340WAT    EPW34068   4.682   0.408   4.532
 8341WAT      O34069   4.307   1.016   4.953
 8341WAT     H134070   4.336   1.034   5.033
 8341WAT     H234071   4.331   1.086   4.906
 8341WAT    EPW34072   4.315   1.029   4.958
 8342WAT      O34073   3.545   0.359   3.422
 8342WAT     H134074   3.608   0.306   3.395
 8342WAT     H234075   3.586   0.413   3.477
 8342WAT    EPW34076   3.560   0.359   3.426
 8343WAT      O34077   4.226   0.446   4.475
 8343WAT     H134078   4.176   0.493   4.529
 8343WAT     H234079   4.264   0.388   4.527
 8343WAT    EPW34080   4.225   0.445   4.490
 8344WAT      O34081   4.101   0.245   3.534
 8344WAT     H134082   4.115   0.315   3.585
 8344WAT     H234083   4.091   0.180   3.591
 8344WAT    EPW34084   4.102   0.246   3.550
 8345WAT      O34085   4.629   0.738   4.022
 8345WAT     H134086   4.626   0.761   3.938
 8345WAT     H234087   4.550   0.705   4.037
 8345WAT    EPW34088   4.617   0.736   4.012
 8346WAT      O34089   4.011   0.467   3.948
 8346WAT     H134090   3.928   0.444   3.964
 8346WAT     H234091   4.051   0.457   4.025
 8346WAT    EPW34092   4.005   0.462   3.962
 8347WAT      O34093   3.651   1.132   3.113
 8347WAT     H134094   3.676   1.057   3.149
 8347WAT     H234095   3.661   1.190   3.177
 8347WAT    EPW34096   3.656   1.130   3.128
 8348WAT      O34097   3.369   0.441   4.192
 8348WAT     H134098   3.429   0.504   4.184
 8348WAT     H234099   3.308   0.464   4.134
 8348WAT    EPW34100   3.369   0.454   4.182
 8349WAT      O34101   4.957   1.120   3.287
 8349WAT     H134102   5.019   1.068   3.253
 8349WAT     H234103   4.903   1.065   3.326
 8349WAT    EPW34104   4.958   1.104   3.287
 8350WAT      O34105   4.649   0.461   4.267
 8350WAT     H134106   4.633   0.408   4.199
 8350WAT     H234107   4.574   0.503   4.278
 8350WAT    EPW34108   4.636   0.459   4.258
 8351WAT      O34109   3.466   0.138   3.001
 8351WAT     H134110   3.451   0.058   3.032
 8351WAT     H234111   3.544   0.132   2.963
 8351WAT    EPW34112   3.475   0.125   3.000
 8352WAT      O34113   3.348   0.515   4.672
 8352WAT     H134114   3.321   0.475   4.598
 8352WAT     H234115   3.297   0.586   4.676
 8352WAT    EPW34116   3.336   0.520   4.662
 8353WAT      O34117   4.789   0.513   3.946
 8353WAT     H134118   4.758   0.584   3.986
 8353WAT     H234119   4.869   0.504   3.979
 8353WAT    EPW34120   4.796   0.522   3.957
 8354WAT      O34121   4.986   0.947   4.087
 8354WAT     H134122   5.005   1.001   4.021
 8354WAT     H234123   5.053   0.959   4.142
 8354WAT    EPW34124   4.999   0.957   4.085
 8355WAT      O34125   4.687   0.740   3.262
 8355WAT     H134126   4.718   0.658   3.265
 8355WAT     H234127   4.612   0.736   3.306
 8355WAT    EPW34128   4.681   0.727   3.269
 8356WAT      O34129   4.930   0.351   4.936
 8356WAT     H134130   4.907   0.268   4.924
 8356WAT     H234131   5.017   0.347   4.945
 8356WAT    EPW34132   4.940   0.338   4.936
 8357WAT      O34133   4.937   0.500   4.530
 8357WAT     H134134   5.009   0.459   4.502
 8357WAT     H234135   4.918   0.555   4.466
 8357WAT    EPW34136   4.945   0.502   4.517
 8358WAT      O34137   4.363   0.578   3.197
 8358WAT     H134138   4.423   0.515   3.199
 8358WAT     H234139   4.337   0.579   3.114
 8358WAT    EPW34140   4.368   0.569   3.185
 8359WAT      O34141   3.763   0.752   4.283
 8359WAT     H134142   3.765   0.796   4.358
 8359WAT     H234143   3.808   0.803   4.228
 8359WAT    EPW34144   3.770   0.766   4.286
 8360WAT      O34145   3.597   0.619   4.621
 8360WAT     H134146   3.519   0.587   4.642
 8360WAT     H234147   3.582   0.704   4.610
 8360WAT    EPW34148   3.583   0.627   4.623
 8361WAT      O34149   4.093   0.470   4.223
 8361WAT     H134150   4.140   0.447   4.292
 8361WAT     H234151   4.011   0.465   4.251
 8361WAT    EPW34152   4.088   0.466   4.237
 8362WAT      O34153   4.095   1.072   3.779
 8362WAT     H134154   4.145   1.144   3.770
 8362WAT     H234155   4.092   1.040   3.698
 8362WAT    EPW34156   4.102   1.078   3.766
 8363WAT      O34157   3.918   0.938   4.142
 8363WAT     H134158   3.902   0.975   4.064
 8363WAT     H234159   3.983   0.882   4.125
 8363WAT    EPW34160   3.925   0.935   4.128
 8364WAT      O34161   4.271   0.542   4.844
 8364WAT     H134162   4.348   0.541   4.804
 8364WAT     H234163   4.218   0.578   4.785
 8364WAT    EPW34164   4.274   0.547   4.830
 8365WAT      O34165   4.585   0.817   4.689
 8365WAT     H134166   4.615   0.851   4.764
 8365WAT     H234167   4.632   0.858   4.628
 8365WAT    EPW34168   4.596   0.828   4.691
 8366WAT      O34169   3.930   0.453   3.189
 8366WAT     H134170   3.861   0.499   3.162
 8366WAT     H234171   3.984   0.514   3.219
 8366WAT    EPW34172   3.928   0.469   3.190
 8367WAT      O34173   4.090   1.134   4.703
 8367WAT     H134174   4.103   1.135   4.617
 8367WAT     H234175   4.048   1.059   4.716
 8367WAT    EPW34176   4.085   1.123   4.692
 8368WAT      O34177   4.825   0.345   3.509
 8368WAT     H134178   4.897   0.300   3.528
 8368WAT     H234179   4.763   0.284   3.508
 8368WAT    EPW34180   4.826   0.329   3.512
 8369WAT      O34181   4.079   0.613   4.645
 8369WAT     H134182   4.002   0.614   4.686
 8369WAT     H234183   4.085   0.691   4.609
 8369WAT    EPW34184   4.069   0.624   4.646
 8370WAT      O34185   3.599   1.288   4.199
 8370WAT     H134186   3.605   1.266   4.283
 8370WAT     H234187   3.567   1.217   4.161
 8370WAT    EPW34188   3.595   1.274   4.206
 8371WAT      O34189   4.393   0.528   3.777
 8371WAT     H134190   4.390   0.547   3.862
 8371WAT     H234191   4.433   0.451   3.775
 8371WAT    EPW34192   4.398   0.519   3.789
 8372WAT      O34193   4.135   0.466   3.697
 8372WAT     H134194   4.094   0.463   3.774
 8372WAT     H234195   4.217   0.488   3.718
 8372WAT    EPW34196   4.141   0.469   3.712
 8373WAT      O34197   4.101   0.868   4.529
 8373WAT     H134198   4.161   0.879   4.591
 8373WAT     H234199   4.148   0.867   4.455
 8373WAT    EPW34200   4.117   0.869   4.527
 8374WAT      O34201   3.288   1.196   4.705
 8374WAT     H134202   3.231   1.132   4.688
 8374WAT     H234203   3.239   1.259   4.740
 8374WAT    EPW34204   3.272   1.196   4.707
 8375WAT      O34205   4.161   0.335   5.006
 8375WAT     H134206   4.197   0.393   4.951
 8375WAT     H234207   4.082   0.368   5.023
 8375WAT    EPW34208   4.155   0.349   5.000
 8376WAT      O34209   4.486   1.239   4.049
 8376WAT     H134210   4.432   1.305   4.066
 8376WAT     H234211   4.553   1.253   4.103
 8376WAT    EPW34212   4.488   1.251   4.059
 8377WAT      O34213   4.125   0.740   4.167
 8377WAT     H134214   4.112   0.656   4.185
 8377WAT     H234215   4.179   0.767   4.229
 8377WAT    EPW34216   4.131   0.732   4.179
 8378WAT      O34217   4.696   0.932   4.915
 8378WAT     H134218   4.778   0.904   4.903
 8378WAT     H234219   4.672   0.892   4.989
 8378WAT    EPW34220   4.705   0.922   4.924
 8379WAT      O34221   4.284   0.817   3.610
 8379WAT     H134222   4.268   0.899   3.585
 8379WAT     H234223   4.209   0.775   3.594
 8379WAT    EPW34224   4.270   0.823   3.604
 8380WAT      O34225   3.245   0.400   4.438
 8380WAT     H134226   3.287   0.416   4.363
 8380WAT     H234227   3.229   0.314   4.434
 8380WAT    EPW34228   3.249   0.390   4.426
 8381WAT      O34229   3.709   0.879   3.225
 8381WAT     H134230   3.769   0.901   3.284
 8381WAT     H234231   3.640   0.857   3.273
 8381WAT    EPW34232   3.708   0.879   3.241
 8382WAT      O34233   3.682   0.382   4.504
 8382WAT     H134234   3.653   0.456   4.538
 8382WAT     H234235   3.706   0.335   4.574
 8382WAT    EPW34236   3.681   0.386   4.520
 8383WAT      O34237   4.601   0.327   4.018
 8383WAT     H134238   4.665   0.381   3.992
 8383WAT     H234239   4.569   0.296   3.943
 8383WAT    EPW34240   4.606   0.331   4.003
 8384WAT      O34241   4.639   1.000   3.644
 8384WAT     H134242   4.619   0.921   3.675
 8384WAT     H234243   4.676   0.983   3.567
 8384WAT    EPW34244   4.642   0.986   3.637
 8385WAT      O34245   3.482   0.779   3.352
 8385WAT     H134246   3.476   0.764   3.437
 8385WAT     H234247   3.472   0.700   3.316
 8385WAT    EPW34248   3.480   0.765   3.359
 8386WAT      O34249   3.716   0.619   3.120
 8386WAT     H134250   3.636   0.593   3.141
 8386WAT     H234251   3.719   0.701   3.148
 8386WAT    EPW34252   3.705   0.627   3.127
 8387WAT      O34253   4.321   0.853   4.336
 8387WAT     H134254   4.362   0.905   4.393
 8387WAT     H234255   4.340   0.889   4.259
 8387WAT    EPW34256   4.330   0.866   4.333
 8388WAT      O34257   4.356   1.215   4.758
 8388WAT     H134258   4.282   1.179   4.729
 8388WAT     H234259   4.332   1.297   4.776
 8388WAT    EPW34260   4.341   1.222   4.756
 8389WAT      O34261   4.864   0.646   4.303
 8389WAT     H134262   4.804   0.587   4.282
 8389WAT     H234263   4.824   0.722   4.289
 8389WAT    EPW34264   4.849   0.649   4.298
 8390WAT      O34265   3.731   1.127   4.723
 8390WAT     H134266   3.710   1.143   4.807
 8390WAT     H234267   3.793   1.066   4.729
 8390WAT    EPW34268   3.737   1.120   4.736
 8391WAT      O34269   4.750   0.892   4.234
 8391WAT     H134270   4.820   0.920   4.190
 8391WAT     H234271   4.700   0.857   4.171
 8391WAT    EPW34272   4.753   0.891   4.218
 8392WAT      O34273   3.443   1.013   4.850
 8392WAT     H134274   3.504   1.057   4.894
 8392WAT     H234275   3.397   1.076   4.810
 8392WAT    EPW34276   3.445   1.029   4.851
 8393WAT      O34277   3.288   0.794   4.564
 8393WAT     H134278   3.233   0.853   4.598
 8393WAT     H234279   3.367   0.830   4.576
 8393WAT    EPW34280   3.291   0.808   4.571
 8394WAT      O34281   4.568   0.206   3.478
 8394WAT     H134282   4.584   0.136   3.428
 8394WAT     H234283   4.499   0.244   3.440
 8394WAT    EPW34284   4.560   0.202   3.465
 8395WAT      O34285   3.466   1.105   3.449
 8395WAT     H134286   3.441   1.079   3.370
 8395WAT     H234287   3.550   1.082   3.452
 8395WAT    EPW34288   3.475   1.098   3.438
 8396WAT      O34289   3.855   0.327   3.423
 8396WAT     H134290   3.878   0.361   3.346
 8396WAT     H234291   3.929   0.294   3.454
 8396WAT    EPW34292   3.869   0.327   3.416
 8397WAT      O34293   4.726   1.195   3.148
 8397WAT     H134294   4.805   1.188   3.184
 8397WAT     H234295   4.709   1.114   3.118
 8397WAT    EPW34296   4.735   1.182   3.149
 8398WAT      O34297   4.920   0.593   4.797
 8398WAT     H134298   4.915   0.519   4.843
 8398WAT     H234299   4.924   0.565   4.714
 8398WAT    EPW34300   4.920   0.578   4.791
 8399WAT      O34301   4.448   0.770   3.388
 8399WAT     H134302   4.404   0.768   3.464
 8399WAT     H234303   4.405   0.713   3.338
 8399WAT    EPW34304   4.435   0.761   3.392
 8400WAT      O34305   4.573   0.408   5.005
 8400WAT     H134306   4.644   0.446   5.039
 8400WAT     H234307   4.569   0.442   4.924
 8400WAT    EPW34308   4.583   0.419   4.998
 8401WAT      O34309   3.432   1.077   4.078
 8401WAT     H134310   3.465   1.005   4.043
 8401WAT     H234311   3.412   1.127   4.010
 8401WAT    EPW34312   3.434   1.073   4.063
 8402WAT      O34313   4.106   0.641   3.283
 8402WAT     H134314   4.186   0.614   3.260
 8402WAT     H234315   4.095   0.713   3.235
 8402WAT    EPW34316   4.116   0.648   3.272
 8403WAT      O34317   3.253   1.278   4.439
 8403WAT     H134318   3.264   1.258   4.524
 8403WAT     H234319   3.285   1.208   4.398
 8403WAT    EPW34320   3.260   1.265   4.446
 8404WAT      O34321   3.218   0.552   1.744
 8404WAT     H134322   3.215   0.581   1.826
 8404WAT     H234323   3.233   0.466   1.754
 8404WAT    EPW34324   3.220   0.543   1.758
 8405WAT      O34325   4.818   0.945   1.539
 8405WAT     H134326   4.879   0.889   1.566
 8405WAT     H234327   4.768   0.897   1.486
 8405WAT    EPW34328   4.820   0.930   1.535
 8406WAT      O34329   3.433   0.515   1.317
 8406WAT     H134330   3.398   0.466   1.254
 8406WAT     H234331   3.450   0.457   1.381
 8406WAT    EPW34332   3.431   0.499   1.317
 8407WAT      O34333   4.498   0.288   1.856
 8407WAT     H134334   4.525   0.273   1.774
 8407WAT     H234335   4.450   0.217   1.875
 8407WAT    EPW34336   4.495   0.275   1.847
 8408WAT      O34337   3.446   0.701   1.699
 8408WAT     H134338   3.494   0.667   1.763
 8408WAT     H234339   3.373   0.653   1.702
 8408WAT    EPW34340   3.442   0.689   1.709
 8409WAT      O34341   3.330   1.001   1.355
 8409WAT     H134342   3.355   1.009   1.271
 8409WAT     H234343   3.351   0.918   1.374
 8409WAT    EPW34344   3.337   0.990   1.345
 8410WAT      O34345   3.227   0.791   2.413
 8410WAT     H134346   3.252   0.778   2.496
 8410WAT     H234347   3.159   0.738   2.404
 8410WAT    EPW34348   3.221   0.781   2.424
 8411WAT      O34349   3.839   0.648   2.867
 8411WAT     H134350   3.809   0.634   2.948
 8411WAT     H234351   3.769   0.632   2.817
 8411WAT    EPW34352   3.824   0.644   2.872
 8412WAT      O34353   3.354   0.336   1.956
 8412WAT     H134354   3.344   0.292   1.881
 8412WAT     H234355   3.408   0.285   2.002
 8412WAT    EPW34356   3.361   0.322   1.952
 8413WAT      O34357   3.820   0.920   2.595
 8413WAT     H134358   3.834   0.987   2.541
 8413WAT     H234359   3.901   0.898   2.621
 8413WAT    EPW34360   3.834   0.926   2.591
 8414WAT      O34361   3.951   0.737   2.012
 8414WAT     H134362   3.975   0.656   2.036
 8414WAT     H234363   4.026   0.781   2.009
 8414WAT    EPW34364   3.966   0.731   2.015
 8415WAT      O34365   4.050   0.687   1.661
 8415WAT     H134366   4.072   0.616   1.707
 8415WAT     H234367   4.070   0.664   1.579
 8415WAT    EPW34368   4.056   0.673   1.655
 8416WAT      O34369   3.193   1.040   1.953
 8416WAT     H134370   3.127   1.084   1.919
 8416WAT     H234371   3.231   1.002   1.884
 8416WAT    EPW34372   3.189   1.041   1.938
 8417WAT      O34373   3.778   0.711   1.650
 8417WAT     H134374   3.753   0.741   1.728
 8417WAT     H234375   3.864   0.704   1.658
 8417WAT    EPW34376   3.787   0.715   1.663
 8418WAT      O34377   4.389   1.069   1.447
 8418WAT     H134378   4.460   1.120   1.443
 8418WAT     H234379   4.421   0.991   1.467
 8418WAT    EPW34380   4.404   1.065   1.449
 8419WAT      O34381   4.202   1.107   1.644
 8419WAT     H134382   4.218   1.184   1.681
 8419WAT     H234383   4.261   1.101   1.581
 8419WAT    EPW34384   4.213   1.117   1.640
 8420WAT      O34385   3.327   0.949   1.723
 8420WAT     H134386   3.376   0.877   1.731
 8420WAT     H234387   3.376   1.003   1.675
 8420WAT    EPW34388   3.341   0.946   1.717
 8421WAT      O34389   4.408   1.099   2.439
 8421WAT     H134390   4.478   1.151   2.436
 8421WAT     H234391   4.395   1.076   2.356
 8421WAT    EPW34392   4.416   1.103   2.426
 8422WAT      O34393   3.488   0.802   2.065
 8422WAT     H134394   3.551   0.795   2.005
 8422WAT     H234395   3.504   0.735   2.120
 8422WAT    EPW34396   3.499   0.791   2.064
 8423WAT      O34397   3.768   1.070   1.967
 8423WAT     H134398   3.847   1.092   1.938
 8423WAT     H234399   3.714   1.118   1.919
 8423WAT    EPW34400   3.772   1.080   1.956
 8424WAT      O34401   4.587   1.262   1.389
 8424WAT     H134402   4.636   1.233   1.323
 8424WAT     H234403   4.643   1.309   1.437
 8424WAT    EPW34404   4.603   1.265   1.386
 8425WAT      O34405   3.621   1.176   2.581
 8425WAT     H134406   3.650   1.161   2.662
 8425WAT     H234407   3.559   1.116   2.570
 8425WAT    EPW34408   3.616   1.165   2.591
 8426WAT      O34409   4.305   0.856   2.834
 8426WAT     H134410   4.300   0.897   2.911
 8426WAT     H234411   4.391   0.841   2.824
 8426WAT    EPW34412   4.317   0.860   2.844
 8427WAT      O34413   4.078   0.881   1.264
 8427WAT     H134414   4.050   0.934   1.327
 8427WAT     H234415   4.152   0.918   1.237
 8427WAT    EPW34416   4.085   0.894   1.269
 8428WAT      O34417   3.385   1.034   2.444
 8428WAT     H134418   3.337   0.962   2.437
 8428WAT     H234419   3.429   1.036   2.368
 8428WAT    EPW34420   3.385   1.024   2.431
 8429WAT      O34421   4.159   1.144   2.545
 8429WAT     H134422   4.237   1.134   2.508
 8429WAT     H234423   4.103   1.133   2.479
 8429WAT    EPW34424   4.163   1.141   2.530
 8430WAT      O34425   4.851   1.184   1.789
 8430WAT     H134426   4.813   1.261   1.804
 8430WAT     H234427   4.783   1.130   1.776
 8430WAT    EPW34428   4.835   1.187   1.789
 8431WAT      O34429   4.574   0.775   1.848
 8431WAT     H134430   4.645   0.729   1.827
 8431WAT     H234431   4.509   0.717   1.839
 8431WAT    EPW34432   4.575   0.760   1.844
 8432WAT      O34433   3.560   0.890   2.723
 8432WAT     H134434   3.638   0.915   2.694
 8432WAT     H234435   3.551   0.932   2.798
 8432WAT    EPW34436   3.570   0.900   2.730
 8433WAT      O34437   3.747   0.411   2.145
 8433WAT     H134438   3.765   0.414   2.230
 8433WAT     H234439   3.687   0.349   2.138
 8433WAT    EPW34440   3.741   0.403   2.157
 8434WAT      O34441   3.803   0.462   2.411
 8434WAT     H134442   3.790   0.548   2.415
 8434WAT     H234443   3.742   0.429   2.463
 8434WAT    EPW34444   3.792   0.470   2.419
 8435WAT      O34445   4.402   0.541   2.402
 8435WAT     H134446   4.351   0.504   2.462
 8435WAT     H234447   4.396   0.627   2.420
 8435WAT    EPW34448   4.394   0.549   2.414
 8436WAT      O34449   3.071   0.812   2.987
 8436WAT     H134450   3.116   0.784   3.057
 8436WAT     H234451   3.039   0.739   2.953
 8436WAT    EPW34452   3.073   0.797   2.993
 8437WAT      O34453   4.773   0.534   1.365
 8437WAT     H134454   4.786   0.498   1.444
 8437WAT     H234455   4.853   0.536   1.331
 8437WAT    EPW34456   4.787   0.529   1.372
 8438WAT      O34457   3.545   0.534   1.902
 8438WAT     H134458   3.599   0.492   1.848
 8438WAT     H234459   3.485   0.474   1.921
 8438WAT    EPW34460   3.544   0.519   1.897
 8439WAT      O34461   3.405   1.204   2.013
 8439WAT     H134462   3.333   1.159   1.992
 8439WAT     H234463   3.454   1.199   1.940
 8439WAT    EPW34464   3.402   1.197   1.999
 8440WAT      O34465   4.964   0.990   2.755
 8440WAT     H134466   4.881   1.003   2.729
 8440WAT     H234467   4.955   0.947   2.831
 8440WAT    EPW34468   4.950   0.985   2.763
 8441WAT      O34469   4.510   0.114   1.299
 8441WAT     H134470   4.539   0.189   1.265
 8441WAT     H234471   4.437   0.138   1.341
 8441WAT    EPW34472   4.503   0.129   1.300
 8442WAT      O34473   3.689   0.449   1.675
 8442WAT     H134474   3.716   0.531   1.659
 8442WAT     H234475   3.752   0.400   1.641
 8442WAT    EPW34476   3.703   0.454   1.668
 8443WAT      O34477   3.238   0.705   1.987
 8443WAT     H134478   3.185   0.761   2.028
 8443WAT     H234479   3.318   0.736   2.003
 8443WAT    EPW34480   3.242   0.718   1.995
 8444WAT      O34481   3.293   0.264   1.694
 8444WAT     H134482   3.271   0.183   1.671
 8444WAT     H234483   3.354   0.286   1.635
 8444WAT    EPW34484   3.299   0.255   1.682
 8445WAT      O34485   4.171   0.907   1.989
 8445WAT     H134486   4.128   0.980   1.967
 8445WAT     H234487   4.212   0.884   1.916
 8445WAT    EPW34488   4.171   0.915   1.975
 8446WAT      O34489   3.139   0.786   1.590
 8446WAT     H134490   3.196   0.838   1.632
 8446WAT     H234491   3.122   0.723   1.647
 8446WAT    EPW34492   3.145   0.785   1.604
 8447WAT      O34493   3.554   0.598   2.237
 8447WAT     H134494   3.604   0.641   2.295
 8447WAT     H234495   3.612   0.554   2.189
 8447WAT    EPW34496   3.570   0.598   2.239
 8448WAT      O34497   3.158   0.658   1.340
 8448WAT     H134498   3.230   0.610   1.341
 8448WAT     H234499   3.157   0.698   1.418
 8448WAT    EPW34500   3.168   0.657   1.351
 8449WAT      O34501   3.176   0.474   2.120
 8449WAT     H134502   3.216   0.418   2.066
 8449WAT     H234503   3.201   0.552   2.090
 8449WAT    EPW34504   3.186   0.478   2.108
 8450WAT      O34505   4.698   1.020   2.660
 8450WAT     H134506   4.658   1.092   2.690
 8450WAT     H234507   4.695   1.030   2.573
 8450WAT    EPW34508   4.692   1.032   2.652
 8451WAT      O34509   3.711   0.812   1.896
 8451WAT     H134510   3.724   0.897   1.909
 8451WAT     H234511   3.779   0.774   1.935
 8451WAT    EPW34512   3.723   0.819   1.903
 8452WAT      O34513   3.524   0.236   2.158
 8452WAT     H134514   3.475   0.282   2.214
 8452WAT     H234515   3.536   0.160   2.199
 8452WAT    EPW34516   3.519   0.232   2.172
 8453WAT      O34517   3.937   1.098   2.384
 8453WAT     H134518   3.918   1.033   2.328
 8453WAT     H234519   3.926   1.170   2.336
 8453WAT    EPW34520   3.933   1.099   2.368
 8454WAT      O34521   3.329   0.379   3.033
 8454WAT     H134522   3.336   0.422   2.958
 8454WAT     H234523   3.370   0.304   3.019
 8454WAT    EPW34524   3.336   0.374   3.020
 8455WAT      O34525   4.554   0.538   2.863
 8455WAT     H134526   4.569   0.623   2.854
 8455WAT     H234527   4.599   0.502   2.797
 8455WAT    EPW34528   4.563   0.545   2.852
 8456WAT      O34529   3.913   0.917   2.907
 8456WAT     H134530   3.953   0.905   2.984
 8456WAT     H234531   3.889   0.836   2.884
 8456WAT    EPW34532   3.916   0.903   2.915
 8457WAT      O34533   4.307   0.248   1.451
 8457WAT     H134534   4.265   0.274   1.379
 8457WAT     H234535   4.245   0.243   1.511
 8457WAT    EPW34536   4.292   0.251   1.449
 8458WAT      O34537   4.796   0.624   1.795
 8458WAT     H134538   4.818   0.587   1.871
 8458WAT     H234539   4.795   0.557   1.739
 8458WAT    EPW34540   4.799   0.609   1.798
 8459WAT      O34541   4.352   0.980   2.188
 8459WAT     H134542   4.292   0.955   2.130
 8459WAT     H234543   4.399   1.039   2.145
 8459WAT    EPW34544   4.350   0.985   2.173
 8460WAT      O34545   4.337   0.616   2.140
 8460WAT     H134546   4.265   0.661   2.163
 8460WAT     H234547   4.357   0.572   2.212
 8460WAT    EPW34548   4.329   0.616   2.154
 8461WAT      O34549   3.747   0.953   1.526
 8461WAT     H134550   3.758   0.877   1.567
 8461WAT     H234551   3.827   0.986   1.519
 8461WAT    EPW34552   3.760   0.947   1.531
 8462WAT      O34553   3.996   1.054   1.464
 8462WAT     H134554   4.058   1.072   1.523
 8462WAT     H234555   3.981   1.131   1.426
 8462WAT    EPW34556   4.003   1.068   1.468
 8463WAT      O34557   4.709   0.450   2.644
 8463WAT     H134558   4.690   0.435   2.560
 8463WAT     H234559   4.790   0.481   2.642
 8463WAT    EPW34560   4.718   0.452   2.631
 8464WAT      O34561   4.290   1.009   3.068
 8464WAT     H134562   4.331   1.021   3.145
 8464WAT     H234563   4.309   1.081   3.024
 8464WAT    EPW34564   4.299   1.021   3.073
 8465WAT      O34565   3.499   0.332   1.516
 8465WAT     H134566   3.546   0.268   1.479
 8465WAT     H234567   3.556   0.372   1.568
 8465WAT    EPW34568   3.514   0.328   1.518
 8466WAT      O34569   4.220   0.423   2.579
 8466WAT     H134570   4.176   0.478   2.631
 8466WAT     H234571   4.251   0.363   2.635
 8466WAT    EPW34572   4.218   0.422   2.595
 8467WAT      O34573   4.112   0.243   1.655
 8467WAT     H134574   4.121   0.315   1.703
 8467WAT     H234575   4.100   0.180   1.715
 8467WAT    EPW34576   4.111   0.244   1.671
 8468WAT      O34577   4.586   0.749   2.126
 8468WAT     H134578   4.591   0.762   2.040
 8468WAT     H234579   4.506   0.717   2.138
 8468WAT    EPW34580   4.575   0.746   2.115
 8469WAT      O34581   4.009   0.467   2.062
 8469WAT     H134582   3.927   0.442   2.074
 8469WAT     H234583   4.046   0.455   2.141
 8469WAT    EPW34584   4.003   0.462   2.076
 8470WAT      O34585   3.691   1.104   1.133
 8470WAT     H134586   3.705   1.025   1.167
 8470WAT     H234587   3.689   1.157   1.203
 8470WAT    EPW34588   3.693   1.100   1.148
 8471WAT      O34589   3.365   0.410   2.311
 8471WAT     H134590   3.422   0.475   2.299
 8471WAT     H234591   3.298   0.431   2.259
 8471WAT    EPW34592   3.363   0.423   2.301
 8472WAT      O34593   4.973   1.119   1.389
 8472WAT     H134594   5.046   1.075   1.370
 8472WAT     H234595   4.927   1.062   1.437
 8472WAT    EPW34596   4.977   1.104   1.393
 8473WAT      O34597   4.652   0.431   2.366
 8473WAT     H134598   4.646   0.386   2.292
 8473WAT     H234599   4.572   0.464   2.377
 8473WAT    EPW34600   4.639   0.429   2.357
 8474WAT      O34601   3.494   0.131   1.151
 8474WAT     H134602   3.476   0.050   1.177
 8474WAT     H234603   3.570   0.123   1.108
 8474WAT    EPW34604   3.503   0.118   1.148
 8475WAT      O34605   3.344   0.529   2.798
 8475WAT     H134606   3.326   0.479   2.729
 8475WAT     H234607   3.312   0.607   2.776
 8475WAT    EPW34608   3.337   0.533   2.785
 8476WAT      O34609   4.848   0.500   2.042
 8476WAT     H134610   4.835   0.555   2.108
 8476WAT     H234611   4.927   0.466   2.058
 8476WAT    EPW34612   4.858   0.503   2.054
 8477WAT      O34613   4.941   0.878   2.090
 8477WAT     H134614   4.982   0.937   2.042
 8477WAT     H234615   4.985   0.878   2.165
 8477WAT    EPW34616   4.953   0.887   2.094
 8478WAT      O34617   4.665   0.786   1.382
 8478WAT     H134618   4.695   0.704   1.379
 8478WAT     H234619   4.589   0.779   1.423
 8478WAT    EPW34620   4.658   0.773   1.387
 8479WAT      O34621   4.930   0.356   3.045
 8479WAT     H134622   4.896   0.382   3.121
 8479WAT     H234623   5.012   0.333   3.066
 8479WAT    EPW34624   4.937   0.357   3.060
 8480WAT      O34625   4.976   0.544   2.633
 8480WAT     H134626   5.038   0.490   2.604
 8480WAT     H234627   5.011   0.623   2.623
 8480WAT    EPW34628   4.991   0.548   2.627
 8481WAT      O34629   4.369   0.577   1.322
 8481WAT     H134630   4.429   0.513   1.324
 8481WAT     H234631   4.343   0.578   1.238
 8481WAT    EPW34632   4.374   0.568   1.310
 8482WAT      O34633   3.742   0.735   2.395
 8482WAT     H134634   3.756   0.782   2.468
 8482WAT     H234635   3.772   0.787   2.331
 8482WAT    EPW34636   3.749   0.750   2.396
 8483WAT      O34637   3.599   0.615   2.732
 8483WAT     H134638   3.524   0.589   2.769
 8483WAT     H234639   3.588   0.701   2.721
 8483WAT    EPW34640   3.586   0.624   2.736
 8484WAT      O34641   4.071   0.455   2.341
 8484WAT     H134642   4.121   0.431   2.409
 8484WAT     H234643   3.990   0.448   2.372
 8484WAT    EPW34644   4.067   0.450   2.356
 8485WAT      O34645   4.030   1.131   1.889
 8485WAT     H134646   4.031   1.215   1.914
 8485WAT     H234647   4.069   1.133   1.811
 8485WAT    EPW34648   4.036   1.144   1.881
 8486WAT      O34649   3.838   0.912   2.201
 8486WAT     H134650   3.801   0.963   2.141
 8486WAT     H234651   3.887   0.857   2.154
 8486WAT    EPW34652   3.840   0.911   2.185
 8487WAT      O34653   4.281   0.522   2.935
 8487WAT     H134654   4.361   0.526   2.900
 8487WAT     H234655   4.231   0.564   2.878
 8487WAT    EPW34656   4.285   0.529   2.921
 8488WAT      O34657   4.583   0.821   2.828
 8488WAT     H134658   4.613   0.855   2.902
 8488WAT     H234659   4.618   0.871   2.766
 8488WAT    EPW34660   4.592   0.833   2.830
 8489WAT      O34661   3.931   0.444   1.309
 8489WAT     H134662   3.859   0.485   1.281
 8489WAT     H234663   3.982   0.509   1.338
 8489WAT    EPW34664   3.928   0.460   1.309
 8490WAT      O34665   4.065   1.134   2.807
 8490WAT     H134666   4.085   1.127   2.723
 8490WAT     H234667   4.028   1.057   2.827
 8490WAT    EPW34668   4.062   1.121   2.798
 8491WAT      O34669   4.786   0.408   1.613
 8491WAT     H134670   4.850   0.351   1.630
 8491WAT     H234671   4.715   0.358   1.606
 8491WAT    EPW34672   4.785   0.392   1.615
 8492WAT      O34673   4.087   0.605   2.741
 8492WAT     H134674   4.011   0.607   2.782
 8492WAT     H234675   4.093   0.685   2.705
 8492WAT    EPW34676   4.077   0.617   2.741
 8493WAT      O34677   3.632   1.280   2.315
 8493WAT     H134678   3.629   1.264   2.401
 8493WAT     H234679   3.612   1.204   2.279
 8493WAT    EPW34680   3.628   1.267   2.322
 8494WAT      O34681   4.392   0.551   1.875
 8494WAT     H134682   4.379   0.567   1.960
 8494WAT     H234683   4.434   0.475   1.875
 8494WAT    EPW34684   4.396   0.542   1.888
 8495WAT      O34685   4.135   0.470   1.811
 8495WAT     H134686   4.096   0.467   1.889
 8495WAT     H234687   4.216   0.497   1.830
 8495WAT    EPW34688   4.141   0.474   1.826
 8496WAT      O34689   4.104   0.872   2.646
 8496WAT     H134690   4.166   0.872   2.707
 8496WAT     H234691   4.132   0.932   2.589
 8496WAT    EPW34692   4.117   0.881   2.647
 8497WAT      O34693   3.285   1.195   2.814
 8497WAT     H134694   3.228   1.130   2.800
 8497WAT     H234695   3.235   1.260   2.843
 8497WAT    EPW34696   3.269   1.195   2.817
 8498WAT      O34697   4.171   0.324   3.110
 8498WAT     H134698   4.206   0.378   3.051
 8498WAT     H234699   4.090   0.355   3.120
 8498WAT    EPW34700   4.164   0.337   3.103
 8499WAT      O34701   4.508   1.192   2.099
 8499WAT     H134702   4.488   1.252   2.159
 8499WAT     H234703   4.579   1.153   2.132
 8499WAT    EPW34704   4.516   1.195   2.113
 8500WAT      O34705   4.119   0.723   2.282
 8500WAT     H134706   4.100   0.643   2.310
 8500WAT     H234707   4.172   0.754   2.343
 8500WAT    EPW34708   4.124   0.716   2.295
 8501WAT      O34709   4.700   0.927   3.057
 8501WAT     H134710   4.782   0.908   3.034
 8501WAT     H234711   4.683   0.869   3.121
 8501WAT    EPW34712   4.710   0.915   3.063
 8502WAT      O34713   4.261   0.848   1.733
 8502WAT     H134714   4.243   0.929   1.706
 8502WAT     H234715   4.190   0.802   1.712
 8502WAT    EPW34716   4.248   0.853   1.726
 8503WAT      O34717   3.297   0.365   2.572
 8503WAT     H134718   3.310   0.383   2.488
 8503WAT     H234719   3.280   0.279   2.572
 8503WAT    EPW34720   3.297   0.355   2.559
 8504WAT      O34721   3.675   0.861   1.278
 8504WAT     H134722   3.717   0.888   1.349
 8504WAT     H234723   3.596   0.839   1.308
 8504WAT    EPW34724   3.669   0.861   1.293
 8505WAT      O34725   3.590   0.389   2.572
 8505WAT     H134726   3.599   0.460   2.622
 8505WAT     H234727   3.504   0.376   2.571
 8505WAT    EPW34728   3.579   0.398   2.579
 8506WAT      O34729   4.639   0.330   2.102
 8506WAT     H134730   4.707   0.379   2.078
 8506WAT     H234731   4.597   0.315   2.027
 8506WAT    EPW34732   4.643   0.335   2.087
 8507WAT      O34733   4.627   1.023   1.726
 8507WAT     H134734   4.605   0.950   1.768
 8507WAT     H234735   4.680   0.995   1.663
 8507WAT    EPW34736   4.632   1.008   1.723
 8508WAT      O34737   3.458   0.765   1.426
 8508WAT     H134738   3.466   0.749   1.511
 8508WAT     H234739   3.447   0.687   1.391
 8508WAT    EPW34740   3.458   0.751   1.434
 8509WAT      O34741   3.708   0.589   1.223
 8509WAT     H134742   3.628   0.561   1.242
 8509WAT     H234743   3.705   0.674   1.241
 8509WAT    EPW34744   3.696   0.597   1.228
 8510WAT      O34745   4.354   0.815   2.416
 8510WAT     H134746   4.383   0.875   2.472
 8510WAT     H234747   4.363   0.854   2.338
 8510WAT    EPW34748   4.360   0.830   2.413
 8511WAT      O34749   4.320   1.216   2.884
 8511WAT     H134750   4.246   1.182   2.853
 8511WAT     H234751   4.301   1.301   2.893
 8511WAT    EPW34752   4.306   1.223   2.881
 8512WAT      O34753   4.805   0.648   2.275
 8512WAT     H134754   4.764   0.583   2.316
 8512WAT     H234755   4.740   0.692   2.236
 8512WAT    EPW34756   4.789   0.645   2.275
 8513WAT      O34757   3.728   1.124   2.840
 8513WAT     H134758   3.709   1.143   2.923
 8513WAT     H234759   3.788   1.061   2.847
 8513WAT    EPW34760   3.734   1.117   2.854
 8514WAT      O34761   4.698   1.000   2.177
 8514WAT     H134762   4.777   0.974   2.150
 8514WAT     H234763   4.650   0.927   2.172
 8514WAT    EPW34764   4.703   0.985   2.172
 8515WAT      O34765   3.445   1.015   2.965
 8515WAT     H134766   3.508   1.060   3.005
 8515WAT     H234767   3.398   1.076   2.924
 8515WAT    EPW34768   3.448   1.031   2.965
 8516WAT      O34769   3.300   0.785   2.681
 8516WAT     H134770   3.243   0.845   2.709
 8516WAT     H234771   3.377   0.826   2.688
 8516WAT    EPW34772   3.303   0.800   2.686
 8517WAT      O34773   4.560   0.241   1.580
 8517WAT     H134774   4.587   0.174   1.532
 8517WAT     H234775   4.485   0.265   1.544
 8517WAT    EPW34776   4.553   0.235   1.568
 8518WAT      O34777   3.509   1.094   1.548
 8518WAT     H134778   3.456   1.070   1.483
 8518WAT     H234779   3.577   1.040   1.539
 8518WAT    EPW34780   3.511   1.082   1.537
 8519WAT      O34781   3.864   0.293   1.532
 8519WAT     H134782   3.885   0.335   1.458
 8519WAT     H234783   3.942   0.272   1.566
 8519WAT    EPW34784   3.879   0.296   1.526
 8520WAT      O34785   4.772   1.166   1.203
 8520WAT     H134786   4.840   1.157   1.257
 8520WAT     H234787   4.751   1.083   1.183
 8520WAT    EPW34788   4.779   1.152   1.208
 8521WAT      O34789   4.997   0.585   2.908
 8521WAT     H134790   4.966   0.516   2.951
 8521WAT     H234791   4.970   0.572   2.826
 8521WAT    EPW34792   4.988   0.573   2.902
 8522WAT      O34793   4.421   0.794   1.505
 8522WAT     H134794   4.382   0.791   1.583
 8522WAT     H234795   4.388   0.726   1.462
 8522WAT    EPW34796   4.410   0.784   1.510
 8523WAT      O34797   4.573   0.396   3.122
 8523WAT     H134798   4.649   0.420   3.157
 8523WAT     H234799   4.576   0.430   3.042
 8523WAT    EPW34800   4.585   0.405   3.115
 8524WAT      O34801   3.520   1.044   2.203
 8524WAT     H134802   3.520   0.964   2.166
 8524WAT     H234803   3.483   1.094   2.142
 8524WAT    EPW34804   3.514   1.039   2.188
 8525WAT      O34805   4.108   0.637   1.396
 8525WAT     H134806   4.188   0.608   1.376
 8525WAT     H234807   4.100   0.711   1.351
 8525WAT    EPW34808   4.118   0.644   1.386
 8526WAT      O34809   3.272   1.268   2.544
 8526WAT     H134810   3.278   1.245   2.628
 8526WAT     H234811   3.302   1.199   2.501
 8526WAT    EPW34812   3.278   1.255   2.550
 8527WAT      O34813   3.256   0.803   0.554
 8527WAT     H134814   3.273   0.794   0.639
 8527WAT     H234815   3.194   0.744   0.539
 8527WAT    EPW34816   3.249   0.793   0.564
 8528WAT      O34817   3.850   0.635   0.980
 8528WAT     H134818   3.818   0.611   1.057
 8528WAT     H234819   3.782   0.630   0.926
 8528WAT    EPW34820   3.835   0.631   0.983
 8529WAT      O34821   3.886   0.919   0.695
 8529WAT     H134822   3.904   0.976   0.632
 8529WAT     H234823   3.964   0.887   0.718
 8529WAT    EPW34824   3.900   0.922   0.689
 8530WAT      O34825   4.416   1.080   0.616
 8530WAT     H134826   4.470   1.120   0.672
 8530WAT     H234827   4.445   1.106   0.538
 8530WAT    EPW34828   4.428   1.090   0.612
 8531WAT      O34829   3.641   1.139   0.585
 8531WAT     H134830   3.660   1.128   0.670
 8531WAT     H234831   3.563   1.100   0.577
 8531WAT    EPW34832   3.632   1.131   0.597
 8532WAT      O34833   4.331   0.875   0.946
 8532WAT     H134834   4.329   0.910   1.026
 8532WAT     H234835   4.412   0.846   0.939
 8532WAT    EPW34836   4.343   0.876   0.957
 8533WAT      O34837   3.401   1.029   0.488
 8533WAT     H134838   3.364   0.952   0.510
 8533WAT     H234839   3.420   1.019   0.404
 8533WAT    EPW34840   3.398   1.016   0.479
 8534WAT      O34841   4.162   1.168   0.670
 8534WAT     H134842   4.242   1.137   0.650
 8534WAT     H234843   4.112   1.139   0.604
 8534WAT    EPW34844   4.167   1.159   0.657
 8535WAT      O34845   3.538   0.898   0.882
 8535WAT     H134846   3.599   0.956   0.860
 8535WAT     H234847   3.506   0.928   0.957
 8535WAT    EPW34848   3.543   0.911   0.890
 8536WAT      O34849   3.733   0.510   0.229
 8536WAT     H134850   3.754   0.494   0.312
 8536WAT     H234851   3.697   0.435   0.202
 8536WAT    EPW34852   3.731   0.496   0.237
 8537WAT      O34853   3.809   0.490   0.493
 8537WAT     H134854   3.795   0.575   0.507
 8537WAT     H234855   3.751   0.451   0.545
 8537WAT    EPW34856   3.798   0.497   0.503
 8538WAT      O34857   4.430   0.558   0.544
 8538WAT     H134858   4.367   0.515   0.585
 8538WAT     H234859   4.416   0.642   0.566
 8538WAT    EPW34860   4.419   0.564   0.553
 8539WAT      O34861   3.071   0.798   1.109
 8539WAT     H134862   3.106   0.769   1.184
 8539WAT     H234863   3.048   0.724   1.068
 8539WAT    EPW34864   3.073   0.783   1.114
 8540WAT      O34865   5.004   0.981   0.900
 8540WAT     H134866   4.926   0.982   0.860
 8540WAT     H234867   4.989   0.933   0.971
 8540WAT    EPW34868   4.990   0.974   0.904
 8541WAT      O34869   3.536   0.696   0.325
 8541WAT     H134870   3.584   0.719   0.394
 8541WAT     H234871   3.590   0.645   0.279
 8541WAT    EPW34872   3.551   0.691   0.328
 8542WAT      O34873   4.744   0.975   0.776
 8542WAT     H134874   4.692   1.045   0.779
 8542WAT     H234875   4.737   0.949   0.693
 8542WAT    EPW34876   4.735   0.981   0.764
 8543WAT      O34877   3.968   1.089   0.489
 8543WAT     H134878   3.954   1.032   0.425
 8543WAT     H234879   3.937   1.164   0.457
 8543WAT    EPW34880   3.962   1.092   0.475
 8544WAT      O34881   3.324   0.352   1.126
 8544WAT     H134882   3.341   0.392   1.050
 8544WAT     H234883   3.376   0.282   1.124
 8544WAT    EPW34884   3.334   0.348   1.114
 8545WAT      O34885   4.544   0.506   0.969
 8545WAT     H134886   4.573   0.587   0.955
 8545WAT     H234887   4.587   0.459   0.910
 8545WAT    EPW34888   4.554   0.511   0.958
 8546WAT      O34889   3.939   0.901   1.021
 8546WAT     H134890   3.978   0.891   1.099
 8546WAT     H234891   3.910   0.821   1.003
 8546WAT    EPW34892   3.941   0.887   1.030
 8547WAT      O34893   4.400   0.862   0.271
 8547WAT     H134894   4.338   0.855   0.210
 8547WAT     H234895   4.419   0.947   0.271
 8547WAT    EPW34896   4.394   0.873   0.262
 8548WAT      O34897   4.162   0.758   0.146
 8548WAT     H134898   4.156   0.746   0.232
 8548WAT     H234899   4.123   0.688   0.112
 8548WAT    EPW34900   4.155   0.746   0.153
 8549WAT      O34901   4.685   0.359   0.775
 8549WAT     H134902   4.665   0.349   0.691
 8549WAT     H234903   4.769   0.381   0.773
 8549WAT    EPW34904   4.694   0.361   0.762
 8550WAT      O34905   4.308   1.019   1.187
 8550WAT     H134906   4.338   1.038   1.267
 8550WAT     H234907   4.322   1.092   1.141
 8550WAT    EPW34908   4.315   1.032   1.192
 8551WAT      O34909   4.226   0.418   0.674
 8551WAT     H134910   4.181   0.468   0.731
 8551WAT     H234911   4.254   0.352   0.723
 8551WAT    EPW34912   4.223   0.416   0.690
 8552WAT      O34913   4.598   0.683   0.347
 8552WAT     H134914   4.543   0.735   0.303
 8552WAT     H234915   4.545   0.637   0.398
 8552WAT    EPW34916   4.582   0.684   0.348
 8553WAT      O34917   4.010   0.515   0.153
 8553WAT     H134918   3.923   0.519   0.165
 8553WAT     H234919   4.039   0.477   0.226
 8553WAT    EPW34920   4.001   0.510   0.165
 8554WAT      O34921   3.324   0.518   0.406
 8554WAT     H134922   3.382   0.579   0.383
 8554WAT     H234923   3.259   0.529   0.349
 8554WAT    EPW34924   3.323   0.529   0.394
 8555WAT      O34925   4.618   0.358   0.500
 8555WAT     H134926   4.572   0.297   0.458
 8555WAT     H234927   4.560   0.422   0.514
 8555WAT    EPW34928   4.603   0.358   0.496
 8556WAT      O34929   3.366   0.510   0.897
 8556WAT     H134930   3.352   0.469   0.822
 8556WAT     H234931   3.325   0.586   0.887
 8556WAT    EPW34932   3.358   0.515   0.885
 8557WAT      O34933   4.809   0.494   0.342
 8557WAT     H134934   4.761   0.438   0.388
 8557WAT     H234935   4.751   0.553   0.314
 8557WAT    EPW34936   4.794   0.495   0.345
 8558WAT      O34937   4.954   0.964   0.391
 8558WAT     H134938   4.996   1.001   0.324
 8558WAT     H234939   5.018   0.930   0.440
 8558WAT    EPW34940   4.970   0.965   0.389
 8559WAT      O34941   4.933   0.361   1.162
 8559WAT     H134942   4.905   0.279   1.150
 8559WAT     H234943   5.020   0.354   1.154
 8559WAT    EPW34944   4.942   0.348   1.159
 8560WAT      O34945   4.948   0.457   0.740
 8560WAT     H134946   5.026   0.425   0.714
 8560WAT     H234947   4.932   0.520   0.683
 8560WAT    EPW34948   4.957   0.462   0.728
 8561WAT      O34949   3.745   0.761   0.506
 8561WAT     H134950   3.773   0.802   0.577
 8561WAT     H234951   3.789   0.800   0.441
 8561WAT    EPW34952   3.756   0.773   0.507
 8562WAT      O34953   3.611   0.628   0.839
 8562WAT     H134954   3.540   0.592   0.873
 8562WAT     H234955   3.594   0.714   0.843
 8562WAT    EPW34956   3.598   0.636   0.845
 8563WAT      O34957   4.076   0.445   0.433
 8563WAT     H134958   4.121   0.420   0.503
 8563WAT     H234959   3.993   0.447   0.461
 8563WAT    EPW34960   4.070   0.441   0.447
 8564WAT      O34961   3.915   0.876   0.318
 8564WAT     H134962   3.925   0.875   0.231
 8564WAT     H234963   3.979   0.825   0.346
 8564WAT    EPW34964   3.926   0.869   0.309
 8565WAT      O34965   4.281   0.522   1.062
 8565WAT     H134966   4.358   0.516   1.023
 8565WAT     H234967   4.228   0.551   0.999
 8565WAT    EPW34968   4.284   0.525   1.047
 8566WAT      O34969   4.594   0.787   0.928
 8566WAT     H134970   4.627   0.817   1.002
 8566WAT     H234971   4.638   0.830   0.866
 8566WAT    EPW34972   4.605   0.798   0.930
 8567WAT      O34973   4.061   1.133   0.925
 8567WAT     H134974   4.087   1.121   0.843
 8567WAT     H234975   4.030   1.054   0.948
 8567WAT    EPW34976   4.060   1.119   0.917
 8568WAT      O34977   4.099   0.585   0.857
 8568WAT     H134978   4.021   0.590   0.895
 8568WAT     H234979   4.111   0.666   0.825
 8568WAT    EPW34980   4.089   0.598   0.858
 8569WAT      O34981   3.647   1.181   0.310
 8569WAT     H134982   3.654   1.160   0.395
 8569WAT     H234983   3.611   1.111   0.274
 8569WAT    EPW34984   3.642   1.168   0.318
 8570WAT      O34985   4.147   0.836   0.748
 8570WAT     H134986   4.200   0.856   0.815
 8570WAT     H234987   4.201   0.836   0.679
 8570WAT    EPW34988   4.163   0.839   0.748
 8571WAT      O34989   3.283   1.195   0.918
 8571WAT     H134990   3.226   1.129   0.910
 8571WAT     H234991   3.234   1.261   0.947
 8571WAT    EPW34992   3.267   1.195   0.921
 8572WAT      O34993   4.167   0.317   1.221
 8572WAT     H134994   4.204   0.375   1.167
 8572WAT     H234995   4.087   0.349   1.235
 8572WAT    EPW34996   4.161   0.330   1.215
 8573WAT      O34997   4.479   1.122   0.341
 8573WAT     H134998   4.438   1.198   0.330
 8573WAT     H234999   4.557   1.145   0.372
 8573WAT    EPW35000   4.485   1.137   0.344
 8574WAT      O35001   4.116   0.717   0.416
 8574WAT     H135002   4.109   0.630   0.425
 8574WAT     H235003   4.185   0.738   0.465
 8574WAT    EPW35004   4.125   0.707   0.425
 8575WAT      O35005   4.718   0.904   1.144
 8575WAT     H135006   4.797   0.870   1.132
 8575WAT     H235007   4.691   0.867   1.218
 8575WAT    EPW35008   4.725   0.894   1.153
 8576WAT      O35009   3.323   0.384   0.646
 8576WAT     H135010   3.319   0.431   0.572
 8576WAT     H235011   3.315   0.302   0.618
 8576WAT    EPW35012   3.321   0.379   0.631
 8577WAT      O35013   3.609   0.410   0.664
 8577WAT     H135014   3.615   0.479   0.716
 8577WAT     H235015   3.523   0.401   0.653
 8577WAT    EPW35016   3.597   0.419   0.670
 8578WAT      O35017   4.345   0.826   0.540
 8578WAT     H135018   4.377   0.898   0.578
 8578WAT     H235019   4.363   0.837   0.456
 8578WAT    EPW35020   4.353   0.838   0.533
 8579WAT      O35021   4.324   1.219   0.990
 8579WAT     H135022   4.250   1.181   0.965
 8579WAT     H235023   4.302   1.303   0.999
 8579WAT    EPW35024   4.310   1.226   0.988
 8580WAT      O35025   4.907   0.646   0.546
 8580WAT     H135026   4.881   0.599   0.477
 8580WAT     H235027   4.849   0.711   0.549
 8580WAT    EPW35028   4.895   0.649   0.536
 8581WAT      O35029   3.739   1.095   0.851
 8581WAT     H135030   3.745   1.097   0.938
 8581WAT     H235031   3.797   1.033   0.828
 8581WAT    EPW35032   3.749   1.086   0.861
 8582WAT      O35033   4.731   0.862   0.519
 8582WAT     H135034   4.791   0.904   0.471
 8582WAT     H235035   4.685   0.817   0.461
 8582WAT    EPW35036   4.733   0.862   0.503
 8583WAT      O35037   3.428   1.034   1.097
 8583WAT     H135038   3.506   1.071   1.109
 8583WAT     H235039   3.385   1.092   1.047
 8583WAT    EPW35040   3.433   1.048   1.092
 8584WAT      O35041   3.296   0.775   0.824
 8584WAT     H135042   3.235   0.832   0.848
 8584WAT     H235043   3.370   0.818   0.837
 8584WAT    EPW35044   3.298   0.790   0.829
 8585WAT      O35045   4.880   0.569   0.986
 8585WAT     H135046   4.889   0.503   1.042
 8585WAT     H235047   4.905   0.534   0.909
 8585WAT    EPW35048   4.885   0.554   0.983
 8586WAT      O35049   4.575   0.389   1.229
 8586WAT     H135050   4.645   0.429   1.264
 8586WAT     H235051   4.572   0.421   1.148
 8586WAT    EPW35052   4.585   0.399   1.223
 8587WAT      O35053   3.486   0.956   0.220
 8587WAT     H135054   3.500   0.873   0.242
 8587WAT     H235055   3.466   0.952   0.136
 8587WAT    EPW35056   3.485   0.944   0.211
 8588WAT      O35057   3.237   1.218   0.632
 8588WAT     H135058   3.274   1.206   0.711
 8588WAT     H235059   3.286   1.168   0.580
 8588WAT    EPW35060   3.250   1.208   0.636
 8589WAT      O35061   2.357   6.859   7.430
 8589WAT     H135062   2.347   6.900   7.353
 8589WAT     H235063   2.443   6.845   7.435
 8589WAT    EPW35064   2.368   6.863   7.419
 8590WAT      O35065   1.293   7.314   7.043
 8590WAT     H135066   1.223   7.351   7.007
 8590WAT     H235067   1.269   7.230   7.053
 8590WAT    EPW35068   1.279   7.307   7.039
 8591WAT      O35069   1.588   7.904   6.880
 8591WAT     H135070   1.547   7.857   6.819
 8591WAT     H235071   1.604   7.846   6.943
 8591WAT    EPW35072   1.585   7.888   6.880
 8592WAT      O35073   2.569   7.655   7.536
 8592WAT     H135074   2.572   7.651   7.449
 8592WAT     H235075   2.509   7.595   7.557
 8592WAT    EPW35076   2.560   7.645   7.526
 8593WAT      O35077   1.972   6.964   7.300
 8593WAT     H135078   1.988   7.034   7.251
 8593WAT     H235079   2.041   6.912   7.286
 8593WAT    EPW35080   1.985   6.966   7.291
 8594WAT      O35081   1.667   7.744   7.455
 8594WAT     H135082   1.601   7.756   7.400
 8594WAT     H235083   1.698   7.665   7.434
 8594WAT    EPW35084   1.662   7.734   7.444
 8595WAT      O35085   1.738   7.485   7.391
 8595WAT     H135086   1.791   7.447   7.449
 8595WAT     H235087   1.659   7.456   7.413
 8595WAT    EPW35088   1.734   7.475   7.402
 8596WAT      O35089   1.728   7.035   7.434
 8596WAT     H135090   1.686   7.082   7.374
 8596WAT     H235091   1.805   7.017   7.397
 8596WAT    EPW35092   1.733   7.039   7.420
 8597WAT      O35093   2.038   6.920   7.572
 8597WAT     H135094   2.039   7.000   7.607
 8597WAT     H235095   2.010   6.934   7.490
 8597WAT    EPW35096   2.034   6.934   7.565
 8598WAT      O35097   2.473   7.145   6.843
 8598WAT     H135098   2.435   7.211   6.885
 8598WAT     H235099   2.491   7.088   6.906
 8598WAT    EPW35100   2.470   7.146   6.858
 8599WAT      O35101   1.361   7.538   7.693
 8599WAT     H135102   1.285   7.576   7.673
 8599WAT     H235103   1.337   7.458   7.721
 8599WAT    EPW35104   1.346   7.532   7.694
 8600WAT      O35105   3.007   7.171   7.519
 8600WAT     H135106   2.944   7.230   7.534
 8600WAT     H235107   2.964   7.096   7.511
 8600WAT    EPW35108   2.991   7.169   7.520
 8601WAT      O35109   2.203   7.350   7.435
 8601WAT     H135110   2.240   7.313   7.366
 8601WAT     H235111   2.270   7.384   7.479
 8601WAT    EPW35112   2.218   7.350   7.432
 8602WAT      O35113   2.335   7.370   6.960
 8602WAT     H135114   2.337   7.440   7.012
 8602WAT     H235115   2.256   7.373   6.924
 8602WAT    EPW35116   2.324   7.381   6.963
 8603WAT      O35117   2.522   6.968   7.050
 8603WAT     H135118   2.576   6.900   7.055
 8603WAT     H235119   2.546   7.018   7.118
 8603WAT    EPW35120   2.533   6.965   7.061
 8604WAT      O35121   1.333   7.103   7.317
 8604WAT     H135122   1.317   7.017   7.316
 8604WAT     H235123   1.275   7.133   7.376
 8604WAT    EPW35124   1.322   7.095   7.326
 8605WAT      O35125   2.306   7.235   7.207
 8605WAT     H135126   2.249   7.171   7.190
 8605WAT     H235127   2.312   7.277   7.130
 8605WAT    EPW35128   2.298   7.232   7.193
 8606WAT      O35129   2.271   6.942   7.172
 8606WAT     H135130   2.212   6.926   7.110
 8606WAT     H235131   2.346   6.944   7.128
 8606WAT    EPW35132   2.274   6.939   7.156
 8607WAT      O35133   2.089   7.195   7.631
 8607WAT     H135134   2.124   7.240   7.565
 8607WAT     H235135   2.113   7.239   7.702
 8607WAT    EPW35136   2.098   7.208   7.632
 8608WAT      O35137   1.654   6.790   7.553
 8608WAT     H135138   1.674   6.870   7.524
 8608WAT     H235139   1.630   6.747   7.481
 8608WAT    EPW35140   1.653   6.795   7.538
 8609WAT      O35141   2.621   6.791   7.485
 8609WAT     H135142   2.616   6.779   7.571
 8609WAT     H235143   2.655   6.716   7.456
 8609WAT    EPW35144   2.625   6.778   7.493
 8610WAT      O35145   1.640   7.205   7.638
 8610WAT     H135146   1.667   7.144   7.582
 8610WAT     H235147   1.584   7.162   7.689
 8610WAT    EPW35148   1.636   7.190   7.637
 8611WAT      O35149   2.690   7.654   7.003
 8611WAT     H135150   2.675   7.736   6.976
 8611WAT     H235151   2.666   7.656   7.087
 8611WAT    EPW35152   2.684   7.667   7.011
 8612WAT      O35153   3.033   7.047   6.969
 8612WAT     H135154   3.069   7.006   6.901
 8612WAT     H235155   2.992   7.116   6.933
 8612WAT    EPW35156   3.032   7.051   6.954
 8613WAT      O35157   1.465   7.735   7.262
 8613WAT     H135158   1.424   7.659   7.265
 8613WAT     H235159   1.522   7.727   7.196
 8613WAT    EPW35160   1.467   7.723   7.253
 8614WAT      O35161   2.905   6.928   7.187
 8614WAT     H135162   2.977   6.888   7.214
 8614WAT     H235163   2.932   6.976   7.119
 8614WAT    EPW35164   2.919   6.929   7.181
 8615WAT      O35165   2.533   7.235   7.708
 8615WAT     H135166   2.553   7.206   7.788
 8615WAT     H235167   2.481   7.173   7.677
 8615WAT    EPW35168   2.528   7.221   7.715
 8616WAT      O35169   2.027   7.165   7.123
 8616WAT     H135170   2.009   7.142   7.041
 8616WAT     H235171   1.999   7.247   7.128
 8616WAT    EPW35172   2.020   7.174   7.112
 8617WAT      O35173   1.646   7.410   7.085
 8617WAT     H135174   1.626   7.356   7.150
 8617WAT     H235175   1.605   7.374   7.016
 8617WAT    EPW35176   1.637   7.397   7.084
 8618WAT      O35177   1.515   7.796   7.683
 8618WAT     H135178   1.568   7.780   7.615
 8618WAT     H235179   1.477   7.719   7.697
 8618WAT    EPW35180   1.517   7.782   7.675
 8619WAT      O35181   2.556   7.130   7.267
 8619WAT     H135182   2.610   7.198   7.281
 8619WAT     H235183   2.478   7.168   7.260
 8619WAT    EPW35184   2.552   7.146   7.268
 8620WAT      O35185   2.346   7.584   7.142
 8620WAT     H135186   2.333   7.638   7.075
 8620WAT     H235187   2.281   7.604   7.197
 8620WAT    EPW35188   2.334   7.595   7.140
 8621WAT      O35189   1.805   6.842   7.085
 8621WAT     H135190   1.833   6.858   7.166
 8621WAT     H235191   1.762   6.915   7.063
 8621WAT    EPW35192   1.803   6.855   7.094
 8622WAT      O35193   1.671   7.687   7.075
 8622WAT     H135194   1.655   7.602   7.084
 8622WAT     H235195   1.742   7.701   7.124
 8622WAT    EPW35196   1.679   7.677   7.084
 8623WAT      O35197   1.269   6.823   7.296
 8623WAT     H135198   1.269   6.767   7.229
 8623WAT     H235199   1.237   6.776   7.362
 8623WAT    EPW35200   1.264   6.808   7.296
 8624WAT      O35201   2.136   7.605   7.343
 8624WAT     H135202   2.101   7.634   7.417
 8624WAT     H235203   2.148   7.520   7.358
 8624WAT    EPW35204   2.133   7.596   7.356
 8625WAT      O35205   1.683   7.073   7.001
 8625WAT     H135206   1.622   7.062   6.939
 8625WAT     H235207   1.750   7.108   6.958
 8625WAT    EPW35208   1.684   7.076   6.986
 8626WAT      O35209   1.992   7.630   7.585
 8626WAT     H135210   1.955   7.553   7.601
 8626WAT     H235211   1.925   7.686   7.589
 8626WAT    EPW35212   1.977   7.627   7.588
 8627WAT      O35213   1.869   7.371   7.613
 8627WAT     H135214   1.928   7.307   7.610
 8627WAT     H235215   1.796   7.330   7.637
 8627WAT    EPW35216   1.867   7.356   7.616
 8628WAT      O35217   1.353   7.474   7.268
 8628WAT     H135218   1.395   7.436   7.335
 8628WAT     H235219   1.355   7.414   7.206
 8628WAT    EPW35220   1.360   7.460   7.269
 8629WAT      O35221   1.832   7.636   6.850
 8629WAT     H135222   1.781   7.653   6.919
 8629WAT     H235223   1.779   7.591   6.797
 8629WAT    EPW35224   1.816   7.632   6.852
 8630WAT      O35225   3.016   7.686   7.626
 8630WAT     H135226   3.052   7.765   7.637
 8630WAT     H235227   2.979   7.691   7.547
 8630WAT    EPW35228   3.016   7.698   7.616
 8631WAT      O35229   1.922   7.423   7.098
 8631WAT     H135230   1.931   7.504   7.130
 8631WAT     H235231   1.835   7.412   7.097
 8631WAT    EPW35232   1.910   7.434   7.103
 8632WAT      O35233   1.294   7.263   7.734
 8632WAT     H135234   1.250   7.233   7.665
 8632WAT     H235235   1.257   7.223   7.802
 8632WAT    EPW35236   1.282   7.253   7.734
 8633WAT      O35237   2.773   7.322   7.585
 8633WAT     H135238   2.703   7.284   7.620
 8633WAT     H235239   2.778   7.398   7.626
 8633WAT    EPW35240   2.764   7.328   7.596
 8634WAT      O35241   2.928   7.521   6.963
 8634WAT     H135242   2.981   7.571   6.915
 8634WAT     H235243   2.855   7.569   6.970
 8634WAT    EPW35244   2.925   7.535   6.957
 8635WAT      O35245   2.052   7.789   6.919
 8635WAT     H135246   1.990   7.739   6.885
 8635WAT     H235247   2.025   7.870   6.902
 8635WAT    EPW35248   2.039   7.794   6.912
 8636WAT      O35249   2.708   7.361   7.319
 8636WAT     H135250   2.724   7.350   7.404
 8636WAT     H235251   2.786   7.381   7.286
 8636WAT    EPW35252   2.722   7.362   7.327
 8637WAT      O35253   2.852   6.947   7.460
 8637WAT     H135254   2.772   6.915   7.474
 8637WAT     H235255   2.855   6.957   7.373
 8637WAT    EPW35256   2.840   6.944   7.449
 8638WAT      O35257   2.875   7.692   7.389
 8638WAT     H135258   2.901   7.627   7.337
 8638WAT     H235259   2.791   7.701   7.370
 8638WAT    EPW35260   2.867   7.684   7.378
 8639WAT      O35261   1.590   7.181   7.244
 8639WAT     H135262   1.605   7.141   7.168
 8639WAT     H235263   1.507   7.160   7.262
 8639WAT    EPW35264   1.580   7.172   7.235
 8640WAT      O35265   2.946   7.474   7.233
 8640WAT     H135266   2.945   7.490   7.148
 8640WAT     H235267   3.031   7.467   7.251
 8640WAT    EPW35268   2.959   7.475   7.223
 8641WAT      O35269   1.500   7.322   6.863
 8641WAT     H135270   1.429   7.324   6.913
 8641WAT     H235271   1.501   7.240   6.832
 8641WAT    EPW35272   1.490   7.310   6.866
 8642WAT      O35273   2.341   7.053   7.629
 8642WAT     H135274   2.257   7.075   7.628
 8642WAT     H235275   2.347   6.989   7.570
 8642WAT    EPW35276   2.330   7.047   7.620
 8643WAT      O35277   2.772   7.567   7.708
 8643WAT     H135278   2.847   7.610   7.694
 8643WAT     H235279   2.715   7.609   7.658
 8643WAT    EPW35280   2.775   7.580   7.699
 8644WAT      O35281   2.069   6.869   6.997
 8644WAT     H135282   2.077   6.872   6.910
 8644WAT     H235283   1.983   6.871   7.010
 8644WAT    EPW35284   2.058   6.870   6.986
 8645WAT      O35285   2.390   7.455   7.614
 8645WAT     H135286   2.440   7.392   7.647
 8645WAT     H235287   2.357   7.495   7.685
 8645WAT    EPW35288   2.392   7.452   7.629
 8646WAT      O35289   1.495   7.397   7.493
 8646WAT     H135290   1.457   7.446   7.554
 8646WAT     H235291   1.528   7.330   7.539
 8646WAT    EPW35292   1.495   7.394   7.509
 8647WAT      O35293   2.597   7.610   7.263
 8647WAT     H135294   2.625   7.528   7.277
 8647WAT     H235295   2.517   7.599   7.231
 8647WAT    EPW35296   2.589   7.596   7.260
 8648WAT      O35297   1.941   7.694   7.163
 8648WAT     H135298   1.989   7.731   7.100
 8648WAT     H235299   2.000   7.679   7.226
 8648WAT    EPW35300   1.957   7.697   7.163
 8649WAT      O35301   2.436   6.892   5.550
 8649WAT     H135302   2.475   6.956   5.505
 8649WAT     H235303   2.503   6.846   5.581
 8649WAT    EPW35304   2.452   6.894   5.548
 8650WAT      O35305   2.327   7.465   6.031
 8650WAT     H135306   2.283   7.535   6.058
 8650WAT     H235307   2.383   7.448   6.096
 8650WAT    EPW35308   2.329   7.473   6.044
 8651WAT      O35309   1.291   7.332   5.183
 8651WAT     H135310   1.227   7.381   5.148
 8651WAT     H235311   1.254   7.253   5.192
 8651WAT    EPW35312   1.276   7.328   5.179
 8652WAT      O35313   1.587   7.900   4.988
 8652WAT     H135314   1.548   7.852   4.927
 8652WAT     H235315   1.599   7.845   5.054
 8652WAT    EPW35316   1.583   7.885   4.989
 8653WAT      O35317   2.574   7.632   5.705
 8653WAT     H135318   2.573   7.625   5.618
 8653WAT     H235319   2.515   7.573   5.731
 8653WAT    EPW35320   2.565   7.622   5.696
 8654WAT      O35321   2.006   6.960   5.430
 8654WAT     H135322   1.987   7.022   5.372
 8654WAT     H235323   2.086   6.935   5.408
 8654WAT    EPW35324   2.015   6.965   5.418
 8655WAT      O35325   1.570   7.787   5.643
 8655WAT     H135326   1.532   7.783   5.565
 8655WAT     H235327   1.605   7.707   5.652
 8655WAT    EPW35328   1.570   7.775   5.633
 8656WAT      O35329   1.934   7.304   6.213
 8656WAT     H135330   2.000   7.299   6.157
 8656WAT     H235331   1.896   7.225   6.207
 8656WAT    EPW35332   1.938   7.291   6.204
 8657WAT      O35333   1.639   7.522   5.724
 8657WAT     H135334   1.708   7.469   5.732
 8657WAT     H235335   1.574   7.468   5.701
 8657WAT    EPW35336   1.639   7.506   5.722
 8658WAT      O35337   2.306   7.531   6.656
 8658WAT     H135338   2.220   7.526   6.639
 8658WAT     H235339   2.310   7.580   6.728
 8658WAT    EPW35340   2.294   7.537   6.664
 8659WAT      O35341   1.734   7.015   5.522
 8659WAT     H135342   1.697   7.071   5.467
 8659WAT     H235343   1.817   7.012   5.496
 8659WAT    EPW35344   1.741   7.023   5.510
 8660WAT      O35345   2.722   6.746   6.496
 8660WAT     H135346   2.696   6.814   6.447
 8660WAT     H235347   2.650   6.723   6.539
 8660WAT    EPW35348   2.708   6.753   6.495
 8661WAT      O35349   2.035   6.932   5.706
 8661WAT     H135350   2.046   7.016   5.730
 8661WAT     H235351   2.014   6.937   5.622
 8661WAT    EPW35352   2.034   6.946   5.697
 8662WAT      O35353   2.486   7.147   4.958
 8662WAT     H135354   2.440   7.210   4.996
 8662WAT     H235355   2.499   7.090   5.022
 8662WAT    EPW35356   2.481   7.148   4.973
 8663WAT      O35357   1.296   7.387   5.920
 8663WAT     H135358   1.266   7.469   5.927
 8663WAT     H235359   1.244   7.341   5.973
 8663WAT    EPW35360   1.284   7.392   5.929
 8664WAT      O35361   1.560   6.960   5.948
 8664WAT     H135362   1.548   6.881   5.912
 8664WAT     H235363   1.617   6.945   6.013
 8664WAT    EPW35364   1.567   6.946   5.952
 8665WAT      O35365   1.917   7.143   6.853
 8665WAT     H135366   1.923   7.106   6.775
 8665WAT     H235367   1.961   7.218   6.844
 8665WAT    EPW35368   1.924   7.149   6.840
 8666WAT      O35369   3.036   7.110   5.721
 8666WAT     H135370   2.985   7.181   5.717
 8666WAT     H235371   2.981   7.045   5.704
 8666WAT    EPW35372   3.020   7.111   5.718
 8667WAT      O35373   1.502   7.051   6.791
 8667WAT     H135374   1.421   7.020   6.780
 8667WAT     H235375   1.547   7.017   6.724
 8667WAT    EPW35376   1.496   7.042   6.779
 8668WAT      O35377   2.098   6.870   6.725
 8668WAT     H135378   2.119   6.794   6.686
 8668WAT     H235379   2.035   6.902   6.674
 8668WAT    EPW35380   2.092   6.863   6.712
 8669WAT      O35381   2.208   7.379   5.577
 8669WAT     H135382   2.238   7.330   5.512
 8669WAT     H235383   2.278   7.393   5.627
 8669WAT    EPW35384   2.223   7.374   5.575
 8670WAT      O35385   2.309   7.320   5.097
 8670WAT     H135386   2.325   7.399   5.130
 8670WAT     H235387   2.232   7.330   5.057
 8670WAT    EPW35388   2.300   7.333   5.096
 8671WAT      O35389   2.940   7.032   6.126
 8671WAT     H135390   3.010   7.031   6.074
 8671WAT     H235391   2.958   6.971   6.186
 8671WAT    EPW35392   2.953   7.023   6.127
 8672WAT      O35393   1.242   7.177   6.545
 8672WAT     H135394   1.228   7.256   6.580
 8672WAT     H235395   1.302   7.192   6.483
 8672WAT    EPW35396   1.249   7.191   6.541
 8673WAT      O35397   2.517   6.973   5.175
 8673WAT     H135398   2.576   6.908   5.179
 8673WAT     H235399   2.537   7.022   5.244
 8673WAT    EPW35400   2.529   6.971   5.186
 8674WAT      O35401   1.357   7.085   5.465
 8674WAT     H135402   1.334   7.001   5.452
 8674WAT     H235403   1.311   7.108   5.535
 8674WAT    EPW35404   1.347   7.076   5.474
 8675WAT      O35405   2.292   7.221   5.360
 8675WAT     H135406   2.262   7.140   5.345
 8675WAT     H235407   2.293   7.257   5.281
 8675WAT    EPW35408   2.288   7.214   5.346
 8676WAT      O35409   2.254   6.953   5.284
 8676WAT     H135410   2.199   6.930   5.220
 8676WAT     H235411   2.333   6.946   5.246
 8676WAT    EPW35412   2.258   6.949   5.269
 8677WAT      O35413   2.089   7.201   5.756
 8677WAT     H135414   2.119   7.264   5.703
 8677WAT     H235415   2.103   7.233   5.836
 8677WAT    EPW35416   2.095   7.215   5.760
 8678WAT      O35417   1.662   6.756   5.587
 8678WAT     H135418   1.678   6.839   5.566
 8678WAT     H235419   1.629   6.722   5.513
 8678WAT    EPW35420   1.660   6.763   5.573
 8679WAT      O35421   1.788   7.795   6.069
 8679WAT     H135422   1.799   7.724   6.118
 8679WAT     H235423   1.735   7.770   6.005
 8679WAT    EPW35424   1.782   7.781   6.067
 8680WAT      O35425   2.443   7.150   6.345
 8680WAT     H135426   2.433   7.186   6.424
 8680WAT     H235427   2.378   7.092   6.340
 8680WAT    EPW35428   2.432   7.147   6.356
 8681WAT      O35429   2.648   6.741   5.652
 8681WAT     H135430   2.636   6.730   5.738
 8681WAT     H235431   2.681   6.665   5.626
 8681WAT    EPW35432   2.651   6.729   5.661
 8682WAT      O35433   2.837   7.179   6.452
 8682WAT     H135434   2.921   7.172   6.473
 8682WAT     H235435   2.796   7.175   6.529
 8682WAT    EPW35436   2.843   7.177   6.467
 8683WAT      O35437   1.621   7.144   5.746
 8683WAT     H135438   1.651   7.094   5.681
 8683WAT     H235439   1.604   7.086   5.809
 8683WAT    EPW35440   1.623   7.128   5.745
 8684WAT      O35441   1.501   7.336   6.106
 8684WAT     H135442   1.578   7.358   6.072
 8684WAT     H235443   1.444   7.351   6.041
 8684WAT    EPW35444   1.504   7.341   6.091
 8685WAT      O35445   2.717   7.648   5.081
 8685WAT     H135446   2.693   7.723   5.042
 8685WAT     H235447   2.729   7.671   5.164
 8685WAT    EPW35448   2.715   7.663   5.087
 8686WAT      O35449   3.079   7.082   5.177
 8686WAT     H135450   3.154   7.041   5.161
 8686WAT     H235451   3.054   7.110   5.099
 8686WAT    EPW35452   3.086   7.080   5.163
 8687WAT      O35453   2.068   7.380   6.866
 8687WAT     H135454   2.017   7.411   6.929
 8687WAT     H235455   2.048   7.429   6.796
 8687WAT    EPW35456   2.058   7.392   6.865
 8688WAT      O35457   3.124   7.464   6.339
 8688WAT     H135458   3.188   7.405   6.345
 8688WAT     H235459   3.071   7.430   6.278
 8688WAT    EPW35460   3.126   7.450   6.331
 8689WAT      O35461   1.467   7.732   5.390
 8689WAT     H135462   1.436   7.650   5.398
 8689WAT     H235463   1.525   7.725   5.326
 8689WAT    EPW35464   1.471   7.719   5.382
 8690WAT      O35465   2.917   6.925   5.348
 8690WAT     H135466   2.987   6.878   5.366
 8690WAT     H235467   2.948   6.990   5.299
 8690WAT    EPW35468   2.932   6.928   5.344
 8691WAT      O35469   2.581   7.194   5.791
 8691WAT     H135470   2.613   7.157   5.864
 8691WAT     H235471   2.511   7.145   5.773
 8691WAT    EPW35472   2.576   7.181   5.799
 8692WAT      O35473   1.952   7.145   5.240
 8692WAT     H135474   1.948   7.128   5.154
 8692WAT     H235475   1.948   7.232   5.244
 8692WAT    EPW35476   1.951   7.155   5.228
 8693WAT      O35477   1.624   7.513   6.705
 8693WAT     H135478   1.583   7.454   6.755
 8693WAT     H235479   1.634   7.472   6.629
 8693WAT    EPW35480   1.620   7.498   6.701
 8694WAT      O35481   1.638   7.416   5.205
 8694WAT     H135482   1.619   7.357   5.267
 8694WAT     H235483   1.596   7.385   5.134
 8694WAT    EPW35484   1.629   7.403   5.204
 8695WAT      O35485   1.559   7.715   5.914
 8695WAT     H135486   1.550   7.765   5.843
 8695WAT     H235487   1.581   7.637   5.881
 8695WAT    EPW35488   1.561   7.711   5.898
 8696WAT      O35489   1.700   7.585   6.270
 8696WAT     H135490   1.711   7.535   6.200
 8696WAT     H235491   1.630   7.633   6.251
 8696WAT    EPW35492   1.691   7.585   6.257
 8697WAT      O35493   2.719   7.355   6.074
 8697WAT     H135494   2.658   7.386   6.127
 8697WAT     H235495   2.722   7.413   6.009
 8697WAT    EPW35496   2.711   7.368   6.072
 8698WAT      O35497   2.274   6.931   6.405
 8698WAT     H135498   2.291   6.847   6.385
 8698WAT     H235499   2.303   6.938   6.487
 8698WAT    EPW35500   2.281   6.919   6.414
 8699WAT      O35501   2.544   7.116   5.410
 8699WAT     H135502   2.606   7.177   5.420
 8699WAT     H235503   2.471   7.163   5.401
 8699WAT    EPW35504   2.543   7.132   5.410
 8700WAT      O35505   1.466   7.738   6.683
 8700WAT     H135506   1.444   7.738   6.599
 8700WAT     H235507   1.513   7.665   6.693
 8700WAT    EPW35508   1.470   7.727   6.672
 8701WAT      O35509   2.127   7.277   6.017
 8701WAT     H135510   2.194   7.332   6.026
 8701WAT     H235511   2.158   7.202   6.050
 8701WAT    EPW35512   2.142   7.274   6.024
 8702WAT      O35513   2.353   7.556   5.241
 8702WAT     H135514   2.352   7.617   5.179
 8702WAT     H235515   2.291   7.582   5.297
 8702WAT    EPW35516   2.343   7.568   5.240
 8703WAT      O35517   1.801   6.821   5.189
 8703WAT     H135518   1.800   6.814   5.276
 8703WAT     H235519   1.750   6.891   5.173
 8703WAT    EPW35520   1.793   6.831   5.199
 8704WAT      O35521   2.956   7.794   6.435
 8704WAT     H135522   2.928   7.759   6.360
 8704WAT     H235523   3.042   7.780   6.433
 8704WAT    EPW35524   2.964   7.787   6.423
 8705WAT      O35525   2.842   6.884   6.705
 8705WAT     H135526   2.805   6.839   6.640
 8705WAT     H235527   2.848   6.825   6.769
 8705WAT    EPW35528   2.838   6.868   6.705
 8706WAT      O35529   1.671   7.692   5.192
 8706WAT     H135530   1.654   7.607   5.200
 8706WAT     H235531   1.744   7.703   5.238
 8706WAT    EPW35532   1.679   7.681   5.200
 8707WAT      O35533   2.396   7.776   6.300
 8707WAT     H135534   2.420   7.852   6.335
 8707WAT     H235535   2.435   7.717   6.352
 8707WAT    EPW35536   2.405   7.779   6.313
 8708WAT      O35537   1.262   6.821   5.423
 8708WAT     H135538   1.258   6.765   5.355
 8708WAT     H235539   1.231   6.774   5.489
 8708WAT    EPW35540   1.257   6.805   5.423
 8709WAT      O35541   2.166   7.623   5.444
 8709WAT     H135542   2.187   7.680   5.506
 8709WAT     H235543   2.166   7.546   5.485
 8709WAT    EPW35544   2.169   7.620   5.459
 8710WAT      O35545   1.659   7.048   5.116
 8710WAT     H135546   1.596   7.044   5.055
 8710WAT     H235547   1.726   7.085   5.074
 8710WAT    EPW35548   1.659   7.053   5.101
 8711WAT      O35549   2.047   7.817   5.950
 8711WAT     H135550   1.967   7.820   5.985
 8711WAT     H235551   2.094   7.775   6.010
 8711WAT    EPW35552   2.042   7.811   5.964
 8712WAT      O35553   1.522   7.786   6.181
 8712WAT     H135554   1.596   7.831   6.177
 8712WAT     H235555   1.510   7.758   6.100
 8712WAT    EPW35556   1.531   7.788   6.169
 8713WAT      O35557   1.826   7.323   5.794
 8713WAT     H135558   1.902   7.285   5.776
 8713WAT     H235559   1.767   7.260   5.781
 8713WAT    EPW35560   1.828   7.308   5.790
 8714WAT      O35561   1.364   7.470   5.425
 8714WAT     H135562   1.382   7.423   5.496
 8714WAT     H235563   1.358   7.410   5.362
 8714WAT    EPW35564   1.366   7.454   5.426
 8715WAT      O35565   2.859   7.663   6.202
 8715WAT     H135566   2.847   7.589   6.246
 8715WAT     H235567   2.778   7.689   6.183
 8715WAT    EPW35568   2.845   7.656   6.206
 8716WAT      O35569   1.830   7.640   4.963
 8716WAT     H135570   1.777   7.661   5.029
 8716WAT     H235571   1.780   7.590   4.912
 8716WAT    EPW35572   1.815   7.636   4.965
 8717WAT      O35573   3.007   7.648   5.964
 8717WAT     H135574   2.971   7.653   6.043
 8717WAT     H235575   3.043   7.727   5.954
 8717WAT    EPW35576   3.007   7.661   5.974
 8718WAT      O35577   1.913   7.421   5.210
 8718WAT     H135578   1.928   7.502   5.237
 8718WAT     H235579   1.826   7.416   5.206
 8718WAT    EPW35580   1.902   7.432   5.213
 8719WAT      O35581   2.724   7.139   6.706
 8719WAT     H135582   2.648   7.141   6.750
 8719WAT     H235583   2.750   7.056   6.715
 8719WAT    EPW35584   2.716   7.127   6.713
 8720WAT      O35585   1.286   7.048   5.950
 8720WAT     H135586   1.267   7.070   5.868
 8720WAT     H235587   1.371   7.028   5.946
 8720WAT    EPW35588   1.296   7.048   5.937
 8721WAT      O35589   2.582   7.464   6.833
 8721WAT     H135590   2.609   7.522   6.892
 8721WAT     H235591   2.502   7.442   6.861
 8721WAT    EPW35592   2.574   7.469   6.846
 8722WAT      O35593   2.741   7.538   6.619
 8722WAT     H135594   2.765   7.617   6.646
 8722WAT     H235595   2.693   7.507   6.686
 8722WAT    EPW35596   2.737   7.545   6.633
 8723WAT      O35597   2.822   7.296   5.700
 8723WAT     H135598   2.750   7.255   5.727
 8723WAT     H235599   2.821   7.371   5.746
 8723WAT    EPW35600   2.811   7.301   5.711
 8724WAT      O35601   3.077   7.656   6.773
 8724WAT     H135602   3.070   7.591   6.715
 8724WAT     H235603   3.157   7.688   6.758
 8724WAT    EPW35604   3.088   7.651   6.762
 8725WAT      O35605   2.667   6.980   6.350
 8725WAT     H135606   2.728   7.040   6.368
 8725WAT     H235607   2.594   7.027   6.343
 8725WAT    EPW35608   2.666   6.996   6.351
 8726WAT      O35609   2.185   7.672   6.154
 8726WAT     H135610   2.250   7.713   6.194
 8726WAT     H235611   2.134   7.645   6.219
 8726WAT    EPW35612   2.187   7.674   6.169
 8727WAT      O35613   1.911   7.277   6.491
 8727WAT     H135614   1.912   7.192   6.509
 8727WAT     H235615   1.931   7.280   6.406
 8727WAT    EPW35616   1.914   7.265   6.481
 8728WAT      O35617   2.736   6.778   6.166
 8728WAT     H135618   2.711   6.852   6.206
 8728WAT     H235619   2.820   6.771   6.188
 8728WAT    EPW35620   2.745   6.788   6.175
 8729WAT      O35621   2.001   6.887   6.342
 8729WAT     H135622   2.084   6.913   6.343
 8729WAT     H235623   2.004   6.809   6.302
 8729WAT    EPW35624   2.014   6.879   6.336
 8730WAT      O35625   2.962   7.497   5.069
 8730WAT     H135626   3.008   7.550   5.018
 8730WAT     H235627   2.882   7.532   5.068
 8730WAT    EPW35628   2.957   7.510   5.062
 8731WAT      O35629   2.055   7.791   5.036
 8731WAT     H135630   1.995   7.739   4.998
 8731WAT     H235631   2.025   7.871   5.020
 8731WAT    EPW35632   2.042   7.795   5.028
 8732WAT      O35633   1.759   7.431   6.045
 8732WAT     H135634   1.781   7.408   5.964
 8732WAT     H235635   1.817   7.388   6.095
 8732WAT    EPW35636   1.771   7.421   6.041
 8733WAT      O35637   2.414   7.277   6.589
 8733WAT     H135638   2.378   7.354   6.612
 8733WAT     H235639   2.448   7.248   6.664
 8733WAT    EPW35640   2.413   7.284   6.604
 8734WAT      O35641   2.498   7.405   6.239
 8734WAT     H135642   2.505   7.453   6.311
 8734WAT     H235643   2.481   7.325   6.269
 8734WAT    EPW35644   2.497   7.400   6.254
 8735WAT      O35645   2.727   7.333   5.443
 8735WAT     H135646   2.756   7.321   5.524
 8735WAT     H235647   2.794   7.373   5.403
 8735WAT    EPW35648   2.741   7.337   5.449
 8736WAT      O35649   1.998   6.868   5.984
 8736WAT     H135650   1.915   6.856   6.010
 8736WAT     H235651   1.992   6.874   5.897
 8736WAT    EPW35652   1.985   6.867   5.975
 8737WAT      O35653   2.868   6.910   5.625
 8737WAT     H135654   2.791   6.870   5.637
 8737WAT     H235655   2.868   6.929   5.540
 8737WAT    EPW35656   2.857   6.907   5.614
 8738WAT      O35657   2.766   7.715   5.343
 8738WAT     H135658   2.831   7.660   5.362
 8738WAT     H235659   2.696   7.678   5.380
 8738WAT    EPW35660   2.765   7.702   5.351
 8739WAT      O35661   1.246   6.950   6.705
 8739WAT     H135662   1.247   7.021   6.653
 8739WAT     H235663   1.162   6.924   6.702
 8739WAT    EPW35664   1.233   6.957   6.697
 8740WAT      O35665   1.593   7.182   5.354
 8740WAT     H135666   1.603   7.136   5.280
 8740WAT     H235667   1.515   7.156   5.384
 8740WAT    EPW35668   1.583   7.171   5.347
 8741WAT      O35669   3.020   7.449   6.597
 8741WAT     H135670   2.934   7.460   6.602
 8741WAT     H235671   3.038   7.462   6.513
 8741WAT    EPW35672   3.010   7.453   6.586
 8742WAT      O35673   2.505   7.580   6.465
 8742WAT     H135674   2.441   7.565   6.523
 8742WAT     H235675   2.578   7.571   6.512
 8742WAT    EPW35676   2.506   7.576   6.480
 8743WAT      O35677   2.316   7.703   6.888
 8743WAT     H135678   2.367   7.771   6.872
 8743WAT     H235679   2.236   7.737   6.890
 8743WAT    EPW35680   2.312   7.718   6.886
 8744WAT      O35681   1.655   7.384   6.462
 8744WAT     H135682   1.669   7.446   6.403
 8744WAT     H235683   1.734   7.348   6.472
 8744WAT    EPW35684   1.669   7.387   6.455
 8745WAT      O35685   1.446   7.240   6.355
 8745WAT     H135686   1.459   7.259   6.271
 8745WAT     H235687   1.512   7.279   6.395
 8745WAT    EPW35688   1.457   7.248   6.348
 8746WAT      O35689   2.940   7.496   5.353
 8746WAT     H135690   2.958   7.500   5.267
 8746WAT     H235691   3.019   7.495   5.390
 8746WAT    EPW35692   2.955   7.496   5.345
 8747WAT      O35693   1.633   6.917   6.588
 8747WAT     H135694   1.589   6.842   6.595
 8747WAT     H235695   1.615   6.943   6.507
 8747WAT    EPW35696   1.624   6.909   6.577
 8748WAT      O35697   2.804   7.446   6.364
 8748WAT     H135698   2.812   7.360   6.373
 8748WAT     H235699   2.776   7.472   6.443
 8748WAT    EPW35700   2.801   7.437   6.377
 8749WAT      O35701   1.395   7.699   6.416
 8749WAT     H135702   1.424   7.737   6.343
 8749WAT     H235703   1.350   7.630   6.387
 8749WAT    EPW35704   1.393   7.694   6.401
 8750WAT      O35705   1.488   7.323   4.988
 8750WAT     H135706   1.420   7.326   5.042
 8750WAT     H235707   1.485   7.242   4.956
 8750WAT    EPW35708   1.478   7.311   4.991
 8751WAT      O35709   2.359   6.949   6.672
 8751WAT     H135710   2.385   7.017   6.719
 8751WAT     H235711   2.277   6.935   6.700
 8751WAT    EPW35712   2.351   6.957   6.683
 8752WAT      O35713   2.347   7.049   5.762
 8752WAT     H135714   2.268   7.086   5.749
 8752WAT     H235715   2.357   6.998   5.692
 8752WAT    EPW35716   2.336   7.047   5.750
 8753WAT      O35717   2.675   7.086   6.030
 8753WAT     H135718   2.753   7.051   6.050
 8753WAT     H235719   2.683   7.169   6.056
 8753WAT    EPW35720   2.688   7.093   6.037
 8754WAT      O35721   1.840   7.670   6.505
 8754WAT     H135722   1.775   7.702   6.555
 8754WAT     H235723   1.800   7.651   6.430
 8754WAT    EPW35724   1.824   7.672   6.502
 8755WAT      O35725   2.776   7.522   5.858
 8755WAT     H135726   2.844   7.574   5.873
 8755WAT     H235727   2.723   7.572   5.811
 8755WAT    EPW35728   2.779   7.537   5.853
 8756WAT      O35729   1.816   7.060   6.222
 8756WAT     H135730   1.739   7.032   6.250
 8756WAT     H235731   1.872   6.999   6.248
 8756WAT    EPW35732   1.813   7.047   6.230
 8757WAT      O35733   2.984   6.818   6.305
 8757WAT     H135734   2.952   6.805   6.385
 8757WAT     H235735   3.070   6.805   6.315
 8757WAT    EPW35736   2.992   6.814   6.318
 8758WAT      O35737   2.194   7.027   6.107
 8758WAT     H135738   2.133   6.976   6.070
 8758WAT     H235739   2.269   6.989   6.085
 8758WAT    EPW35740   2.196   7.014   6.098
 8759WAT      O35741   2.031   7.498   6.614
 8759WAT     H135742   2.000   7.426   6.575
 8759WAT     H235743   1.976   7.560   6.588
 8759WAT    EPW35744   2.018   7.496   6.605
 8760WAT      O35745   2.066   6.850   5.110
 8760WAT     H135746   2.070   6.858   5.024
 8760WAT     H235747   1.980   6.855   5.127
 8760WAT    EPW35748   2.054   6.852   5.100
 8761WAT      O35749   1.569   6.989   6.331
 8761WAT     H135750   1.513   6.925   6.311
 8761WAT     H235751   1.520   7.061   6.331
 8761WAT    EPW35752   1.554   6.990   6.328
 8762WAT      O35753   2.437   6.935   5.999
 8762WAT     H135754   2.505   6.985   6.021
 8762WAT     H235755   2.408   6.971   5.925
 8762WAT    EPW35756   2.442   6.948   5.992
 8763WAT      O35757   2.410   7.416   5.769
 8763WAT     H135758   2.469   7.353   5.781
 8763WAT     H235759   2.383   7.434   5.850
 8763WAT    EPW35760   2.414   7.409   5.783
 8764WAT      O35761   1.432   7.343   5.673
 8764WAT     H135762   1.382   7.350   5.744
 8764WAT     H235763   1.480   7.272   5.688
 8764WAT    EPW35764   1.432   7.334   5.686
 8765WAT      O35765   2.558   7.558   5.434
 8765WAT     H135766   2.600   7.481   5.433
 8765WAT     H235767   2.499   7.550   5.371
 8765WAT    EPW35768   2.555   7.545   5.425
 8766WAT      O35769   1.947   7.688   5.278
 8766WAT     H135770   1.990   7.725   5.212
 8766WAT     H235771   2.008   7.677   5.339
 8766WAT    EPW35772   1.962   7.692   5.277
 8767WAT      O35773   2.842   7.788   6.691
 8767WAT     H135774   2.916   7.761   6.729
 8767WAT     H235775   2.868   7.807   6.609
 8767WAT    EPW35776   2.857   7.787   6.684
 8768WAT      O35777   2.922   7.267   6.851
 8768WAT     H135778   2.901   7.348   6.876
 8768WAT     H235779   2.852   7.241   6.805
 8768WAT    EPW35780   2.908   7.275   6.848
 8769WAT      O35781   2.986   7.311   6.141
 8769WAT     H135782   2.904   7.334   6.125
 8769WAT     H235783   2.983   7.224   6.146
 8769WAT    EPW35784   2.974   7.302   6.139
 8770WAT      O35785   1.901   7.002   6.576
 8770WAT     H135786   1.929   6.964   6.503
 8770WAT     H235787   1.820   6.970   6.586
 8770WAT    EPW35788   1.893   6.992   6.567
 8771WAT      O35789   2.648   7.902   6.884
 8771WAT     H135790   2.706   7.892   6.819
 8771WAT     H235791   2.657   7.985   6.907
 8771WAT    EPW35792   2.658   7.913   6.878
 8772WAT      O35793   2.421   6.909   3.651
 8772WAT     H135794   2.459   6.975   3.609
 8772WAT     H235795   2.488   6.864   3.684
 8772WAT    EPW35796   2.436   6.912   3.650
 8773WAT      O35797   2.332   7.449   4.126
 8773WAT     H135798   2.289   7.519   4.156
 8773WAT     H235799   2.391   7.433   4.189
 8773WAT    EPW35800   2.335   7.457   4.140
 8774WAT      O35801   1.285   7.333   3.295
 8774WAT     H135802   1.221   7.382   3.262
 8774WAT     H235803   1.249   7.254   3.302
 8774WAT    EPW35804   1.270   7.328   3.291
 8775WAT      O35805   1.588   7.901   3.085
 8775WAT     H135806   1.546   7.853   3.026
 8775WAT     H235807   1.598   7.847   3.153
 8775WAT    EPW35808   1.583   7.886   3.086
 8776WAT      O35809   2.581   7.621   3.809
 8776WAT     H135810   2.576   7.620   3.722
 8776WAT     H235811   2.523   7.561   3.834
 8776WAT    EPW35812   2.572   7.612   3.800
 8777WAT      O35813   1.964   6.949   3.524
 8777WAT     H135814   1.961   7.019   3.472
 8777WAT     H235815   2.043   6.916   3.509
 8777WAT    EPW35816   1.975   6.955   3.514
 8778WAT      O35817   1.581   7.788   3.747
 8778WAT     H135818   1.541   7.785   3.670
 8778WAT     H235819   1.615   7.709   3.756
 8778WAT    EPW35820   1.580   7.776   3.737
 8779WAT      O35821   1.937   7.292   4.320
 8779WAT     H135822   2.004   7.283   4.265
 8779WAT     H235823   1.895   7.215   4.315
 8779WAT    EPW35824   1.941   7.279   4.311
 8780WAT      O35825   1.644   7.521   3.828
 8780WAT     H135826   1.712   7.467   3.837
 8780WAT     H235827   1.579   7.469   3.805
 8780WAT    EPW35828   1.645   7.506   3.826
 8781WAT      O35829   2.298   7.522   4.827
 8781WAT     H135830   2.217   7.522   4.795
 8781WAT     H235831   2.299   7.591   4.881
 8781WAT    EPW35832   2.286   7.532   4.830
 8782WAT      O35833   1.715   7.017   3.641
 8782WAT     H135834   1.674   7.070   3.584
 8782WAT     H235835   1.795   7.008   3.608
 8782WAT    EPW35836   1.721   7.023   3.628
 8783WAT      O35837   2.706   6.764   4.645
 8783WAT     H135838   2.683   6.830   4.593
 8783WAT     H235839   2.631   6.741   4.683
 8783WAT    EPW35840   2.692   6.770   4.643
 8784WAT      O35841   2.026   6.926   3.808
 8784WAT     H135842   2.044   7.009   3.827
 8784WAT     H235843   1.992   6.931   3.728
 8784WAT    EPW35844   2.024   6.939   3.799
 8785WAT      O35845   2.472   7.138   3.067
 8785WAT     H135846   2.423   7.204   3.097
 8785WAT     H235847   2.481   7.085   3.136
 8785WAT    EPW35848   2.466   7.140   3.081
 8786WAT      O35849   1.300   7.399   4.024
 8786WAT     H135850   1.268   7.480   4.029
 8786WAT     H235851   1.247   7.353   4.075
 8786WAT    EPW35852   1.288   7.404   4.032
 8787WAT      O35853   1.560   6.961   4.060
 8787WAT     H135854   1.539   6.883   4.027
 8787WAT     H235855   1.619   6.942   4.122
 8787WAT    EPW35856   1.565   6.947   4.064
 8788WAT      O35857   1.887   7.126   4.960
 8788WAT     H135858   1.895   7.089   4.882
 8788WAT     H235859   1.937   7.198   4.955
 8788WAT    EPW35860   1.896   7.131   4.948
 8789WAT      O35861   3.066   7.099   3.773
 8789WAT     H135862   3.019   7.172   3.780
 8789WAT     H235863   3.005   7.037   3.761
 8789WAT    EPW35864   3.050   7.100   3.772
 8790WAT      O35865   1.483   7.055   4.900
 8790WAT     H135866   1.404   7.026   4.878
 8790WAT     H235867   1.534   7.025   4.837
 8790WAT    EPW35868   1.479   7.046   4.888
 8791WAT      O35869   2.093   6.871   4.838
 8791WAT     H135870   2.115   6.797   4.797
 8791WAT     H235871   2.029   6.903   4.788
 8791WAT    EPW35872   2.087   6.865   4.824
 8792WAT      O35873   2.205   7.374   3.686
 8792WAT     H135874   2.230   7.325   3.618
 8792WAT     H235875   2.278   7.386   3.731
 8792WAT    EPW35876   2.219   7.368   3.682
 8793WAT      O35877   2.297   7.317   3.200
 8793WAT     H135878   2.316   7.396   3.234
 8793WAT     H235879   2.221   7.331   3.159
 8793WAT    EPW35880   2.288   7.331   3.199
 8794WAT      O35881   2.959   7.027   4.206
 8794WAT     H135882   3.024   7.020   4.149
 8794WAT     H235883   2.975   6.962   4.263
 8794WAT    EPW35884   2.971   7.016   4.206
 8795WAT      O35885   1.238   7.179   4.637
 8795WAT     H135886   1.225   7.256   4.677
 8795WAT     H235887   1.299   7.196   4.577
 8795WAT    EPW35888   1.245   7.193   4.634
 8796WAT      O35889   2.487   6.974   3.290
 8796WAT     H135890   2.552   6.915   3.287
 8796WAT     H235891   2.510   7.027   3.355
 8796WAT    EPW35892   2.500   6.973   3.299
 8797WAT      O35893   1.350   7.082   3.564
 8797WAT     H135894   1.328   6.999   3.550
 8797WAT     H235895   1.304   7.104   3.634
 8797WAT    EPW35896   1.340   7.073   3.572
 8798WAT      O35897   2.273   7.218   3.462
 8798WAT     H135898   2.238   7.139   3.449
 8798WAT     H235899   2.274   7.253   3.382
 8798WAT    EPW35900   2.268   7.212   3.448
 8799WAT      O35901   2.224   6.947   3.391
 8799WAT     H135902   2.172   6.927   3.324
 8799WAT     H235903   2.304   6.946   3.355
 8799WAT    EPW35904   2.228   6.944   3.376
 8800WAT      O35905   2.093   7.191   3.865
 8800WAT     H135906   2.122   7.255   3.814
 8800WAT     H235907   2.105   7.221   3.946
 8800WAT    EPW35908   2.099   7.205   3.869
 8801WAT      O35909   1.684   6.754   3.727
 8801WAT     H135910   1.688   6.839   3.705
 8801WAT     H235911   1.663   6.715   3.652
 8801WAT    EPW35912   1.681   6.761   3.713
 8802WAT      O35913   1.799   7.778   4.164
 8802WAT     H135914   1.811   7.702   4.204
 8802WAT     H235915   1.740   7.760   4.102
 8802WAT    EPW35916   1.792   7.764   4.161
 8803WAT      O35917   2.427   7.154   4.460
 8803WAT     H135918   2.414   7.192   4.537
 8803WAT     H235919   2.364   7.094   4.456
 8803WAT    EPW35920   2.416   7.150   4.471
 8804WAT      O35921   2.636   6.765   3.752
 8804WAT     H135922   2.637   6.745   3.837
 8804WAT     H235923   2.656   6.690   3.712
 8804WAT    EPW35924   2.639   6.751   3.758
 8805WAT      O35925   2.830   7.194   4.567
 8805WAT     H135926   2.916   7.184   4.575
 8805WAT     H235927   2.801   7.192   4.649
 8805WAT    EPW35928   2.838   7.193   4.580
 8806WAT      O35929   1.617   7.151   3.864
 8806WAT     H135930   1.643   7.101   3.798
 8806WAT     H235931   1.600   7.094   3.928
 8806WAT    EPW35932   1.618   7.135   3.864
 8807WAT      O35933   1.506   7.344   4.209
 8807WAT     H135934   1.583   7.365   4.175
 8807WAT     H235935   1.450   7.362   4.144
 8807WAT    EPW35936   1.509   7.350   4.194
 8808WAT      O35937   2.706   7.657   3.180
 8808WAT     H135938   2.687   7.733   3.141
 8808WAT     H235939   2.718   7.679   3.263
 8808WAT    EPW35940   2.705   7.671   3.186
 8809WAT      O35941   3.035   7.069   3.204
 8809WAT     H135942   3.079   7.017   3.149
 8809WAT     H235943   2.993   7.124   3.151
 8809WAT    EPW35944   3.035   7.070   3.188
 8810WAT      O35945   2.050   7.351   4.981
 8810WAT     H135946   2.005   7.388   5.045
 8810WAT     H235947   2.039   7.405   4.913
 8810WAT    EPW35948   2.042   7.364   4.980
 8811WAT      O35949   3.147   7.446   4.439
 8811WAT     H135950   3.215   7.391   4.434
 8811WAT     H235951   3.092   7.416   4.377
 8811WAT    EPW35952   3.149   7.434   4.429
 8812WAT      O35953   1.470   7.734   3.497
 8812WAT     H135954   1.437   7.654   3.505
 8812WAT     H235955   1.526   7.727   3.430
 8812WAT    EPW35956   1.473   7.722   3.488
 8813WAT      O35957   2.911   6.935   3.420
 8813WAT     H135958   2.984   6.892   3.442
 8813WAT     H235959   2.938   6.992   3.359
 8813WAT    EPW35960   2.926   6.937   3.414
 8814WAT      O35961   2.591   7.179   3.893
 8814WAT     H135962   2.625   7.147   3.967
 8814WAT     H235963   2.518   7.133   3.882
 8814WAT    EPW35964   2.585   7.167   3.902
 8815WAT      O35965   1.956   7.145   3.338
 8815WAT     H135966   1.949   7.131   3.252
 8815WAT     H235967   1.948   7.232   3.345
 8815WAT    EPW35968   1.954   7.156   3.326
 8816WAT      O35969   1.625   7.503   4.824
 8816WAT     H135970   1.580   7.446   4.873
 8816WAT     H235971   1.634   7.462   4.748
 8816WAT    EPW35972   1.619   7.488   4.820
 8817WAT      O35973   1.631   7.416   3.310
 8817WAT     H135974   1.611   7.358   3.373
 8817WAT     H235975   1.588   7.385   3.240
 8817WAT    EPW35976   1.621   7.403   3.309
 8818WAT      O35977   1.563   7.715   4.016
 8818WAT     H135978   1.555   7.766   3.946
 8818WAT     H235979   1.583   7.637   3.983
 8818WAT    EPW35980   1.564   7.711   4.001
 8819WAT      O35981   1.702   7.577   4.388
 8819WAT     H135982   1.714   7.528   4.317
 8819WAT     H235983   1.636   7.629   4.366
 8819WAT    EPW35984   1.694   7.577   4.374
 8820WAT      O35985   2.743   7.349   4.168
 8820WAT     H135986   2.676   7.377   4.216
 8820WAT     H235987   2.744   7.404   4.100
 8820WAT    EPW35988   2.733   7.361   4.166
 8821WAT      O35989   2.264   6.928   4.519
 8821WAT     H135990   2.289   6.847   4.499
 8821WAT     H235991   2.293   6.939   4.601
 8821WAT    EPW35992   2.272   6.918   4.528
 8822WAT      O35993   2.531   7.129   3.513
 8822WAT     H135994   2.593   7.190   3.520
 8822WAT     H235995   2.458   7.175   3.503
 8822WAT    EPW35996   2.529   7.145   3.513
 8823WAT      O35997   1.471   7.731   4.791
 8823WAT     H135998   1.452   7.730   4.706
 8823WAT     H235999   1.517   7.657   4.802
 8823WAT    EPW36000   1.475   7.720   4.780
 8824WAT      O36001   2.134   7.258   4.128
 8824WAT     H136002   2.200   7.315   4.133
 8824WAT     H236003   2.169   7.184   4.158
 8824WAT    EPW36004   2.149   7.256   4.134
 8825WAT      O36005   2.346   7.551   3.346
 8825WAT     H136006   2.343   7.612   3.284
 8825WAT     H236007   2.285   7.577   3.403
 8825WAT    EPW36008   2.337   7.564   3.345
 8826WAT      O36009   1.781   6.831   3.317
 8826WAT     H136010   1.823   6.855   3.390
 8826WAT     H236011   1.739   6.903   3.293
 8826WAT    EPW36012   1.781   6.845   3.324
 8827WAT      O36013   2.964   7.780   4.531
 8827WAT     H136014   2.940   7.754   4.452
 8827WAT     H236015   3.051   7.768   4.531
 8827WAT    EPW36016   2.973   7.775   4.519
 8828WAT      O36017   2.859   6.891   4.837
 8828WAT     H136018   2.812   6.848   4.777
 8828WAT     H236019   2.868   6.834   4.901
 8828WAT    EPW36020   2.854   6.876   4.837
 8829WAT      O36021   1.668   7.692   3.294
 8829WAT     H136022   1.649   7.607   3.303
 8829WAT     H236023   1.741   7.702   3.341
 8829WAT    EPW36024   1.676   7.681   3.302
 8830WAT      O36025   2.388   7.734   4.430
 8830WAT     H136026   2.405   7.806   4.477
 8830WAT     H236027   2.427   7.671   4.476
 8830WAT    EPW36028   2.397   7.736   4.444
 8831WAT      O36029   1.263   6.816   3.516
 8831WAT     H136030   1.258   6.762   3.447
 8831WAT     H236031   1.231   6.768   3.582
 8831WAT    EPW36032   1.257   6.801   3.516
 8832WAT      O36033   2.161   7.618   3.551
 8832WAT     H136034   2.180   7.676   3.613
 8832WAT     H236035   2.161   7.541   3.593
 8832WAT    EPW36036   2.164   7.615   3.566
 8833WAT      O36037   1.656   7.055   3.217
 8833WAT     H136038   1.593   7.049   3.157
 8833WAT     H236039   1.722   7.091   3.173
 8833WAT    EPW36040   1.657   7.060   3.201
 8834WAT      O36041   2.058   7.800   4.046
 8834WAT     H136042   1.978   7.805   4.080
 8834WAT     H236043   2.104   7.760   4.107
 8834WAT    EPW36044   2.053   7.795   4.060
 8835WAT      O36045   1.535   7.782   4.288
 8835WAT     H136046   1.612   7.823   4.280
 8835WAT     H236047   1.519   7.755   4.207
 8835WAT    EPW36048   1.544   7.784   4.275
 8836WAT      O36049   1.830   7.323   3.905
 8836WAT     H136050   1.904   7.281   3.886
 8836WAT     H236051   1.768   7.261   3.895
 8836WAT    EPW36052   1.832   7.307   3.901
 8837WAT      O36053   1.358   7.476   3.530
 8837WAT     H136054   1.377   7.429   3.602
 8837WAT     H236055   1.349   7.416   3.468
 8837WAT    EPW36056   1.360   7.460   3.532
 8838WAT      O36057   2.881   7.665   4.284
 8838WAT     H136058   2.866   7.592   4.330
 8838WAT     H236059   2.800   7.693   4.265
 8838WAT    EPW36060   2.867   7.659   4.288
 8839WAT      O36061   1.825   7.631   3.066
 8839WAT     H136062   1.773   7.655   3.132
 8839WAT     H236063   1.773   7.584   3.015
 8839WAT    EPW36064   1.809   7.628   3.068
 8840WAT      O36065   3.025   7.636   4.045
 8840WAT     H136066   2.990   7.645   4.125
 8840WAT     H236067   3.061   7.714   4.029
 8840WAT    EPW36068   3.025   7.649   4.055
 8841WAT      O36069   1.906   7.419   3.315
 8841WAT     H136070   1.921   7.501   3.343
 8841WAT     H236071   1.819   7.415   3.312
 8841WAT    EPW36072   1.895   7.431   3.319
 8842WAT      O36073   2.747   7.149   4.832
 8842WAT     H136074   2.672   7.156   4.876
 8842WAT     H236075   2.768   7.065   4.841
 8842WAT    EPW36076   2.739   7.138   4.840
 8843WAT      O36077   1.288   7.060   4.052
 8843WAT     H136078   1.270   7.078   3.968
 8843WAT     H236079   1.372   7.038   4.051
 8843WAT    EPW36080   1.298   7.060   4.039
 8844WAT      O36081   2.580   7.470   4.910
 8844WAT     H136082   2.607   7.520   4.976
 8844WAT     H236083   2.496   7.495   4.900
 8844WAT    EPW36084   2.571   7.481   4.918
 8845WAT      O36085   2.761   7.540   4.714
 8845WAT     H136086   2.782   7.621   4.739
 8845WAT     H236087   2.712   7.511   4.780
 8845WAT    EPW36088   2.757   7.548   4.728
 8846WAT      O36089   2.834   7.277   3.790
 8846WAT     H136090   2.765   7.234   3.820
 8846WAT     H236091   2.833   7.351   3.836
 8846WAT    EPW36092   2.824   7.282   3.802
 8847WAT      O36093   3.082   7.651   4.873
 8847WAT     H136094   3.076   7.587   4.814
 8847WAT     H236095   3.159   7.687   4.857
 8847WAT    EPW36096   3.092   7.647   4.862
 8848WAT      O36097   2.655   6.994   4.489
 8848WAT     H136098   2.714   7.056   4.504
 8848WAT     H236099   2.581   7.038   4.476
 8848WAT    EPW36100   2.653   7.009   4.489
 8849WAT      O36101   2.190   7.653   4.254
 8849WAT     H136102   2.253   7.689   4.303
 8849WAT     H236103   2.132   7.624   4.313
 8849WAT    EPW36104   2.190   7.654   4.270
 8850WAT      O36105   1.913   7.272   4.600
 8850WAT     H136106   1.911   7.187   4.619
 8850WAT     H236107   1.932   7.274   4.515
 8850WAT    EPW36108   1.915   7.260   4.590
 8851WAT      O36109   2.717   6.798   4.302
 8851WAT     H136110   2.698   6.868   4.349
 8851WAT     H236111   2.803   6.787   4.314
 8851WAT    EPW36112   2.727   6.807   4.311
 8852WAT      O36113   1.994   6.882   4.453
 8852WAT     H136114   2.078   6.905   4.458
 8852WAT     H236115   1.997   6.802   4.417
 8852WAT    EPW36116   2.007   6.874   4.448
 8853WAT      O36117   2.944   7.506   3.168
 8853WAT     H136118   2.996   7.555   3.118
 8853WAT     H236119   2.868   7.550   3.168
 8853WAT    EPW36120   2.940   7.520   3.161
 8854WAT      O36121   2.046   7.786   3.139
 8854WAT     H136122   1.987   7.734   3.102
 8854WAT     H236123   2.016   7.866   3.121
 8854WAT    EPW36124   2.032   7.790   3.131
 8855WAT      O36125   1.770   7.435   4.156
 8855WAT     H136126   1.791   7.412   4.075
 8855WAT     H236127   1.825   7.388   4.205
 8855WAT    EPW36128   1.781   7.425   4.151
 8856WAT      O36129   2.417   7.303   4.700
 8856WAT     H136130   2.365   7.359   4.742
 8856WAT     H236131   2.469   7.273   4.764
 8856WAT    EPW36132   2.417   7.307   4.716
 8857WAT      O36133   2.514   7.383   4.323
 8857WAT     H136134   2.526   7.434   4.393
 8857WAT     H236135   2.489   7.307   4.356
 8857WAT    EPW36136   2.512   7.379   4.338
 8858WAT      O36137   2.723   7.335   3.543
 8858WAT     H136138   2.756   7.316   3.622
 8858WAT     H236139   2.789   7.377   3.503
 8858WAT    EPW36140   2.738   7.339   3.549
 8859WAT      O36141   2.006   6.859   4.090
 8859WAT     H136142   1.924   6.847   4.117
 8859WAT     H236143   1.998   6.871   4.004
 8859WAT    EPW36144   1.993   6.859   4.082
 8860WAT      O36145   2.866   6.918   3.700
 8860WAT     H136146   2.786   6.890   3.720
 8860WAT     H236147   2.858   6.942   3.616
 8860WAT    EPW36148   2.853   6.918   3.690
 8861WAT      O36149   2.761   7.718   3.441
 8861WAT     H136150   2.827   7.663   3.460
 8861WAT     H236151   2.692   7.681   3.480
 8861WAT    EPW36152   2.761   7.704   3.450
 8862WAT      O36153   1.251   6.946   4.787
 8862WAT     H136154   1.249   7.016   4.735
 8862WAT     H236155   1.167   6.934   4.808
 8862WAT    EPW36156   1.238   6.955   4.782
 8863WAT      O36157   1.586   7.181   3.459
 8863WAT     H136158   1.597   7.139   3.383
 8863WAT     H236159   1.507   7.156   3.485
 8863WAT    EPW36160   1.576   7.171   3.452
 8864WAT      O36161   3.033   7.443   4.696
 8864WAT     H136162   2.947   7.458   4.698
 8864WAT     H236163   3.054   7.455   4.612
 8864WAT    EPW36164   3.023   7.447   4.684
 8865WAT      O36165   2.522   7.527   4.563
 8865WAT     H136166   2.484   7.463   4.608
 8865WAT     H236167   2.595   7.543   4.607
 8865WAT    EPW36168   2.527   7.520   4.576
 8866WAT      O36169   2.332   7.725   5.018
 8866WAT     H136170   2.387   7.791   5.002
 8866WAT     H236171   2.254   7.764   5.021
 8866WAT    EPW36172   2.329   7.741   5.016
 8867WAT      O36173   1.655   7.377   4.579
 8867WAT     H136174   1.667   7.442   4.521
 8867WAT     H236175   1.734   7.342   4.587
 8867WAT    EPW36176   1.669   7.382   4.571
 8868WAT      O36177   1.446   7.244   4.455
 8868WAT     H136178   1.463   7.265   4.372
 8868WAT     H236179   1.512   7.280   4.499
 8868WAT    EPW36180   1.459   7.252   4.449
 8869WAT      O36181   2.935   7.496   3.450
 8869WAT     H136182   2.950   7.502   3.364
 8869WAT     H236183   3.015   7.491   3.484
 8869WAT    EPW36184   2.949   7.496   3.442
 8870WAT      O36185   1.624   6.920   4.701
 8870WAT     H136186   1.580   6.845   4.709
 8870WAT     H236187   1.606   6.946   4.619
 8870WAT    EPW36188   1.615   6.913   4.690
 8871WAT      O36189   2.824   7.456   4.456
 8871WAT     H136190   2.821   7.370   4.469
 8871WAT     H236191   2.800   7.489   4.533
 8871WAT    EPW36192   2.820   7.448   4.469
 8872WAT      O36193   1.405   7.694   4.522
 8872WAT     H136194   1.434   7.733   4.449
 8872WAT     H236195   1.357   7.628   4.491
 8872WAT    EPW36196   1.402   7.690   4.506
 8873WAT      O36197   1.479   7.323   3.095
 8873WAT     H136198   1.410   7.326   3.149
 8873WAT     H236199   1.474   7.242   3.061
 8873WAT    EPW36200   1.468   7.311   3.098
 8874WAT      O36201   2.348   6.971   4.785
 8874WAT     H136202   2.381   7.034   4.836
 8874WAT     H236203   2.269   6.958   4.818
 8874WAT    EPW36204   2.341   6.978   4.797
 8875WAT      O36205   2.350   7.041   3.883
 8875WAT     H136206   2.273   7.083   3.876
 8875WAT     H236207   2.356   6.998   3.808
 8875WAT    EPW36208   2.340   7.041   3.871
 8876WAT      O36209   2.689   7.082   4.134
 8876WAT     H136210   2.765   7.044   4.150
 8876WAT     H236211   2.702   7.165   4.156
 8876WAT    EPW36212   2.702   7.088   4.140
 8877WAT      O36213   1.845   7.662   4.621
 8877WAT     H136214   1.783   7.700   4.668
 8877WAT     H236215   1.805   7.643   4.546
 8877WAT    EPW36216   1.830   7.665   4.617
 8878WAT      O36217   2.794   7.506   3.944
 8878WAT     H136218   2.862   7.559   3.959
 8878WAT     H236219   2.737   7.557   3.902
 8878WAT    EPW36220   2.795   7.521   3.940
 8879WAT      O36221   1.808   7.054   4.329
 8879WAT     H136222   1.731   7.027   4.360
 8879WAT     H236223   1.864   6.992   4.358
 8879WAT    EPW36224   1.805   7.041   4.338
 8880WAT      O36225   2.992   6.824   4.397
 8880WAT     H136226   2.986   6.852   4.480
 8880WAT     H236227   3.073   6.791   4.393
 8880WAT    EPW36228   3.003   6.824   4.409
 8881WAT      O36229   2.217   7.009   4.206
 8881WAT     H136230   2.155   6.958   4.172
 8881WAT     H236231   2.291   6.967   4.187
 8881WAT    EPW36232   2.218   6.995   4.198
 8882WAT      O36233   2.032   7.487   4.736
 8882WAT     H136234   2.004   7.418   4.692
 8882WAT     H236235   1.980   7.552   4.708
 8882WAT    EPW36236   2.021   7.487   4.725
 8883WAT      O36237   2.045   6.837   3.209
 8883WAT     H136238   2.055   6.850   3.123
 8883WAT     H236239   1.959   6.846   3.221
 8883WAT    EPW36240   2.034   6.841   3.198
 8884WAT      O36241   1.561   6.988   4.442
 8884WAT     H136242   1.503   6.926   4.423
 8884WAT     H236243   1.514   7.062   4.438
 8884WAT    EPW36244   1.545   6.990   4.439
 8885WAT      O36245   2.465   6.910   4.105
 8885WAT     H136246   2.529   6.964   4.129
 8885WAT     H236247   2.432   6.949   4.034
 8885WAT    EPW36248   2.469   6.924   4.098
 8886WAT      O36249   2.419   7.401   3.866
 8886WAT     H136250   2.479   7.339   3.878
 8886WAT     H236251   2.391   7.418   3.947
 8886WAT    EPW36252   2.423   7.395   3.880
 8887WAT      O36253   1.432   7.349   3.778
 8887WAT     H136254   1.381   7.361   3.848
 8887WAT     H236255   1.477   7.277   3.797
 8887WAT    EPW36256   1.431   7.340   3.791
 8888WAT      O36257   2.555   7.560   3.536
 8888WAT     H136258   2.597   7.484   3.535
 8888WAT     H236259   2.494   7.551   3.474
 8888WAT    EPW36260   2.552   7.548   3.527
 8889WAT      O36261   1.942   7.685   3.384
 8889WAT     H136262   1.985   7.723   3.318
 8889WAT     H236263   2.004   7.674   3.444
 8889WAT    EPW36264   1.958   7.689   3.383
 8890WAT      O36265   2.848   7.793   4.787
 8890WAT     H136266   2.919   7.766   4.830
 8890WAT     H236267   2.878   7.809   4.707
 8890WAT    EPW36268   2.863   7.791   4.781
 8891WAT      O36269   2.983   7.228   4.958
 8891WAT     H136270   2.972   7.312   4.979
 8891WAT     H236271   2.908   7.207   4.919
 8891WAT    EPW36272   2.970   7.238   4.955
 8892WAT      O36273   3.009   7.302   4.233
 8892WAT     H136274   2.927   7.328   4.219
 8892WAT     H236275   3.004   7.215   4.234
 8892WAT    EPW36276   2.996   7.293   4.231
 8893WAT      O36277   1.893   6.997   4.687
 8893WAT     H136278   1.921   6.959   4.614
 8893WAT     H236279   1.811   6.968   4.695
 8893WAT    EPW36280   1.885   6.987   4.677
 8894WAT      O36281   2.628   7.889   4.962
 8894WAT     H136282   2.691   7.887   4.902
 8894WAT     H236283   2.635   7.968   4.997
 8894WAT    EPW36284   2.638   7.900   4.959
 8895WAT      O36285   2.409   6.884   1.764
 8895WAT     H136286   2.441   6.946   1.711
 8895WAT     H236287   2.480   6.846   1.797
 8895WAT    EPW36288   2.424   6.888   1.761
 8896WAT      O36289   2.326   7.456   2.231
 8896WAT     H136290   2.282   7.526   2.261
 8896WAT     H236291   2.386   7.442   2.292
 8896WAT    EPW36292   2.328   7.465   2.244
 8897WAT      O36293   1.262   7.320   1.351
 8897WAT     H136294   1.199   7.376   1.327
 8897WAT     H236295   1.224   7.242   1.341
 8897WAT    EPW36296   1.247   7.317   1.346
 8898WAT      O36297   1.588   7.911   1.216
 8898WAT     H136298   1.546   7.866   1.153
 8898WAT     H236299   1.602   7.852   1.278
 8898WAT    EPW36300   1.584   7.895   1.216
 8899WAT      O36301   2.586   7.635   1.911
 8899WAT     H136302   2.583   7.628   1.825
 8899WAT     H236303   2.527   7.576   1.938
 8899WAT    EPW36304   2.577   7.625   1.903
 8900WAT      O36305   2.015   6.966   1.668
 8900WAT     H136306   2.001   7.032   1.614
 8900WAT     H236307   2.091   6.933   1.640
 8900WAT    EPW36308   2.024   6.971   1.656
 8901WAT      O36309   1.559   7.783   1.840
 8901WAT     H136310   1.518   7.772   1.763
 8901WAT     H236311   1.597   7.706   1.854
 8901WAT    EPW36312   1.558   7.770   1.830
 8902WAT      O36313   1.929   7.307   2.425
 8902WAT     H136314   1.997   7.297   2.371
 8902WAT     H236315   1.889   7.229   2.422
 8902WAT    EPW36316   1.933   7.294   2.416
 8903WAT      O36317   1.629   7.524   1.939
 8903WAT     H136318   1.700   7.474   1.945
 8903WAT     H236319   1.567   7.469   1.911
 8903WAT    EPW36320   1.630   7.508   1.936
 8904WAT      O36321   2.301   7.515   2.928
 8904WAT     H136322   2.221   7.514   2.894
 8904WAT     H236323   2.299   7.582   2.984
 8904WAT    EPW36324   2.289   7.525   2.931
 8905WAT      O36325   1.740   7.005   1.746
 8905WAT     H136326   1.705   7.062   1.690
 8905WAT     H236327   1.823   6.999   1.720
 8905WAT    EPW36328   1.747   7.013   1.734
 8906WAT      O36329   2.727   6.757   2.686
 8906WAT     H136330   2.704   6.826   2.638
 8906WAT     H236331   2.652   6.712   2.694
 8906WAT    EPW36332   2.712   6.760   2.680
 8907WAT      O36333   2.040   6.927   1.943
 8907WAT     H136334   2.050   7.011   1.967
 8907WAT     H236335   2.021   6.932   1.858
 8907WAT    EPW36336   2.039   6.941   1.934
 8908WAT      O36337   2.431   7.125   1.172
 8908WAT     H136338   2.393   7.193   1.212
 8908WAT     H236339   2.457   7.074   1.238
 8908WAT    EPW36340   2.429   7.127   1.188
 8909WAT      O36341   1.303   7.395   2.124
 8909WAT     H136342   1.267   7.475   2.130
 8909WAT     H236343   1.251   7.346   2.174
 8909WAT    EPW36344   1.290   7.400   2.132
 8910WAT      O36345   1.555   6.965   2.157
 8910WAT     H136346   1.539   6.890   2.118
 8910WAT     H236347   1.611   6.944   2.221
 8910WAT    EPW36348   1.561   6.951   2.161
 8911WAT      O36349   1.885   7.128   3.062
 8911WAT     H136350   1.890   7.093   2.982
 8911WAT     H236351   1.932   7.201   3.055
 8911WAT    EPW36352   1.893   7.134   3.049
 8912WAT      O36353   3.051   7.118   1.879
 8912WAT     H136354   3.001   7.189   1.888
 8912WAT     H236355   2.993   7.055   1.860
 8912WAT    EPW36356   3.035   7.119   1.878
 8913WAT      O36357   1.476   7.055   3.004
 8913WAT     H136358   1.397   7.026   2.981
 8913WAT     H236359   1.528   7.027   2.939
 8913WAT    EPW36360   1.472   7.047   2.991
 8914WAT      O36361   2.093   6.870   2.940
 8914WAT     H136362   2.106   6.795   2.898
 8914WAT     H236363   2.030   6.910   2.894
 8914WAT    EPW36364   2.086   6.865   2.927
 8915WAT      O36365   2.208   7.382   1.792
 8915WAT     H136366   2.235   7.331   1.726
 8915WAT     H236367   2.280   7.396   1.838
 8915WAT    EPW36368   2.223   7.377   1.789
 8916WAT      O36369   2.299   7.328   1.315
 8916WAT     H136370   2.323   7.406   1.347
 8916WAT     H236371   2.224   7.345   1.274
 8916WAT    EPW36372   2.292   7.342   1.314
 8917WAT      O36373   2.950   7.029   2.301
 8917WAT     H136374   3.017   7.031   2.245
 8917WAT     H236375   2.972   6.965   2.356
 8917WAT    EPW36376   2.963   7.020   2.301
 8918WAT      O36377   1.237   7.177   2.733
 8918WAT     H136378   1.224   7.254   2.773
 8918WAT     H236379   1.297   7.195   2.672
 8918WAT    EPW36380   1.244   7.191   2.730
 8919WAT      O36381   2.506   6.966   1.386
 8919WAT     H136382   2.566   6.903   1.382
 8919WAT     H236383   2.531   7.013   1.455
 8919WAT    EPW36384   2.518   6.964   1.396
 8920WAT      O36385   1.352   7.098   1.659
 8920WAT     H136386   1.329   7.015   1.641
 8920WAT     H236387   1.307   7.117   1.731
 8920WAT    EPW36388   1.342   7.088   1.667
 8921WAT      O36389   2.288   7.223   1.574
 8921WAT     H136390   2.250   7.145   1.560
 8921WAT     H236391   2.288   7.261   1.496
 8921WAT    EPW36392   2.283   7.217   1.561
 8922WAT      O36393   2.250   6.948   1.503
 8922WAT     H136394   2.190   6.920   1.446
 8922WAT     H236395   2.325   6.942   1.459
 8922WAT    EPW36396   2.252   6.943   1.488
 8923WAT      O36397   2.087   7.204   1.972
 8923WAT     H136398   2.118   7.266   1.919
 8923WAT     H236399   2.102   7.235   2.052
 8923WAT    EPW36400   2.094   7.218   1.976
 8924WAT      O36401   1.682   6.740   1.804
 8924WAT     H136402   1.698   6.825   1.788
 8924WAT     H236403   1.655   6.710   1.726
 8924WAT    EPW36404   1.680   6.748   1.790
 8925WAT      O36405   1.785   7.738   2.226
 8925WAT     H136406   1.794   7.652   2.233
 8925WAT     H236407   1.720   7.747   2.169
 8925WAT    EPW36408   1.777   7.727   2.219
 8926WAT      O36409   2.443   7.155   2.555
 8926WAT     H136410   2.437   7.197   2.631
 8926WAT     H236411   2.378   7.097   2.559
 8926WAT    EPW36412   2.432   7.153   2.567
 8927WAT      O36413   2.637   6.766   1.863
 8927WAT     H136414   2.627   6.748   1.948
 8927WAT     H236415   2.669   6.691   1.830
 8927WAT    EPW36416   2.640   6.752   1.870
 8928WAT      O36417   2.838   7.186   2.654
 8928WAT     H136418   2.922   7.180   2.676
 8928WAT     H236419   2.796   7.184   2.731
 8928WAT    EPW36420   2.844   7.184   2.669
 8929WAT      O36421   1.622   7.148   1.957
 8929WAT     H136422   1.656   7.096   1.896
 8929WAT     H236423   1.603   7.093   2.022
 8929WAT    EPW36424   1.624   7.132   1.958
 8930WAT      O36425   1.513   7.351   2.308
 8930WAT     H136426   1.588   7.378   2.274
 8930WAT     H236427   1.455   7.365   2.243
 8930WAT    EPW36428   1.515   7.357   2.293
 8931WAT      O36429   2.699   7.666   1.301
 8931WAT     H136430   2.672   7.740   1.263
 8931WAT     H236431   2.719   7.690   1.382
 8931WAT    EPW36432   2.698   7.681   1.307
 8932WAT      O36433   3.000   7.076   1.277
 8932WAT     H136434   3.041   7.028   1.217
 8932WAT     H236435   2.950   7.129   1.229
 8932WAT    EPW36436   2.999   7.077   1.261
 8933WAT      O36437   2.042   7.356   3.082
 8933WAT     H136438   1.995   7.394   3.145
 8933WAT     H236439   2.031   7.410   3.014
 8933WAT    EPW36440   2.033   7.370   3.081
 8934WAT      O36441   3.147   7.458   2.535
 8934WAT     H136442   3.210   7.398   2.540
 8934WAT     H236443   3.093   7.426   2.474
 8934WAT    EPW36444   3.148   7.445   2.527
 8935WAT      O36445   1.453   7.707   1.593
 8935WAT     H136446   1.425   7.625   1.595
 8935WAT     H236447   1.515   7.706   1.531
 8935WAT    EPW36448   1.458   7.695   1.584
 8936WAT      O36449   2.892   6.949   1.512
 8936WAT     H136450   2.967   6.914   1.540
 8936WAT     H236451   2.915   6.997   1.444
 8936WAT    EPW36452   2.906   6.951   1.506
 8937WAT      O36453   2.588   7.195   1.986
 8937WAT     H136454   2.619   7.157   2.058
 8937WAT     H236455   2.516   7.148   1.967
 8937WAT    EPW36456   2.582   7.182   1.994
 8938WAT      O36457   1.982   7.159   1.479
 8938WAT     H136458   1.971   7.138   1.395
 8938WAT     H236459   1.970   7.245   1.481
 8938WAT    EPW36460   1.978   7.168   1.467
 8939WAT      O36461   1.615   7.501   2.930
 8939WAT     H136462   1.570   7.446   2.979
 8939WAT     H236463   1.626   7.457   2.855
 8939WAT    EPW36464   1.610   7.486   2.926
 8940WAT      O36465   1.642   7.416   1.428
 8940WAT     H136466   1.623   7.356   1.488
 8940WAT     H236467   1.600   7.387   1.357
 8940WAT    EPW36468   1.633   7.403   1.426
 8941WAT      O36469   1.515   7.721   2.110
 8941WAT     H136470   1.513   7.769   2.037
 8941WAT     H236471   1.538   7.642   2.081
 8941WAT    EPW36472   1.518   7.717   2.095
 8942WAT      O36473   1.690   7.568   2.509
 8942WAT     H136474   1.716   7.533   2.433
 8942WAT     H236475   1.626   7.622   2.485
 8942WAT    EPW36476   1.684   7.571   2.494
 8943WAT      O36477   2.741   7.353   2.263
 8943WAT     H136478   2.676   7.382   2.314
 8943WAT     H236479   2.746   7.412   2.200
 8943WAT    EPW36480   2.732   7.366   2.261
 8944WAT      O36481   2.277   6.941   2.637
 8944WAT     H136482   2.290   6.859   2.611
 8944WAT     H236483   2.308   6.942   2.719
 8944WAT    EPW36484   2.284   6.929   2.645
 8945WAT      O36485   2.537   7.110   1.622
 8945WAT     H136486   2.600   7.170   1.629
 8945WAT     H236487   2.464   7.157   1.611
 8945WAT    EPW36488   2.535   7.126   1.621
 8946WAT      O36489   1.463   7.730   2.894
 8946WAT     H136490   1.445   7.731   2.809
 8946WAT     H236491   1.509   7.656   2.905
 8946WAT    EPW36492   1.467   7.719   2.883
 8947WAT      O36493   2.127   7.268   2.236
 8947WAT     H136494   2.194   7.323   2.241
 8947WAT     H236495   2.158   7.194   2.270
 8947WAT    EPW36496   2.141   7.265   2.242
 8948WAT      O36497   2.358   7.565   1.450
 8948WAT     H136498   2.357   7.627   1.389
 8948WAT     H236499   2.297   7.591   1.507
 8948WAT    EPW36500   2.349   7.578   1.450
 8949WAT      O36501   1.770   6.800   1.385
 8949WAT     H136502   1.723   6.764   1.449
 8949WAT     H236503   1.735   6.879   1.376
 8949WAT    EPW36504   1.758   6.807   1.394
 8950WAT      O36505   2.980   7.784   2.630
 8950WAT     H136506   2.955   7.754   2.552
 8950WAT     H236507   3.066   7.773   2.629
 8950WAT    EPW36508   2.989   7.778   2.618
 8951WAT      O36509   2.840   6.898   2.898
 8951WAT     H136510   2.805   6.854   2.832
 8951WAT     H236511   2.839   6.841   2.964
 8951WAT    EPW36512   2.835   6.883   2.898
 8952WAT      O36513   1.674   7.692   1.408
 8952WAT     H136514   1.660   7.606   1.416
 8952WAT     H236515   1.745   7.706   1.456
 8952WAT    EPW36516   1.683   7.681   1.416
 8953WAT      O36517   2.375   7.748   2.527
 8953WAT     H136518   2.401   7.822   2.563
 8953WAT     H236519   2.420   7.687   2.570
 8953WAT    EPW36520   2.386   7.750   2.538
 8954WAT      O36521   1.256   6.837   1.605
 8954WAT     H136522   1.254   6.778   1.540
 8954WAT     H236523   1.224   6.792   1.673
 8954WAT    EPW36524   1.251   6.821   1.605
 8955WAT      O36525   2.172   7.627   1.658
 8955WAT     H136526   2.195   7.683   1.721
 8955WAT     H236527   2.172   7.550   1.698
 8955WAT    EPW36528   2.176   7.624   1.673
 8956WAT      O36529   1.674   7.054   1.341
 8956WAT     H136530   1.615   7.056   1.276
 8956WAT     H236531   1.745   7.091   1.305
 8956WAT    EPW36532   1.676   7.060   1.326
 8957WAT      O36533   2.050   7.810   2.147
 8957WAT     H136534   1.967   7.796   2.170
 8957WAT     H236535   2.096   7.768   2.208
 8957WAT    EPW36536   2.044   7.802   2.159
 8958WAT      O36537   1.544   7.777   2.386
 8958WAT     H136538   1.627   7.798   2.372
 8958WAT     H236539   1.514   7.757   2.306
 8958WAT    EPW36540   1.552   7.777   2.372
 8959WAT      O36541   1.824   7.330   2.008
 8959WAT     H136542   1.900   7.291   1.988
 8959WAT     H236543   1.765   7.267   1.995
 8959WAT    EPW36544   1.826   7.315   2.003
 8960WAT      O36545   1.349   7.441   1.616
 8960WAT     H136546   1.370   7.403   1.692
 8960WAT     H236547   1.341   7.375   1.561
 8960WAT    EPW36548   1.351   7.426   1.619
 8961WAT      O36549   2.899   7.660   2.388
 8961WAT     H136550   2.878   7.588   2.432
 8961WAT     H236551   2.823   7.687   2.355
 8961WAT    EPW36552   2.885   7.653   2.389
 8962WAT      O36553   1.838   7.644   1.181
 8962WAT     H136554   1.785   7.663   1.248
 8962WAT     H236555   1.785   7.605   1.124
 8962WAT    EPW36556   1.823   7.641   1.183
 8963WAT      O36557   3.049   7.628   2.148
 8963WAT     H136558   3.020   7.642   2.229
 8963WAT     H236559   3.125   7.671   2.145
 8963WAT    EPW36560   3.056   7.636   2.159
 8964WAT      O36561   1.917   7.428   1.436
 8964WAT     H136562   1.930   7.510   1.462
 8964WAT     H236563   1.831   7.420   1.433
 8964WAT    EPW36564   1.906   7.439   1.440
 8965WAT      O36565   2.704   7.147   2.905
 8965WAT     H136566   2.635   7.145   2.959
 8965WAT     H236567   2.736   7.066   2.909
 8965WAT    EPW36568   2.698   7.135   2.913
 8966WAT      O36569   1.284   7.062   2.148
 8966WAT     H136570   1.265   7.075   2.064
 8966WAT     H236571   1.368   7.039   2.147
 8966WAT    EPW36572   1.293   7.060   2.135
 8967WAT      O36573   2.582   7.472   3.007
 8967WAT     H136574   2.607   7.523   3.073
 8967WAT     H236575   2.498   7.491   2.996
 8967WAT    EPW36576   2.573   7.482   3.015
 8968WAT      O36577   2.761   7.544   2.810
 8968WAT     H136578   2.785   7.625   2.834
 8968WAT     H236579   2.711   7.517   2.876
 8968WAT    EPW36580   2.757   7.552   2.823
 8969WAT      O36581   2.831   7.299   1.898
 8969WAT     H136582   2.760   7.256   1.926
 8969WAT     H236583   2.830   7.373   1.944
 8969WAT    EPW36584   2.821   7.304   1.909
 8970WAT      O36585   3.082   7.648   2.975
 8970WAT     H136586   3.077   7.584   2.915
 8970WAT     H236587   3.161   7.682   2.961
 8970WAT    EPW36588   3.093   7.643   2.964
 8971WAT      O36589   2.671   6.990   2.545
 8971WAT     H136590   2.729   7.052   2.564
 8971WAT     H236591   2.595   7.034   2.541
 8971WAT    EPW36592   2.668   7.006   2.547
 8972WAT      O36593   2.178   7.659   2.354
 8972WAT     H136594   2.240   7.696   2.403
 8972WAT     H236595   2.116   7.638   2.412
 8972WAT    EPW36596   2.178   7.662   2.370
 8973WAT      O36597   1.912   7.275   2.705
 8973WAT     H136598   1.911   7.189   2.721
 8973WAT     H236599   1.929   7.279   2.619
 8973WAT    EPW36600   1.915   7.263   2.694
 8974WAT      O36601   2.736   6.781   2.367
 8974WAT     H136602   2.713   6.857   2.401
 8974WAT     H236603   2.821   6.774   2.387
 8974WAT    EPW36604   2.745   6.791   2.375
 8975WAT      O36605   2.002   6.893   2.568
 8975WAT     H136606   2.086   6.918   2.569
 8975WAT     H236607   2.006   6.811   2.539
 8975WAT    EPW36608   2.015   6.885   2.564
 8976WAT      O36609   2.925   7.502   1.271
 8976WAT     H136610   2.977   7.554   1.225
 8976WAT     H236611   2.852   7.548   1.279
 8976WAT    EPW36612   2.922   7.517   1.265
 8977WAT      O36613   2.060   7.800   1.254
 8977WAT     H136614   2.001   7.748   1.216
 8977WAT     H236615   2.026   7.880   1.243
 8977WAT    EPW36616   2.046   7.804   1.247
 8978WAT      O36617   1.776   7.455   2.253
 8978WAT     H136618   1.792   7.423   2.174
 8978WAT     H236619   1.827   7.408   2.306
 8978WAT    EPW36620   1.786   7.443   2.249
 8979WAT      O36621   2.439   7.314   2.787
 8979WAT     H136622   2.381   7.360   2.833
 8979WAT     H236623   2.501   7.295   2.844
 8979WAT    EPW36624   2.439   7.318   2.802
 8980WAT      O36625   2.515   7.393   2.420
 8980WAT     H136626   2.527   7.444   2.490
 8980WAT     H236627   2.493   7.316   2.455
 8980WAT    EPW36628   2.513   7.389   2.436
 8981WAT      O36629   2.724   7.331   1.645
 8981WAT     H136630   2.755   7.319   1.725
 8981WAT     H236631   2.789   7.371   1.603
 8981WAT    EPW36632   2.738   7.335   1.650
 8982WAT      O36633   2.003   6.850   2.219
 8982WAT     H136634   1.919   6.843   2.240
 8982WAT     H236635   2.002   6.861   2.132
 8982WAT    EPW36636   1.991   6.851   2.209
 8983WAT      O36637   2.849   6.940   1.797
 8983WAT     H136638   2.773   6.903   1.818
 8983WAT     H236639   2.840   6.958   1.712
 8983WAT    EPW36640   2.836   6.937   1.787
 8984WAT      O36641   2.775   7.724   1.557
 8984WAT     H136642   2.839   7.667   1.571
 8984WAT     H236643   2.705   7.686   1.594
 8984WAT    EPW36644   2.774   7.710   1.565
 8985WAT      O36645   1.246   6.945   2.885
 8985WAT     H136646   1.245   7.015   2.832
 8985WAT     H236647   1.162   6.932   2.903
 8985WAT    EPW36648   1.233   6.953   2.880
 8986WAT      O36649   1.604   7.180   1.578
 8986WAT     H136650   1.618   7.137   1.504
 8986WAT     H236651   1.524   7.157   1.601
 8986WAT    EPW36652   1.594   7.170   1.570
 8987WAT      O36653   3.033   7.447   2.790
 8987WAT     H136654   2.948   7.464   2.792
 8987WAT     H236655   3.056   7.462   2.707
 8987WAT    EPW36656   3.024   7.452   2.778
 8988WAT      O36657   2.523   7.547   2.655
 8988WAT     H136658   2.486   7.481   2.699
 8988WAT     H236659   2.597   7.563   2.699
 8988WAT    EPW36660   2.528   7.540   2.668
 8989WAT      O36661   2.318   7.718   3.121
 8989WAT     H136662   2.368   7.787   3.105
 8989WAT     H236663   2.238   7.751   3.124
 8989WAT    EPW36664   2.314   7.733   3.119
 8990WAT      O36665   1.650   7.365   2.691
 8990WAT     H136666   1.660   7.431   2.634
 8990WAT     H236667   1.730   7.332   2.698
 8990WAT    EPW36668   1.663   7.370   2.683
 8991WAT      O36669   1.445   7.245   2.551
 8991WAT     H136670   1.465   7.268   2.469
 8991WAT     H236671   1.510   7.277   2.598
 8991WAT    EPW36672   1.457   7.253   2.546
 8992WAT      O36673   2.937   7.493   1.553
 8992WAT     H136674   2.947   7.496   1.466
 8992WAT     H236675   3.018   7.482   1.583
 8992WAT    EPW36676   2.951   7.492   1.545
 8993WAT      O36677   1.622   6.927   2.802
 8993WAT     H136678   1.583   6.849   2.809
 8993WAT     H236679   1.605   6.951   2.720
 8993WAT    EPW36680   1.614   6.919   2.791
 8994WAT      O36681   2.820   7.452   2.553
 8994WAT     H136682   2.825   7.365   2.564
 8994WAT     H236683   2.795   7.481   2.631
 8994WAT    EPW36684   2.817   7.443   2.566
 8995WAT      O36685   1.404   7.700   2.621
 8995WAT     H136686   1.435   7.739   2.549
 8995WAT     H236687   1.356   7.634   2.590
 8995WAT    EPW36688   1.402   7.696   2.606
 8996WAT      O36689   1.496   7.337   1.203
 8996WAT     H136690   1.420   7.338   1.245
 8996WAT     H236691   1.502   7.256   1.173
 8996WAT    EPW36692   1.486   7.326   1.205
 8997WAT      O36693   2.363   6.936   2.905
 8997WAT     H136694   2.391   7.006   2.948
 8997WAT     H236695   2.280   6.929   2.929
 8997WAT    EPW36696   2.355   6.945   2.915
 8998WAT      O36697   2.344   7.059   1.969
 8998WAT     H136698   2.266   7.097   1.960
 8998WAT     H236699   2.348   7.003   1.903
 8998WAT    EPW36700   2.333   7.057   1.958
 8999WAT      O36701   2.682   7.087   2.224
 8999WAT     H136702   2.760   7.050   2.237
 8999WAT     H236703   2.695   7.170   2.246
 8999WAT    EPW36704   2.696   7.094   2.229
 9000WAT      O36705   1.844   7.664   2.727
 9000WAT     H136706   1.783   7.703   2.776
 9000WAT     H236707   1.800   7.640   2.655
 9000WAT    EPW36708   1.828   7.666   2.724
 9001WAT      O36709   2.798   7.527   2.055
 9001WAT     H136710   2.869   7.576   2.063
 9001WAT     H236711   2.743   7.578   2.009
 9001WAT    EPW36712   2.800   7.542   2.049
 9002WAT      O36713   1.814   7.063   2.446
 9002WAT     H136714   1.736   7.031   2.469
 9002WAT     H236715   1.870   7.001   2.473
 9002WAT    EPW36716   1.811   7.049   2.453
 9003WAT      O36717   2.993   6.826   2.489
 9003WAT     H136718   2.973   6.856   2.569
 9003WAT     H236719   3.077   6.804   2.497
 9003WAT    EPW36720   3.003   6.827   2.502
 9004WAT      O36721   2.198   7.020   2.329
 9004WAT     H136722   2.138   6.966   2.297
 9004WAT     H236723   2.273   6.987   2.300
 9004WAT    EPW36724   2.200   7.007   2.320
 9005WAT      O36725   2.035   7.490   2.836
 9005WAT     H136726   2.006   7.420   2.793
 9005WAT     H236727   1.982   7.554   2.809
 9005WAT    EPW36728   2.023   7.489   2.825
 9006WAT      O36729   2.048   6.832   1.353
 9006WAT     H136730   2.056   6.839   1.266
 9006WAT     H236731   1.962   6.835   1.367
 9006WAT    EPW36732   2.037   6.834   1.342
 9007WAT      O36733   1.561   6.990   2.542
 9007WAT     H136734   1.504   6.926   2.523
 9007WAT     H236735   1.513   7.063   2.535
 9007WAT    EPW36736   1.546   6.991   2.538
 9008WAT      O36737   2.438   6.945   2.205
 9008WAT     H136738   2.509   6.992   2.223
 9008WAT     H236739   2.407   6.981   2.132
 9008WAT    EPW36740   2.444   6.957   2.197
 9009WAT      O36741   2.418   7.420   1.972
 9009WAT     H136742   2.477   7.356   1.981
 9009WAT     H236743   2.389   7.433   2.053
 9009WAT    EPW36744   2.423   7.412   1.985
 9010WAT      O36745   1.430   7.342   1.875
 9010WAT     H136746   1.381   7.351   1.946
 9010WAT     H236747   1.479   7.272   1.892
 9010WAT    EPW36748   1.430   7.333   1.888
 9011WAT      O36749   2.565   7.564   1.641
 9011WAT     H136750   2.604   7.485   1.639
 9011WAT     H236751   2.505   7.558   1.578
 9011WAT    EPW36752   2.562   7.551   1.631
 9012WAT      O36753   1.951   7.696   1.496
 9012WAT     H136754   1.994   7.732   1.429
 9012WAT     H236755   2.013   7.684   1.556
 9012WAT    EPW36756   1.967   7.700   1.495
 9013WAT      O36757   2.858   7.794   2.882
 9013WAT     H136758   2.927   7.765   2.925
 9013WAT     H236759   2.889   7.809   2.801
 9013WAT    EPW36760   2.872   7.792   2.876
 9014WAT      O36761   2.922   7.255   3.040
 9014WAT     H136762   2.912   7.337   3.067
 9014WAT     H236763   2.846   7.237   3.000
 9014WAT    EPW36764   2.909   7.264   3.038
 9015WAT      O36765   3.005   7.304   2.340
 9015WAT     H136766   2.925   7.331   2.320
 9015WAT     H236767   2.998   7.217   2.339
 9015WAT    EPW36768   2.992   7.295   2.337
 9016WAT      O36769   1.891   7.002   2.796
 9016WAT     H136770   1.922   6.965   2.724
 9016WAT     H236771   1.809   6.973   2.801
 9016WAT    EPW36772   1.884   6.992   2.786
 9017WAT      O36773   2.642   7.900   3.057
 9017WAT     H136774   2.705   7.896   2.997
 9017WAT     H236775   2.649   7.982   3.088
 9017WAT    EPW36776   2.653   7.912   3.053
 9018WAT      O36777   2.281   7.466   0.392
 9018WAT     H136778   2.242   7.528   0.440
 9018WAT     H236779   2.358   7.455   0.432
 9018WAT    EPW36780   2.286   7.474   0.405
 9019WAT      O36781   1.928   7.247   0.575
 9019WAT     H136782   1.997   7.246   0.522
 9019WAT     H236783   1.896   7.166   0.569
 9019WAT    EPW36784   1.933   7.235   0.567
 9020WAT      O36785   2.311   7.526   1.047
 9020WAT     H136786   2.230   7.524   1.015
 9020WAT     H236787   2.312   7.596   1.098
 9020WAT    EPW36788   2.300   7.536   1.050
 9021WAT      O36789   2.675   6.738   0.821
 9021WAT     H136790   2.664   6.818   0.788
 9021WAT     H236791   2.606   6.729   0.874
 9021WAT    EPW36792   2.663   6.749   0.824
 9022WAT      O36793   1.345   7.411   0.320
 9022WAT     H136794   1.334   7.498   0.325
 9022WAT     H236795   1.272   7.379   0.356
 9022WAT    EPW36796   1.333   7.419   0.326
 9023WAT      O36797   1.505   6.941   0.394
 9023WAT     H136798   1.529   7.022   0.372
 9023WAT     H236799   1.568   6.891   0.361
 9023WAT    EPW36800   1.518   6.945   0.386
 9024WAT      O36801   1.905   7.139   1.206
 9024WAT     H136802   1.907   7.101   1.127
 9024WAT     H236803   1.949   7.213   1.194
 9024WAT    EPW36804   1.912   7.144   1.193
 9025WAT      O36805   1.505   7.069   1.123
 9025WAT     H136806   1.425   7.038   1.115
 9025WAT     H236807   1.548   7.034   1.056
 9025WAT    EPW36808   1.500   7.059   1.112
 9026WAT      O36809   2.079   6.852   1.080
 9026WAT     H136810   2.093   6.779   1.034
 9026WAT     H236811   2.009   6.887   1.041
 9026WAT    EPW36812   2.070   6.846   1.068
 9027WAT      O36813   3.016   7.039   0.476
 9027WAT     H136814   3.081   7.000   0.432
 9027WAT     H236815   3.010   6.991   0.549
 9027WAT    EPW36816   3.025   7.026   0.480
 9028WAT      O36817   1.269   7.187   0.869
 9028WAT     H136818   1.255   7.267   0.901
 9028WAT     H236819   1.326   7.200   0.805
 9028WAT    EPW36820   1.275   7.201   0.864
 9029WAT      O36821   1.761   7.820   0.432
 9029WAT     H136822   1.773   7.746   0.477
 9029WAT     H236823   1.838   7.833   0.392
 9029WAT    EPW36824   1.774   7.811   0.433
 9030WAT      O36825   2.446   7.168   0.658
 9030WAT     H136826   2.426   7.215   0.729
 9030WAT     H236827   2.384   7.106   0.656
 9030WAT    EPW36828   2.434   7.166   0.668
 9031WAT      O36829   2.860   7.202   0.790
 9031WAT     H136830   2.944   7.184   0.805
 9031WAT     H236831   2.827   7.216   0.870
 9031WAT    EPW36832   2.867   7.202   0.804
 9032WAT      O36833   1.540   7.234   0.401
 9032WAT     H136834   1.615   7.278   0.391
 9032WAT     H236835   1.481   7.285   0.363
 9032WAT    EPW36836   1.543   7.248   0.394
 9033WAT      O36837   2.047   7.377   1.198
 9033WAT     H136838   2.002   7.411   1.264
 9033WAT     H236839   2.033   7.434   1.133
 9033WAT    EPW36840   2.038   7.391   1.198
 9034WAT      O36841   3.146   7.455   0.667
 9034WAT     H136842   3.208   7.394   0.669
 9034WAT     H236843   3.090   7.427   0.607
 9034WAT    EPW36844   3.147   7.442   0.659
 9035WAT      O36845   1.623   7.524   1.037
 9035WAT     H136846   1.582   7.466   1.088
 9035WAT     H236847   1.631   7.482   0.961
 9035WAT    EPW36848   1.618   7.509   1.034
 9036WAT      O36849   1.716   7.583   0.591
 9036WAT     H136850   1.728   7.528   0.525
 9036WAT     H236851   1.640   7.622   0.572
 9036WAT    EPW36852   1.706   7.581   0.579
 9037WAT      O36853   2.735   7.328   0.373
 9037WAT     H136854   2.673   7.359   0.425
 9037WAT     H236855   2.709   7.352   0.293
 9037WAT    EPW36856   2.722   7.336   0.369
 9038WAT      O36857   2.274   6.943   0.699
 9038WAT     H136858   2.290   6.858   0.688
 9038WAT     H236859   2.288   6.956   0.784
 9038WAT    EPW36860   2.278   6.933   0.710
 9039WAT      O36861   1.462   7.749   1.018
 9039WAT     H136862   1.436   7.749   0.935
 9039WAT     H236863   1.514   7.678   1.023
 9039WAT    EPW36864   1.466   7.738   1.007
 9040WAT      O36865   2.122   7.240   0.385
 9040WAT     H136866   2.177   7.307   0.380
 9040WAT     H236867   2.173   7.170   0.382
 9040WAT    EPW36868   2.137   7.239   0.384
 9041WAT      O36869   2.966   7.798   0.758
 9041WAT     H136870   2.946   7.768   0.679
 9041WAT     H236871   3.052   7.782   0.765
 9041WAT    EPW36872   2.976   7.791   0.747
 9042WAT      O36873   2.903   6.817   0.959
 9042WAT     H136874   2.826   6.800   0.922
 9042WAT     H236875   2.898   6.776   1.036
 9042WAT    EPW36876   2.891   6.808   0.965
 9043WAT      O36877   2.364   7.776   0.694
 9043WAT     H136878   2.389   7.842   0.745
 9043WAT     H236879   2.417   7.711   0.716
 9043WAT    EPW36880   2.375   7.776   0.705
 9044WAT      O36881   2.025   7.806   0.342
 9044WAT     H136882   2.077   7.802   0.271
 9044WAT     H236883   2.072   7.766   0.403
 9044WAT    EPW36884   2.040   7.800   0.340
 9045WAT      O36885   1.501   7.746   0.517
 9045WAT     H136886   1.558   7.796   0.473
 9045WAT     H236887   1.438   7.731   0.458
 9045WAT    EPW36888   1.500   7.751   0.501
 9046WAT      O36889   2.906   7.671   0.511
 9046WAT     H136890   2.887   7.598   0.554
 9046WAT     H236891   2.830   7.695   0.477
 9046WAT    EPW36892   2.892   7.664   0.512
 9047WAT      O36893   3.151   7.696   0.370
 9047WAT     H136894   3.078   7.688   0.417
 9047WAT     H236895   3.125   7.740   0.299
 9047WAT    EPW36896   3.136   7.701   0.366
 9048WAT      O36897   2.630   7.181   0.990
 9048WAT     H136898   2.574   7.157   1.052
 9048WAT     H236899   2.628   7.114   0.934
 9048WAT    EPW36900   2.622   7.167   0.991
 9049WAT      O36901   2.586   7.475   1.128
 9049WAT     H136902   2.607   7.530   1.193
 9049WAT     H236903   2.501   7.487   1.117
 9049WAT    EPW36904   2.577   7.485   1.136
 9050WAT      O36905   2.760   7.548   0.927
 9050WAT     H136906   2.781   7.628   0.952
 9050WAT     H236907   2.708   7.519   0.991
 9050WAT    EPW36908   2.755   7.555   0.940
 9051WAT      O36909   3.069   7.661   1.097
 9051WAT     H136910   3.069   7.598   1.037
 9051WAT     H236911   3.150   7.695   1.092
 9051WAT    EPW36912   3.081   7.657   1.088
 9052WAT      O36913   2.653   7.012   0.763
 9052WAT     H136914   2.726   7.058   0.749
 9052WAT     H236915   2.593   7.054   0.716
 9052WAT    EPW36916   2.655   7.025   0.754
 9053WAT      O36917   2.156   7.668   0.546
 9053WAT     H136918   2.221   7.707   0.589
 9053WAT     H236919   2.094   7.659   0.607
 9053WAT    EPW36920   2.157   7.672   0.561
 9054WAT      O36921   1.905   7.283   0.847
 9054WAT     H136922   1.900   7.203   0.881
 9054WAT     H236923   1.925   7.269   0.763
 9054WAT    EPW36924   1.907   7.269   0.840
 9055WAT      O36925   2.771   6.784   0.519
 9055WAT     H136926   2.748   6.866   0.499
 9055WAT     H236927   2.842   6.795   0.569
 9055WAT    EPW36928   2.778   6.798   0.523
 9056WAT      O36929   2.004   6.875   0.755
 9056WAT     H136930   2.089   6.882   0.736
 9056WAT     H236931   1.996   6.793   0.783
 9056WAT    EPW36932   2.016   6.864   0.757
 9057WAT      O36933   1.773   7.390   0.401
 9057WAT     H136934   1.820   7.402   0.328
 9057WAT     H236935   1.825   7.344   0.452
 9057WAT    EPW36936   1.787   7.385   0.398
 9058WAT      O36937   2.426   7.335   0.878
 9058WAT     H136938   2.381   7.380   0.938
 9058WAT     H236939   2.492   7.300   0.924
 9058WAT    EPW36940   2.429   7.337   0.894
 9059WAT      O36941   2.519   7.405   0.525
 9059WAT     H136942   2.535   7.457   0.594
 9059WAT     H236943   2.496   7.330   0.562
 9059WAT    EPW36944   2.518   7.402   0.541
 9060WAT      O36945   1.988   6.850   0.389
 9060WAT     H136946   1.943   6.902   0.443
 9060WAT     H236947   1.927   6.819   0.335
 9060WAT    EPW36948   1.972   6.853   0.389
 9061WAT      O36949   1.257   6.969   1.040
 9061WAT     H136950   1.260   7.035   0.982
 9061WAT     H236951   1.185   6.925   1.016
 9061WAT    EPW36952   1.247   6.973   1.028
 9062WAT      O36953   3.037   7.450   0.922
 9062WAT     H136954   2.951   7.458   0.924
 9062WAT     H236955   3.057   7.461   0.838
 9062WAT    EPW36956   3.028   7.453   0.910
 9063WAT      O36957   2.530   7.563   0.760
 9063WAT     H136958   2.488   7.497   0.800
 9063WAT     H236959   2.602   7.573   0.808
 9063WAT    EPW36960   2.534   7.555   0.773
 9064WAT      O36961   2.341   7.738   1.228
 9064WAT     H136962   2.397   7.802   1.212
 9064WAT     H236963   2.263   7.778   1.232
 9064WAT    EPW36964   2.338   7.753   1.226
 9065WAT      O36965   1.659   7.398   0.791
 9065WAT     H136966   1.680   7.459   0.733
 9065WAT     H236967   1.735   7.360   0.810
 9065WAT    EPW36968   1.673   7.401   0.785
 9066WAT      O36969   1.461   7.253   0.665
 9066WAT     H136970   1.484   7.251   0.581
 9066WAT     H236971   1.527   7.294   0.704
 9066WAT    EPW36972   1.474   7.258   0.658
 9067WAT      O36973   1.623   6.924   0.919
 9067WAT     H136974   1.581   6.849   0.931
 9067WAT     H236975   1.606   6.945   0.836
 9067WAT    EPW36976   1.615   6.916   0.909
 9068WAT      O36977   2.826   7.458   0.671
 9068WAT     H136978   2.837   7.373   0.686
 9068WAT     H236979   2.800   7.490   0.748
 9068WAT    EPW36980   2.824   7.450   0.685
 9069WAT      O36981   1.361   7.713   0.754
 9069WAT     H136982   1.408   7.742   0.687
 9069WAT     H236983   1.336   7.633   0.729
 9069WAT    EPW36984   1.364   7.706   0.740
 9070WAT      O36985   2.306   6.970   0.976
 9070WAT     H136986   2.341   7.025   1.034
 9070WAT     H236987   2.234   6.942   1.015
 9070WAT    EPW36988   2.301   6.974   0.990
 9071WAT      O36989   2.737   7.051   0.420
 9071WAT     H136990   2.824   7.043   0.423
 9071WAT     H236991   2.725   7.136   0.407
 9071WAT    EPW36992   2.748   7.062   0.418
 9072WAT      O36993   1.944   7.671   0.734
 9072WAT     H136994   1.926   7.756   0.748
 9072WAT     H236995   1.873   7.641   0.694
 9072WAT    EPW36996   1.931   7.679   0.730
 9073WAT      O36997   1.834   6.992   0.574
 9073WAT     H136998   1.750   6.980   0.594
 9073WAT     H236999   1.876   6.945   0.634
 9073WAT    EPW37000   1.828   6.983   0.586
 9074WAT      O37001   2.989   6.855   0.685
 9074WAT     H137002   2.972   6.843   0.770
 9074WAT     H237003   3.065   6.813   0.673
 9074WAT    EPW37004   2.998   6.847   0.696
 9075WAT      O37005   2.245   6.985   0.414
 9075WAT     H137006   2.174   6.939   0.390
 9075WAT     H237007   2.247   6.973   0.501
 9075WAT    EPW37008   2.235   6.976   0.423
 9076WAT      O37009   2.049   7.505   0.941
 9076WAT     H137010   2.012   7.431   0.913
 9076WAT     H237011   2.020   7.565   0.885
 9076WAT    EPW37012   2.039   7.503   0.929
 9077WAT      O37013   1.565   6.992   0.661
 9077WAT     H137014   1.533   6.956   0.588
 9077WAT     H237015   1.527   7.071   0.662
 9077WAT    EPW37016   1.555   6.998   0.650
 9078WAT      O37017   2.504   6.897   0.321
 9078WAT     H137018   2.563   6.956   0.348
 9078WAT     H237019   2.428   6.932   0.345
 9078WAT    EPW37020   2.501   6.911   0.328
 9079WAT      O37021   2.837   7.802   1.007
 9079WAT     H137022   2.906   7.776   1.052
 9079WAT     H237023   2.870   7.820   0.928
 9079WAT    EPW37024   2.852   7.801   1.002
 9080WAT      O37025   2.865   7.262   1.122
 9080WAT     H137026   2.865   7.340   1.162
 9080WAT     H237027   2.781   7.251   1.100
 9080WAT    EPW37028   2.852   7.272   1.125
 9081WAT      O37029   3.004   7.318   0.463
 9081WAT     H137030   2.921   7.330   0.438
 9081WAT     H237031   3.010   7.231   0.470
 9081WAT    EPW37032   2.992   7.307   0.460
 9082WAT      O37033   1.883   7.018   0.951
 9082WAT     H137034   1.923   6.980   0.884
 9082WAT     H237035   1.802   6.986   0.947
 9082WAT    EPW37036   1.877   7.008   0.941
 9083WAT      O37037   2.608   7.899   1.173
 9083WAT     H137038   2.673   7.893   1.114
 9083WAT     H237039   2.619   7.979   1.207
 9083WAT    EPW37040   2.619   7.910   1.169
 9084WAT      O37041   2.350   4.972   7.417
 9084WAT     H137042   2.342   5.020   7.345
 9084WAT     H237043   2.436   4.958   7.423
 9084WAT    EPW37044   2.362   4.977   7.407
 9085WAT      O37045   1.287   6.101   7.394
 9085WAT     H137046   1.208   6.097   7.431
 9085WAT     H237047   1.296   6.022   7.357
 9085WAT    EPW37048   1.276   6.089   7.394
 9086WAT      O37049   2.924   6.485   7.203
 9086WAT     H137050   2.974   6.426   7.243
 9086WAT     H237051   2.868   6.437   7.156
 9086WAT    EPW37052   2.923   6.469   7.202
 9087WAT      O37053   1.271   5.452   7.063
 9087WAT     H137054   1.204   5.500   7.033
 9087WAT     H237055   1.243   5.370   7.056
 9087WAT    EPW37056   1.257   5.447   7.058
 9088WAT      O37057   1.635   6.031   7.019
 9088WAT     H137058   1.595   5.991   6.952
 9088WAT     H237059   1.646   5.967   7.077
 9088WAT    EPW37060   1.630   6.016   7.018
 9089WAT      O37061   2.545   5.828   7.524
 9089WAT     H137062   2.554   5.814   7.439
 9089WAT     H237063   2.501   5.758   7.553
 9089WAT    EPW37064   2.540   5.816   7.516
 9090WAT      O37065   1.542   6.220   7.396
 9090WAT     H137066   1.596   6.188   7.456
 9090WAT     H237067   1.468   6.176   7.409
 9090WAT    EPW37068   1.539   6.209   7.407
 9091WAT      O37069   1.978   5.132   7.348
 9091WAT     H137070   1.987   5.184   7.279
 9091WAT     H237071   1.967   5.053   7.313
 9091WAT    EPW37072   1.978   5.128   7.333
 9092WAT      O37073   1.421   6.477   6.979
 9092WAT     H137074   1.474   6.489   6.912
 9092WAT     H237075   1.461   6.417   7.027
 9092WAT    EPW37076   1.434   6.470   6.976
 9093WAT      O37077   1.499   5.872   7.539
 9093WAT     H137078   1.452   5.873   7.465
 9093WAT     H237079   1.556   5.807   7.526
 9093WAT    EPW37080   1.500   5.862   7.526
 9094WAT      O37081   1.670   5.673   7.455
 9094WAT     H137082   1.728   5.646   7.515
 9094WAT     H237083   1.604   5.616   7.463
 9094WAT    EPW37084   1.669   5.660   7.465
 9095WAT      O37085   1.995   6.252   7.630
 9095WAT     H137086   2.023   6.173   7.651
 9095WAT     H237087   2.065   6.303   7.639
 9095WAT    EPW37088   2.009   6.248   7.634
 9096WAT      O37089   2.091   6.190   7.323
 9096WAT     H137090   2.138   6.129   7.363
 9096WAT     H237091   2.109   6.177   7.238
 9096WAT    EPW37092   2.101   6.179   7.316
 9097WAT      O37093   1.719   5.177   7.437
 9097WAT     H137094   1.681   5.227   7.376
 9097WAT     H237095   1.802   5.172   7.410
 9097WAT    EPW37096   1.726   5.184   7.424
 9098WAT      O37097   2.087   5.163   7.604
 9098WAT     H137098   2.062   5.244   7.627
 9098WAT     H237099   2.056   5.155   7.522
 9098WAT    EPW37100   2.079   5.174   7.595
 9099WAT      O37101   2.482   5.300   6.829
 9099WAT     H137102   2.431   5.361   6.865
 9099WAT     H237103   2.503   5.247   6.895
 9099WAT    EPW37104   2.478   5.301   6.844
 9100WAT      O37105   1.422   5.638   7.799
 9100WAT     H137106   1.391   5.719   7.796
 9100WAT     H237107   1.369   5.597   7.854
 9100WAT    EPW37108   1.410   5.644   7.806
 9101WAT      O37109   1.314   6.560   7.646
 9101WAT     H137110   1.249   6.609   7.614
 9101WAT     H237111   1.352   6.528   7.574
 9101WAT    EPW37112   1.310   6.562   7.630
 9102WAT      O37113   1.880   6.376   7.337
 9102WAT     H137114   1.832   6.369   7.409
 9102WAT     H237115   1.944   6.318   7.349
 9102WAT    EPW37116   1.883   6.366   7.349
 9103WAT      O37117   2.483   6.590   7.121
 9103WAT     H137118   2.558   6.636   7.124
 9103WAT     H237119   2.507   6.510   7.144
 9103WAT    EPW37120   2.498   6.585   7.125
 9104WAT      O37121   2.281   6.625   7.304
 9104WAT     H137122   2.301   6.693   7.354
 9104WAT     H237123   2.347   6.620   7.247
 9104WAT    EPW37124   2.294   6.634   7.303
 9105WAT      O37125   1.438   6.477   7.406
 9105WAT     H137126   1.485   6.405   7.419
 9105WAT     H237127   1.495   6.535   7.374
 9105WAT    EPW37128   1.453   6.475   7.403
 9106WAT      O37129   3.017   5.289   7.563
 9106WAT     H137130   2.965   5.357   7.575
 9106WAT     H237131   2.962   5.224   7.542
 9106WAT    EPW37132   3.001   5.289   7.561
 9107WAT      O37133   1.628   6.253   7.793
 9107WAT     H137134   1.648   6.316   7.737
 9107WAT     H237135   1.655   6.180   7.754
 9107WAT    EPW37136   1.635   6.251   7.779
 9108WAT      O37137   1.855   6.628   7.663
 9108WAT     H137138   1.936   6.643   7.637
 9108WAT     H237139   1.809   6.693   7.627
 9108WAT    EPW37140   1.860   6.640   7.654
 9109WAT      O37141   2.222   5.545   7.457
 9109WAT     H137142   2.247   5.489   7.394
 9109WAT     H237143   2.294   5.553   7.506
 9109WAT    EPW37144   2.237   5.538   7.455
 9110WAT      O37145   2.306   5.477   6.969
 9110WAT     H137146   2.332   5.556   6.995
 9110WAT     H237147   2.230   5.493   6.929
 9110WAT    EPW37148   2.299   5.491   6.967
 9111WAT      O37149   2.705   6.760   7.090
 9111WAT     H137150   2.754   6.733   7.024
 9111WAT     H237151   2.759   6.810   7.137
 9111WAT    EPW37152   2.720   6.764   7.087
 9112WAT      O37153   2.168   6.416   6.931
 9112WAT     H137154   2.136   6.477   6.985
 9112WAT     H237155   2.246   6.448   6.909
 9112WAT    EPW37156   2.175   6.430   6.936
 9113WAT      O37157   2.540   5.139   7.048
 9113WAT     H137158   2.593   5.070   7.059
 9113WAT     H237159   2.564   5.193   7.112
 9113WAT    EPW37160   2.552   5.137   7.059
 9114WAT      O37161   1.334   5.247   7.338
 9114WAT     H137162   1.319   5.161   7.327
 9114WAT     H237163   1.284   5.268   7.406
 9114WAT    EPW37164   1.324   5.237   7.346
 9115WAT      O37165   2.305   5.387   7.239
 9115WAT     H137166   2.284   5.303   7.234
 9115WAT     H237167   2.298   5.415   7.157
 9115WAT    EPW37168   2.301   5.379   7.226
 9116WAT      O37169   2.297   5.110   7.182
 9116WAT     H137170   2.233   5.090   7.127
 9116WAT     H237171   2.368   5.112   7.131
 9116WAT    EPW37172   2.298   5.107   7.166
 9117WAT      O37173   2.986   6.703   7.488
 9117WAT     H137174   2.949   6.782   7.495
 9117WAT     H237175   2.918   6.650   7.472
 9117WAT    EPW37176   2.970   6.707   7.486
 9118WAT      O37177   2.055   5.437   7.652
 9118WAT     H137178   2.100   5.471   7.585
 9118WAT     H237179   2.098   5.466   7.722
 9118WAT    EPW37180   2.068   5.446   7.652
 9119WAT      O37181   2.693   6.294   7.488
 9119WAT     H137182   2.761   6.240   7.481
 9119WAT     H237183   2.626   6.240   7.501
 9119WAT    EPW37184   2.693   6.278   7.489
 9120WAT      O37185   1.642   4.929   7.532
 9120WAT     H137186   1.657   5.011   7.507
 9120WAT     H237187   1.614   4.890   7.460
 9120WAT    EPW37188   1.640   4.935   7.518
 9121WAT      O37189   2.615   4.924   7.480
 9121WAT     H137190   2.622   4.913   7.567
 9121WAT     H237191   2.659   4.856   7.447
 9121WAT    EPW37192   2.623   4.912   7.488
 9122WAT      O37193   1.623   5.321   7.652
 9122WAT     H137194   1.656   5.270   7.589
 9122WAT     H237195   1.555   5.276   7.682
 9122WAT    EPW37196   1.618   5.307   7.647
 9123WAT      O37197   2.882   6.077   7.063
 9123WAT     H137198   2.871   6.027   7.133
 9123WAT     H237199   2.968   6.090   7.059
 9123WAT    EPW37200   2.893   6.072   7.073
 9124WAT      O37201   1.689   6.067   7.586
 9124WAT     H137202   1.753   6.047   7.530
 9124WAT     H237203   1.631   6.003   7.574
 9124WAT    EPW37204   1.690   6.054   7.576
 9125WAT      O37205   1.540   6.640   7.790
 9125WAT     H137206   1.467   6.624   7.745
 9125WAT     H237207   1.589   6.687   7.735
 9125WAT    EPW37208   1.536   6.645   7.775
 9126WAT      O37209   2.705   5.733   6.989
 9126WAT     H137210   2.697   5.815   6.959
 9126WAT     H237211   2.671   5.738   7.069
 9126WAT    EPW37212   2.699   5.746   6.996
 9127WAT      O37213   1.877   6.011   7.387
 9127WAT     H137214   1.933   6.075   7.367
 9127WAT     H237215   1.894   5.949   7.328
 9127WAT    EPW37216   1.888   6.011   7.376
 9128WAT      O37217   3.068   5.186   7.022
 9128WAT     H137218   3.094   5.108   6.993
 9128WAT     H237219   3.029   5.222   6.952
 9128WAT    EPW37220   3.066   5.180   7.007
 9129WAT      O37221   1.370   6.158   7.847
 9129WAT     H137222   1.328   6.233   7.865
 9129WAT     H237223   1.451   6.184   7.829
 9129WAT    EPW37224   1.375   6.173   7.847
 9130WAT      O37225   1.369   5.855   7.293
 9130WAT     H137226   1.345   5.771   7.296
 9130WAT     H237227   1.447   5.852   7.254
 9130WAT    EPW37228   1.377   5.842   7.287
 9131WAT      O37229   2.931   5.050   7.223
 9131WAT     H137230   3.004   5.011   7.251
 9131WAT     H237231   2.960   5.107   7.164
 9131WAT    EPW37232   2.946   5.053   7.219
 9132WAT      O37233   2.236   6.398   7.650
 9132WAT     H137234   2.206   6.480   7.646
 9132WAT     H237235   2.269   6.385   7.570
 9132WAT    EPW37236   2.236   6.408   7.638
 9133WAT      O37237   1.267   6.327   7.240
 9133WAT     H137238   1.321   6.382   7.283
 9133WAT     H237239   1.265   6.257   7.292
 9133WAT    EPW37240   1.275   6.325   7.254
 9134WAT      O37241   2.564   5.361   7.687
 9134WAT     H137242   2.584   5.312   7.756
 9134WAT     H237243   2.507   5.312   7.643
 9134WAT    EPW37244   2.558   5.347   7.691
 9135WAT      O37245   1.272   6.144   7.019
 9135WAT     H137246   1.343   6.093   7.018
 9135WAT     H237247   1.289   6.202   7.082
 9135WAT    EPW37248   1.285   6.145   7.028
 9136WAT      O37249   1.333   5.899   7.758
 9136WAT     H137250   1.384   5.897   7.687
 9136WAT     H237251   1.351   5.977   7.794
 9136WAT    EPW37252   1.343   5.910   7.753
 9137WAT      O37253   1.979   5.310   7.133
 9137WAT     H137254   1.971   5.290   7.048
 9137WAT     H237255   1.961   5.395   7.136
 9137WAT    EPW37256   1.975   5.320   7.121
 9138WAT      O37257   1.757   6.387   7.585
 9138WAT     H137258   1.781   6.466   7.613
 9138WAT     H237259   1.823   6.335   7.609
 9138WAT    EPW37260   1.770   6.391   7.592
 9139WAT      O37261   1.621   5.560   7.103
 9139WAT     H137262   1.604   5.497   7.161
 9139WAT     H237263   1.579   5.533   7.031
 9139WAT    EPW37264   1.612   5.547   7.101
 9140WAT      O37265   1.691   5.674   7.891
 9140WAT     H137266   1.607   5.665   7.869
 9140WAT     H237267   1.733   5.636   7.825
 9140WAT    EPW37268   1.684   5.667   7.878
 9141WAT      O37269   2.575   5.312   7.257
 9141WAT     H137270   2.627   5.379   7.279
 9141WAT     H237271   2.495   5.346   7.263
 9141WAT    EPW37272   2.571   5.327   7.261
 9142WAT      O37273   2.378   5.723   7.081
 9142WAT     H137274   2.357   5.775   7.014
 9142WAT     H237275   2.319   5.743   7.142
 9142WAT    EPW37276   2.366   5.734   7.080
 9143WAT      O37277   2.916   6.123   7.461
 9143WAT     H137278   2.927   6.079   7.535
 9143WAT     H237279   2.890   6.061   7.404
 9143WAT    EPW37280   2.914   6.107   7.463
 9144WAT      O37281   2.350   6.184   7.790
 9144WAT     H137282   2.319   6.257   7.755
 9144WAT     H237283   2.383   6.210   7.866
 9144WAT    EPW37284   2.350   6.198   7.796
 9145WAT      O37285   1.903   6.645   7.303
 9145WAT     H137286   1.896   6.562   7.329
 9145WAT     H237287   1.952   6.641   7.231
 9145WAT    EPW37288   1.909   6.632   7.296
 9146WAT      O37289   1.820   5.003   7.040
 9146WAT     H137290   1.818   4.980   7.124
 9146WAT     H237291   1.766   5.072   7.037
 9146WAT    EPW37292   1.811   5.010   7.052
 9147WAT      O37293   2.090   6.617   7.104
 9147WAT     H137294   2.153   6.624   7.164
 9147WAT     H237295   2.093   6.694   7.062
 9147WAT    EPW37296   2.100   6.630   7.106
 9148WAT      O37297   1.627   5.817   7.204
 9148WAT     H137298   1.619   5.739   7.165
 9148WAT     H237299   1.665   5.798   7.280
 9148WAT    EPW37300   1.632   5.803   7.209
 9149WAT      O37301   1.262   4.975   7.300
 9149WAT     H137302   1.260   4.922   7.231
 9149WAT     H237303   1.226   4.927   7.363
 9149WAT    EPW37304   1.256   4.960   7.299
 9150WAT      O37305   2.220   5.775   7.302
 9150WAT     H137306   2.232   5.843   7.355
 9150WAT     H237307   2.215   5.707   7.357
 9150WAT    EPW37308   2.221   5.775   7.318
 9151WAT      O37309   1.665   5.227   7.004
 9151WAT     H137310   1.606   5.216   6.941
 9151WAT     H237311   1.732   5.266   6.963
 9151WAT    EPW37312   1.666   5.231   6.989
 9152WAT      O37313   2.134   6.020   7.714
 9152WAT     H137314   2.090   5.982   7.779
 9152WAT     H237315   2.198   6.063   7.755
 9152WAT    EPW37316   2.137   6.021   7.730
 9153WAT      O37317   1.784   6.625   6.906
 9153WAT     H137318   1.804   6.554   6.953
 9153WAT     H237319   1.789   6.690   6.964
 9153WAT    EPW37320   1.788   6.624   6.921
 9154WAT      O37321   1.797   5.540   7.668
 9154WAT     H137322   1.877   5.505   7.660
 9154WAT     H237323   1.745   5.470   7.671
 9154WAT    EPW37324   1.801   5.524   7.667
 9155WAT      O37325   3.105   6.635   7.063
 9155WAT     H137326   3.167   6.580   7.035
 9155WAT     H237327   3.051   6.584   7.108
 9155WAT    EPW37328   3.106   6.620   7.065
 9156WAT      O37329   1.317   5.583   7.314
 9156WAT     H137330   1.354   5.545   7.383
 9156WAT     H237331   1.322   5.521   7.252
 9156WAT    EPW37332   1.323   5.568   7.315
 9157WAT      O37333   1.810   5.771   6.879
 9157WAT     H137334   1.811   5.711   6.942
 9157WAT     H237335   1.753   5.740   6.822
 9157WAT    EPW37336   1.802   5.758   6.880
 9158WAT      O37337   2.933   5.972   7.698
 9158WAT     H137338   2.919   6.026   7.765
 9158WAT     H237339   3.013   5.940   7.713
 9158WAT    EPW37340   2.943   5.976   7.710
 9159WAT      O37341   1.893   5.584   7.085
 9159WAT     H137342   1.913   5.654   7.133
 9159WAT     H237343   1.809   5.571   7.102
 9159WAT    EPW37344   1.884   5.593   7.095
 9160WAT      O37345   1.384   5.193   7.710
 9160WAT     H137346   1.312   5.219   7.669
 9160WAT     H237347   1.370   5.108   7.724
 9160WAT    EPW37348   1.371   5.184   7.706
 9161WAT      O37349   3.149   6.389   7.854
 9161WAT     H137350   3.149   6.447   7.788
 9161WAT     H237351   3.222   6.406   7.897
 9161WAT    EPW37352   3.160   6.400   7.850
 9162WAT      O37353   2.754   6.322   7.066
 9162WAT     H137354   2.788   6.242   7.070
 9162WAT     H237355   2.678   6.314   7.108
 9162WAT    EPW37356   2.747   6.309   7.072
 9163WAT      O37357   2.806   5.478   7.595
 9163WAT     H137358   2.734   5.439   7.626
 9163WAT     H237359   2.800   5.559   7.626
 9163WAT    EPW37360   2.794   5.484   7.605
 9164WAT      O37361   2.431   6.131   6.985
 9164WAT     H137362   2.504   6.085   6.978
 9164WAT     H237363   2.401   6.135   6.903
 9164WAT    EPW37364   2.437   6.125   6.972
 9165WAT      O37365   2.121   6.650   7.572
 9165WAT     H137366   2.116   6.737   7.584
 9165WAT     H237367   2.114   6.641   7.486
 9165WAT    EPW37368   2.119   6.662   7.561
 9166WAT      O37369   2.951   5.606   6.968
 9166WAT     H137370   2.999   5.662   6.922
 9166WAT     H237371   2.871   5.640   6.965
 9166WAT    EPW37372   2.946   5.619   6.961
 9167WAT      O37373   2.042   5.910   6.943
 9167WAT     H137374   1.970   5.877   6.907
 9167WAT     H237375   2.024   5.996   6.948
 9167WAT    EPW37376   2.028   5.918   6.938
 9168WAT      O37377   2.727   5.535   7.336
 9168WAT     H137378   2.749   5.512   7.418
 9168WAT     H237379   2.800   5.567   7.303
 9168WAT    EPW37380   2.741   5.536   7.344
 9169WAT      O37381   2.848   5.084   7.483
 9169WAT     H137382   2.767   5.052   7.485
 9169WAT     H237383   2.867   5.084   7.398
 9169WAT    EPW37384   2.839   5.079   7.471
 9170WAT      O37385   2.830   5.922   7.284
 9170WAT     H137386   2.877   5.849   7.277
 9170WAT     H237387   2.747   5.893   7.279
 9170WAT    EPW37388   2.825   5.907   7.283
 9171WAT      O37389   1.584   5.330   7.252
 9171WAT     H137390   1.598   5.289   7.176
 9171WAT     H237391   1.503   5.305   7.273
 9171WAT    EPW37392   1.574   5.320   7.244
 9172WAT      O37393   2.488   6.102   7.553
 9172WAT     H137394   2.459   6.119   7.633
 9172WAT     H237395   2.514   6.019   7.557
 9172WAT    EPW37396   2.488   6.092   7.565
 9173WAT      O37397   2.243   6.004   7.458
 9173WAT     H137398   2.203   6.000   7.535
 9173WAT     H237399   2.320   6.040   7.476
 9173WAT    EPW37400   2.249   6.009   7.472
 9174WAT      O37401   2.614   6.751   7.759
 9174WAT     H137402   2.542   6.755   7.810
 9174WAT     H237403   2.669   6.703   7.806
 9174WAT    EPW37404   2.611   6.744   7.774
 9175WAT      O37405   2.946   5.674   7.238
 9175WAT     H137406   2.952   5.657   7.153
 9175WAT     H237407   3.025   5.654   7.269
 9175WAT    EPW37408   2.959   5.668   7.230
 9176WAT      O37409   2.306   6.359   7.384
 9176WAT     H137410   2.292   6.441   7.359
 9176WAT     H237411   2.234   6.317   7.359
 9176WAT    EPW37412   2.293   6.365   7.377
 9177WAT      O37413   1.477   5.475   6.880
 9177WAT     H137414   1.405   5.470   6.930
 9177WAT     H237415   1.480   5.396   6.843
 9177WAT    EPW37416   1.467   5.462   6.882
 9178WAT      O37417   2.361   5.211   7.573
 9178WAT     H137418   2.276   5.205   7.590
 9178WAT     H237419   2.376   5.140   7.524
 9178WAT    EPW37420   2.351   5.200   7.568
 9179WAT      O37421   1.811   6.389   7.063
 9179WAT     H137422   1.846   6.389   7.143
 9179WAT     H237423   1.730   6.361   7.076
 9179WAT    EPW37424   1.804   6.385   7.077
 9180WAT      O37425   2.770   5.744   7.667
 9180WAT     H137426   2.823   5.812   7.677
 9180WAT     H237427   2.703   5.777   7.621
 9180WAT    EPW37428   2.768   5.759   7.662
 9181WAT      O37429   2.757   6.556   7.413
 9181WAT     H137430   2.730   6.478   7.442
 9181WAT     H237431   2.800   6.537   7.339
 9181WAT    EPW37432   2.759   6.542   7.406
 9182WAT      O37433   1.564   6.277   7.119
 9182WAT     H137434   1.561   6.264   7.206
 9182WAT     H237435   1.584   6.199   7.087
 9182WAT    EPW37436   1.566   6.264   7.127
 9183WAT      O37437   1.874   6.148   6.922
 9183WAT     H137438   1.802   6.105   6.948
 9183WAT     H237439   1.869   6.224   6.965
 9183WAT    EPW37440   1.863   6.153   6.932
 9184WAT      O37441   2.094   5.030   7.002
 9184WAT     H137442   2.106   5.032   6.916
 9184WAT     H237443   2.007   5.038   7.011
 9184WAT    EPW37444   2.083   5.031   6.991
 9185WAT      O37445   2.428   5.601   7.641
 9185WAT     H137446   2.476   5.528   7.653
 9185WAT     H237447   2.414   5.629   7.722
 9185WAT    EPW37448   2.433   5.594   7.655
 9186WAT      O37449   1.457   5.516   7.546
 9186WAT     H137450   1.440   5.557   7.621
 9186WAT     H237451   1.503   5.446   7.570
 9186WAT    EPW37452   1.461   5.512   7.560
 9187WAT      O37453   2.593   5.763   7.254
 9187WAT     H137454   2.620   5.684   7.277
 9187WAT     H237455   2.521   5.747   7.207
 9187WAT    EPW37456   2.587   5.749   7.250
 9188WAT      O37457   1.622   6.663   7.302
 9188WAT     H137458   1.600   6.707   7.230
 9188WAT     H237459   1.709   6.656   7.295
 9188WAT    EPW37460   1.632   6.669   7.290
 9189WAT      O37461   1.971   5.825   7.198
 9189WAT     H137462   1.991   5.861   7.121
 9189WAT     H237463   2.048   5.808   7.234
 9189WAT    EPW37464   1.985   5.828   7.192
 9190WAT      O37465   2.886   6.688   6.893
 9190WAT     H137466   2.959   6.678   6.941
 9190WAT     H237467   2.867   6.607   6.867
 9190WAT    EPW37468   2.894   6.675   6.897
 9191WAT      O37469   2.503   6.320   7.181
 9191WAT     H137470   2.454   6.314   7.253
 9191WAT     H237471   2.466   6.263   7.126
 9191WAT    EPW37472   2.490   6.310   7.184
 9192WAT      O37473   1.570   6.454   8.002
 9192WAT     H137474   1.594   6.385   7.954
 9192WAT     H237475   1.575   6.521   7.947
 9192WAT    EPW37476   1.574   6.453   7.987
 9193WAT      O37477   2.165   6.169   7.062
 9193WAT     H137478   2.246   6.142   7.044
 9193WAT     H237479   2.158   6.244   7.017
 9193WAT    EPW37480   2.176   6.176   7.053
 9194WAT      O37481   2.390   4.922   5.560
 9194WAT     H137482   2.397   4.968   5.487
 9194WAT     H237483   2.473   4.899   5.578
 9194WAT    EPW37484   2.403   4.925   5.552
 9195WAT      O37485   2.326   5.641   6.003
 9195WAT     H137486   2.294   5.718   6.030
 9195WAT     H237487   2.384   5.619   6.064
 9195WAT    EPW37488   2.330   5.649   6.016
 9196WAT      O37489   1.269   6.102   5.497
 9196WAT     H137490   1.208   6.093   5.558
 9196WAT     H237491   1.282   6.020   5.468
 9196WAT    EPW37492   1.262   6.089   5.501
 9197WAT      O37493   2.952   6.457   5.351
 9197WAT     H137494   3.013   6.397   5.367
 9197WAT     H237495   2.896   6.415   5.298
 9197WAT    EPW37496   2.953   6.442   5.345
 9198WAT      O37497   1.280   5.460   5.182
 9198WAT     H137498   1.216   5.509   5.148
 9198WAT     H237499   1.250   5.378   5.174
 9198WAT    EPW37500   1.266   5.455   5.176
 9199WAT      O37501   1.564   6.047   5.095
 9199WAT     H137502   1.538   6.001   5.025
 9199WAT     H237503   1.578   5.986   5.156
 9199WAT    EPW37504   1.562   6.031   5.094
 9200WAT      O37505   2.600   5.808   5.654
 9200WAT     H137506   2.607   5.790   5.569
 9200WAT     H237507   2.537   5.754   5.681
 9200WAT    EPW37508   2.592   5.797   5.645
 9201WAT      O37509   1.522   6.220   5.493
 9201WAT     H137510   1.574   6.183   5.553
 9201WAT     H237511   1.446   6.178   5.503
 9201WAT    EPW37512   1.519   6.208   5.504
 9202WAT      O37513   1.958   5.100   5.477
 9202WAT     H137514   1.985   5.167   5.429
 9202WAT     H237515   1.930   5.042   5.419
 9202WAT    EPW37516   1.958   5.101   5.461
 9203WAT      O37517   1.425   6.502   5.106
 9203WAT     H137518   1.471   6.508   5.032
 9203WAT     H237519   1.460   6.433   5.146
 9203WAT    EPW37520   1.437   6.493   5.101
 9204WAT      O37521   1.331   6.322   6.220
 9204WAT     H137522   1.354   6.304   6.302
 9204WAT     H237523   1.266   6.266   6.205
 9204WAT    EPW37524   1.325   6.311   6.230
 9205WAT      O37525   1.961   6.159   6.656
 9205WAT     H137526   1.941   6.150   6.741
 9205WAT     H237527   1.889   6.134   6.615
 9205WAT    EPW37528   1.948   6.154   6.663
 9206WAT      O37529   1.472   5.876   5.670
 9206WAT     H137530   1.427   5.875   5.595
 9206WAT     H237531   1.526   5.808   5.661
 9206WAT    EPW37532   1.473   5.866   5.657
 9207WAT      O37533   1.929   5.458   6.227
 9207WAT     H137534   1.997   5.460   6.172
 9207WAT     H237535   1.898   5.377   6.217
 9207WAT    EPW37536   1.934   5.446   6.217
 9208WAT      O37537   1.931   6.403   6.403
 9208WAT     H137538   1.909   6.479   6.367
 9208WAT     H237539   2.015   6.412   6.422
 9208WAT    EPW37540   1.940   6.415   6.400
 9209WAT      O37541   1.637   5.656   5.657
 9209WAT     H137542   1.703   5.605   5.682
 9209WAT     H237543   1.567   5.603   5.661
 9209WAT    EPW37544   1.636   5.641   5.661
 9210WAT      O37545   2.062   6.298   5.837
 9210WAT     H137546   2.091   6.217   5.852
 9210WAT     H237547   2.135   6.343   5.822
 9210WAT    EPW37548   2.077   6.293   5.837
 9211WAT      O37549   2.155   6.238   5.456
 9211WAT     H137550   2.183   6.171   5.504
 9211WAT     H237551   2.168   6.213   5.374
 9211WAT    EPW37552   2.161   6.224   5.451
 9212WAT      O37553   2.250   5.689   6.611
 9212WAT     H137554   2.164   5.680   6.599
 9212WAT     H237555   2.256   5.739   6.682
 9212WAT    EPW37556   2.238   5.695   6.620
 9213WAT      O37557   1.703   5.174   5.557
 9213WAT     H137558   1.672   5.229   5.497
 9213WAT     H237559   1.787   5.166   5.536
 9213WAT    EPW37560   1.711   5.181   5.545
 9214WAT      O37561   2.711   4.923   6.483
 9214WAT     H137562   2.688   4.990   6.432
 9214WAT     H237563   2.638   4.903   6.525
 9214WAT    EPW37564   2.697   4.930   6.482
 9215WAT      O37565   2.069   5.115   5.737
 9215WAT     H137566   2.059   5.200   5.754
 9215WAT     H237567   2.032   5.106   5.659
 9215WAT    EPW37568   2.062   5.126   5.728
 9216WAT      O37569   2.478   5.312   4.994
 9216WAT     H137570   2.433   5.369   5.042
 9216WAT     H237571   2.506   5.253   5.052
 9216WAT    EPW37572   2.475   5.312   5.010
 9217WAT      O37573   1.315   5.607   5.937
 9217WAT     H137574   1.315   5.694   5.949
 9217WAT     H237575   1.249   5.579   5.986
 9217WAT    EPW37576   1.305   5.616   5.946
 9218WAT      O37577   1.314   6.564   5.769
 9218WAT     H137578   1.250   6.614   5.738
 9218WAT     H237579   1.346   6.525   5.697
 9218WAT    EPW37580   1.309   6.565   5.753
 9219WAT      O37581   1.886   6.286   5.429
 9219WAT     H137582   1.857   6.300   5.510
 9219WAT     H237583   1.971   6.272   5.440
 9219WAT    EPW37584   1.894   6.286   5.443
 9220WAT      O37585   2.496   6.602   5.237
 9220WAT     H137586   2.570   6.649   5.239
 9220WAT     H237587   2.523   6.522   5.259
 9220WAT    EPW37588   2.511   6.597   5.240
 9221WAT      O37589   2.312   6.671   5.430
 9221WAT     H137590   2.342   6.747   5.462
 9221WAT     H237591   2.368   6.653   5.365
 9221WAT    EPW37592   2.325   6.680   5.425
 9222WAT      O37593   1.554   5.100   5.963
 9222WAT     H137594   1.547   5.024   5.920
 9222WAT     H237595   1.612   5.081   6.027
 9222WAT    EPW37596   1.562   5.086   5.966
 9223WAT      O37597   1.900   5.300   6.856
 9223WAT     H137598   1.906   5.261   6.778
 9223WAT     H237599   1.946   5.373   6.845
 9223WAT    EPW37600   1.907   5.305   6.843
 9224WAT      O37601   1.419   6.474   5.524
 9224WAT     H137602   1.464   6.400   5.530
 9224WAT     H237603   1.470   6.525   5.475
 9224WAT    EPW37604   1.433   6.470   5.517
 9225WAT      O37605   3.040   5.411   5.447
 9225WAT     H137606   3.012   5.399   5.529
 9225WAT     H237607   3.124   5.387   5.451
 9225WAT    EPW37608   3.049   5.406   5.460
 9226WAT      O37609   2.524   6.608   6.236
 9226WAT     H137610   2.594   6.659   6.223
 9226WAT     H237611   2.506   6.577   6.156
 9226WAT    EPW37612   2.532   6.611   6.222
 9227WAT      O37613   1.491   5.208   6.788
 9227WAT     H137614   1.412   5.175   6.771
 9227WAT     H237615   1.541   5.175   6.724
 9227WAT    EPW37616   1.487   5.198   6.776
 9228WAT      O37617   1.591   6.275   5.887
 9228WAT     H137618   1.632   6.245   5.816
 9228WAT     H237619   1.623   6.225   5.952
 9228WAT    EPW37620   1.601   6.263   5.886
 9229WAT      O37621   1.863   6.618   5.733
 9229WAT     H137622   1.944   6.636   5.704
 9229WAT     H237623   1.812   6.665   5.680
 9229WAT    EPW37624   1.867   6.628   5.721
 9230WAT      O37625   2.108   5.030   6.726
 9230WAT     H137626   2.122   4.957   6.681
 9230WAT     H237627   2.039   5.066   6.687
 9230WAT    EPW37628   2.100   5.025   6.714
 9231WAT      O37629   2.193   5.576   5.604
 9231WAT     H137630   2.219   5.524   5.539
 9231WAT     H237631   2.266   5.588   5.650
 9231WAT    EPW37632   2.208   5.570   5.601
 9232WAT      O37633   2.335   5.499   5.148
 9232WAT     H137634   2.358   5.581   5.166
 9232WAT     H237635   2.256   5.507   5.111
 9232WAT    EPW37636   2.326   5.512   5.145
 9233WAT      O37637   2.715   6.778   5.217
 9233WAT     H137638   2.767   6.750   5.152
 9233WAT     H237639   2.770   6.824   5.268
 9233WAT    EPW37640   2.731   6.781   5.215
 9234WAT      O37641   1.779   6.638   6.350
 9234WAT     H137642   1.789   6.649   6.436
 9234WAT     H237643   1.703   6.596   6.343
 9234WAT    EPW37644   1.769   6.633   6.362
 9235WAT      O37645   3.004   5.194   6.013
 9235WAT     H137646   3.083   5.190   5.976
 9235WAT     H237647   3.008   5.134   6.076
 9235WAT    EPW37648   3.016   5.184   6.017
 9236WAT      O37649   1.224   5.332   6.541
 9236WAT     H137650   1.224   5.406   6.586
 9236WAT     H237651   1.282   5.347   6.477
 9236WAT    EPW37652   1.233   5.345   6.538
 9237WAT      O37653   2.418   6.395   6.605
 9237WAT     H137654   2.412   6.416   6.689
 9237WAT     H237655   2.504   6.383   6.593
 9237WAT    EPW37656   2.430   6.397   6.615
 9238WAT      O37657   2.161   6.428   5.056
 9238WAT     H137658   2.135   6.485   5.117
 9238WAT     H237659   2.238   6.459   5.031
 9238WAT    EPW37660   2.168   6.441   5.061
 9239WAT      O37661   2.583   5.096   5.142
 9239WAT     H137662   2.590   5.032   5.084
 9239WAT     H237663   2.662   5.101   5.177
 9239WAT    EPW37664   2.596   5.087   5.139
 9240WAT      O37665   1.354   5.246   5.453
 9240WAT     H137666   1.336   5.162   5.437
 9240WAT     H237667   1.306   5.264   5.524
 9240WAT    EPW37668   1.344   5.236   5.461
 9241WAT      O37669   1.530   6.532   6.235
 9241WAT     H137670   1.474   6.465   6.232
 9241WAT     H237671   1.568   6.530   6.156
 9241WAT    EPW37672   1.527   6.522   6.223
 9242WAT      O37673   2.276   5.406   5.398
 9242WAT     H137674   2.201   5.364   5.384
 9242WAT     H237675   2.294   5.443   5.322
 9242WAT    EPW37676   2.268   5.405   5.385
 9243WAT      O37677   2.275   6.655   6.335
 9243WAT     H137678   2.354   6.645   6.299
 9243WAT     H237679   2.221   6.660   6.266
 9243WAT    EPW37680   2.279   6.654   6.320
 9244WAT      O37681   2.376   5.074   5.330
 9244WAT     H137682   2.300   5.056   5.290
 9244WAT     H237683   2.435   5.067   5.266
 9244WAT    EPW37684   2.373   5.070   5.314
 9245WAT      O37685   3.014   6.674   5.629
 9245WAT     H137686   2.973   6.749   5.644
 9245WAT     H237687   2.948   6.617   5.620
 9245WAT    EPW37688   2.998   6.676   5.630
 9246WAT      O37689   2.055   5.392   5.767
 9246WAT     H137690   2.091   5.453   5.716
 9246WAT     H237691   2.077   5.416   5.847
 9246WAT    EPW37692   2.064   5.404   5.771
 9247WAT      O37693   2.760   6.247   5.681
 9247WAT     H137694   2.823   6.187   5.674
 9247WAT     H237695   2.687   6.200   5.672
 9247WAT    EPW37696   2.758   6.231   5.679
 9248WAT      O37697   1.679   6.375   6.534
 9248WAT     H137698   1.759   6.397   6.506
 9248WAT     H237699   1.669   6.424   6.606
 9248WAT    EPW37700   1.689   6.385   6.540
 9249WAT      O37701   1.687   4.900   5.582
 9249WAT     H137702   1.682   4.987   5.572
 9249WAT     H237703   1.663   4.869   5.504
 9249WAT    EPW37704   1.683   4.908   5.569
 9250WAT      O37705   1.887   5.960   5.940
 9250WAT     H137706   1.909   5.933   6.021
 9250WAT     H237707   1.823   5.906   5.917
 9250WAT    EPW37708   1.881   5.948   5.949
 9251WAT      O37709   2.452   5.323   6.328
 9251WAT     H137710   2.448   5.367   6.404
 9251WAT     H237711   2.387   5.266   6.335
 9251WAT    EPW37712   2.442   5.321   6.341
 9252WAT      O37713   1.977   5.938   6.202
 9252WAT     H137714   1.978   6.025   6.212
 9252WAT     H237715   1.947   5.909   6.279
 9252WAT    EPW37716   1.973   5.947   6.215
 9253WAT      O37717   2.593   6.054   6.208
 9253WAT     H137718   2.520   6.022   6.243
 9253WAT     H237719   2.585   6.140   6.217
 9253WAT    EPW37720   2.581   6.062   6.214
 9254WAT      O37721   2.645   4.833   5.630
 9254WAT     H137722   2.659   4.843   5.715
 9254WAT     H237723   2.669   4.751   5.615
 9254WAT    EPW37724   2.650   4.822   5.640
 9255WAT      O37725   1.225   6.351   6.829
 9255WAT     H137726   1.284   6.396   6.876
 9255WAT     H237727   1.230   6.271   6.862
 9255WAT    EPW37728   1.235   6.346   6.841
 9256WAT      O37729   2.823   5.365   6.418
 9256WAT     H137730   2.908   5.352   6.434
 9256WAT     H237731   2.787   5.360   6.497
 9256WAT    EPW37732   2.831   5.362   6.432
 9257WAT      O37733   1.595   5.300   5.778
 9257WAT     H137734   1.622   5.251   5.711
 9257WAT     H237735   1.584   5.242   5.842
 9257WAT    EPW37736   1.597   5.284   5.777
 9258WAT      O37737   2.898   6.065   5.199
 9258WAT     H137738   2.898   6.014   5.270
 9258WAT     H237739   2.983   6.071   5.178
 9258WAT    EPW37740   2.911   6.058   5.206
 9259WAT      O37741   1.662   6.077   5.681
 9259WAT     H137742   1.718   6.046   5.623
 9259WAT     H237743   1.603   6.014   5.690
 9259WAT    EPW37744   1.662   6.063   5.674
 9260WAT      O37745   1.537   6.713   5.829
 9260WAT     H137746   1.461   6.673   5.811
 9260WAT     H237747   1.573   6.724   5.750
 9260WAT    EPW37748   1.531   6.709   5.815
 9261WAT      O37749   1.492   5.458   6.095
 9261WAT     H137750   1.572   5.488   6.077
 9261WAT     H237751   1.440   5.502   6.040
 9261WAT    EPW37752   1.496   5.469   6.084
 9262WAT      O37753   3.101   6.477   6.579
 9262WAT     H137754   3.029   6.479   6.530
 9262WAT     H237755   3.080   6.425   6.645
 9262WAT    EPW37756   3.088   6.470   6.581
 9263WAT      O37757   2.726   5.753   5.100
 9263WAT     H137758   2.709   5.836   5.080
 9263WAT     H237759   2.702   5.747   5.184
 9263WAT    EPW37760   2.720   5.764   5.110
 9264WAT      O37761   1.798   6.011   5.441
 9264WAT     H137762   1.825   6.092   5.424
 9264WAT     H237763   1.865   5.961   5.416
 9264WAT    EPW37764   1.812   6.016   5.435
 9265WAT      O37765   1.326   6.179   5.886
 9265WAT     H137766   1.275   6.245   5.911
 9265WAT     H237767   1.406   6.215   5.883
 9265WAT    EPW37768   1.331   6.194   5.889
 9266WAT      O37769   2.050   5.536   6.856
 9266WAT     H137770   2.003   5.566   6.923
 9266WAT     H237771   2.026   5.587   6.790
 9266WAT    EPW37772   2.039   5.548   6.856
 9267WAT      O37773   3.112   5.638   6.340
 9267WAT     H137774   3.146   5.569   6.300
 9267WAT     H237775   3.028   5.635   6.319
 9267WAT    EPW37776   3.105   5.627   6.331
 9268WAT      O37777   1.359   5.852   5.418
 9268WAT     H137778   1.343   5.767   5.422
 9268WAT     H237779   1.434   5.856   5.373
 9268WAT    EPW37780   1.368   5.840   5.412
 9269WAT      O37781   2.832   5.096   5.270
 9269WAT     H137782   2.837   5.009   5.271
 9269WAT     H237783   2.913   5.122   5.252
 9269WAT    EPW37784   2.845   5.087   5.268
 9270WAT      O37785   2.281   6.460   5.784
 9270WAT     H137786   2.237   6.531   5.760
 9270WAT     H237787   2.320   6.434   5.710
 9270WAT    EPW37788   2.281   6.467   5.769
 9271WAT      O37789   1.255   6.331   5.350
 9271WAT     H137790   1.306   6.382   5.398
 9271WAT     H237791   1.247   6.259   5.398
 9271WAT    EPW37792   1.262   6.328   5.364
 9272WAT      O37793   1.711   6.120   6.082
 9272WAT     H137794   1.769   6.157   6.136
 9272WAT     H237795   1.761   6.074   6.027
 9272WAT    EPW37796   1.727   6.119   6.081
 9273WAT      O37797   2.527   5.358   5.723
 9273WAT     H137798   2.597   5.332   5.767
 9273WAT     H237799   2.467   5.297   5.740
 9273WAT    EPW37800   2.528   5.345   5.732
 9274WAT      O37801   1.276   6.156   5.126
 9274WAT     H137802   1.352   6.113   5.122
 9274WAT     H237803   1.288   6.211   5.193
 9274WAT    EPW37804   1.289   6.158   5.135
 9275WAT      O37805   1.346   5.907   5.917
 9275WAT     H137806   1.390   5.889   5.844
 9275WAT     H237807   1.337   5.993   5.915
 9275WAT    EPW37808   1.351   5.917   5.906
 9276WAT      O37809   2.029   5.310   5.317
 9276WAT     H137810   2.015   5.292   5.233
 9276WAT     H237811   1.992   5.389   5.327
 9276WAT    EPW37812   2.021   5.319   5.306
 9277WAT      O37813   2.861   6.503   6.419
 9277WAT     H137814   2.816   6.578   6.426
 9277WAT     H237815   2.859   6.487   6.333
 9277WAT    EPW37816   2.854   6.512   6.407
 9278WAT      O37817   1.828   6.350   5.689
 9278WAT     H137818   1.830   6.436   5.704
 9278WAT     H237819   1.897   6.320   5.734
 9278WAT    EPW37820   1.839   6.358   5.698
 9279WAT      O37821   1.592   5.675   6.727
 9279WAT     H137822   1.551   5.612   6.772
 9279WAT     H237823   1.593   5.644   6.646
 9279WAT    EPW37824   1.586   5.661   6.722
 9280WAT      O37825   1.655   5.583   5.234
 9280WAT     H137826   1.633   5.523   5.293
 9280WAT     H237827   1.611   5.559   5.162
 9280WAT    EPW37828   1.645   5.571   5.232
 9281WAT      O37829   1.675   5.791   5.902
 9281WAT     H137830   1.663   5.752   5.825
 9281WAT     H237831   1.692   5.725   5.956
 9281WAT    EPW37832   1.676   5.776   5.898
 9282WAT      O37833   1.660   5.740   6.273
 9282WAT     H137834   1.687   5.693   6.205
 9282WAT     H237835   1.608   5.800   6.237
 9282WAT    EPW37836   1.656   5.742   6.257
 9283WAT      O37837   2.737   5.507   6.032
 9283WAT     H137838   2.670   5.530   6.082
 9283WAT     H237839   2.741   5.571   5.972
 9283WAT    EPW37840   2.728   5.520   6.030
 9284WAT      O37841   2.067   6.662   6.156
 9284WAT     H137842   2.027   6.591   6.123
 9284WAT     H237843   2.055   6.723   6.095
 9284WAT    EPW37844   2.059   6.660   6.142
 9285WAT      O37845   2.282   5.105   6.378
 9285WAT     H137846   2.304   5.023   6.359
 9285WAT     H237847   2.303   5.113   6.462
 9285WAT    EPW37848   2.288   5.094   6.388
 9286WAT      O37849   1.483   5.913   6.818
 9286WAT     H137850   1.473   5.961   6.746
 9286WAT     H237851   1.523   5.841   6.790
 9286WAT    EPW37852   1.488   5.910   6.803
 9287WAT      O37853   2.621   6.089   6.648
 9287WAT     H137854   2.649   6.169   6.625
 9287WAT     H237855   2.652   6.038   6.584
 9287WAT    EPW37856   2.630   6.094   6.635
 9288WAT      O37857   2.046   6.426   6.685
 9288WAT     H137858   2.078   6.420   6.766
 9288WAT     H237859   2.019   6.345   6.668
 9288WAT    EPW37860   2.047   6.413   6.694
 9289WAT      O37861   2.122   5.454   6.027
 9289WAT     H137862   2.187   5.513   6.024
 9289WAT     H237863   2.165   5.379   6.038
 9289WAT    EPW37864   2.138   5.452   6.028
 9290WAT      O37865   2.401   5.753   5.237
 9290WAT     H137866   2.374   5.798   5.167
 9290WAT     H237867   2.344   5.776   5.299
 9290WAT    EPW37868   2.389   5.763   5.236
 9291WAT      O37869   2.950   6.037   5.658
 9291WAT     H137870   2.950   5.981   5.725
 9291WAT     H237871   2.922   5.990   5.591
 9291WAT    EPW37872   2.946   6.022   5.658
 9292WAT      O37873   2.470   6.485   5.991
 9292WAT     H137874   2.405   6.470   5.935
 9292WAT     H237875   2.517   6.548   5.953
 9292WAT    EPW37876   2.467   6.492   5.977
 9293WAT      O37877   2.467   6.126   5.964
 9293WAT     H137878   2.392   6.158   5.996
 9293WAT     H237879   2.503   6.086   6.032
 9293WAT    EPW37880   2.461   6.125   5.979
 9294WAT      O37881   1.855   6.564   5.375
 9294WAT     H137882   1.867   6.484   5.406
 9294WAT     H237883   1.931   6.584   5.338
 9294WAT    EPW37884   1.868   6.555   5.374
 9295WAT      O37885   1.843   4.967   5.238
 9295WAT     H137886   1.782   4.914   5.271
 9295WAT     H237887   1.797   5.036   5.211
 9295WAT    EPW37888   1.827   4.969   5.239
 9296WAT      O37889   2.099   6.617   5.252
 9296WAT     H137890   2.162   6.637   5.309
 9296WAT     H237891   2.091   6.689   5.204
 9296WAT    EPW37892   2.107   6.631   5.253
 9297WAT      O37893   2.716   5.941   6.433
 9297WAT     H137894   2.686   5.984   6.363
 9297WAT     H237895   2.800   5.964   6.438
 9297WAT    EPW37896   2.724   5.951   6.423
 9298WAT      O37897   2.415   6.527   6.859
 9298WAT     H137898   2.441   6.550   6.939
 9298WAT     H237899   2.444   6.592   6.809
 9298WAT    EPW37900   2.423   6.540   6.864
 9299WAT      O37901   2.845   5.060   6.680
 9299WAT     H137902   2.806   5.014   6.617
 9299WAT     H237903   2.845   5.005   6.748
 9299WAT    EPW37904   2.839   5.045   6.681
 9300WAT      O37905   1.606   5.862   5.294
 9300WAT     H137906   1.630   5.779   5.286
 9300WAT     H237907   1.667   5.896   5.346
 9300WAT    EPW37908   1.618   5.855   5.301
 9301WAT      O37909   2.362   5.959   6.325
 9301WAT     H137910   2.307   5.995   6.382
 9301WAT     H237911   2.388   5.886   6.364
 9301WAT    EPW37912   2.358   5.954   6.339
 9302WAT      O37913   1.271   4.977   5.413
 9302WAT     H137914   1.262   4.923   5.345
 9302WAT     H237915   1.238   4.931   5.480
 9302WAT    EPW37916   1.265   4.962   5.413
 9303WAT      O37917   2.234   5.808   5.453
 9303WAT     H137918   2.246   5.876   5.506
 9303WAT     H237919   2.214   5.743   5.508
 9303WAT    EPW37920   2.233   5.808   5.469
 9304WAT      O37921   2.717   6.267   5.959
 9304WAT     H137922   2.740   6.269   5.875
 9304WAT     H237923   2.633   6.243   5.956
 9304WAT    EPW37924   2.708   6.264   5.946
 9305WAT      O37925   1.704   5.192   5.149
 9305WAT     H137926   1.645   5.188   5.086
 9305WAT     H237927   1.772   5.233   5.111
 9305WAT    EPW37928   1.705   5.198   5.134
 9306WAT      O37929   2.143   6.029   5.859
 9306WAT     H137930   2.060   6.003   5.871
 9306WAT     H237931   2.185   5.997   5.928
 9306WAT    EPW37932   2.137   6.020   5.871
 9307WAT      O37933   1.782   6.604   5.015
 9307WAT     H137934   1.809   6.533   5.059
 9307WAT     H237935   1.790   6.668   5.074
 9307WAT    EPW37936   1.787   6.603   5.031
 9308WAT      O37937   1.507   5.937   6.151
 9308WAT     H137938   1.565   6.000   6.132
 9308WAT     H237939   1.468   5.922   6.074
 9308WAT    EPW37940   1.510   5.944   6.137
 9309WAT      O37941   1.797   5.484   5.804
 9309WAT     H137942   1.874   5.448   5.786
 9309WAT     H237943   1.741   5.417   5.797
 9309WAT    EPW37944   1.800   5.469   5.800
 9310WAT      O37945   3.109   6.622   5.193
 9310WAT     H137946   3.175   6.575   5.160
 9310WAT     H237947   3.063   6.563   5.238
 9310WAT    EPW37948   3.112   6.606   5.195
 9311WAT      O37949   1.316   5.578   5.443
 9311WAT     H137950   1.341   5.539   5.516
 9311WAT     H237951   1.322   5.516   5.382
 9311WAT    EPW37952   1.321   5.563   5.445
 9312WAT      O37953   2.848   5.932   6.130
 9312WAT     H137954   2.844   5.863   6.184
 9312WAT     H237955   2.767   5.965   6.133
 9312WAT    EPW37956   2.835   5.927   6.138
 9313WAT      O37957   1.849   5.676   5.025
 9313WAT     H137958   1.803   5.649   5.093
 9313WAT     H237959   1.793   5.673   4.959
 9313WAT    EPW37960   1.834   5.671   5.025
 9314WAT      O37961   1.455   6.044   6.576
 9314WAT     H137962   1.419   5.996   6.514
 9314WAT     H237963   1.431   6.125   6.556
 9314WAT    EPW37964   1.446   6.049   6.564
 9315WAT      O37965   2.983   5.858   5.888
 9315WAT     H137966   2.950   5.891   5.961
 9315WAT     H237967   3.066   5.884   5.888
 9315WAT    EPW37968   2.991   5.866   5.899
 9316WAT      O37969   1.920   5.563   5.333
 9316WAT     H137970   1.943   5.647   5.341
 9316WAT     H237971   1.835   5.568   5.313
 9316WAT    EPW37972   1.911   5.576   5.332
 9317WAT      O37973   2.724   5.311   6.677
 9317WAT     H137974   2.649   5.312   6.722
 9317WAT     H237975   2.749   5.227   6.682
 9317WAT    EPW37976   2.716   5.298   6.685
 9318WAT      O37977   1.279   5.191   5.936
 9318WAT     H137978   1.268   5.215   5.853
 9318WAT     H237979   1.364   5.173   5.942
 9318WAT    EPW37980   1.290   5.192   5.924
 9319WAT      O37981   3.101   6.400   5.982
 9319WAT     H137982   3.138   6.456   5.927
 9319WAT     H237983   3.159   6.392   6.047
 9319WAT    EPW37984   3.115   6.407   5.984
 9320WAT      O37985   2.555   5.653   6.767
 9320WAT     H137986   2.595   5.664   6.845
 9320WAT     H237987   2.482   5.701   6.775
 9320WAT    EPW37988   2.550   5.662   6.780
 9321WAT      O37989   2.791   5.689   6.614
 9321WAT     H137990   2.812   5.769   6.642
 9321WAT     H237991   2.718   5.670   6.658
 9321WAT    EPW37992   2.783   5.698   6.625
 9322WAT      O37993   2.782   6.316   5.192
 9322WAT     H137994   2.812   6.235   5.201
 9322WAT     H237995   2.704   6.314   5.230
 9322WAT    EPW37996   2.775   6.304   5.199
 9323WAT      O37997   2.848   5.432   5.675
 9323WAT     H137998   2.833   5.371   5.737
 9323WAT     H237999   2.840   5.507   5.718
 9323WAT    EPW38000   2.844   5.434   5.691
 9324WAT      O38001   3.101   5.769   6.806
 9324WAT     H138002   3.105   5.711   6.741
 9324WAT     H238003   3.181   5.804   6.807
 9324WAT    EPW38004   3.113   5.766   6.797
 9325WAT      O38005   2.977   6.033   6.463
 9325WAT     H138006   3.047   5.985   6.440
 9325WAT     H238007   2.974   6.095   6.402
 9325WAT    EPW38008   2.987   6.035   6.451
 9326WAT      O38009   2.446   6.150   5.094
 9326WAT     H138010   2.520   6.104   5.090
 9326WAT     H238011   2.415   6.146   5.012
 9326WAT    EPW38012   2.452   6.142   5.081
 9327WAT      O38013   1.961   6.222   6.196
 9327WAT     H138014   1.950   6.265   6.271
 9327WAT     H238015   1.953   6.284   6.135
 9327WAT    EPW38016   1.958   6.238   6.198
 9328WAT      O38017   1.723   6.098   6.520
 9328WAT     H138018   1.644   6.068   6.542
 9328WAT     H238019   1.712   6.184   6.515
 9328WAT    EPW38020   1.710   6.106   6.523
 9329WAT      O38021   2.675   5.150   6.315
 9329WAT     H138022   2.731   5.213   6.339
 9329WAT     H238023   2.598   5.191   6.311
 9329WAT    EPW38024   2.672   5.165   6.318
 9330WAT      O38025   2.227   5.885   6.093
 9330WAT     H138026   2.276   5.915   6.158
 9330WAT     H238027   2.146   5.888   6.125
 9330WAT    EPW38028   2.222   5.890   6.107
 9331WAT      O38029   1.857   5.441   6.495
 9331WAT     H138030   1.872   5.359   6.521
 9331WAT     H238031   1.888   5.443   6.414
 9331WAT    EPW38032   1.864   5.429   6.487
 9332WAT      O38033   2.137   6.672   5.667
 9332WAT     H138034   2.123   6.756   5.689
 9332WAT     H238035   2.178   6.678   5.590
 9332WAT    EPW38036   2.141   6.685   5.659
 9333WAT      O38037   2.759   4.920   6.166
 9333WAT     H138038   2.724   4.993   6.199
 9333WAT     H238039   2.845   4.931   6.178
 9333WAT    EPW38040   2.766   4.932   6.173
 9334WAT      O38041   2.008   5.051   6.366
 9334WAT     H138042   2.092   5.073   6.363
 9334WAT     H238043   2.007   4.966   6.346
 9334WAT    EPW38044   2.020   5.042   6.362
 9335WAT      O38045   1.933   6.446   6.035
 9335WAT     H138046   1.855   6.473   6.005
 9335WAT     H238047   1.971   6.411   5.964
 9335WAT    EPW38048   1.927   6.445   6.020
 9336WAT      O38049   2.357   6.082   6.721
 9336WAT     H138050   2.438   6.087   6.689
 9336WAT     H238051   2.306   6.100   6.652
 9336WAT    EPW38052   2.361   6.085   6.706
 9337WAT      O38053   2.695   6.353   6.588
 9337WAT     H138054   2.731   6.380   6.663
 9337WAT     H238055   2.744   6.391   6.527
 9337WAT    EPW38056   2.708   6.362   6.590
 9338WAT      O38057   3.005   5.715   5.116
 9338WAT     H138058   3.044   5.727   5.039
 9338WAT     H238059   2.921   5.728   5.099
 9338WAT    EPW38060   2.998   5.719   5.102
 9339WAT      O38061   2.021   5.893   5.066
 9339WAT     H138062   1.966   5.830   5.041
 9339WAT     H238063   1.976   5.966   5.052
 9339WAT    EPW38064   2.006   5.894   5.060
 9340WAT      O38065   1.746   5.572   6.059
 9340WAT     H138066   1.769   5.540   5.981
 9340WAT     H238067   1.805   5.538   6.113
 9340WAT    EPW38068   1.758   5.562   6.055
 9341WAT      O38069   2.445   5.504   6.547
 9341WAT     H138070   2.372   5.548   6.563
 9341WAT     H238071   2.490   5.511   6.621
 9341WAT    EPW38072   2.441   5.511   6.560
 9342WAT      O38073   2.514   5.558   6.186
 9342WAT     H138074   2.521   5.615   6.252
 9342WAT     H238075   2.492   5.483   6.226
 9342WAT    EPW38076   2.512   5.555   6.202
 9343WAT      O38077   2.205   6.644   6.604
 9343WAT     H138078   2.215   6.642   6.518
 9343WAT     H238079   2.166   6.569   6.623
 9343WAT    EPW38080   2.201   6.633   6.594
 9344WAT      O38081   2.718   5.461   5.428
 9344WAT     H138082   2.752   5.456   5.509
 9344WAT     H238083   2.785   5.442   5.376
 9344WAT    EPW38084   2.733   5.457   5.433
 9345WAT      O38085   2.014   5.018   6.016
 9345WAT     H138086   1.931   5.010   6.041
 9345WAT     H238087   2.007   5.038   5.931
 9345WAT    EPW38088   2.001   5.020   6.007
 9346WAT      O38089   2.680   5.086   5.507
 9346WAT     H138090   2.688   5.007   5.544
 9346WAT     H238091   2.741   5.087   5.445
 9346WAT    EPW38092   2.690   5.075   5.503
 9347WAT      O38093   2.872   5.896   5.426
 9347WAT     H138094   2.927   5.829   5.418
 9347WAT     H238095   2.793   5.860   5.416
 9347WAT    EPW38096   2.868   5.881   5.423
 9348WAT      O38097   2.192   6.116   6.497
 9348WAT     H138098   2.118   6.117   6.543
 9348WAT     H238099   2.197   6.196   6.464
 9348WAT    EPW38100   2.181   6.128   6.499
 9349WAT      O38101   1.244   5.103   6.696
 9349WAT     H138102   1.244   5.173   6.644
 9349WAT     H238103   1.160   5.083   6.704
 9349WAT    EPW38104   1.232   5.110   6.689
 9350WAT      O38105   1.756   6.774   6.098
 9350WAT     H138106   1.768   6.745   6.180
 9350WAT     H238107   1.734   6.702   6.054
 9350WAT    EPW38108   1.754   6.759   6.104
 9351WAT      O38109   1.599   5.342   5.365
 9351WAT     H138110   1.620   5.294   5.295
 9351WAT     H238111   1.518   5.316   5.384
 9351WAT    EPW38112   1.590   5.331   5.357
 9352WAT      O38113   2.530   6.078   5.695
 9352WAT     H138114   2.510   6.088   5.779
 9352WAT     H238115   2.556   5.995   5.690
 9352WAT    EPW38116   2.531   6.067   5.707
 9353WAT      O38117   2.267   6.034   5.610
 9353WAT     H138118   2.227   6.030   5.688
 9353WAT     H238119   2.349   6.055   5.631
 9353WAT    EPW38120   2.273   6.037   5.625
 9354WAT      O38121   2.222   6.386   6.410
 9354WAT     H138122   2.281   6.386   6.474
 9354WAT     H238123   2.240   6.460   6.367
 9354WAT    EPW38124   2.234   6.397   6.413
 9355WAT      O38125   3.055   5.585   6.604
 9355WAT     H138126   2.969   5.602   6.608
 9355WAT     H238127   3.077   5.610   6.523
 9355WAT    EPW38128   3.045   5.591   6.593
 9356WAT      O38129   2.516   5.736   6.400
 9356WAT     H138130   2.501   5.675   6.460
 9356WAT     H238131   2.587   5.777   6.429
 9356WAT    EPW38132   2.524   5.733   6.413
 9357WAT      O38133   1.408   6.727   6.616
 9357WAT     H138134   1.354   6.659   6.610
 9357WAT     H238135   1.356   6.791   6.645
 9357WAT    EPW38136   1.392   6.727   6.619
 9358WAT      O38137   2.292   5.841   6.841
 9358WAT     H138138   2.317   5.917   6.806
 9358WAT     H238139   2.211   5.859   6.870
 9358WAT    EPW38140   2.283   5.855   6.840
 9359WAT      O38141   2.601   6.723   5.925
 9359WAT     H138142   2.540   6.783   5.944
 9359WAT     H238143   2.661   6.735   5.987
 9359WAT    EPW38144   2.601   6.734   5.937
 9360WAT      O38145   2.251   6.223   6.123
 9360WAT     H138146   2.168   6.220   6.150
 9360WAT     H238147   2.294   6.256   6.191
 9360WAT    EPW38148   2.245   6.228   6.137
 9361WAT      O38149   2.824   6.430   6.822
 9361WAT     H138150   2.903   6.394   6.821
 9361WAT     H238151   2.787   6.397   6.894
 9361WAT    EPW38152   2.830   6.419   6.832
 9362WAT      O38153   1.603   5.556   6.474
 9362WAT     H138154   1.617   5.617   6.413
 9362WAT     H238155   1.681   5.517   6.481
 9362WAT    EPW38156   1.617   5.559   6.466
 9363WAT      O38157   1.416   5.396   6.347
 9363WAT     H138158   1.435   5.410   6.263
 9363WAT     H238159   1.475   5.444   6.390
 9363WAT    EPW38160   1.428   5.405   6.341
 9364WAT      O38161   3.037   5.679   5.385
 9364WAT     H138162   3.034   5.681   5.298
 9364WAT     H238163   3.038   5.594   5.404
 9364WAT    EPW38164   3.036   5.667   5.375
 9365WAT      O38165   1.640   5.087   6.586
 9365WAT     H138166   1.632   5.000   6.582
 9365WAT     H238167   1.618   5.113   6.506
 9365WAT    EPW38168   1.636   5.078   6.574
 9366WAT      O38169   2.364   6.406   5.520
 9366WAT     H138170   2.344   6.487   5.495
 9366WAT     H238171   2.292   6.361   5.500
 9366WAT    EPW38172   2.350   6.411   5.513
 9367WAT      O38173   2.834   5.642   6.337
 9367WAT     H138174   2.820   5.556   6.342
 9367WAT     H238175   2.811   5.672   6.416
 9367WAT    EPW38176   2.828   5.634   6.349
 9368WAT      O38177   1.334   5.909   6.368
 9368WAT     H138178   1.382   5.926   6.297
 9368WAT     H238179   1.317   5.824   6.361
 9368WAT    EPW38180   1.339   5.899   6.356
 9369WAT      O38181   1.506   5.475   5.021
 9369WAT     H138182   1.432   5.475   5.066
 9369WAT     H238183   1.512   5.393   4.991
 9369WAT    EPW38184   1.496   5.463   5.023
 9370WAT      O38185   2.353   5.130   6.646
 9370WAT     H138186   2.389   5.189   6.699
 9370WAT     H238187   2.277   5.111   6.684
 9370WAT    EPW38188   2.347   5.136   6.659
 9371WAT      O38189   2.356   5.141   5.728
 9371WAT     H138190   2.270   5.144   5.744
 9371WAT     H238191   2.365   5.069   5.681
 9371WAT    EPW38192   2.344   5.131   5.724
 9372WAT      O38193   1.820   6.352   5.150
 9372WAT     H138194   1.861   6.341   5.226
 9372WAT     H238195   1.736   6.339   5.171
 9372WAT    EPW38196   1.813   6.348   5.164
 9373WAT      O38197   2.740   5.269   5.896
 9373WAT     H138198   2.812   5.227   5.923
 9373WAT     H238199   2.738   5.340   5.948
 9373WAT    EPW38200   2.750   5.273   5.908
 9374WAT      O38201   1.851   5.858   6.438
 9374WAT     H138202   1.813   5.932   6.466
 9374WAT     H238203   1.789   5.820   6.390
 9374WAT    EPW38204   1.836   5.863   6.435
 9375WAT      O38205   2.789   5.672   5.809
 9375WAT     H138206   2.852   5.730   5.829
 9375WAT     H238207   2.732   5.719   5.763
 9375WAT    EPW38208   2.790   5.688   5.805
 9376WAT      O38209   2.794   6.508   5.576
 9376WAT     H138210   2.780   6.430   5.612
 9376WAT     H238211   2.834   6.489   5.501
 9376WAT    EPW38212   2.798   6.494   5.570
 9377WAT      O38213   1.561   6.291   5.224
 9377WAT     H138214   1.555   6.270   5.309
 9377WAT     H238215   1.561   6.214   5.184
 9377WAT    EPW38216   1.560   6.276   5.231
 9378WAT      O38217   1.846   6.108   5.014
 9378WAT     H138218   1.763   6.083   5.026
 9378WAT     H238219   1.849   6.186   5.054
 9378WAT    EPW38220   1.834   6.116   5.022
 9379WAT      O38221   1.820   5.210   6.227
 9379WAT     H138222   1.740   5.187   6.255
 9379WAT     H238223   1.872   5.150   6.263
 9379WAT    EPW38224   1.816   5.198   6.237
 9380WAT      O38225   3.022   5.013   6.231
 9380WAT     H138226   3.013   5.055   6.307
 9380WAT     H238227   3.100   4.974   6.239
 9380WAT    EPW38228   3.032   5.013   6.244
 9381WAT      O38229   2.231   5.202   6.033
 9381WAT     H138230   2.170   5.140   6.045
 9381WAT     H238231   2.305   5.163   6.055
 9381WAT    EPW38232   2.233   5.187   6.038
 9382WAT      O38233   2.520   6.321   6.219
 9382WAT     H138234   2.537   6.391   6.267
 9382WAT     H238235   2.507   6.353   6.139
 9382WAT    EPW38236   2.521   6.336   6.214
 9383WAT      O38237   2.488   6.704   6.649
 9383WAT     H138238   2.419   6.660   6.618
 9383WAT     H238239   2.456   6.784   6.663
 9383WAT    EPW38240   2.473   6.709   6.646
 9384WAT      O38241   1.974   5.664   6.610
 9384WAT     H138242   1.937   5.594   6.574
 9384WAT     H238243   1.937   5.731   6.567
 9384WAT    EPW38244   1.963   5.664   6.599
 9385WAT      O38245   2.138   4.982   5.192
 9385WAT     H138246   2.150   4.982   5.105
 9385WAT     H238247   2.052   4.993   5.200
 9385WAT    EPW38248   2.127   4.984   5.180
 9386WAT      O38249   2.974   6.177   6.227
 9386WAT     H138250   2.941   6.110   6.180
 9386WAT     H238251   2.929   6.246   6.199
 9386WAT    EPW38252   2.962   6.177   6.216
 9387WAT      O38253   1.855   6.624   6.628
 9387WAT     H138254   1.837   6.644   6.711
 9387WAT     H238255   1.916   6.562   6.635
 9387WAT    EPW38256   1.861   6.618   6.642
 9388WAT      O38257   2.865   6.418   6.141
 9388WAT     H138258   2.934   6.429   6.089
 9388WAT     H238259   2.806   6.382   6.088
 9388WAT    EPW38260   2.866   6.414   6.125
 9389WAT      O38261   1.564   5.156   6.331
 9389WAT     H138262   1.511   5.089   6.315
 9389WAT     H238263   1.511   5.225   6.329
 9389WAT    EPW38264   1.548   5.156   6.329
 9390WAT      O38265   2.502   5.110   5.967
 9390WAT     H138266   2.569   5.165   5.957
 9390WAT     H238267   2.453   5.124   5.896
 9390WAT    EPW38268   2.504   5.121   5.955
 9391WAT      O38269   1.572   6.532   6.753
 9391WAT     H138270   1.639   6.568   6.797
 9391WAT     H238271   1.532   6.601   6.718
 9391WAT    EPW38272   1.576   6.547   6.755
 9392WAT      O38273   2.425   5.616   5.747
 9392WAT     H138274   2.462   5.537   5.749
 9392WAT     H238275   2.396   5.627   5.828
 9392WAT    EPW38276   2.426   5.606   5.759
 9393WAT      O38277   1.414   5.499   5.695
 9393WAT     H138278   1.374   5.528   5.767
 9393WAT     H238279   1.455   5.427   5.722
 9393WAT    EPW38280   1.414   5.493   5.710
 9394WAT      O38281   1.414   6.304   6.483
 9394WAT     H138282   1.364   6.367   6.519
 9394WAT     H238283   1.495   6.334   6.494
 9394WAT    EPW38284   1.418   6.318   6.490
 9395WAT      O38285   2.641   5.733   5.379
 9395WAT     H138286   2.657   5.648   5.390
 9395WAT     H238287   2.563   5.735   5.340
 9395WAT    EPW38288   2.632   5.721   5.374
 9396WAT      O38289   1.584   6.618   5.351
 9396WAT     H138290   1.557   6.611   5.269
 9396WAT     H238291   1.668   6.595   5.347
 9396WAT    EPW38292   1.592   6.614   5.339
 9397WAT      O38293   1.987   5.837   5.336
 9397WAT     H138294   2.003   5.859   5.253
 9397WAT     H238295   2.066   5.834   5.372
 9397WAT    EPW38296   2.001   5.840   5.329
 9398WAT      O38297   2.896   6.692   5.025
 9398WAT     H138298   2.968   6.679   5.072
 9398WAT     H238299   2.876   6.612   4.996
 9398WAT    EPW38300   2.904   6.678   5.028
 9399WAT      O38301   2.894   5.928   6.712
 9399WAT     H138302   2.964   5.891   6.748
 9399WAT     H238303   2.927   5.974   6.646
 9399WAT    EPW38304   2.909   5.930   6.708
 9400WAT      O38305   2.530   6.334   5.300
 9400WAT     H138306   2.484   6.335   5.374
 9400WAT     H238307   2.484   6.281   5.249
 9400WAT    EPW38308   2.516   6.326   5.303
 9401WAT      O38309   2.952   5.355   6.832
 9401WAT     H138310   2.946   5.436   6.864
 9401WAT     H238311   2.879   5.347   6.784
 9401WAT    EPW38312   2.940   5.366   6.829
 9402WAT      O38313   2.991   5.448   6.131
 9402WAT     H138314   2.907   5.468   6.115
 9402WAT     H238315   2.998   5.367   6.100
 9402WAT    EPW38316   2.980   5.439   6.124
 9403WAT      O38317   1.902   5.173   6.592
 9403WAT     H138318   1.935   5.137   6.520
 9403WAT     H238319   1.820   5.142   6.595
 9403WAT    EPW38320   1.895   5.163   6.582
 9404WAT      O38321   2.663   5.995   6.913
 9404WAT     H138322   2.740   6.023   6.945
 9404WAT     H238323   2.668   6.014   6.828
 9404WAT    EPW38324   2.675   6.002   6.905
 9405WAT      O38325   1.660   6.523   5.984
 9405WAT     H138326   1.639   6.445   5.951
 9405WAT     H238327   1.626   6.580   5.927
 9405WAT    EPW38328   1.652   6.520   5.971
 9406WAT      O38329   2.186   6.184   5.191
 9406WAT     H138330   2.265   6.158   5.164
 9406WAT     H238331   2.171   6.256   5.144
 9406WAT    EPW38332   2.195   6.191   5.180
 9407WAT      O38333   1.405   6.762   6.333
 9407WAT     H138334   1.408   6.745   6.419
 9407WAT     H238335   1.443   6.692   6.297
 9407WAT    EPW38336   1.411   6.749   6.340
 9408WAT      O38337   2.397   4.925   3.666
 9408WAT     H138338   2.375   4.972   3.596
 9408WAT     H238339   2.484   4.922   3.663
 9408WAT    EPW38340   2.407   4.931   3.655
 9409WAT      O38341   2.307   5.617   4.099
 9409WAT     H138342   2.279   5.696   4.125
 9409WAT     H238343   2.366   5.596   4.161
 9409WAT    EPW38344   2.312   5.625   4.112
 9410WAT      O38345   1.264   6.113   3.600
 9410WAT     H138346   1.203   6.104   3.662
 9410WAT     H238347   1.275   6.031   3.572
 9410WAT    EPW38348   1.256   6.099   3.605
 9411WAT      O38349   2.885   6.494   3.392
 9411WAT     H138350   2.943   6.443   3.431
 9411WAT     H238351   2.838   6.439   3.343
 9411WAT    EPW38352   2.887   6.479   3.391
 9412WAT      O38353   1.282   5.464   3.286
 9412WAT     H138354   1.216   5.511   3.253
 9412WAT     H238355   1.253   5.382   3.281
 9412WAT    EPW38356   1.268   5.459   3.281
 9413WAT      O38357   1.557   6.050   3.203
 9413WAT     H138358   1.533   6.004   3.133
 9413WAT     H238359   1.568   5.990   3.265
 9413WAT    EPW38360   1.555   6.034   3.202
 9414WAT      O38361   2.580   5.799   3.758
 9414WAT     H138362   2.589   5.788   3.672
 9414WAT     H238363   2.526   5.735   3.782
 9414WAT    EPW38364   2.573   5.788   3.748
 9415WAT      O38365   1.517   6.227   3.586
 9415WAT     H138366   1.568   6.192   3.648
 9415WAT     H238367   1.440   6.187   3.597
 9415WAT    EPW38368   1.513   6.216   3.597
 9416WAT      O38369   2.042   5.134   3.556
 9416WAT     H138370   2.028   5.199   3.499
 9416WAT     H238371   2.113   5.095   3.525
 9416WAT    EPW38372   2.050   5.138   3.543
 9417WAT      O38373   1.396   6.490   3.174
 9417WAT     H138374   1.451   6.503   3.108
 9417WAT     H238375   1.439   6.435   3.227
 9417WAT    EPW38376   1.410   6.484   3.172
 9418WAT      O38377   1.328   6.322   4.324
 9418WAT     H138378   1.352   6.301   4.405
 9418WAT     H238379   1.262   6.269   4.307
 9418WAT    EPW38380   1.322   6.311   4.334
 9419WAT      O38381   1.967   6.155   4.761
 9419WAT     H138382   1.939   6.134   4.841
 9419WAT     H238383   1.899   6.136   4.710
 9419WAT    EPW38384   1.953   6.149   4.765
 9420WAT      O38385   1.469   5.890   3.775
 9420WAT     H138386   1.421   5.887   3.702
 9420WAT     H238387   1.525   5.823   3.765
 9420WAT    EPW38388   1.470   5.880   3.762
 9421WAT      O38389   1.909   5.404   4.305
 9421WAT     H138390   1.981   5.401   4.256
 9421WAT     H238391   1.872   5.326   4.293
 9421WAT    EPW38392   1.914   5.392   4.296
 9422WAT      O38393   1.930   6.406   4.509
 9422WAT     H138394   1.912   6.485   4.478
 9422WAT     H238395   2.014   6.411   4.531
 9422WAT    EPW38396   1.940   6.418   4.507
 9423WAT      O38397   1.632   5.669   3.759
 9423WAT     H138398   1.699   5.619   3.783
 9423WAT     H238399   1.564   5.615   3.760
 9423WAT    EPW38400   1.632   5.654   3.763
 9424WAT      O38401   2.091   6.289   3.911
 9424WAT     H138402   2.113   6.208   3.933
 9424WAT     H238403   2.168   6.330   3.906
 9424WAT    EPW38404   2.106   6.283   3.914
 9425WAT      O38405   2.161   6.204   3.508
 9425WAT     H138406   2.188   6.144   3.566
 9425WAT     H238407   2.192   6.175   3.432
 9425WAT    EPW38408   2.170   6.191   3.505
 9426WAT      O38409   2.253   5.641   4.820
 9426WAT     H138410   2.186   5.661   4.767
 9426WAT     H238411   2.260   5.710   4.872
 9426WAT    EPW38412   2.244   5.654   4.819
 9427WAT      O38413   1.765   5.152   3.640
 9427WAT     H138414   1.727   5.203   3.580
 9427WAT     H238415   1.849   5.151   3.617
 9427WAT    EPW38416   1.772   5.159   3.628
 9428WAT      O38417   2.667   4.914   4.545
 9428WAT     H138418   2.687   4.998   4.553
 9428WAT     H238419   2.629   4.894   4.621
 9428WAT    EPW38420   2.664   4.923   4.557
 9429WAT      O38421   2.100   5.139   3.832
 9429WAT     H138422   2.080   5.223   3.846
 9429WAT     H238423   2.079   5.128   3.748
 9429WAT    EPW38424   2.094   5.150   3.821
 9430WAT      O38425   2.452   5.278   3.085
 9430WAT     H138426   2.419   5.351   3.119
 9430WAT     H238427   2.467   5.228   3.155
 9430WAT    EPW38428   2.449   5.281   3.100
 9431WAT      O38429   1.325   5.598   4.039
 9431WAT     H138430   1.325   5.684   4.050
 9431WAT     H238431   1.256   5.571   4.086
 9431WAT    EPW38432   1.314   5.607   4.047
 9432WAT      O38433   1.309   6.555   3.853
 9432WAT     H138434   1.243   6.604   3.824
 9432WAT     H238435   1.345   6.523   3.780
 9432WAT    EPW38436   1.305   6.557   3.838
 9433WAT      O38437   1.889   6.241   3.486
 9433WAT     H138438   1.873   6.283   3.561
 9433WAT     H238439   1.975   6.226   3.490
 9433WAT    EPW38440   1.900   6.245   3.498
 9434WAT      O38441   2.535   6.596   3.402
 9434WAT     H138442   2.584   6.661   3.372
 9434WAT     H238443   2.579   6.566   3.471
 9434WAT    EPW38444   2.549   6.601   3.408
 9435WAT      O38445   2.305   6.683   3.530
 9435WAT     H138446   2.322   6.765   3.553
 9435WAT     H238447   2.377   6.658   3.488
 9435WAT    EPW38448   2.318   6.691   3.527
 9436WAT      O38449   1.572   5.136   4.054
 9436WAT     H138450   1.574   5.054   4.026
 9436WAT     H238451   1.633   5.138   4.116
 9436WAT    EPW38452   1.582   5.124   4.059
 9437WAT      O38453   1.951   5.286   5.045
 9437WAT     H138454   1.959   5.247   4.967
 9437WAT     H238455   1.990   5.363   5.033
 9437WAT    EPW38456   1.958   5.291   5.032
 9438WAT      O38457   1.423   6.485   3.603
 9438WAT     H138458   1.467   6.410   3.611
 9438WAT     H238459   1.480   6.537   3.563
 9438WAT    EPW38460   1.438   6.482   3.599
 9439WAT      O38461   2.963   5.336   3.622
 9439WAT     H138462   2.904   5.356   3.683
 9439WAT     H238463   2.952   5.250   3.611
 9439WAT    EPW38464   2.952   5.326   3.629
 9440WAT      O38465   2.519   6.604   4.327
 9440WAT     H138466   2.584   6.663   4.323
 9440WAT     H238467   2.512   6.576   4.245
 9440WAT    EPW38468   2.528   6.609   4.314
 9441WAT      O38469   1.512   5.203   4.942
 9441WAT     H138470   1.433   5.172   4.924
 9441WAT     H238471   1.561   5.178   4.874
 9441WAT    EPW38472   1.507   5.195   4.930
 9442WAT      O38473   1.590   6.278   3.996
 9442WAT     H138474   1.618   6.234   3.926
 9442WAT     H238475   1.621   6.232   4.063
 9442WAT    EPW38476   1.598   6.265   3.995
 9443WAT      O38477   1.879   6.611   3.874
 9443WAT     H138478   1.957   6.635   3.844
 9443WAT     H238479   1.823   6.663   3.831
 9443WAT    EPW38480   1.882   6.622   3.863
 9444WAT      O38481   2.176   4.967   4.916
 9444WAT     H138482   2.194   4.900   4.863
 9444WAT     H238483   2.118   5.013   4.871
 9444WAT    EPW38484   2.170   4.964   4.902
 9445WAT      O38485   2.212   5.565   3.689
 9445WAT     H138486   2.232   5.512   3.623
 9445WAT     H238487   2.284   5.567   3.737
 9445WAT    EPW38488   2.225   5.558   3.687
 9446WAT      O38489   2.334   5.503   3.208
 9446WAT     H138490   2.353   5.584   3.233
 9446WAT     H238491   2.256   5.512   3.168
 9446WAT    EPW38492   2.325   5.516   3.206
 9447WAT      O38493   2.699   6.796   3.304
 9447WAT     H138494   2.741   6.767   3.233
 9447WAT     H238495   2.761   6.840   3.348
 9447WAT    EPW38496   2.714   6.798   3.300
 9448WAT      O38497   1.775   6.642   4.460
 9448WAT     H138498   1.783   6.651   4.547
 9448WAT     H238499   1.698   6.601   4.451
 9448WAT    EPW38500   1.765   6.637   4.472
 9449WAT      O38501   1.234   5.330   4.660
 9449WAT     H138502   1.226   5.407   4.698
 9449WAT     H238503   1.298   5.343   4.601
 9449WAT    EPW38504   1.242   5.343   4.657
 9450WAT      O38505   2.414   6.394   4.734
 9450WAT     H138506   2.408   6.422   4.816
 9450WAT     H238507   2.500   6.388   4.721
 9450WAT    EPW38508   2.426   6.397   4.744
 9451WAT      O38509   2.166   6.405   3.161
 9451WAT     H138510   2.132   6.461   3.219
 9451WAT     H238511   2.249   6.431   3.154
 9451WAT    EPW38512   2.173   6.417   3.168
 9452WAT      O38513   2.520   5.123   3.306
 9452WAT     H138514   2.603   5.098   3.294
 9452WAT     H238515   2.525   5.179   3.373
 9452WAT    EPW38516   2.533   5.128   3.314
 9453WAT      O38517   1.369   5.233   3.552
 9453WAT     H138518   1.347   5.150   3.537
 9453WAT     H238519   1.321   5.254   3.622
 9453WAT    EPW38520   1.358   5.224   3.560
 9454WAT      O38521   1.522   6.537   4.350
 9454WAT     H138522   1.465   6.470   4.347
 9454WAT     H238523   1.558   6.536   4.271
 9454WAT    EPW38524   1.519   6.527   4.338
 9455WAT      O38525   2.268   5.414   3.461
 9455WAT     H138526   2.192   5.376   3.444
 9455WAT     H238527   2.294   5.444   3.383
 9455WAT    EPW38528   2.261   5.413   3.447
 9456WAT      O38529   2.276   6.650   4.443
 9456WAT     H138530   2.354   6.641   4.404
 9456WAT     H238531   2.220   6.652   4.377
 9456WAT    EPW38532   2.279   6.649   4.428
 9457WAT      O38533   2.280   5.032   3.427
 9457WAT     H138534   2.224   5.007   3.365
 9457WAT     H238535   2.350   5.058   3.383
 9457WAT    EPW38536   2.282   5.032   3.412
 9458WAT      O38537   2.977   6.668   3.676
 9458WAT     H138538   2.945   6.747   3.696
 9458WAT     H238539   2.905   6.618   3.672
 9458WAT    EPW38540   2.961   6.672   3.678
 9459WAT      O38541   2.052   5.408   3.863
 9459WAT     H138542   2.101   5.464   3.816
 9459WAT     H238543   2.082   5.419   3.944
 9459WAT    EPW38544   2.064   5.418   3.868
 9460WAT      O38545   2.673   6.261   3.658
 9460WAT     H138546   2.747   6.216   3.649
 9460WAT     H238547   2.623   6.209   3.708
 9460WAT    EPW38548   2.676   6.247   3.664
 9461WAT      O38549   1.676   6.374   4.641
 9461WAT     H138550   1.755   6.400   4.613
 9461WAT     H238551   1.664   6.421   4.714
 9461WAT    EPW38552   1.686   6.385   4.648
 9462WAT      O38553   1.724   4.883   3.695
 9462WAT     H138554   1.734   4.968   3.679
 9462WAT     H238555   1.697   4.851   3.618
 9462WAT    EPW38556   1.722   4.891   3.681
 9463WAT      O38557   1.880   5.968   4.035
 9463WAT     H138558   1.907   5.945   4.114
 9463WAT     H238559   1.817   5.910   4.017
 9463WAT    EPW38560   1.875   5.956   4.044
 9464WAT      O38561   2.488   5.314   4.463
 9464WAT     H138562   2.459   5.362   4.529
 9464WAT     H238563   2.437   5.243   4.466
 9464WAT    EPW38564   2.476   5.310   4.473
 9465WAT      O38565   1.985   5.955   4.289
 9465WAT     H138566   1.981   6.042   4.299
 9465WAT     H238567   1.955   5.924   4.364
 9465WAT    EPW38568   1.980   5.963   4.301
 9466WAT      O38569   2.564   6.052   4.284
 9466WAT     H138570   2.499   6.017   4.331
 9466WAT     H238571   2.560   6.137   4.303
 9466WAT    EPW38572   2.554   6.059   4.294
 9467WAT      O38573   2.680   4.902   3.689
 9467WAT     H138574   2.690   4.904   3.775
 9467WAT     H238575   2.711   4.823   3.667
 9467WAT    EPW38576   2.686   4.890   3.698
 9468WAT      O38577   1.224   6.374   4.952
 9468WAT     H138578   1.282   6.419   4.998
 9468WAT     H238579   1.232   6.293   4.983
 9468WAT    EPW38580   1.234   6.368   4.963
 9469WAT      O38581   2.917   5.358   4.685
 9469WAT     H138582   2.967   5.296   4.721
 9469WAT     H238583   2.847   5.361   4.736
 9469WAT    EPW38584   2.914   5.349   4.698
 9470WAT      O38585   1.616   5.295   3.835
 9470WAT     H138586   1.657   5.243   3.778
 9470WAT     H238587   1.604   5.244   3.905
 9470WAT    EPW38588   1.620   5.280   3.837
 9471WAT      O38589   2.899   6.075   3.286
 9471WAT     H138590   2.894   6.010   3.344
 9471WAT     H238591   2.985   6.090   3.280
 9471WAT    EPW38592   2.911   6.068   3.294
 9472WAT      O38593   1.652   6.098   3.787
 9472WAT     H138594   1.713   6.061   3.737
 9472WAT     H238595   1.592   6.036   3.796
 9472WAT    EPW38596   1.652   6.083   3.781
 9473WAT      O38597   1.512   6.718   3.939
 9473WAT     H138598   1.442   6.674   3.911
 9473WAT     H238599   1.560   6.727   3.867
 9473WAT    EPW38600   1.509   6.713   3.924
 9474WAT      O38601   1.495   5.465   4.223
 9474WAT     H138602   1.574   5.489   4.195
 9474WAT     H238603   1.441   5.495   4.161
 9474WAT    EPW38604   1.498   5.473   4.210
 9475WAT      O38605   3.110   6.482   4.689
 9475WAT     H138606   3.032   6.494   4.651
 9475WAT     H238607   3.092   6.435   4.760
 9475WAT    EPW38608   3.096   6.477   4.694
 9476WAT      O38609   2.702   5.758   3.190
 9476WAT     H138610   2.698   5.842   3.164
 9476WAT     H238611   2.676   5.761   3.273
 9476WAT    EPW38612   2.698   5.771   3.199
 9477WAT      O38613   1.786   5.992   3.559
 9477WAT     H138614   1.812   6.070   3.529
 9477WAT     H238615   1.849   5.939   3.533
 9477WAT    EPW38616   1.799   5.996   3.550
 9478WAT      O38617   3.155   5.231   3.173
 9478WAT     H138618   3.162   5.150   3.203
 9478WAT     H238619   3.071   5.240   3.155
 9478WAT    EPW38620   3.144   5.220   3.175
 9479WAT      O38621   1.328   6.173   4.003
 9479WAT     H138622   1.273   6.238   4.022
 9479WAT     H238623   1.406   6.212   4.000
 9479WAT    EPW38624   1.332   6.188   4.006
 9480WAT      O38625   2.088   5.527   5.017
 9480WAT     H138626   2.017   5.577   5.020
 9480WAT     H238627   2.127   5.550   4.943
 9480WAT    EPW38628   2.084   5.538   5.007
 9481WAT      O38629   3.194   5.586   4.396
 9481WAT     H138630   3.263   5.537   4.376
 9481WAT     H238631   3.126   5.541   4.366
 9481WAT    EPW38632   3.194   5.572   4.389
 9482WAT      O38633   1.347   5.859   3.528
 9482WAT     H138634   1.329   5.773   3.533
 9482WAT     H238635   1.421   5.861   3.482
 9482WAT    EPW38636   1.355   5.846   3.522
 9483WAT      O38637   2.805   5.090   3.284
 9483WAT     H138638   2.824   5.049   3.210
 9483WAT     H238639   2.828   5.173   3.269
 9483WAT    EPW38640   2.811   5.096   3.271
 9484WAT      O38641   2.309   6.457   3.869
 9484WAT     H138642   2.261   6.529   3.857
 9484WAT     H238643   2.331   6.433   3.787
 9484WAT    EPW38644   2.305   6.464   3.855
 9485WAT      O38645   1.249   6.336   3.443
 9485WAT     H138646   1.302   6.390   3.486
 9485WAT     H238647   1.241   6.267   3.496
 9485WAT    EPW38648   1.255   6.334   3.457
 9486WAT      O38649   1.705   6.119   4.189
 9486WAT     H138650   1.764   6.159   4.239
 9486WAT     H238651   1.754   6.075   4.131
 9486WAT    EPW38652   1.721   6.119   4.188
 9487WAT      O38653   2.541   5.324   3.903
 9487WAT     H138654   2.585   5.295   3.973
 9487WAT     H238655   2.487   5.258   3.883
 9487WAT    EPW38656   2.539   5.310   3.910
 9488WAT      O38657   1.267   6.151   3.227
 9488WAT     H138658   1.344   6.110   3.226
 9488WAT     H238659   1.277   6.212   3.288
 9488WAT    EPW38660   1.280   6.154   3.236
 9489WAT      O38661   1.345   5.899   4.024
 9489WAT     H138662   1.387   5.887   3.948
 9489WAT     H238663   1.335   5.986   4.028
 9489WAT    EPW38664   1.350   5.910   4.013
 9490WAT      O38665   2.015   5.333   3.366
 9490WAT     H138666   2.000   5.304   3.286
 9490WAT     H238667   1.974   5.410   3.368
 9490WAT    EPW38668   2.006   5.340   3.355
 9491WAT      O38669   2.858   6.542   4.556
 9491WAT     H138670   2.813   6.613   4.579
 9491WAT     H238671   2.859   6.546   4.469
 9491WAT    EPW38672   2.852   6.553   4.546
 9492WAT      O38673   1.904   6.379   3.726
 9492WAT     H138674   1.876   6.445   3.776
 9492WAT     H238675   1.961   6.338   3.776
 9492WAT    EPW38676   1.908   6.383   3.741
 9493WAT      O38677   1.628   5.659   4.849
 9493WAT     H138678   1.583   5.598   4.893
 9493WAT     H238679   1.632   5.627   4.768
 9493WAT    EPW38680   1.622   5.645   4.844
 9494WAT      O38681   1.618   5.578   3.370
 9494WAT     H138682   1.611   5.506   3.418
 9494WAT     H238683   1.585   5.555   3.292
 9494WAT    EPW38684   1.612   5.564   3.365
 9495WAT      O38685   1.671   5.793   4.009
 9495WAT     H138686   1.657   5.755   3.932
 9495WAT     H238687   1.689   5.726   4.062
 9495WAT    EPW38688   1.672   5.777   4.006
 9496WAT      O38689   1.671   5.735   4.378
 9496WAT     H138690   1.695   5.686   4.311
 9496WAT     H238691   1.615   5.792   4.343
 9496WAT    EPW38692   1.666   5.736   4.363
 9497WAT      O38693   2.734   5.510   4.164
 9497WAT     H138694   2.658   5.530   4.204
 9497WAT     H238695   2.735   5.562   4.095
 9497WAT    EPW38696   2.723   5.521   4.160
 9498WAT      O38697   2.069   6.649   4.263
 9498WAT     H138698   2.038   6.579   4.221
 9498WAT     H238699   2.058   6.713   4.204
 9498WAT    EPW38700   2.063   6.648   4.248
 9499WAT      O38701   2.339   5.082   4.512
 9499WAT     H138702   2.318   4.999   4.498
 9499WAT     H238703   2.322   5.094   4.597
 9499WAT    EPW38704   2.334   5.072   4.522
 9500WAT      O38705   2.518   5.297   3.515
 9500WAT     H138706   2.573   5.364   3.508
 9500WAT     H238707   2.440   5.334   3.510
 9500WAT    EPW38708   2.515   5.312   3.513
 9501WAT      O38709   1.483   5.892   4.885
 9501WAT     H138710   1.480   5.934   4.808
 9501WAT     H238711   1.533   5.822   4.868
 9501WAT    EPW38712   1.490   5.888   4.871
 9502WAT      O38713   2.644   6.099   4.759
 9502WAT     H138714   2.661   6.183   4.742
 9502WAT     H238715   2.677   6.057   4.690
 9502WAT    EPW38716   2.651   6.105   4.746
 9503WAT      O38717   2.043   6.426   4.803
 9503WAT     H138718   2.071   6.422   4.886
 9503WAT     H238719   2.022   6.343   4.785
 9503WAT    EPW38720   2.044   6.413   4.812
 9504WAT      O38721   2.128   5.405   4.129
 9504WAT     H138722   2.188   5.468   4.132
 9504WAT     H238723   2.172   5.333   4.153
 9504WAT    EPW38724   2.143   5.404   4.133
 9505WAT      O38725   2.385   5.755   3.317
 9505WAT     H138726   2.353   5.799   3.249
 9505WAT     H238727   2.327   5.770   3.381
 9505WAT    EPW38728   2.372   5.764   3.317
 9506WAT      O38729   2.906   6.124   3.616
 9506WAT     H138730   2.929   6.117   3.699
 9506WAT     H238731   2.910   6.043   3.586
 9506WAT    EPW38732   2.910   6.111   3.624
 9507WAT      O38733   2.500   6.465   4.074
 9507WAT     H138734   2.436   6.455   4.015
 9507WAT     H238735   2.545   6.533   4.044
 9507WAT    EPW38736   2.497   6.474   4.061
 9508WAT      O38737   2.445   6.135   4.045
 9508WAT     H138738   2.370   6.161   4.080
 9508WAT     H238739   2.488   6.098   4.112
 9508WAT    EPW38740   2.441   6.133   4.060
 9509WAT      O38741   1.893   6.569   3.516
 9509WAT     H138742   1.916   6.510   3.577
 9509WAT     H238743   1.962   6.573   3.464
 9509WAT    EPW38744   1.907   6.561   3.517
 9510WAT      O38745   1.800   4.925   3.259
 9510WAT     H138746   1.754   4.890   3.325
 9510WAT     H238747   1.764   5.004   3.249
 9510WAT    EPW38748   1.788   4.931   3.267
 9511WAT      O38749   2.109   6.607   3.346
 9511WAT     H138750   2.171   6.638   3.399
 9511WAT     H238751   2.087   6.675   3.297
 9511WAT    EPW38752   2.115   6.621   3.346
 9512WAT      O38753   2.765   5.960   4.547
 9512WAT     H138754   2.744   5.937   4.466
 9512WAT     H238755   2.846   5.993   4.539
 9512WAT    EPW38756   2.774   5.961   4.534
 9513WAT      O38757   2.407   6.536   4.982
 9513WAT     H138758   2.439   6.559   5.060
 9513WAT     H238759   2.430   6.602   4.930
 9513WAT    EPW38760   2.415   6.549   4.986
 9514WAT      O38761   1.592   5.861   3.402
 9514WAT     H138762   1.606   5.775   3.402
 9514WAT     H238763   1.650   5.891   3.460
 9514WAT    EPW38764   1.603   5.853   3.411
 9515WAT      O38765   2.360   5.936   4.428
 9515WAT     H138766   2.311   5.975   4.489
 9515WAT     H238767   2.394   5.867   4.470
 9515WAT    EPW38768   2.358   5.931   4.443
 9516WAT      O38769   1.271   4.970   3.514
 9516WAT     H138770   1.261   4.915   3.446
 9516WAT     H238771   1.240   4.924   3.582
 9516WAT    EPW38772   1.265   4.955   3.514
 9517WAT      O38773   2.222   5.797   3.537
 9517WAT     H138774   2.236   5.864   3.592
 9517WAT     H238775   2.214   5.728   3.590
 9517WAT    EPW38776   2.223   5.797   3.553
 9518WAT      O38777   2.729   6.289   4.115
 9518WAT     H138778   2.774   6.251   4.051
 9518WAT     H238779   2.652   6.307   4.078
 9518WAT    EPW38780   2.724   6.286   4.100
 9519WAT      O38781   1.701   5.187   3.222
 9519WAT     H138782   1.638   5.196   3.163
 9519WAT     H238783   1.768   5.230   3.187
 9519WAT    EPW38784   1.702   5.195   3.208
 9520WAT      O38785   2.140   6.014   3.948
 9520WAT     H138786   2.056   5.995   3.964
 9520WAT     H238787   2.183   5.980   4.016
 9520WAT    EPW38788   2.134   6.006   3.960
 9521WAT      O38789   1.777   6.628   3.118
 9521WAT     H138790   1.796   6.555   3.161
 9521WAT     H238791   1.774   6.688   3.181
 9521WAT    EPW38792   1.779   6.626   3.134
 9522WAT      O38793   1.508   5.926   4.257
 9522WAT     H138794   1.563   5.992   4.241
 9522WAT     H238795   1.473   5.909   4.179
 9522WAT    EPW38796   1.511   5.934   4.243
 9523WAT      O38797   1.794   5.494   3.897
 9523WAT     H138798   1.875   5.465   3.881
 9523WAT     H238799   1.744   5.425   3.879
 9523WAT    EPW38800   1.799   5.479   3.892
 9524WAT      O38801   3.070   6.647   3.257
 9524WAT     H138802   3.131   6.591   3.231
 9524WAT     H238803   3.013   6.597   3.300
 9524WAT    EPW38804   3.070   6.632   3.259
 9525WAT      O38805   1.307   5.583   3.548
 9525WAT     H138806   1.337   5.543   3.620
 9525WAT     H238807   1.320   5.525   3.485
 9525WAT    EPW38808   1.313   5.569   3.550
 9526WAT      O38809   2.755   5.850   4.284
 9526WAT     H138810   2.811   5.852   4.218
 9526WAT     H238811   2.697   5.912   4.264
 9526WAT    EPW38812   2.755   5.859   4.272
 9527WAT      O38813   1.897   5.708   3.098
 9527WAT     H138814   1.880   5.665   3.172
 9527WAT     H238815   1.824   5.698   3.052
 9527WAT    EPW38816   1.883   5.700   3.102
 9528WAT      O38817   1.467   6.026   4.645
 9528WAT     H138818   1.422   5.979   4.587
 9528WAT     H238819   1.438   6.107   4.632
 9528WAT    EPW38820   1.456   6.031   4.634
 9529WAT      O38821   2.939   5.835   4.072
 9529WAT     H138822   2.949   5.912   4.032
 9529WAT     H238823   3.021   5.807   4.084
 9529WAT    EPW38824   2.952   5.842   4.068
 9530WAT      O38825   1.890   5.583   3.345
 9530WAT     H138826   1.914   5.656   3.386
 9530WAT     H238827   1.804   5.578   3.360
 9530WAT    EPW38828   1.881   5.593   3.353
 9531WAT      O38829   2.659   5.345   4.790
 9531WAT     H138830   2.612   5.338   4.862
 9531WAT     H238831   2.637   5.275   4.744
 9531WAT    EPW38832   2.649   5.334   4.794
 9532WAT      O38833   1.306   5.247   4.035
 9532WAT     H138834   1.287   5.245   3.949
 9532WAT     H238835   1.387   5.213   4.038
 9532WAT    EPW38836   1.315   5.242   4.023
 9533WAT      O38837   3.075   6.448   4.060
 9533WAT     H138838   3.114   6.489   3.993
 9533WAT     H238839   3.055   6.370   4.027
 9533WAT    EPW38840   3.078   6.443   4.045
 9534WAT      O38841   2.611   5.689   4.853
 9534WAT     H138842   2.633   5.695   4.937
 9534WAT     H238843   2.527   5.713   4.852
 9534WAT    EPW38844   2.602   5.693   4.865
 9535WAT      O38845   2.733   6.301   3.266
 9535WAT     H138846   2.783   6.231   3.279
 9535WAT     H238847   2.673   6.296   3.329
 9535WAT    EPW38848   2.731   6.290   3.277
 9536WAT      O38849   2.754   5.446   3.772
 9536WAT     H138850   2.690   5.399   3.808
 9536WAT     H238851   2.763   5.513   3.827
 9536WAT    EPW38852   2.746   5.449   3.785
 9537WAT      O38853   3.134   5.761   4.868
 9537WAT     H138854   3.130   5.701   4.805
 9537WAT     H238855   3.218   5.782   4.872
 9537WAT    EPW38856   3.146   5.755   4.859
 9538WAT      O38857   3.028   6.043   4.515
 9538WAT     H138858   3.089   5.988   4.487
 9538WAT     H238859   3.009   6.090   4.444
 9538WAT    EPW38860   3.034   6.042   4.500
 9539WAT      O38861   1.949   6.237   4.292
 9539WAT     H138862   1.940   6.282   4.366
 9539WAT     H238863   1.944   6.298   4.230
 9539WAT    EPW38864   1.947   6.252   4.293
 9540WAT      O38865   1.733   6.102   4.611
 9540WAT     H138866   1.654   6.067   4.622
 9540WAT     H238867   1.718   6.188   4.613
 9540WAT    EPW38868   1.719   6.109   4.613
 9541WAT      O38869   2.727   5.192   4.541
 9541WAT     H138870   2.782   5.254   4.567
 9541WAT     H238871   2.659   5.237   4.509
 9541WAT    EPW38872   2.725   5.208   4.540
 9542WAT      O38873   2.228   5.872   4.186
 9542WAT     H138874   2.280   5.895   4.252
 9542WAT     H238875   2.148   5.887   4.217
 9542WAT    EPW38876   2.224   5.877   4.201
 9543WAT      O38877   1.898   5.458   4.578
 9543WAT     H138878   1.923   5.386   4.620
 9543WAT     H238879   1.910   5.440   4.494
 9543WAT    EPW38880   1.904   5.445   4.572
 9544WAT      O38881   2.148   6.674   3.778
 9544WAT     H138882   2.129   6.757   3.798
 9544WAT     H238883   2.189   6.680   3.702
 9544WAT    EPW38884   2.151   6.687   3.770
 9545WAT      O38885   2.878   5.149   4.309
 9545WAT     H138886   2.832   5.149   4.383
 9545WAT     H238887   2.914   5.070   4.307
 9545WAT    EPW38888   2.877   5.137   4.320
 9546WAT      O38889   2.015   5.088   4.388
 9546WAT     H138890   2.094   5.115   4.363
 9546WAT     H238891   2.015   5.103   4.474
 9546WAT    EPW38892   2.027   5.094   4.397
 9547WAT      O38893   1.959   6.442   4.103
 9547WAT     H138894   1.906   6.490   4.054
 9547WAT     H238895   2.004   6.396   4.045
 9547WAT    EPW38896   1.958   6.442   4.088
 9548WAT      O38897   2.376   6.064   4.834
 9548WAT     H138898   2.457   6.074   4.802
 9548WAT     H238899   2.325   6.084   4.767
 9548WAT    EPW38900   2.381   6.068   4.819
 9549WAT      O38901   2.696   6.372   4.716
 9549WAT     H138902   2.735   6.394   4.791
 9549WAT     H238903   2.741   6.416   4.656
 9549WAT    EPW38904   2.708   6.382   4.719
 9550WAT      O38905   2.944   5.624   3.138
 9550WAT     H138906   2.992   5.686   3.099
 9550WAT     H238907   2.870   5.665   3.158
 9550WAT    EPW38908   2.940   5.639   3.135
 9551WAT      O38909   2.020   5.944   3.172
 9551WAT     H138910   1.982   5.872   3.140
 9551WAT     H238911   1.959   6.005   3.162
 9551WAT    EPW38912   2.006   5.942   3.166
 9552WAT      O38913   1.747   5.566   4.158
 9552WAT     H138914   1.766   5.539   4.077
 9552WAT     H238915   1.800   5.518   4.208
 9552WAT    EPW38916   1.758   5.555   4.153
 9553WAT      O38917   2.439   5.492   4.671
 9553WAT     H138918   2.377   5.524   4.723
 9553WAT     H238919   2.504   5.474   4.727
 9553WAT    EPW38920   2.440   5.494   4.687
 9554WAT      O38921   2.487   5.535   4.291
 9554WAT     H138922   2.486   5.594   4.355
 9554WAT     H238923   2.482   5.459   4.332
 9554WAT    EPW38924   2.486   5.533   4.306
 9555WAT      O38925   2.198   6.645   4.712
 9555WAT     H138926   2.210   6.639   4.626
 9555WAT     H238927   2.160   6.570   4.734
 9555WAT    EPW38928   2.194   6.633   4.703
 9556WAT      O38929   2.708   5.507   3.508
 9556WAT     H138930   2.721   5.490   3.593
 9556WAT     H238931   2.787   5.501   3.473
 9556WAT    EPW38932   2.721   5.503   3.515
 9557WAT      O38933   2.092   4.962   4.051
 9557WAT     H138934   2.014   4.939   4.083
 9557WAT     H238935   2.072   5.017   3.986
 9557WAT    EPW38936   2.077   4.967   4.046
 9558WAT      O38937   2.885   5.059   3.562
 9558WAT     H138938   2.818   5.025   3.606
 9558WAT     H238939   2.852   5.078   3.484
 9558WAT    EPW38940   2.870   5.056   3.557
 9559WAT      O38941   2.881   5.871   3.481
 9559WAT     H138942   2.929   5.797   3.484
 9559WAT     H238943   2.799   5.842   3.486
 9559WAT    EPW38944   2.876   5.856   3.483
 9560WAT      O38945   2.208   6.106   4.612
 9560WAT     H138946   2.132   6.107   4.655
 9560WAT     H238947   2.213   6.186   4.578
 9560WAT    EPW38948   2.197   6.118   4.613
 9561WAT      O38949   1.250   5.116   4.839
 9561WAT     H138950   1.254   5.185   4.786
 9561WAT     H238951   1.165   5.095   4.838
 9561WAT    EPW38952   1.238   5.123   4.831
 9562WAT      O38953   1.763   6.767   4.200
 9562WAT     H138954   1.771   6.742   4.284
 9562WAT     H238955   1.735   6.695   4.160
 9562WAT    EPW38956   1.760   6.752   4.207
 9563WAT      O38957   1.621   5.313   3.465
 9563WAT     H138958   1.634   5.271   3.389
 9563WAT     H238959   1.541   5.288   3.489
 9563WAT    EPW38960   1.611   5.303   3.457
 9564WAT      O38961   2.512   6.072   3.785
 9564WAT     H138962   2.493   6.090   3.868
 9564WAT     H238963   2.539   5.989   3.788
 9564WAT    EPW38964   2.513   6.063   3.797
 9565WAT      O38965   2.255   6.022   3.695
 9565WAT     H138966   2.213   6.017   3.771
 9565WAT     H238967   2.337   6.041   3.718
 9565WAT    EPW38968   2.261   6.024   3.709
 9566WAT      O38969   2.219   6.385   4.536
 9566WAT     H138970   2.275   6.386   4.603
 9566WAT     H238971   2.245   6.451   4.486
 9566WAT    EPW38972   2.231   6.395   4.539
 9567WAT      O38973   3.058   5.599   4.650
 9567WAT     H138974   3.025   5.519   4.657
 9567WAT     H238975   3.107   5.595   4.578
 9567WAT    EPW38976   3.061   5.587   4.641
 9568WAT      O38977   2.507   5.704   4.510
 9568WAT     H138978   2.480   5.644   4.566
 9568WAT     H238979   2.592   5.687   4.501
 9568WAT    EPW38980   2.516   5.693   4.517
 9569WAT      O38981   1.410   6.720   4.723
 9569WAT     H138982   1.357   6.652   4.716
 9569WAT     H238983   1.357   6.785   4.749
 9569WAT    EPW38984   1.394   6.720   4.726
 9570WAT      O38985   2.289   5.853   4.997
 9570WAT     H138986   2.315   5.921   4.949
 9570WAT     H238987   2.206   5.873   5.017
 9570WAT    EPW38988   2.281   5.866   4.993
 9571WAT      O38989   2.638   6.698   4.023
 9571WAT     H138990   2.592   6.762   4.062
 9571WAT     H238991   2.704   6.685   4.078
 9571WAT    EPW38992   2.641   6.706   4.037
 9572WAT      O38993   2.231   6.227   4.205
 9572WAT     H138994   2.153   6.228   4.245
 9572WAT     H238995   2.286   6.254   4.268
 9572WAT    EPW38996   2.228   6.231   4.220
 9573WAT      O38997   2.840   6.431   4.948
 9573WAT     H138998   2.920   6.397   4.941
 9573WAT     H238999   2.809   6.396   5.021
 9573WAT    EPW39000   2.847   6.421   4.958
 9574WAT      O39001   1.638   5.554   4.590
 9574WAT     H139002   1.643   5.615   4.528
 9574WAT     H239003   1.718   5.518   4.590
 9574WAT    EPW39004   1.651   5.558   4.581
 9575WAT      O39005   1.444   5.391   4.479
 9575WAT     H139006   1.460   5.404   4.394
 9575WAT     H239007   1.507   5.436   4.519
 9575WAT    EPW39008   1.455   5.399   4.473
 9576WAT      O39009   3.007   5.577   3.486
 9576WAT     H139010   3.049   5.548   3.415
 9576WAT     H239011   3.004   5.507   3.537
 9576WAT    EPW39012   3.013   5.562   3.483
 9577WAT      O39013   1.662   5.115   4.731
 9577WAT     H139014   1.749   5.124   4.730
 9577WAT     H239015   1.639   5.121   4.647
 9577WAT    EPW39016   1.671   5.117   4.719
 9578WAT      O39017   2.331   6.405   3.591
 9578WAT     H139018   2.301   6.484   3.570
 9578WAT     H239019   2.265   6.352   3.571
 9578WAT    EPW39020   2.317   6.409   3.585
 9579WAT      O39021   2.777   5.639   4.465
 9579WAT     H139022   2.828   5.573   4.437
 9579WAT     H239023   2.780   5.696   4.399
 9579WAT    EPW39024   2.785   5.637   4.451
 9580WAT      O39025   1.317   5.889   4.456
 9580WAT     H139026   1.369   5.906   4.388
 9580WAT     H239027   1.304   5.803   4.451
 9580WAT    EPW39028   1.323   5.879   4.446
 9581WAT      O39029   1.507   5.488   3.126
 9581WAT     H139030   1.431   5.486   3.169
 9581WAT     H239031   1.512   5.410   3.088
 9581WAT    EPW39032   1.496   5.476   3.127
 9582WAT      O39033   2.386   5.119   4.808
 9582WAT     H139034   2.400   5.190   4.857
 9582WAT     H239035   2.313   5.085   4.842
 9582WAT    EPW39036   2.377   5.125   4.820
 9583WAT      O39037   2.374   5.099   3.883
 9583WAT     H139038   2.289   5.118   3.875
 9583WAT     H239039   2.389   5.046   3.815
 9583WAT    EPW39040   2.363   5.094   3.872
 9584WAT      O39041   1.804   6.383   3.257
 9584WAT     H139042   1.843   6.358   3.331
 9584WAT     H239043   1.719   6.371   3.274
 9584WAT    EPW39044   1.797   6.378   3.271
 9585WAT      O39045   2.682   5.240   4.132
 9585WAT     H139046   2.748   5.201   4.173
 9585WAT     H239047   2.697   5.325   4.146
 9585WAT    EPW39048   2.694   5.247   4.140
 9586WAT      O39049   1.867   5.870   4.523
 9586WAT     H139050   1.826   5.942   4.552
 9586WAT     H239051   1.803   5.826   4.482
 9586WAT    EPW39052   1.851   5.874   4.521
 9587WAT      O39053   2.759   5.671   3.936
 9587WAT     H139054   2.818   5.726   3.971
 9587WAT     H239055   2.709   5.723   3.888
 9587WAT    EPW39056   2.760   5.687   3.934
 9588WAT      O39057   2.720   6.534   3.609
 9588WAT     H139058   2.705   6.453   3.637
 9588WAT     H239059   2.773   6.523   3.540
 9588WAT    EPW39060   2.726   6.520   3.603
 9589WAT      O39061   1.547   6.302   3.317
 9589WAT     H139062   1.542   6.283   3.402
 9589WAT     H239063   1.549   6.224   3.278
 9589WAT    EPW39064   1.547   6.288   3.324
 9590WAT      O39065   1.826   6.136   3.131
 9590WAT     H139066   1.745   6.105   3.144
 9590WAT     H239067   1.824   6.215   3.167
 9590WAT    EPW39068   1.813   6.143   3.138
 9591WAT      O39069   1.771   5.165   4.263
 9591WAT     H139070   1.714   5.158   4.329
 9591WAT     H239071   1.839   5.117   4.289
 9591WAT    EPW39072   1.772   5.157   4.276
 9592WAT      O39073   2.233   5.154   4.199
 9592WAT     H139074   2.188   5.093   4.158
 9592WAT     H239075   2.313   5.120   4.206
 9592WAT    EPW39076   2.238   5.140   4.194
 9593WAT      O39077   2.478   6.319   4.319
 9593WAT     H139078   2.502   6.387   4.368
 9593WAT     H239079   2.484   6.349   4.238
 9593WAT    EPW39080   2.482   6.333   4.314
 9594WAT      O39081   2.462   6.720   4.779
 9594WAT     H139082   2.391   6.681   4.746
 9594WAT     H239083   2.437   6.803   4.790
 9594WAT    EPW39084   2.448   6.727   4.775
 9595WAT      O39085   2.023   5.689   4.675
 9595WAT     H139086   1.987   5.616   4.646
 9595WAT     H239087   1.980   5.752   4.633
 9595WAT    EPW39088   2.012   5.687   4.665
 9596WAT      O39089   2.081   4.956   3.243
 9596WAT     H139090   2.091   4.968   3.157
 9596WAT     H239091   1.995   4.956   3.254
 9596WAT    EPW39092   2.070   4.958   3.232
 9597WAT      O39093   2.949   6.178   4.277
 9597WAT     H139094   2.966   6.149   4.196
 9597WAT     H239095   2.873   6.220   4.268
 9597WAT    EPW39096   2.940   6.180   4.264
 9598WAT      O39097   1.849   6.620   4.738
 9598WAT     H139098   1.831   6.639   4.822
 9598WAT     H239099   1.911   6.559   4.744
 9598WAT    EPW39100   1.855   6.614   4.752
 9599WAT      O39101   2.838   6.537   4.180
 9599WAT     H139102   2.918   6.524   4.146
 9599WAT     H239103   2.797   6.462   4.164
 9599WAT    EPW39104   2.844   6.524   4.173
 9600WAT      O39105   1.581   5.146   4.466
 9600WAT     H139106   1.525   5.080   4.453
 9600WAT     H239107   1.530   5.216   4.468
 9600WAT    EPW39108   1.565   5.146   4.464
 9601WAT      O39109   2.494   5.033   4.133
 9601WAT     H139110   2.549   5.100   4.138
 9601WAT     H239111   2.456   5.044   4.055
 9601WAT    EPW39112   2.496   5.045   4.122
 9602WAT      O39113   1.564   6.524   4.867
 9602WAT     H139114   1.635   6.556   4.907
 9602WAT     H239115   1.530   6.593   4.826
 9602WAT    EPW39116   1.570   6.539   4.867
 9603WAT      O39117   2.432   5.580   3.854
 9603WAT     H139118   2.468   5.502   3.868
 9603WAT     H239119   2.393   5.598   3.930
 9603WAT    EPW39120   2.431   5.571   3.867
 9604WAT      O39121   1.421   5.496   3.790
 9604WAT     H139122   1.384   5.515   3.867
 9604WAT     H239123   1.466   5.423   3.806
 9604WAT    EPW39124   1.422   5.488   3.804
 9605WAT      O39125   1.414   6.295   4.586
 9605WAT     H139126   1.363   6.356   4.623
 9605WAT     H239127   1.495   6.326   4.597
 9605WAT    EPW39128   1.418   6.309   4.593
 9606WAT      O39129   2.619   5.762   3.469
 9606WAT     H139130   2.639   5.677   3.479
 9606WAT     H239131   2.541   5.760   3.430
 9606WAT    EPW39132   2.611   5.749   3.465
 9607WAT      O39133   1.629   6.635   3.481
 9607WAT     H139134   1.635   6.699   3.422
 9607WAT     H239135   1.711   6.603   3.486
 9607WAT    EPW39136   1.642   6.639   3.473
 9608WAT      O39137   1.973   5.835   3.429
 9608WAT     H139138   1.991   5.874   3.353
 9608WAT     H239139   2.051   5.824   3.466
 9608WAT    EPW39140   1.987   5.839   3.423
 9609WAT      O39141   2.854   6.706   3.094
 9609WAT     H139142   2.928   6.697   3.138
 9609WAT     H239143   2.834   6.625   3.070
 9609WAT    EPW39144   2.862   6.693   3.097
 9610WAT      O39145   2.968   5.970   4.790
 9610WAT     H139146   3.035   5.923   4.820
 9610WAT     H239147   3.001   6.010   4.720
 9610WAT    EPW39148   2.983   5.969   4.784
 9611WAT      O39149   2.516   6.264   3.433
 9611WAT     H139150   2.565   6.244   3.503
 9611WAT     H239151   2.453   6.315   3.465
 9611WAT    EPW39152   2.514   6.269   3.448
 9612WAT      O39153   2.950   5.445   4.330
 9612WAT     H139154   2.893   5.463   4.267
 9612WAT     H239155   2.955   5.358   4.330
 9612WAT    EPW39156   2.942   5.435   4.321
 9613WAT      O39157   2.683   6.014   5.027
 9613WAT     H139158   2.758   6.040   5.062
 9613WAT     H239159   2.688   6.040   4.944
 9613WAT    EPW39160   2.695   6.022   5.020
 9614WAT      O39161   1.637   6.534   4.098
 9614WAT     H139162   1.628   6.455   4.061
 9614WAT     H239163   1.594   6.587   4.043
 9614WAT    EPW39164   1.629   6.530   4.084
 9615WAT      O39165   2.221   6.146   3.241
 9615WAT     H139166   2.161   6.087   3.217
 9615WAT     H239167   2.188   6.222   3.214
 9615WAT    EPW39168   2.207   6.148   3.234
 9616WAT      O39169   1.391   6.764   4.446
 9616WAT     H139170   1.400   6.747   4.531
 9616WAT     H239171   1.428   6.695   4.407
 9616WAT    EPW39172   1.398   6.751   4.453
 9617WAT      O39173   2.387   5.030   1.775
 9617WAT     H139174   2.402   5.089   1.712
 9617WAT     H239175   2.466   4.997   1.791
 9617WAT    EPW39176   2.401   5.034   1.768
 9618WAT      O39177   2.296   5.647   2.191
 9618WAT     H139178   2.267   5.722   2.223
 9618WAT     H239179   2.353   5.619   2.251
 9618WAT    EPW39180   2.300   5.654   2.204
 9619WAT      O39181   1.280   6.099   1.717
 9619WAT     H139182   1.218   6.094   1.778
 9619WAT     H239183   1.289   6.016   1.689
 9619WAT    EPW39184   1.272   6.086   1.722
 9620WAT      O39185   2.926   6.492   1.541
 9620WAT     H139186   2.990   6.438   1.565
 9620WAT     H239187   2.875   6.441   1.492
 9620WAT    EPW39188   2.928   6.477   1.537
 9621WAT      O39189   1.263   5.455   1.366
 9621WAT     H139190   1.199   5.507   1.338
 9621WAT     H239191   1.232   5.375   1.352
 9621WAT    EPW39192   1.249   5.451   1.360
 9622WAT      O39193   1.558   6.050   1.317
 9622WAT     H139194   1.533   6.010   1.244
 9622WAT     H239195   1.570   5.984   1.373
 9622WAT    EPW39196   1.556   6.034   1.315
 9623WAT      O39197   2.586   5.822   1.862
 9623WAT     H139198   2.595   5.806   1.776
 9623WAT     H239199   2.525   5.765   1.887
 9623WAT    EPW39200   2.578   5.811   1.853
 9624WAT      O39201   1.531   6.224   1.719
 9624WAT     H139202   1.585   6.182   1.774
 9624WAT     H239203   1.456   6.181   1.727
 9624WAT    EPW39204   1.528   6.211   1.729
 9625WAT      O39205   2.024   5.143   1.661
 9625WAT     H139206   2.009   5.213   1.610
 9625WAT     H239207   2.099   5.111   1.631
 9625WAT    EPW39208   2.033   5.149   1.649
 9626WAT      O39209   1.445   6.505   1.327
 9626WAT     H139210   1.488   6.512   1.251
 9626WAT     H239211   1.475   6.431   1.362
 9626WAT    EPW39212   1.455   6.495   1.321
 9627WAT      O39213   1.324   6.321   2.425
 9627WAT     H139214   1.352   6.298   2.504
 9627WAT     H239215   1.256   6.268   2.412
 9627WAT    EPW39216   1.318   6.310   2.435
 9628WAT      O39217   1.954   6.150   2.879
 9628WAT     H139218   1.916   6.142   2.957
 9628WAT     H239219   1.889   6.134   2.823
 9628WAT    EPW39220   1.939   6.147   2.882
 9629WAT      O39221   1.476   5.856   1.882
 9629WAT     H139222   1.428   5.854   1.809
 9629WAT     H239223   1.531   5.789   1.873
 9629WAT    EPW39224   1.477   5.846   1.870
 9630WAT      O39225   1.939   5.438   2.441
 9630WAT     H139226   2.003   5.437   2.382
 9630WAT     H239227   1.911   5.356   2.443
 9630WAT    EPW39228   1.944   5.426   2.432
 9631WAT      O39229   1.953   6.435   2.605
 9631WAT     H139230   1.955   6.510   2.559
 9631WAT     H239231   2.037   6.416   2.617
 9631WAT    EPW39232   1.966   6.444   2.600
 9632WAT      O39233   1.646   5.640   1.873
 9632WAT     H139234   1.711   5.588   1.899
 9632WAT     H239235   1.576   5.587   1.873
 9632WAT    EPW39236   1.645   5.625   1.877
 9633WAT      O39237   2.060   6.272   2.026
 9633WAT     H139238   2.089   6.192   2.044
 9633WAT     H239239   2.133   6.318   2.013
 9633WAT    EPW39240   2.075   6.267   2.026
 9634WAT      O39241   2.149   6.221   1.648
 9634WAT     H139242   2.179   6.152   1.692
 9634WAT     H239243   2.155   6.197   1.564
 9634WAT    EPW39244   2.154   6.207   1.642
 9635WAT      O39245   2.271   5.665   2.881
 9635WAT     H139246   2.200   5.682   2.831
 9635WAT     H239247   2.268   5.728   2.942
 9635WAT    EPW39248   2.260   5.677   2.882
 9636WAT      O39249   1.750   5.154   1.749
 9636WAT     H139250   1.714   5.211   1.693
 9636WAT     H239251   1.834   5.154   1.726
 9636WAT    EPW39252   1.757   5.163   1.738
 9637WAT      O39253   2.733   4.863   2.817
 9637WAT     H139254   2.732   4.907   2.742
 9637WAT     H239255   2.648   4.854   2.837
 9637WAT    EPW39256   2.720   4.868   2.809
 9638WAT      O39257   2.066   5.092   1.936
 9638WAT     H139258   2.068   5.176   1.961
 9638WAT     H239259   2.048   5.096   1.851
 9638WAT    EPW39260   2.064   5.105   1.927
 9639WAT      O39261   2.456   5.309   1.158
 9639WAT     H139262   2.414   5.376   1.196
 9639WAT     H239263   2.473   5.256   1.225
 9639WAT    EPW39264   2.452   5.311   1.174
 9640WAT      O39265   1.323   5.595   2.140
 9640WAT     H139266   1.320   5.681   2.149
 9640WAT     H239267   1.255   5.567   2.188
 9640WAT    EPW39268   1.312   5.603   2.149
 9641WAT      O39269   1.303   6.567   1.962
 9641WAT     H139270   1.241   6.618   1.927
 9641WAT     H239271   1.341   6.530   1.892
 9641WAT    EPW39272   1.300   6.569   1.947
 9642WAT      O39273   1.875   6.251   1.658
 9642WAT     H139274   1.851   6.271   1.740
 9642WAT     H239275   1.961   6.240   1.663
 9642WAT    EPW39276   1.884   6.252   1.671
 9643WAT      O39277   2.489   6.596   1.435
 9643WAT     H139278   2.563   6.642   1.432
 9643WAT     H239279   2.515   6.516   1.458
 9643WAT    EPW39280   2.503   6.591   1.438
 9644WAT      O39281   2.314   6.653   1.641
 9644WAT     H139282   2.339   6.730   1.673
 9644WAT     H239283   2.369   6.640   1.574
 9644WAT    EPW39284   2.326   6.663   1.636
 9645WAT      O39285   1.543   5.103   2.156
 9645WAT     H139286   1.526   5.030   2.112
 9645WAT     H239287   1.604   5.080   2.213
 9645WAT    EPW39288   1.549   5.089   2.158
 9646WAT      O39289   1.935   5.296   3.092
 9646WAT     H139290   1.932   5.255   3.015
 9646WAT     H239291   1.984   5.366   3.077
 9646WAT    EPW39292   1.942   5.300   3.079
 9647WAT      O39293   1.433   6.482   1.727
 9647WAT     H139294   1.479   6.409   1.740
 9647WAT     H239295   1.487   6.532   1.681
 9647WAT    EPW39296   1.447   6.478   1.722
 9648WAT      O39297   3.041   5.261   1.898
 9648WAT     H139298   2.996   5.334   1.915
 9648WAT     H239299   2.979   5.203   1.875
 9648WAT    EPW39300   3.025   5.263   1.897
 9649WAT      O39301   2.530   6.612   2.455
 9649WAT     H139302   2.599   6.661   2.435
 9649WAT     H239303   2.499   6.587   2.377
 9649WAT    EPW39304   2.536   6.615   2.441
 9650WAT      O39305   1.510   5.225   3.020
 9650WAT     H139306   1.429   5.197   3.006
 9650WAT     H239307   1.555   5.192   2.953
 9650WAT    EPW39308   1.505   5.216   3.008
 9651WAT      O39309   1.582   6.303   2.077
 9651WAT     H139310   1.643   6.296   2.015
 9651WAT     H239311   1.607   6.244   2.137
 9651WAT    EPW39312   1.595   6.293   2.077
 9652WAT      O39313   1.871   6.600   1.966
 9652WAT     H139314   1.950   6.620   1.936
 9652WAT     H239315   1.817   6.649   1.919
 9652WAT    EPW39316   1.874   6.610   1.955
 9653WAT      O39317   2.104   4.996   2.965
 9653WAT     H139318   2.122   4.930   2.911
 9653WAT     H239319   2.038   5.038   2.925
 9653WAT    EPW39320   2.097   4.993   2.951
 9654WAT      O39321   2.199   5.547   1.787
 9654WAT     H139322   2.228   5.502   1.718
 9654WAT     H239323   2.271   5.564   1.832
 9654WAT    EPW39324   2.214   5.543   1.784
 9655WAT      O39325   2.311   5.511   1.290
 9655WAT     H139326   2.341   5.589   1.317
 9655WAT     H239327   2.236   5.530   1.251
 9655WAT    EPW39328   2.304   5.525   1.288
 9656WAT      O39329   2.707   6.772   1.400
 9656WAT     H139330   2.755   6.748   1.331
 9656WAT     H239331   2.761   6.822   1.446
 9656WAT    EPW39332   2.722   6.776   1.396
 9657WAT      O39333   1.750   6.672   2.573
 9657WAT     H139334   1.773   6.664   2.657
 9657WAT     H239335   1.683   6.617   2.565
 9657WAT    EPW39336   1.744   6.663   2.584
 9658WAT      O39337   2.957   5.145   2.315
 9658WAT     H139338   3.023   5.127   2.261
 9658WAT     H239339   2.988   5.121   2.393
 9658WAT    EPW39340   2.972   5.139   2.318
 9659WAT      O39341   1.235   5.337   2.754
 9659WAT     H139342   1.224   5.413   2.795
 9659WAT     H239343   1.298   5.354   2.695
 9659WAT    EPW39344   1.243   5.350   2.751
 9660WAT      O39345   2.435   6.417   2.818
 9660WAT     H139346   2.437   6.494   2.859
 9660WAT     H239347   2.519   6.402   2.799
 9660WAT    EPW39348   2.448   6.426   2.821
 9661WAT      O39349   2.162   6.413   1.265
 9661WAT     H139350   2.141   6.468   1.330
 9661WAT     H239351   2.236   6.446   1.234
 9661WAT    EPW39352   2.170   6.426   1.270
 9662WAT      O39353   2.502   5.138   1.374
 9662WAT     H139354   2.562   5.075   1.374
 9662WAT     H239355   2.523   5.185   1.444
 9662WAT    EPW39356   2.514   5.136   1.384
 9663WAT      O39357   1.357   5.244   1.656
 9663WAT     H139358   1.335   5.161   1.636
 9663WAT     H239359   1.309   5.260   1.727
 9663WAT    EPW39360   1.346   5.234   1.663
 9664WAT      O39361   1.512   6.538   2.453
 9664WAT     H139362   1.455   6.471   2.447
 9664WAT     H239363   1.549   6.540   2.374
 9664WAT    EPW39364   1.509   6.528   2.440
 9665WAT      O39365   2.278   5.416   1.551
 9665WAT     H139366   2.206   5.368   1.538
 9665WAT     H239367   2.294   5.450   1.473
 9665WAT    EPW39368   2.269   5.414   1.538
 9666WAT      O39369   2.280   6.674   2.561
 9666WAT     H139370   2.358   6.655   2.525
 9666WAT     H239371   2.224   6.656   2.497
 9666WAT    EPW39372   2.283   6.669   2.546
 9667WAT      O39373   2.257   5.090   1.505
 9667WAT     H139374   2.198   5.062   1.447
 9667WAT     H239375   2.329   5.101   1.457
 9667WAT    EPW39376   2.259   5.087   1.489
 9668WAT      O39377   2.991   6.704   1.819
 9668WAT     H139378   2.950   6.780   1.826
 9668WAT     H239379   2.927   6.646   1.808
 9668WAT    EPW39380   2.976   6.707   1.818
 9669WAT      O39381   2.063   5.371   1.967
 9669WAT     H139382   2.103   5.427   1.913
 9669WAT     H239383   2.085   5.401   2.046
 9669WAT    EPW39384   2.072   5.384   1.971
 9670WAT      O39385   2.735   6.279   1.874
 9670WAT     H139386   2.799   6.220   1.873
 9670WAT     H239387   2.663   6.232   1.862
 9670WAT    EPW39388   2.734   6.263   1.872
 9671WAT      O39389   1.692   6.386   2.728
 9671WAT     H139390   1.768   6.417   2.699
 9671WAT     H239391   1.678   6.433   2.801
 9671WAT    EPW39392   1.701   6.398   2.735
 9672WAT      O39393   1.689   4.889   1.797
 9672WAT     H139394   1.707   4.973   1.784
 9672WAT     H239395   1.664   4.861   1.718
 9672WAT    EPW39396   1.688   4.897   1.783
 9673WAT      O39397   1.881   5.979   2.140
 9673WAT     H139398   1.902   5.966   2.224
 9673WAT     H239399   1.823   5.916   2.123
 9673WAT    EPW39400   1.876   5.968   2.150
 9674WAT      O39401   2.476   5.319   2.543
 9674WAT     H139402   2.460   5.370   2.612
 9674WAT     H239403   2.420   5.254   2.551
 9674WAT    EPW39404   2.466   5.317   2.554
 9675WAT      O39405   1.977   5.990   2.400
 9675WAT     H139406   1.955   6.074   2.407
 9675WAT     H239407   1.944   5.954   2.472
 9675WAT    EPW39408   1.969   5.997   2.412
 9676WAT      O39409   2.562   6.081   2.403
 9676WAT     H139410   2.501   6.036   2.447
 9676WAT     H239411   2.544   6.164   2.421
 9676WAT    EPW39412   2.550   6.086   2.412
 9677WAT      O39413   2.627   4.909   1.843
 9677WAT     H139414   2.618   4.884   1.927
 9677WAT     H239415   2.661   4.839   1.804
 9677WAT    EPW39416   2.631   4.895   1.850
 9678WAT      O39417   1.207   6.350   3.030
 9678WAT     H139418   1.265   6.397   3.076
 9678WAT     H239419   1.213   6.270   3.064
 9678WAT    EPW39420   1.216   6.345   3.042
 9679WAT      O39421   2.924   5.352   2.587
 9679WAT     H139422   2.983   5.344   2.652
 9679WAT     H239423   2.959   5.413   2.536
 9679WAT    EPW39424   2.938   5.360   2.589
 9680WAT      O39425   1.608   5.282   1.957
 9680WAT     H139426   1.647   5.232   1.897
 9680WAT     H239427   1.591   5.226   2.022
 9680WAT    EPW39428   1.611   5.266   1.958
 9681WAT      O39429   2.888   6.064   1.414
 9681WAT     H139430   2.892   6.018   1.488
 9681WAT     H239431   2.971   6.082   1.395
 9681WAT    EPW39432   2.901   6.060   1.422
 9682WAT      O39433   1.672   6.052   1.883
 9682WAT     H139434   1.719   6.018   1.818
 9682WAT     H239435   1.609   5.994   1.895
 9682WAT    EPW39436   1.670   6.039   1.875
 9683WAT      O39437   1.516   6.727   2.026
 9683WAT     H139438   1.444   6.684   2.005
 9683WAT     H239439   1.562   6.729   1.951
 9683WAT    EPW39440   1.512   6.721   2.012
 9684WAT      O39441   1.500   5.471   2.322
 9684WAT     H139442   1.580   5.491   2.294
 9684WAT     H239443   1.448   5.503   2.260
 9684WAT    EPW39444   1.504   5.479   2.309
 9685WAT      O39445   3.123   6.507   2.788
 9685WAT     H139446   3.053   6.505   2.735
 9685WAT     H239447   3.097   6.460   2.857
 9685WAT    EPW39448   3.109   6.500   2.791
 9686WAT      O39449   2.714   5.742   1.319
 9686WAT     H139450   2.706   5.824   1.291
 9686WAT     H239451   2.688   5.746   1.402
 9686WAT    EPW39452   2.709   5.754   1.327
 9687WAT      O39453   1.789   5.986   1.637
 9687WAT     H139454   1.814   6.070   1.630
 9687WAT     H239455   1.858   5.942   1.606
 9687WAT    EPW39456   1.803   5.992   1.631
 9688WAT      O39457   3.030   5.204   1.304
 9688WAT     H139458   3.069   5.145   1.254
 9688WAT     H239459   2.990   5.256   1.247
 9688WAT    EPW39460   3.030   5.203   1.288
 9689WAT      O39461   1.330   6.174   2.075
 9689WAT     H139462   1.276   6.237   2.102
 9689WAT     H239463   1.406   6.215   2.065
 9689WAT    EPW39464   1.333   6.189   2.077
 9690WAT      O39465   2.099   5.523   3.054
 9690WAT     H139466   2.036   5.583   3.060
 9690WAT     H239467   2.146   5.549   2.985
 9690WAT    EPW39468   2.097   5.535   3.045
 9691WAT      O39469   1.344   5.838   1.640
 9691WAT     H139470   1.327   5.753   1.640
 9691WAT     H239471   1.416   5.845   1.592
 9691WAT    EPW39472   1.352   5.827   1.633
 9692WAT      O39473   2.892   5.093   1.526
 9692WAT     H139474   2.965   5.055   1.557
 9692WAT     H239475   2.921   5.141   1.460
 9692WAT    EPW39476   2.907   5.094   1.521
 9693WAT      O39477   2.274   6.444   1.991
 9693WAT     H139478   2.231   6.516   1.967
 9693WAT     H239479   2.314   6.418   1.918
 9693WAT    EPW39480   2.273   6.451   1.977
 9694WAT      O39481   1.264   6.327   1.568
 9694WAT     H139482   1.317   6.380   1.613
 9694WAT     H239483   1.258   6.256   1.618
 9694WAT    EPW39484   1.271   6.324   1.582
 9695WAT      O39485   1.678   6.125   2.264
 9695WAT     H139486   1.730   6.169   2.318
 9695WAT     H239487   1.733   6.084   2.211
 9695WAT    EPW39488   1.694   6.125   2.264
 9696WAT      O39489   2.570   5.399   1.987
 9696WAT     H139490   2.600   5.411   2.068
 9696WAT     H239491   2.523   5.326   1.993
 9696WAT    EPW39492   2.568   5.390   2.000
 9697WAT      O39493   1.283   6.155   1.344
 9697WAT     H139494   1.359   6.113   1.340
 9697WAT     H239495   1.293   6.208   1.413
 9697WAT    EPW39496   1.296   6.157   1.354
 9698WAT      O39497   1.346   5.901   2.121
 9698WAT     H139498   1.390   5.880   2.049
 9698WAT     H239499   1.339   5.988   2.117
 9698WAT    EPW39500   1.351   5.911   2.110
 9699WAT      O39501   2.007   5.348   1.474
 9699WAT     H139502   1.994   5.316   1.394
 9699WAT     H239503   1.975   5.429   1.469
 9699WAT    EPW39504   2.001   5.355   1.461
 9700WAT      O39505   2.887   6.520   2.621
 9700WAT     H139506   2.851   6.599   2.622
 9700WAT     H239507   2.887   6.499   2.536
 9700WAT    EPW39508   2.882   6.529   2.609
 9701WAT      O39509   1.812   6.337   1.912
 9701WAT     H139510   1.825   6.423   1.924
 9701WAT     H239511   1.881   6.300   1.951
 9701WAT    EPW39512   1.824   6.344   1.919
 9702WAT      O39513   1.647   5.670   2.965
 9702WAT     H139514   1.600   5.613   3.011
 9702WAT     H239515   1.643   5.639   2.884
 9702WAT    EPW39516   1.640   5.657   2.960
 9703WAT      O39517   1.631   5.580   1.460
 9703WAT     H139518   1.619   5.512   1.514
 9703WAT     H239519   1.590   5.554   1.387
 9703WAT    EPW39520   1.623   5.566   1.458
 9704WAT      O39521   1.696   5.780   2.115
 9704WAT     H139522   1.678   5.743   2.038
 9704WAT     H239523   1.716   5.712   2.166
 9704WAT    EPW39524   1.696   5.764   2.111
 9705WAT      O39525   1.669   5.735   2.478
 9705WAT     H139526   1.694   5.683   2.412
 9705WAT     H239527   1.613   5.790   2.440
 9705WAT    EPW39528   1.664   5.736   2.463
 9706WAT      O39529   2.692   5.500   2.214
 9706WAT     H139530   2.629   5.525   2.270
 9706WAT     H239531   2.711   5.574   2.172
 9706WAT    EPW39532   2.685   5.514   2.216
 9707WAT      O39533   2.060   6.638   2.391
 9707WAT     H139534   2.035   6.569   2.343
 9707WAT     H239535   2.050   6.706   2.337
 9707WAT    EPW39536   2.055   6.638   2.376
 9708WAT      O39537   2.306   5.102   2.604
 9708WAT     H139538   2.328   5.021   2.580
 9708WAT     H239539   2.323   5.104   2.689
 9708WAT    EPW39540   2.312   5.091   2.613
 9709WAT      O39541   2.521   5.286   1.605
 9709WAT     H139542   2.582   5.348   1.615
 9709WAT     H239543   2.447   5.331   1.596
 9709WAT    EPW39544   2.519   5.302   1.605
 9710WAT      O39545   1.485   5.895   2.991
 9710WAT     H139546   1.482   5.936   2.914
 9710WAT     H239547   1.539   5.828   2.976
 9710WAT    EPW39548   1.492   5.891   2.978
 9711WAT      O39549   2.648   6.114   2.842
 9711WAT     H139550   2.669   6.195   2.819
 9711WAT     H239551   2.691   6.064   2.784
 9711WAT    EPW39552   2.658   6.118   2.830
 9712WAT      O39553   2.033   6.419   2.911
 9712WAT     H139554   2.068   6.413   2.991
 9712WAT     H239555   2.009   6.338   2.893
 9712WAT    EPW39556   2.035   6.406   2.920
 9713WAT      O39557   2.120   5.435   2.230
 9713WAT     H139558   2.180   5.498   2.222
 9713WAT     H239559   2.167   5.362   2.242
 9713WAT    EPW39560   2.136   5.434   2.231
 9714WAT      O39561   2.394   5.747   1.420
 9714WAT     H139562   2.374   5.802   1.356
 9714WAT     H239563   2.334   5.763   1.481
 9714WAT    EPW39564   2.382   5.757   1.420
 9715WAT      O39565   2.918   6.067   1.872
 9715WAT     H139566   2.921   6.020   1.945
 9715WAT     H239567   2.897   6.009   1.811
 9715WAT    EPW39568   2.915   6.052   1.874
 9716WAT      O39569   2.431   6.502   2.214
 9716WAT     H139570   2.375   6.479   2.151
 9716WAT     H239571   2.488   6.553   2.174
 9716WAT    EPW39572   2.431   6.506   2.199
 9717WAT      O39573   2.480   6.158   2.145
 9717WAT     H139574   2.398   6.176   2.170
 9717WAT     H239575   2.513   6.116   2.214
 9717WAT    EPW39576   2.472   6.154   2.159
 9718WAT      O39577   1.854   6.505   1.559
 9718WAT     H139578   1.865   6.427   1.596
 9718WAT     H239579   1.935   6.534   1.546
 9718WAT    EPW39580   1.867   6.498   1.563
 9719WAT      O39581   1.774   4.960   1.377
 9719WAT     H139582   1.725   4.924   1.440
 9719WAT     H239583   1.740   5.040   1.369
 9719WAT    EPW39584   1.762   4.966   1.385
 9720WAT      O39585   2.101   6.591   1.471
 9720WAT     H139586   2.166   6.610   1.526
 9720WAT     H239587   2.086   6.666   1.430
 9720WAT    EPW39588   2.109   6.605   1.473
 9721WAT      O39589   2.805   5.969   2.671
 9721WAT     H139590   2.799   5.968   2.584
 9721WAT     H239591   2.884   6.003   2.685
 9721WAT    EPW39592   2.816   5.974   2.660
 9722WAT      O39593   2.439   6.468   3.168
 9722WAT     H139594   2.468   6.507   3.240
 9722WAT     H239595   2.442   6.532   3.108
 9722WAT    EPW39596   2.444   6.483   3.170
 9723WAT      O39597   2.856   5.026   3.008
 9723WAT     H139598   2.821   4.965   2.957
 9723WAT     H239599   2.808   5.097   2.992
 9723WAT    EPW39600   2.844   5.028   2.998
 9724WAT      O39601   1.582   5.853   1.507
 9724WAT     H139602   1.604   5.769   1.498
 9724WAT     H239603   1.648   5.885   1.554
 9724WAT    EPW39604   1.595   5.845   1.513
 9725WAT      O39605   2.354   5.952   2.536
 9725WAT     H139606   2.305   5.979   2.603
 9725WAT     H239607   2.394   5.881   2.567
 9725WAT    EPW39608   2.352   5.945   2.550
 9726WAT      O39609   1.261   4.982   1.606
 9726WAT     H139610   1.258   4.924   1.540
 9726WAT     H239611   1.228   4.937   1.674
 9726WAT    EPW39612   1.256   4.967   1.606
 9727WAT      O39613   2.230   5.785   1.641
 9727WAT     H139614   2.244   5.851   1.695
 9727WAT     H239615   2.215   5.717   1.694
 9727WAT    EPW39616   2.230   5.784   1.657
 9728WAT      O39617   2.698   6.341   2.149
 9728WAT     H139618   2.724   6.332   2.067
 9728WAT     H239619   2.621   6.301   2.152
 9728WAT    EPW39620   2.691   6.334   2.138
 9729WAT      O39621   1.688   5.219   1.336
 9729WAT     H139622   1.629   5.221   1.272
 9729WAT     H239623   1.758   5.258   1.301
 9729WAT    EPW39624   1.689   5.225   1.322
 9730WAT      O39625   2.137   5.997   2.039
 9730WAT     H139626   2.052   5.984   2.055
 9730WAT     H239627   2.176   5.961   2.108
 9730WAT    EPW39628   2.130   5.989   2.052
 9731WAT      O39629   1.803   6.634   1.164
 9731WAT     H139630   1.822   6.556   1.200
 9731WAT     H239631   1.796   6.687   1.233
 9731WAT    EPW39632   1.805   6.630   1.180
 9732WAT      O39633   1.504   5.925   2.353
 9732WAT     H139634   1.555   5.992   2.332
 9732WAT     H239635   1.462   5.906   2.279
 9732WAT    EPW39636   1.505   5.932   2.339
 9733WAT      O39637   1.806   5.463   2.014
 9733WAT     H139638   1.884   5.429   1.992
 9733WAT     H239639   1.750   5.398   1.999
 9733WAT    EPW39640   1.810   5.448   2.008
 9734WAT      O39641   3.094   6.653   1.392
 9734WAT     H139642   3.165   6.606   1.376
 9734WAT     H239643   3.043   6.599   1.438
 9734WAT    EPW39644   3.097   6.638   1.396
 9735WAT      O39645   1.307   5.560   1.647
 9735WAT     H139646   1.337   5.527   1.722
 9735WAT     H239647   1.317   5.494   1.591
 9735WAT    EPW39648   1.313   5.545   1.650
 9736WAT      O39649   2.817   5.966   2.382
 9736WAT     H139650   2.807   5.882   2.400
 9736WAT     H239651   2.736   5.997   2.377
 9736WAT    EPW39652   2.804   5.958   2.384
 9737WAT      O39653   1.813   5.804   1.217
 9737WAT     H139654   1.820   5.740   1.275
 9737WAT     H239655   1.759   5.772   1.157
 9737WAT    EPW39656   1.806   5.790   1.216
 9738WAT      O39657   1.469   6.031   2.752
 9738WAT     H139658   1.425   5.985   2.693
 9738WAT     H239659   1.442   6.113   2.738
 9738WAT    EPW39660   1.459   6.037   2.741
 9739WAT      O39661   2.935   5.919   2.116
 9739WAT     H139662   2.907   5.942   2.195
 9739WAT     H239663   3.022   5.918   2.125
 9739WAT    EPW39664   2.944   5.922   2.129
 9740WAT      O39665   1.898   5.604   1.409
 9740WAT     H139666   1.924   5.672   1.458
 9740WAT     H239667   1.815   5.592   1.434
 9740WAT    EPW39668   1.889   5.612   1.420
 9741WAT      O39669   2.706   5.256   2.972
 9741WAT     H139670   2.623   5.267   2.999
 9741WAT     H239671   2.699   5.256   2.885
 9741WAT    EPW39672   2.692   5.258   2.963
 9742WAT      O39673   1.286   5.235   2.140
 9742WAT     H139674   1.268   5.237   2.055
 9742WAT     H239675   1.365   5.198   2.144
 9742WAT    EPW39676   1.295   5.230   2.128
 9743WAT      O39677   3.110   6.425   2.191
 9743WAT     H139678   3.137   6.478   2.127
 9743WAT     H239679   3.178   6.424   2.246
 9743WAT    EPW39680   3.124   6.432   2.189
 9744WAT      O39681   2.590   5.668   2.950
 9744WAT     H139682   2.621   5.682   3.030
 9744WAT     H239683   2.506   5.691   2.956
 9744WAT    EPW39684   2.582   5.673   2.962
 9745WAT      O39685   2.803   5.710   2.772
 9745WAT     H139686   2.801   5.796   2.757
 9745WAT     H239687   2.738   5.697   2.828
 9745WAT    EPW39688   2.793   5.721   2.778
 9746WAT      O39689   2.775   6.316   1.400
 9746WAT     H139690   2.805   6.235   1.411
 9746WAT     H239691   2.696   6.313   1.439
 9746WAT    EPW39692   2.768   6.303   1.407
 9747WAT      O39693   2.824   5.465   1.887
 9747WAT     H139694   2.753   5.425   1.920
 9747WAT     H239695   2.828   5.539   1.933
 9747WAT    EPW39696   2.814   5.470   1.899
 9748WAT      O39697   3.113   5.820   3.019
 9748WAT     H139698   3.118   5.768   2.949
 9748WAT     H239699   3.196   5.840   3.036
 9748WAT    EPW39700   3.126   5.815   3.011
 9749WAT      O39701   3.050   6.087   2.691
 9749WAT     H139702   3.109   6.030   2.661
 9749WAT     H239703   3.033   6.137   2.622
 9749WAT    EPW39704   3.056   6.086   2.676
 9750WAT      O39705   2.448   6.137   1.319
 9750WAT     H139706   2.522   6.091   1.311
 9750WAT     H239707   2.420   6.146   1.237
 9750WAT    EPW39708   2.455   6.131   1.306
 9751WAT      O39709   1.884   6.254   2.404
 9751WAT     H139710   1.895   6.302   2.476
 9751WAT     H239711   1.904   6.310   2.339
 9751WAT    EPW39712   1.888   6.270   2.405
 9752WAT      O39713   1.733   6.109   2.714
 9752WAT     H139714   1.653   6.077   2.727
 9752WAT     H239715   1.720   6.195   2.708
 9752WAT    EPW39716   1.719   6.117   2.715
 9753WAT      O39717   2.696   5.243   2.700
 9753WAT     H139718   2.765   5.277   2.659
 9753WAT     H239719   2.630   5.260   2.645
 9753WAT    EPW39720   2.696   5.251   2.686
 9754WAT      O39721   2.216   5.898   2.301
 9754WAT     H139722   2.266   5.905   2.372
 9754WAT     H239723   2.135   5.910   2.332
 9754WAT    EPW39724   2.212   5.901   2.316
 9755WAT      O39725   1.892   5.450   2.716
 9755WAT     H139726   1.899   5.370   2.748
 9755WAT     H239727   1.914   5.441   2.632
 9755WAT    EPW39728   1.896   5.437   2.708
 9756WAT      O39729   2.135   6.664   1.884
 9756WAT     H139730   2.127   6.747   1.910
 9756WAT     H239731   2.175   6.671   1.807
 9756WAT    EPW39732   2.140   6.677   1.877
 9757WAT      O39733   2.759   4.949   2.554
 9757WAT     H139734   2.725   5.016   2.510
 9757WAT     H239735   2.845   4.963   2.550
 9757WAT    EPW39736   2.767   4.961   2.547
 9758WAT      O39737   2.035   5.033   2.631
 9758WAT     H139738   2.116   5.059   2.612
 9758WAT     H239739   2.042   4.947   2.638
 9758WAT    EPW39740   2.048   5.024   2.629
 9759WAT      O39741   1.953   6.447   2.214
 9759WAT     H139742   1.904   6.496   2.161
 9759WAT     H239743   1.994   6.392   2.159
 9759WAT    EPW39744   1.952   6.446   2.198
 9760WAT      O39745   2.391   6.068   2.937
 9760WAT     H139746   2.467   6.074   2.895
 9760WAT     H239747   2.331   6.084   2.875
 9760WAT    EPW39748   2.393   6.071   2.922
 9761WAT      O39749   2.708   6.380   2.785
 9761WAT     H139750   2.742   6.404   2.861
 9761WAT     H239751   2.764   6.414   2.726
 9761WAT    EPW39752   2.722   6.388   2.787
 9762WAT      O39753   2.955   5.614   1.285
 9762WAT     H139754   3.004   5.672   1.241
 9762WAT     H239755   2.877   5.653   1.290
 9762WAT    EPW39756   2.951   5.629   1.279
 9763WAT      O39757   2.070   5.913   1.268
 9763WAT     H139758   1.990   5.899   1.235
 9763WAT     H239759   2.070   5.998   1.286
 9763WAT    EPW39760   2.058   5.923   1.266
 9764WAT      O39761   1.761   5.556   2.269
 9764WAT     H139762   1.782   5.521   2.192
 9764WAT     H239763   1.818   5.520   2.324
 9764WAT    EPW39764   1.772   5.546   2.266
 9765WAT      O39765   2.461   5.508   2.747
 9765WAT     H139766   2.391   5.544   2.786
 9765WAT     H239767   2.524   5.515   2.808
 9765WAT    EPW39768   2.460   5.515   2.762
 9766WAT      O39769   2.469   5.543   2.375
 9766WAT     H139770   2.479   5.602   2.439
 9766WAT     H239771   2.464   5.467   2.418
 9766WAT    EPW39772   2.470   5.540   2.391
 9767WAT      O39773   2.183   6.636   2.820
 9767WAT     H139774   2.206   6.634   2.736
 9767WAT     H239775   2.138   6.561   2.830
 9767WAT    EPW39776   2.179   6.625   2.809
 9768WAT      O39777   2.713   5.503   1.637
 9768WAT     H139778   2.739   5.487   1.718
 9768WAT     H239779   2.786   5.532   1.598
 9768WAT    EPW39780   2.728   5.505   1.643
 9769WAT      O39781   2.014   4.999   2.212
 9769WAT     H139782   1.930   4.994   2.236
 9769WAT     H239783   2.010   5.009   2.125
 9769WAT    EPW39784   2.001   5.000   2.203
 9770WAT      O39785   2.840   5.088   1.806
 9770WAT     H139786   2.764   5.047   1.821
 9770WAT     H239787   2.837   5.105   1.721
 9770WAT    EPW39788   2.828   5.084   1.796
 9771WAT      O39789   2.860   5.904   1.644
 9771WAT     H139790   2.906   5.831   1.629
 9771WAT     H239791   2.778   5.879   1.631
 9771WAT    EPW39792   2.855   5.890   1.640
 9772WAT      O39793   2.200   6.096   2.738
 9772WAT     H139794   2.122   6.097   2.777
 9772WAT     H239795   2.206   6.176   2.703
 9772WAT    EPW39796   2.189   6.108   2.739
 9773WAT      O39797   1.261   5.118   2.923
 9773WAT     H139798   1.260   5.187   2.869
 9773WAT     H239799   1.177   5.096   2.930
 9773WAT    EPW39800   1.249   5.125   2.916
 9774WAT      O39801   1.747   6.780   2.310
 9774WAT     H139802   1.749   6.759   2.394
 9774WAT     H239803   1.721   6.706   2.271
 9774WAT    EPW39804   1.743   6.766   2.316
 9775WAT      O39805   1.612   5.328   1.582
 9775WAT     H139806   1.625   5.290   1.505
 9775WAT     H239807   1.531   5.303   1.603
 9775WAT    EPW39808   1.602   5.319   1.574
 9776WAT      O39809   2.518   6.093   1.878
 9776WAT     H139810   2.505   6.110   1.963
 9776WAT     H239811   2.548   6.011   1.879
 9776WAT    EPW39812   2.520   6.083   1.891
 9777WAT      O39813   2.263   6.015   1.793
 9777WAT     H139814   2.222   6.007   1.870
 9777WAT     H239815   2.343   6.043   1.815
 9777WAT    EPW39816   2.269   6.018   1.808
 9778WAT      O39817   2.231   6.355   2.638
 9778WAT     H139818   2.285   6.379   2.702
 9778WAT     H239819   2.282   6.355   2.567
 9778WAT    EPW39820   2.246   6.358   2.637
 9779WAT      O39821   3.069   5.630   2.815
 9779WAT     H139822   2.983   5.644   2.809
 9779WAT     H239823   3.096   5.632   2.732
 9779WAT    EPW39824   3.060   5.632   2.802
 9780WAT      O39825   2.512   5.724   2.578
 9780WAT     H139826   2.503   5.661   2.638
 9780WAT     H239827   2.596   5.721   2.556
 9780WAT    EPW39828   2.523   5.714   2.583
 9781WAT      O39829   1.406   6.720   2.821
 9781WAT     H139830   1.352   6.652   2.813
 9781WAT     H239831   1.353   6.784   2.847
 9781WAT    EPW39832   1.390   6.719   2.824
 9782WAT      O39833   2.277   5.860   3.080
 9782WAT     H139834   2.313   5.926   3.035
 9782WAT     H239835   2.196   5.888   3.096
 9782WAT    EPW39836   2.271   5.874   3.075
 9783WAT      O39837   2.588   6.722   2.134
 9783WAT     H139838   2.532   6.785   2.154
 9783WAT     H239839   2.652   6.732   2.192
 9783WAT    EPW39840   2.589   6.733   2.145
 9784WAT      O39841   2.241   6.185   2.284
 9784WAT     H139842   2.220   6.101   2.296
 9784WAT     H239843   2.274   6.209   2.361
 9784WAT    EPW39844   2.243   6.176   2.297
 9785WAT      O39845   2.809   6.440   3.035
 9785WAT     H139846   2.892   6.411   3.031
 9785WAT     H239847   2.776   6.397   3.103
 9785WAT    EPW39848   2.817   6.429   3.044
 9786WAT      O39849   1.639   5.567   2.702
 9786WAT     H139850   1.647   5.624   2.637
 9786WAT     H239851   1.717   5.528   2.704
 9786WAT    EPW39852   1.652   5.570   2.693
 9787WAT      O39853   1.445   5.410   2.579
 9787WAT     H139854   1.463   5.423   2.495
 9787WAT     H239855   1.506   5.455   2.621
 9787WAT    EPW39856   1.456   5.418   2.573
 9788WAT      O39857   2.943   5.647   1.564
 9788WAT     H139858   2.961   5.642   1.479
 9788WAT     H239859   3.013   5.612   1.603
 9788WAT    EPW39860   2.956   5.641   1.557
 9789WAT      O39861   1.645   5.091   2.817
 9789WAT     H139862   1.613   5.010   2.820
 9789WAT     H239863   1.627   5.117   2.735
 9789WAT    EPW39864   1.637   5.083   2.805
 9790WAT      O39865   2.355   6.386   1.730
 9790WAT     H139866   2.339   6.468   1.703
 9790WAT     H239867   2.285   6.342   1.704
 9790WAT    EPW39868   2.342   6.392   1.722
 9791WAT      O39869   2.780   5.706   2.492
 9791WAT     H139870   2.849   5.670   2.453
 9791WAT     H239871   2.799   5.698   2.577
 9791WAT    EPW39872   2.793   5.700   2.499
 9792WAT      O39873   1.321   5.896   2.561
 9792WAT     H139874   1.371   5.913   2.491
 9792WAT     H239875   1.304   5.811   2.554
 9792WAT    EPW39876   1.326   5.886   2.550
 9793WAT      O39877   1.498   5.496   1.226
 9793WAT     H139878   1.421   5.490   1.267
 9793WAT     H239879   1.507   5.418   1.188
 9793WAT    EPW39880   1.488   5.483   1.227
 9794WAT      O39881   2.339   5.121   2.883
 9794WAT     H139882   2.370   5.177   2.942
 9794WAT     H239883   2.264   5.093   2.918
 9794WAT    EPW39884   2.333   5.125   2.897
 9795WAT      O39885   2.402   5.179   2.011
 9795WAT     H139886   2.325   5.183   2.052
 9795WAT     H239887   2.384   5.134   1.939
 9795WAT    EPW39888   2.388   5.173   2.006
 9796WAT      O39889   1.793   6.391   1.316
 9796WAT     H139890   1.833   6.424   1.387
 9796WAT     H239891   1.718   6.360   1.347
 9796WAT    EPW39892   1.788   6.392   1.331
 9797WAT      O39893   2.685   5.153   2.373
 9797WAT     H139894   2.768   5.155   2.346
 9797WAT     H239895   2.672   5.234   2.405
 9797WAT    EPW39896   2.695   5.165   2.374
 9798WAT      O39897   1.860   5.876   2.621
 9798WAT     H139898   1.819   5.946   2.652
 9798WAT     H239899   1.798   5.833   2.578
 9798WAT    EPW39900   1.845   5.880   2.619
 9799WAT      O39901   2.772   5.705   2.039
 9799WAT     H139902   2.831   5.765   2.062
 9799WAT     H239903   2.720   5.747   1.983
 9799WAT    EPW39904   2.773   5.720   2.034
 9800WAT      O39905   2.771   6.538   1.767
 9800WAT     H139906   2.757   6.459   1.801
 9800WAT     H239907   2.809   6.521   1.690
 9800WAT    EPW39908   2.775   6.524   1.760
 9801WAT      O39909   1.570   6.290   1.446
 9801WAT     H139910   1.569   6.270   1.531
 9801WAT     H239911   1.568   6.212   1.407
 9801WAT    EPW39912   1.569   6.276   1.453
 9802WAT      O39913   1.858   6.126   1.247
 9802WAT     H139914   1.783   6.085   1.265
 9802WAT     H239915   1.843   6.208   1.271
 9802WAT    EPW39916   1.845   6.132   1.253
 9803WAT      O39917   1.844   5.188   2.486
 9803WAT     H139918   1.761   5.166   2.503
 9803WAT     H239919   1.890   5.122   2.519
 9803WAT    EPW39920   1.839   5.175   2.493
 9804WAT      O39921   3.030   5.017   2.560
 9804WAT     H139922   3.037   5.042   2.644
 9804WAT     H239923   3.111   4.993   2.539
 9804WAT    EPW39924   3.043   5.017   2.569
 9805WAT      O39925   2.228   5.178   2.239
 9805WAT     H139926   2.160   5.124   2.241
 9805WAT     H239927   2.294   5.129   2.268
 9805WAT    EPW39928   2.228   5.163   2.244
 9806WAT      O39929   2.440   6.337   2.442
 9806WAT     H139930   2.489   6.395   2.485
 9806WAT     H239931   2.431   6.371   2.362
 9806WAT    EPW39932   2.446   6.350   2.436
 9807WAT      O39933   2.415   6.659   2.962
 9807WAT     H139934   2.336   6.652   2.926
 9807WAT     H239935   2.432   6.745   2.958
 9807WAT    EPW39936   2.405   6.671   2.956
 9808WAT      O39937   2.027   5.694   2.759
 9808WAT     H139938   1.983   5.620   2.749
 9808WAT     H239939   1.978   5.754   2.719
 9808WAT    EPW39940   2.014   5.692   2.752
 9809WAT      O39941   2.052   4.991   1.348
 9809WAT     H139942   2.059   5.002   1.261
 9809WAT     H239943   1.965   4.992   1.361
 9809WAT    EPW39944   2.040   4.993   1.337
 9810WAT      O39945   2.985   6.195   2.444
 9810WAT     H139946   2.944   6.126   2.410
 9810WAT     H239947   2.941   6.263   2.412
 9810WAT    EPW39948   2.972   6.195   2.434
 9811WAT      O39949   1.848   6.628   2.842
 9811WAT     H139950   1.832   6.647   2.925
 9811WAT     H239951   1.906   6.563   2.846
 9811WAT    EPW39952   1.854   6.621   2.855
 9812WAT      O39953   2.877   6.432   2.346
 9812WAT     H139954   2.947   6.441   2.295
 9812WAT     H239955   2.814   6.410   2.289
 9812WAT    EPW39956   2.878   6.430   2.330
 9813WAT      O39957   1.574   5.161   2.562
 9813WAT     H139958   1.518   5.097   2.542
 9813WAT     H239959   1.525   5.233   2.559
 9813WAT    EPW39960   1.558   5.162   2.558
 9814WAT      O39961   2.476   5.034   2.238
 9814WAT     H139962   2.541   5.074   2.281
 9814WAT     H239963   2.471   5.079   2.163
 9814WAT    EPW39964   2.485   5.047   2.233
 9815WAT      O39965   1.568   6.530   2.959
 9815WAT     H139966   1.632   6.569   3.004
 9815WAT     H239967   1.528   6.597   2.919
 9815WAT    EPW39968   1.571   6.546   2.960
 9816WAT      O39969   2.414   5.621   1.940
 9816WAT     H139970   2.464   5.550   1.952
 9816WAT     H239971   2.377   5.632   2.018
 9816WAT    EPW39972   2.416   5.612   1.953
 9817WAT      O39973   1.419   5.485   1.896
 9817WAT     H139974   1.382   5.509   1.971
 9817WAT     H239975   1.462   5.411   1.916
 9817WAT    EPW39976   1.420   5.478   1.910
 9818WAT      O39977   1.425   6.299   2.684
 9818WAT     H139978   1.372   6.360   2.718
 9818WAT     H239979   1.504   6.336   2.689
 9818WAT    EPW39980   1.429   6.314   2.690
 9819WAT      O39981   2.617   5.759   1.588
 9819WAT     H139982   2.636   5.676   1.605
 9819WAT     H239983   2.542   5.754   1.545
 9819WAT    EPW39984   2.609   5.746   1.584
 9820WAT      O39985   1.606   6.625   1.551
 9820WAT     H139986   1.563   6.598   1.480
 9820WAT     H239987   1.680   6.578   1.550
 9820WAT    EPW39988   1.611   6.614   1.540
 9821WAT      O39989   1.990   5.837   1.521
 9821WAT     H139990   2.016   5.868   1.444
 9821WAT     H239991   2.064   5.822   1.564
 9821WAT    EPW39992   2.005   5.839   1.516
 9822WAT      O39993   2.890   6.693   1.204
 9822WAT     H139994   2.958   6.687   1.258
 9822WAT     H239995   2.869   6.610   1.188
 9822WAT    EPW39996   2.897   6.680   1.210
 9823WAT      O39997   3.017   6.084   2.969
 9823WAT     H139998   3.045   6.005   2.993
 9823WAT     H239999   3.031   6.086   2.883
 9823WAT    EPW40000   3.023   6.073   2.960
 9824WAT      O40001   2.524   6.331   1.510
 9824WAT     H140002   2.481   6.328   1.585
 9824WAT     H240003   2.485   6.271   1.460
 9824WAT    EPW40004   2.512   6.322   1.513
 9825WAT      O40005   2.887   5.341   3.161
 9825WAT     H140006   2.900   5.427   3.152
 9825WAT     H240007   2.832   5.321   3.096
 9825WAT    EPW40008   2.881   5.351   3.150
 9826WAT      O40009   2.945   5.389   2.181
 9826WAT     H140010   2.866   5.422   2.197
 9826WAT     H240011   2.947   5.316   2.227
 9826WAT    EPW40012   2.934   5.383   2.190
 9827WAT      O40013   1.911   5.174   2.834
 9827WAT     H140014   1.948   5.138   2.764
 9827WAT     H240015   1.829   5.145   2.831
 9827WAT    EPW40016   1.904   5.164   2.824
 9828WAT      O40017   2.691   6.024   3.105
 9828WAT     H140018   2.770   6.042   3.139
 9828WAT     H240019   2.701   6.043   3.021
 9828WAT    EPW40020   2.704   6.030   3.098
 9829WAT      O40021   1.627   6.547   2.200
 9829WAT     H140022   1.617   6.469   2.164
 9829WAT     H240023   1.590   6.602   2.143
 9829WAT    EPW40024   1.620   6.544   2.186
 9830WAT      O40025   2.175   6.158   1.380
 9830WAT     H140026   2.260   6.141   1.367
 9830WAT     H240027   2.163   6.234   1.338
 9830WAT    EPW40028   2.186   6.167   1.372
 9831WAT      O40029   1.389   6.769   2.545
 9831WAT     H140030   1.397   6.752   2.631
 9831WAT     H240031   1.424   6.699   2.507
 9831WAT    EPW40032   1.395   6.756   2.552
 9832WAT      O40033   2.296   5.638   0.355
 9832WAT     H140034   2.261   5.715   0.379
 9832WAT     H240035   2.360   5.625   0.413
 9832WAT    EPW40036   2.300   5.647   0.367
 9833WAT      O40037   1.342   6.328   0.528
 9833WAT     H140038   1.355   6.322   0.614
 9833WAT     H240039   1.285   6.264   0.511
 9833WAT    EPW40040   1.336   6.317   0.539
 9834WAT      O40041   1.950   6.148   0.987
 9834WAT     H140042   1.927   6.133   1.070
 9834WAT     H240043   1.877   6.133   0.942
 9834WAT    EPW40044   1.936   6.144   0.993
 9835WAT      O40045   1.903   5.427   0.555
 9835WAT     H140046   1.981   5.430   0.514
 9835WAT     H240047   1.880   5.343   0.549
 9835WAT    EPW40048   1.911   5.415   0.548
 9836WAT      O40049   1.930   6.448   0.724
 9836WAT     H140050   1.951   6.503   0.660
 9836WAT     H240051   2.007   6.415   0.750
 9836WAT    EPW40052   1.944   6.451   0.718
 9837WAT      O40053   2.244   5.722   0.922
 9837WAT     H140054   2.157   5.714   0.919
 9837WAT     H240055   2.258   5.767   0.996
 9837WAT    EPW40056   2.233   5.727   0.933
 9838WAT      O40057   2.670   4.896   0.823
 9838WAT     H140058   2.660   4.976   0.789
 9838WAT     H240059   2.601   4.887   0.876
 9838WAT    EPW40060   2.659   4.906   0.826
 9839WAT      O40061   1.304   5.649   0.317
 9839WAT     H140062   1.273   5.730   0.325
 9839WAT     H240063   1.240   5.599   0.348
 9839WAT    EPW40064   1.290   5.653   0.323
 9840WAT      O40065   1.541   5.071   0.385
 9840WAT     H140066   1.555   5.132   0.325
 9840WAT     H240067   1.601   5.010   0.366
 9840WAT    EPW40068   1.552   5.071   0.373
 9841WAT      O40069   1.919   5.314   1.203
 9841WAT     H140070   1.913   5.277   1.124
 9841WAT     H240071   1.961   5.389   1.187
 9841WAT    EPW40072   1.924   5.320   1.189
 9842WAT      O40073   2.528   6.611   0.606
 9842WAT     H140074   2.588   6.645   0.659
 9842WAT     H240075   2.557   6.631   0.527
 9842WAT    EPW40076   2.541   6.619   0.602
 9843WAT      O40077   1.512   5.234   1.123
 9843WAT     H140078   1.432   5.200   1.117
 9843WAT     H240079   1.553   5.202   1.052
 9843WAT    EPW40080   1.506   5.224   1.111
 9844WAT      O40081   2.083   5.026   1.075
 9844WAT     H140082   2.100   4.952   1.033
 9844WAT     H240083   2.012   5.057   1.035
 9844WAT    EPW40084   2.075   5.019   1.063
 9845WAT      O40085   1.726   6.691   0.624
 9845WAT     H140086   1.752   6.680   0.707
 9845WAT     H240087   1.670   6.626   0.612
 9845WAT    EPW40088   1.721   6.680   0.634
 9846WAT      O40089   3.001   5.217   0.472
 9846WAT     H140090   3.054   5.166   0.425
 9846WAT     H240091   2.996   5.175   0.549
 9846WAT    EPW40092   3.008   5.203   0.477
 9847WAT      O40093   1.260   5.340   0.872
 9847WAT     H140094   1.246   5.419   0.905
 9847WAT     H240095   1.316   5.354   0.807
 9847WAT    EPW40096   1.266   5.354   0.868
 9848WAT      O40097   2.415   6.423   0.910
 9848WAT     H140098   2.404   6.432   0.996
 9848WAT     H240099   2.501   6.406   0.902
 9848WAT    EPW40100   2.426   6.422   0.922
 9849WAT      O40101   1.532   6.526   0.498
 9849WAT     H140102   1.478   6.460   0.509
 9849WAT     H240103   1.561   6.515   0.416
 9849WAT    EPW40104   1.529   6.515   0.487
 9850WAT      O40105   2.267   6.670   0.667
 9850WAT     H140106   2.345   6.641   0.641
 9850WAT     H240107   2.212   6.637   0.608
 9850WAT    EPW40108   2.270   6.661   0.654
 9851WAT      O40109   1.668   6.391   0.843
 9851WAT     H140110   1.744   6.423   0.815
 9851WAT     H240111   1.655   6.433   0.919
 9851WAT    EPW40112   1.677   6.402   0.850
 9852WAT      O40113   1.880   6.035   0.262
 9852WAT     H140114   1.891   6.002   0.342
 9852WAT     H240115   1.867   5.965   0.212
 9852WAT    EPW40116   1.879   6.020   0.267
 9853WAT      O40117   2.453   5.341   0.681
 9853WAT     H140118   2.442   5.391   0.752
 9853WAT     H240119   2.385   5.288   0.682
 9853WAT    EPW40120   2.442   5.341   0.692
 9854WAT      O40121   1.942   5.979   0.529
 9854WAT     H140122   1.931   6.064   0.543
 9854WAT     H240123   1.917   5.942   0.604
 9854WAT    EPW40124   1.937   5.986   0.542
 9855WAT      O40125   2.523   6.082   0.473
 9855WAT     H140126   2.474   6.038   0.531
 9855WAT     H240127   2.515   6.165   0.498
 9855WAT    EPW40128   2.515   6.088   0.485
 9856WAT      O40129   1.237   6.374   1.173
 9856WAT     H140130   1.295   6.422   1.216
 9856WAT     H240131   1.248   6.294   1.207
 9856WAT    EPW40132   1.247   6.369   1.184
 9857WAT      O40133   2.860   5.366   0.769
 9857WAT     H140134   2.942   5.347   0.792
 9857WAT     H240135   2.819   5.375   0.845
 9857WAT    EPW40136   2.866   5.365   0.784
 9858WAT      O40137   1.501   5.474   0.407
 9858WAT     H140138   1.579   5.510   0.393
 9858WAT     H240139   1.446   5.529   0.370
 9858WAT    EPW40140   1.505   5.487   0.400
 9859WAT      O40141   3.127   6.507   0.915
 9859WAT     H140142   3.050   6.513   0.875
 9859WAT     H240143   3.110   6.464   0.988
 9859WAT    EPW40144   3.113   6.501   0.920
 9860WAT      O40145   2.054   5.559   1.180
 9860WAT     H140146   2.006   5.589   1.247
 9860WAT     H240147   2.027   5.608   1.113
 9860WAT    EPW40148   2.043   5.571   1.180
 9861WAT      O40149   3.131   5.624   0.657
 9861WAT     H140150   3.192   5.561   0.655
 9861WAT     H240151   3.072   5.597   0.598
 9861WAT    EPW40152   3.131   5.610   0.648
 9862WAT      O40153   1.662   6.190   0.359
 9862WAT     H140154   1.708   6.213   0.429
 9862WAT     H240155   1.719   6.144   0.312
 9862WAT    EPW40156   1.678   6.187   0.362
 9863WAT      O40157   2.873   6.528   0.789
 9863WAT     H140158   2.820   6.598   0.793
 9863WAT     H240159   2.863   6.500   0.706
 9863WAT    EPW40160   2.863   6.534   0.777
 9864WAT      O40161   1.607   5.690   1.057
 9864WAT     H140162   1.570   5.628   1.105
 9864WAT     H240163   1.605   5.658   0.976
 9864WAT    EPW40164   1.601   5.676   1.052
 9865WAT      O40165   1.655   5.766   0.585
 9865WAT     H140166   1.688   5.718   0.519
 9865WAT     H240167   1.606   5.826   0.544
 9865WAT    EPW40168   1.652   5.768   0.569
 9866WAT      O40169   2.713   5.496   0.379
 9866WAT     H140170   2.653   5.525   0.434
 9866WAT     H240171   2.680   5.513   0.300
 9866WAT    EPW40172   2.700   5.503   0.375
 9867WAT      O40173   2.038   6.604   0.518
 9867WAT     H140174   2.029   6.547   0.452
 9867WAT     H240175   2.018   6.681   0.481
 9867WAT    EPW40176   2.034   6.607   0.503
 9868WAT      O40177   2.273   5.113   0.708
 9868WAT     H140178   2.289   5.029   0.695
 9868WAT     H240179   2.290   5.125   0.792
 9868WAT    EPW40180   2.278   5.103   0.718
 9869WAT      O40181   1.457   5.916   1.102
 9869WAT     H140182   1.454   5.960   1.027
 9869WAT     H240183   1.507   5.848   1.084
 9869WAT    EPW40184   1.464   5.913   1.088
 9870WAT      O40185   2.627   6.097   0.954
 9870WAT     H140186   2.652   6.179   0.939
 9870WAT     H240187   2.658   6.053   0.884
 9870WAT    EPW40188   2.635   6.103   0.941
 9871WAT      O40189   2.017   6.421   1.026
 9871WAT     H140190   2.055   6.416   1.105
 9871WAT     H240191   1.998   6.338   1.008
 9871WAT    EPW40192   2.020   6.408   1.035
 9872WAT      O40193   2.133   5.418   0.408
 9872WAT     H140194   2.187   5.482   0.384
 9872WAT     H240195   2.181   5.346   0.399
 9872WAT    EPW40196   2.148   5.417   0.403
 9873WAT      O40197   2.632   6.371   0.255
 9873WAT     H140198   2.558   6.343   0.219
 9873WAT     H240199   2.622   6.458   0.257
 9873WAT    EPW40200   2.620   6.380   0.250
 9874WAT      O40201   2.415   6.187   0.225
 9874WAT     H140202   2.329   6.173   0.233
 9874WAT     H240203   2.450   6.139   0.289
 9874WAT    EPW40204   2.407   6.178   0.235
 9875WAT      O40205   2.740   5.953   0.740
 9875WAT     H140206   2.740   5.931   0.655
 9875WAT     H240207   2.824   5.970   0.757
 9875WAT    EPW40208   2.752   5.952   0.730
 9876WAT      O40209   2.398   6.534   1.178
 9876WAT     H140210   2.430   6.555   1.256
 9876WAT     H240211   2.417   6.603   1.128
 9876WAT    EPW40212   2.405   6.547   1.182
 9877WAT      O40213   2.894   4.982   0.963
 9877WAT     H140214   2.818   4.961   0.926
 9877WAT     H240215   2.891   4.943   1.041
 9877WAT    EPW40216   2.883   4.973   0.969
 9878WAT      O40217   2.349   5.961   0.657
 9878WAT     H140218   2.299   5.994   0.721
 9878WAT     H240219   2.392   5.895   0.696
 9878WAT    EPW40220   2.348   5.956   0.672
 9879WAT      O40221   2.779   6.187   0.401
 9879WAT     H140222   2.745   6.238   0.339
 9879WAT     H240223   2.711   6.138   0.426
 9879WAT    EPW40224   2.764   6.187   0.396
 9880WAT      O40225   2.150   6.127   0.305
 9880WAT     H140226   2.069   6.113   0.277
 9880WAT     H240227   2.172   6.052   0.344
 9880WAT    EPW40228   2.142   6.114   0.306
 9881WAT      O40229   1.498   5.963   0.448
 9881WAT     H140230   1.538   6.038   0.428
 9881WAT     H240231   1.446   5.950   0.379
 9881WAT    EPW40232   1.496   5.973   0.435
 9882WAT      O40233   2.768   5.828   0.489
 9882WAT     H140234   2.781   5.757   0.539
 9882WAT     H240235   2.686   5.817   0.460
 9882WAT    EPW40236   2.758   5.816   0.492
 9883WAT      O40237   1.448   6.049   0.863
 9883WAT     H140238   1.412   5.999   0.801
 9883WAT     H240239   1.418   6.129   0.844
 9883WAT    EPW40240   1.438   6.054   0.851
 9884WAT      O40241   3.001   5.907   0.358
 9884WAT     H140242   2.930   5.879   0.399
 9884WAT     H240243   2.970   5.954   0.292
 9884WAT    EPW40244   2.986   5.910   0.354
 9885WAT      O40245   2.681   5.329   0.993
 9885WAT     H140246   2.611   5.329   1.046
 9885WAT     H240247   2.662   5.267   0.935
 9885WAT    EPW40248   2.668   5.320   0.993
 9886WAT      O40249   3.056   6.497   0.394
 9886WAT     H140250   3.102   6.528   0.327
 9886WAT     H240251   3.114   6.451   0.440
 9886WAT    EPW40252   3.072   6.495   0.391
 9887WAT      O40253   2.549   5.675   1.104
 9887WAT     H140254   2.593   5.681   1.179
 9887WAT     H240255   2.480   5.726   1.117
 9887WAT    EPW40256   2.545   5.684   1.117
 9888WAT      O40257   2.780   5.703   0.943
 9888WAT     H140258   2.806   5.783   0.966
 9888WAT     H240259   2.709   5.689   0.992
 9888WAT    EPW40260   2.774   5.712   0.953
 9889WAT      O40261   3.103   5.783   1.126
 9889WAT     H140262   3.105   5.728   1.058
 9889WAT     H240263   3.181   5.822   1.123
 9889WAT    EPW40264   3.115   5.780   1.116
 9890WAT      O40265   3.005   6.027   0.780
 9890WAT     H140266   3.070   5.973   0.758
 9890WAT     H240267   3.003   6.083   0.713
 9890WAT    EPW40268   3.014   6.027   0.767
 9891WAT      O40269   1.879   6.252   0.531
 9891WAT     H140270   1.888   6.305   0.600
 9891WAT     H240271   1.910   6.300   0.465
 9891WAT    EPW40272   1.885   6.267   0.531
 9892WAT      O40273   1.715   6.115   0.840
 9892WAT     H140274   1.634   6.085   0.850
 9892WAT     H240275   1.705   6.201   0.833
 9892WAT    EPW40276   1.702   6.123   0.840
 9893WAT      O40277   2.658   5.169   0.760
 9893WAT     H140278   2.730   5.212   0.737
 9893WAT     H240279   2.594   5.215   0.724
 9893WAT    EPW40280   2.659   5.182   0.751
 9894WAT      O40281   2.192   5.889   0.444
 9894WAT     H140282   2.244   5.908   0.511
 9894WAT     H240283   2.111   5.901   0.476
 9894WAT    EPW40284   2.188   5.893   0.459
 9895WAT      O40285   1.856   5.458   0.825
 9895WAT     H140286   1.864   5.379   0.861
 9895WAT     H240287   1.881   5.446   0.743
 9895WAT    EPW40288   1.861   5.444   0.818
 9896WAT      O40289   2.771   4.953   0.522
 9896WAT     H140290   2.740   5.033   0.505
 9896WAT     H240291   2.839   4.967   0.574
 9896WAT    EPW40292   2.776   4.967   0.527
 9897WAT      O40293   2.000   5.051   0.757
 9897WAT     H140294   2.086   5.053   0.741
 9897WAT     H240295   1.986   4.969   0.783
 9897WAT    EPW40296   2.010   5.039   0.758
 9898WAT      O40297   1.936   6.425   0.316
 9898WAT     H140298   1.856   6.441   0.283
 9898WAT     H240299   1.983   6.403   0.246
 9898WAT    EPW40300   1.931   6.424   0.301
 9899WAT      O40301   2.372   6.097   1.056
 9899WAT     H140302   2.450   6.098   1.017
 9899WAT     H240303   2.316   6.104   0.990
 9899WAT    EPW40304   2.376   6.098   1.040
 9900WAT      O40305   2.693   6.367   0.927
 9900WAT     H140306   2.729   6.384   1.005
 9900WAT     H240307   2.746   6.407   0.871
 9900WAT    EPW40308   2.706   6.375   0.930
 9901WAT      O40309   1.755   5.591   0.389
 9901WAT     H140310   1.793   5.586   0.311
 9901WAT     H240311   1.805   5.539   0.439
 9901WAT    EPW40312   1.768   5.582   0.385
 9902WAT      O40313   2.436   5.531   0.885
 9902WAT     H140314   2.364   5.580   0.894
 9902WAT     H240315   2.478   5.541   0.960
 9902WAT    EPW40316   2.431   5.539   0.897
 9903WAT      O40317   2.501   5.576   0.534
 9903WAT     H140318   2.513   5.633   0.599
 9903WAT     H240319   2.482   5.502   0.574
 9903WAT    EPW40320   2.500   5.574   0.549
 9904WAT      O40321   2.161   6.639   0.921
 9904WAT     H140322   2.189   6.624   0.839
 9904WAT     H240323   2.127   6.562   0.944
 9904WAT    EPW40324   2.160   6.625   0.912
 9905WAT      O40325   1.999   5.010   0.391
 9905WAT     H140326   1.952   5.064   0.441
 9905WAT     H240327   1.939   4.973   0.339
 9905WAT    EPW40328   1.983   5.012   0.391
 9906WAT      O40329   2.190   6.098   0.848
 9906WAT     H140330   2.114   6.095   0.891
 9906WAT     H240331   2.191   6.179   0.816
 9906WAT    EPW40332   2.179   6.109   0.850
 9907WAT      O40333   1.267   5.118   1.037
 9907WAT     H140334   1.265   5.187   0.984
 9907WAT     H240335   1.194   5.075   1.016
 9907WAT    EPW40336   1.256   5.121   1.026
 9908WAT      O40337   1.722   6.747   0.343
 9908WAT     H140338   1.727   6.730   0.428
 9908WAT     H240339   1.703   6.670   0.307
 9908WAT    EPW40340   1.720   6.733   0.350
 9909WAT      O40341   2.191   6.357   0.757
 9909WAT     H140342   2.266   6.381   0.794
 9909WAT     H240343   2.210   6.354   0.672
 9909WAT    EPW40344   2.205   6.360   0.750
 9910WAT      O40345   3.049   5.607   0.920
 9910WAT     H140346   2.963   5.621   0.926
 9910WAT     H240347   3.067   5.621   0.836
 9910WAT    EPW40348   3.039   5.611   0.909
 9911WAT      O40349   2.523   5.761   0.740
 9911WAT     H140350   2.506   5.701   0.802
 9911WAT     H240351   2.594   5.801   0.770
 9911WAT    EPW40352   2.531   5.758   0.754
 9912WAT      O40353   1.411   6.731   0.948
 9912WAT     H140354   1.351   6.670   0.932
 9912WAT     H240355   1.363   6.799   0.976
 9912WAT    EPW40356   1.395   6.732   0.950
 9913WAT      O40357   2.317   5.849   1.163
 9913WAT     H140358   2.341   5.927   1.132
 9913WAT     H240359   2.236   5.863   1.192
 9913WAT    EPW40360   2.308   5.862   1.163
 9914WAT      O40361   2.612   6.641   0.337
 9914WAT     H140362   2.571   6.715   0.319
 9914WAT     H240363   2.685   6.666   0.377
 9914WAT    EPW40364   2.616   6.655   0.340
 9915WAT      O40365   2.226   6.339   0.483
 9915WAT     H140366   2.202   6.273   0.430
 9915WAT     H240367   2.312   6.342   0.474
 9915WAT    EPW40368   2.235   6.330   0.474
 9916WAT      O40369   2.838   6.427   1.158
 9916WAT     H140370   2.922   6.405   1.156
 9916WAT     H240371   2.808   6.390   1.231
 9916WAT    EPW40372   2.846   6.418   1.168
 9917WAT      O40373   1.611   5.585   0.796
 9917WAT     H140374   1.623   5.645   0.734
 9917WAT     H240375   1.689   5.547   0.803
 9917WAT    EPW40376   1.624   5.588   0.788
 9918WAT      O40377   1.442   5.412   0.666
 9918WAT     H140378   1.460   5.427   0.582
 9918WAT     H240379   1.499   5.462   0.708
 9918WAT    EPW40380   1.453   5.422   0.660
 9919WAT      O40381   1.622   5.094   0.908
 9919WAT     H140382   1.582   5.016   0.918
 9919WAT     H240383   1.606   5.115   0.825
 9919WAT    EPW40384   1.614   5.085   0.897
 9920WAT      O40385   2.808   5.625   0.674
 9920WAT     H140386   2.824   5.540   0.686
 9920WAT     H240387   2.792   5.655   0.754
 9920WAT    EPW40388   2.808   5.617   0.687
 9921WAT      O40389   1.337   5.888   0.668
 9921WAT     H140390   1.379   5.910   0.595
 9921WAT     H240391   1.320   5.803   0.656
 9921WAT    EPW40392   1.340   5.878   0.655
 9922WAT      O40393   2.319   5.144   0.980
 9922WAT     H140394   2.356   5.202   1.033
 9922WAT     H240395   2.246   5.121   1.022
 9922WAT    EPW40396   2.313   5.149   0.994
 9923WAT      O40397   2.724   5.219   0.424
 9923WAT     H140398   2.811   5.214   0.427
 9923WAT     H240399   2.708   5.304   0.415
 9923WAT    EPW40400   2.734   5.231   0.423
 9924WAT      O40401   1.838   5.872   0.764
 9924WAT     H140402   1.802   5.947   0.792
 9924WAT     H240403   1.777   5.838   0.713
 9924WAT    EPW40404   1.824   5.878   0.761
 9925WAT      O40405   1.841   5.161   0.562
 9925WAT     H140406   1.756   5.152   0.582
 9925WAT     H240407   1.882   5.121   0.627
 9925WAT    EPW40408   1.834   5.154   0.574
 9926WAT      O40409   2.980   5.041   0.692
 9926WAT     H140410   2.959   5.029   0.776
 9926WAT     H240411   3.061   5.009   0.687
 9926WAT    EPW40412   2.989   5.034   0.704
 9927WAT      O40413   2.248   5.157   0.423
 9927WAT     H140414   2.180   5.109   0.399
 9927WAT     H240415   2.252   5.147   0.509
 9927WAT    EPW40416   2.239   5.148   0.432
 9928WAT      O40417   2.504   6.354   0.503
 9928WAT     H140418   2.520   6.424   0.552
 9928WAT     H240419   2.549   6.370   0.430
 9928WAT    EPW40420   2.513   6.367   0.499
 9929WAT      O40421   2.443   6.726   0.977
 9929WAT     H140422   2.383   6.676   0.939
 9929WAT     H240423   2.405   6.804   0.983
 9929WAT    EPW40424   2.429   6.730   0.972
 9930WAT      O40425   1.969   5.686   0.937
 9930WAT     H140426   1.936   5.614   0.901
 9930WAT     H240427   1.930   5.751   0.894
 9930WAT    EPW40428   1.958   5.685   0.926
 9931WAT      O40429   3.023   6.134   0.520
 9931WAT     H140430   3.036   6.057   0.480
 9931WAT     H240431   2.948   6.162   0.486
 9931WAT    EPW40432   3.014   6.127   0.509
 9932WAT      O40433   1.848   6.661   0.887
 9932WAT     H140434   1.843   6.657   0.974
 9932WAT     H240435   1.894   6.589   0.866
 9932WAT    EPW40436   1.854   6.650   0.897
 9933WAT      O40437   2.825   6.436   0.535
 9933WAT     H140438   2.891   6.463   0.484
 9933WAT     H240439   2.804   6.359   0.501
 9933WAT    EPW40440   2.832   6.428   0.522
 9934WAT      O40441   1.573   5.164   0.647
 9934WAT     H140442   1.545   5.123   0.576
 9934WAT     H240443   1.527   5.239   0.647
 9934WAT    EPW40444   1.562   5.169   0.637
 9935WAT      O40445   2.501   5.061   0.325
 9935WAT     H140446   2.560   5.119   0.352
 9935WAT     H240447   2.425   5.097   0.351
 9935WAT    EPW40448   2.498   5.075   0.333
 9936WAT      O40449   1.566   6.534   1.076
 9936WAT     H140450   1.640   6.572   1.101
 9936WAT     H240451   1.521   6.598   1.038
 9936WAT    EPW40452   1.570   6.549   1.074
 9937WAT      O40453   1.401   6.318   0.796
 9937WAT     H140454   1.351   6.379   0.835
 9937WAT     H240455   1.482   6.348   0.808
 9937WAT    EPW40456   1.405   6.331   0.804
 9938WAT      O40457   2.898   5.941   1.030
 9938WAT     H140458   2.966   5.903   1.069
 9938WAT     H240459   2.935   5.984   0.963
 9938WAT    EPW40460   2.913   5.942   1.026
 9939WAT      O40461   2.922   5.379   1.125
 9939WAT     H140462   2.917   5.459   1.161
 9939WAT     H240463   2.841   5.367   1.092
 9939WAT    EPW40464   2.909   5.389   1.125
 9940WAT      O40465   2.990   5.498   0.443
 9940WAT     H140466   2.905   5.507   0.428
 9940WAT     H240467   3.001   5.412   0.453
 9940WAT    EPW40468   2.979   5.487   0.442
 9941WAT      O40469   1.876   5.198   0.948
 9941WAT     H140470   1.920   5.161   0.882
 9941WAT     H240471   1.797   5.163   0.942
 9941WAT    EPW40472   1.871   5.187   0.938
 9942WAT      O40473   2.681   6.003   1.238
 9942WAT     H140474   2.754   6.027   1.279
 9942WAT     H240475   2.699   6.017   1.154
 9942WAT    EPW40476   2.694   6.008   1.232
 9943WAT      O40477   1.658   6.456   0.242
 9943WAT     H140478   1.645   6.373   0.264
 9943WAT     H240479   1.630   6.460   0.159
 9943WAT    EPW40480   1.652   6.444   0.233
 9944WAT      O40481   1.371   6.720   0.647
 9944WAT     H140482   1.424   6.726   0.716
 9944WAT     H240483   1.416   6.671   0.590
 9944WAT    EPW40484   1.385   6.714   0.649
 9945WAT      O40485   2.358   3.143   7.432
 9945WAT     H140486   2.338   3.183   7.357
 9945WAT     H240487   2.444   3.130   7.426
 9945WAT    EPW40488   2.368   3.147   7.420
 9946WAT      O40489   1.286   4.254   7.398
 9946WAT     H140490   1.209   4.250   7.439
 9946WAT     H240491   1.297   4.173   7.368
 9946WAT    EPW40492   1.276   4.242   7.400
 9947WAT      O40493   2.948   4.686   7.189
 9947WAT     H140494   3.011   4.629   7.209
 9947WAT     H240495   2.889   4.637   7.148
 9947WAT    EPW40496   2.949   4.670   7.186
 9948WAT      O40497   1.270   3.607   7.075
 9948WAT     H140498   1.205   3.654   7.043
 9948WAT     H240499   1.243   3.525   7.065
 9948WAT    EPW40500   1.257   3.602   7.069
 9949WAT      O40501   1.570   4.214   7.000
 9949WAT     H140502   1.545   4.166   6.932
 9949WAT     H240503   1.587   4.155   7.062
 9949WAT    EPW40504   1.569   4.198   6.999
 9950WAT      O40505   2.546   3.993   7.562
 9950WAT     H140506   2.554   3.984   7.476
 9950WAT     H240507   2.501   3.922   7.586
 9950WAT    EPW40508   2.540   3.981   7.553
 9951WAT      O40509   1.540   4.372   7.391
 9951WAT     H140510   1.595   4.336   7.449
 9951WAT     H240511   1.466   4.328   7.404
 9951WAT    EPW40512   1.537   4.360   7.402
 9952WAT      O40513   1.965   3.266   7.302
 9952WAT     H140514   1.977   3.337   7.253
 9952WAT     H240515   2.036   3.218   7.287
 9952WAT    EPW40516   1.977   3.269   7.292
 9953WAT      O40517   1.422   4.653   6.979
 9953WAT     H140518   1.471   4.659   6.907
 9953WAT     H240519   1.462   4.592   7.027
 9953WAT    EPW40520   1.435   4.645   6.975
 9954WAT      O40521   1.511   4.012   7.547
 9954WAT     H140522   1.462   4.012   7.475
 9954WAT     H240523   1.566   3.946   7.534
 9954WAT    EPW40524   1.512   4.002   7.535
 9955WAT      O40525   1.669   3.798   7.475
 9955WAT     H140526   1.730   3.766   7.528
 9955WAT     H240527   1.601   3.745   7.487
 9955WAT    EPW40528   1.668   3.785   7.484
 9956WAT      O40529   1.994   4.428   7.644
 9956WAT     H140530   2.030   4.349   7.654
 9956WAT     H240531   2.062   4.482   7.647
 9956WAT    EPW40532   2.009   4.424   7.646
 9957WAT      O40533   2.075   4.327   7.322
 9957WAT     H140534   2.127   4.268   7.359
 9957WAT     H240535   2.098   4.325   7.238
 9957WAT    EPW40536   2.086   4.318   7.315
 9958WAT      O40537   1.718   3.330   7.432
 9958WAT     H140538   1.678   3.385   7.376
 9958WAT     H240539   1.796   3.316   7.394
 9958WAT    EPW40540   1.724   3.336   7.418
 9959WAT      O40541   2.054   3.262   7.568
 9959WAT     H140542   2.037   3.338   7.605
 9959WAT     H240543   2.020   3.269   7.488
 9959WAT    EPW40544   2.047   3.274   7.562
 9960WAT      O40545   2.446   3.431   6.876
 9960WAT     H140546   2.404   3.499   6.910
 9960WAT     H240547   2.461   3.379   6.944
 9960WAT    EPW40548   2.442   3.433   6.891
 9961WAT      O40549   1.443   3.789   7.809
 9961WAT     H140550   1.409   3.869   7.805
 9961WAT     H240551   1.397   3.749   7.872
 9961WAT    EPW40552   1.431   3.795   7.818
 9962WAT      O40553   1.299   4.713   7.643
 9962WAT     H140554   1.234   4.761   7.610
 9962WAT     H240555   1.338   4.680   7.573
 9962WAT    EPW40556   1.295   4.716   7.628
 9963WAT      O40557   1.902   4.548   7.313
 9963WAT     H140558   1.851   4.548   7.384
 9963WAT     H240559   1.955   4.480   7.327
 9963WAT    EPW40560   1.902   4.538   7.326
 9964WAT      O40561   2.498   4.744   7.092
 9964WAT     H140562   2.570   4.793   7.104
 9964WAT     H240563   2.521   4.666   7.123
 9964WAT    EPW40564   2.512   4.740   7.098
 9965WAT      O40565   2.282   4.754   7.260
 9965WAT     H140566   2.299   4.821   7.314
 9965WAT     H240567   2.350   4.755   7.205
 9965WAT    EPW40568   2.295   4.764   7.260
 9966WAT      O40569   1.433   4.627   7.412
 9966WAT     H140570   1.480   4.554   7.424
 9966WAT     H240571   1.488   4.681   7.373
 9966WAT    EPW40572   1.448   4.624   7.408
 9967WAT      O40573   3.007   3.417   7.512
 9967WAT     H140574   2.973   3.490   7.544
 9967WAT     H240575   2.940   3.379   7.472
 9967WAT    EPW40576   2.992   3.422   7.511
 9968WAT      O40577   1.620   4.421   7.757
 9968WAT     H140578   1.647   4.482   7.701
 9968WAT     H240579   1.652   4.347   7.723
 9968WAT    EPW40580   1.629   4.419   7.744
 9969WAT      O40581   1.895   4.800   7.542
 9969WAT     H140582   1.969   4.832   7.573
 9969WAT     H240583   1.835   4.858   7.566
 9969WAT    EPW40584   1.897   4.813   7.550
 9970WAT      O40585   2.226   3.692   7.475
 9970WAT     H140586   2.255   3.636   7.415
 9970WAT     H240587   2.295   3.706   7.525
 9970WAT    EPW40588   2.240   3.686   7.473
 9971WAT      O40589   2.305   3.636   7.012
 9971WAT     H140590   2.335   3.717   7.019
 9971WAT     H240591   2.228   3.646   6.971
 9971WAT    EPW40592   2.298   3.649   7.007
 9972WAT      O40593   2.712   4.925   7.099
 9972WAT     H140594   2.756   4.907   7.025
 9972WAT     H240595   2.774   4.957   7.152
 9972WAT    EPW40596   2.728   4.927   7.096
 9973WAT      O40597   2.164   4.581   6.918
 9973WAT     H140598   2.127   4.641   6.970
 9973WAT     H240599   2.239   4.618   6.895
 9973WAT    EPW40600   2.170   4.595   6.922
 9974WAT      O40601   2.516   3.272   7.093
 9974WAT     H140602   2.576   3.210   7.086
 9974WAT     H240603   2.553   3.332   7.144
 9974WAT    EPW40604   2.530   3.272   7.099
 9975WAT      O40605   1.340   3.391   7.345
 9975WAT     H140606   1.325   3.306   7.330
 9975WAT     H240607   1.293   3.407   7.417
 9975WAT    EPW40608   1.331   3.381   7.354
 9976WAT      O40609   2.310   3.525   7.267
 9976WAT     H140610   2.273   3.447   7.255
 9976WAT     H240611   2.301   3.564   7.190
 9976WAT    EPW40612   2.304   3.519   7.254
 9977WAT      O40613   2.259   3.254   7.193
 9977WAT     H140614   2.202   3.243   7.128
 9977WAT     H240615   2.337   3.254   7.152
 9977WAT    EPW40616   2.262   3.252   7.177
 9978WAT      O40617   2.985   4.849   7.550
 9978WAT     H140618   2.948   4.928   7.539
 9978WAT     H240619   2.928   4.795   7.512
 9978WAT    EPW40620   2.971   4.853   7.543
 9979WAT      O40621   2.070   3.534   7.645
 9979WAT     H140622   2.111   3.585   7.587
 9979WAT     H240623   2.098   3.564   7.722
 9979WAT    EPW40624   2.081   3.546   7.648
 9980WAT      O40625   2.705   4.449   7.484
 9980WAT     H140626   2.770   4.391   7.489
 9980WAT     H240627   2.634   4.401   7.495
 9980WAT    EPW40628   2.704   4.434   7.486
 9981WAT      O40629   1.643   3.089   7.552
 9981WAT     H140630   1.660   3.170   7.525
 9981WAT     H240631   1.633   3.044   7.478
 9981WAT    EPW40632   1.644   3.094   7.537
 9982WAT      O40633   2.631   3.091   7.456
 9982WAT     H140634   2.629   3.084   7.542
 9982WAT     H240635   2.662   3.015   7.429
 9982WAT    EPW40636   2.635   3.079   7.464
 9983WAT      O40637   1.622   3.457   7.658
 9983WAT     H140638   1.651   3.410   7.591
 9983WAT     H240639   1.558   3.407   7.691
 9983WAT    EPW40640   1.617   3.442   7.653
 9984WAT      O40641   2.886   4.260   7.063
 9984WAT     H140642   2.879   4.207   7.132
 9984WAT     H240643   2.972   4.266   7.051
 9984WAT    EPW40644   2.898   4.253   7.071
 9985WAT      O40645   1.692   4.217   7.572
 9985WAT     H140646   1.753   4.194   7.513
 9985WAT     H240647   1.636   4.150   7.572
 9985WAT    EPW40648   1.693   4.204   7.563
 9986WAT      O40649   1.524   4.819   7.766
 9986WAT     H140650   1.451   4.791   7.730
 9986WAT     H240651   1.567   4.857   7.701
 9986WAT    EPW40652   1.520   4.820   7.751
 9987WAT      O40653   2.630   3.909   6.905
 9987WAT     H140654   2.638   3.996   6.902
 9987WAT     H240655   2.564   3.897   6.961
 9987WAT    EPW40656   2.622   3.920   6.913
 9988WAT      O40657   1.850   4.148   7.349
 9988WAT     H140658   1.905   4.215   7.338
 9988WAT     H240659   1.894   4.080   7.315
 9988WAT    EPW40660   1.865   4.148   7.342
 9989WAT      O40661   3.034   3.317   6.889
 9989WAT     H140662   3.006   3.288   6.966
 9989WAT     H240663   3.007   3.400   6.887
 9989WAT    EPW40664   3.026   3.325   6.900
 9990WAT      O40665   1.370   4.313   7.831
 9990WAT     H140666   1.326   4.385   7.852
 9990WAT     H240667   1.448   4.343   7.805
 9990WAT    EPW40668   1.375   4.328   7.830
 9991WAT      O40669   1.367   4.004   7.311
 9991WAT     H140670   1.352   3.919   7.310
 9991WAT     H240671   1.442   4.012   7.267
 9991WAT    EPW40672   1.376   3.993   7.304
 9992WAT      O40673   2.927   3.251   7.146
 9992WAT     H140674   2.997   3.213   7.182
 9992WAT     H240675   2.886   3.287   7.214
 9992WAT    EPW40676   2.932   3.251   7.162
 9993WAT      O40677   2.223   4.592   7.643
 9993WAT     H140678   2.205   4.677   7.642
 9993WAT     H240679   2.248   4.574   7.562
 9993WAT    EPW40680   2.224   4.602   7.631
 9994WAT      O40681   1.262   4.481   7.246
 9994WAT     H140682   1.316   4.534   7.289
 9994WAT     H240683   1.259   4.410   7.296
 9994WAT    EPW40684   1.269   4.478   7.259
 9995WAT      O40685   2.563   3.510   7.683
 9995WAT     H140686   2.585   3.464   7.754
 9995WAT     H240687   2.498   3.464   7.648
 9995WAT    EPW40688   2.557   3.497   7.689
 9996WAT      O40689   1.282   4.309   7.021
 9996WAT     H140690   1.359   4.269   7.018
 9996WAT     H240691   1.291   4.366   7.087
 9996WAT    EPW40692   1.295   4.312   7.030
 9997WAT      O40693   1.342   4.046   7.764
 9997WAT     H140694   1.393   4.040   7.693
 9997WAT     H240695   1.358   4.126   7.793
 9997WAT    EPW40696   1.352   4.057   7.757
 9998WAT      O40697   2.001   3.471   7.128
 9998WAT     H140698   1.993   3.453   7.043
 9998WAT     H240699   1.965   3.550   7.136
 9998WAT    EPW40700   1.994   3.480   7.117
 9999WAT      O40701   1.766   4.556   7.559
 9999WAT     H140702   1.799   4.637   7.563
 9999WAT     H240703   1.831   4.506   7.590
 9999WAT    EPW40704   1.781   4.560   7.564
10000WAT      O40705   1.602   3.756   7.147
10000WAT     H140706   1.586   3.690   7.203
10000WAT     H240707   1.570   3.726   7.071
10000WAT    EPW40708   1.595   3.742   7.144
10001WAT      O40709   1.720   3.829   7.871
10001WAT     H140710   1.635   3.820   7.855
10001WAT     H240711   1.759   3.779   7.811
10001WAT    EPW40712   1.714   3.820   7.860
10002WAT      O40713   2.584   3.473   7.275
10002WAT     H140714   2.624   3.550   7.281
10002WAT     H240715   2.500   3.492   7.283
10002WAT    EPW40716   2.578   3.487   7.277
10003WAT      O40717   2.397   3.897   7.073
10003WAT     H140718   2.357   3.942   7.009
10003WAT     H240719   2.341   3.903   7.140
10003WAT    EPW40720   2.383   3.904   7.073
10004WAT      O40721   2.901   4.248   7.492
10004WAT     H140722   2.906   4.197   7.562
10004WAT     H240723   2.873   4.194   7.429
10004WAT    EPW40724   2.898   4.233   7.493
10005WAT      O40725   2.347   4.373   7.771
10005WAT     H140726   2.314   4.447   7.737
10005WAT     H240727   2.386   4.399   7.844
10005WAT    EPW40728   2.348   4.388   7.777
10006WAT      O40729   1.882   4.867   7.276
10006WAT     H140730   1.892   4.835   7.356
10006WAT     H240731   1.935   4.818   7.227
10006WAT    EPW40732   1.891   4.855   7.280
10007WAT      O40733   1.794   3.153   7.101
10007WAT     H140734   1.834   3.178   7.175
10007WAT     H240735   1.751   3.224   7.076
10007WAT    EPW40736   1.794   3.167   7.108
10008WAT      O40737   2.068   4.771   7.093
10008WAT     H140738   2.134   4.762   7.150
10008WAT     H240739   2.081   4.849   7.057
10008WAT    EPW40740   2.079   4.781   7.096
10009WAT      O40741   1.621   4.034   7.203
10009WAT     H140742   1.632   3.948   7.195
10009WAT     H240743   1.686   4.059   7.255
10009WAT    EPW40744   1.632   4.025   7.209
10010WAT      O40745   1.268   3.121   7.292
10010WAT     H140746   1.269   3.069   7.222
10010WAT     H240747   1.232   3.072   7.354
10010WAT    EPW40748   1.263   3.106   7.291
10011WAT      O40749   2.242   3.914   7.303
10011WAT     H140750   2.250   3.984   7.353
10011WAT     H240751   2.232   3.849   7.361
10011WAT    EPW40752   2.241   3.914   7.319
10012WAT      O40753   1.676   3.385   7.013
10012WAT     H140754   1.615   3.379   6.952
10012WAT     H240755   1.744   3.420   6.971
10012WAT    EPW40756   1.677   3.389   6.998
10013WAT      O40757   2.142   4.194   7.702
10013WAT     H140758   2.103   4.154   7.769
10013WAT     H240759   2.205   4.241   7.740
10013WAT    EPW40760   2.146   4.195   7.718
10014WAT      O40761   1.777   4.776   6.888
10014WAT     H140762   1.804   4.710   6.938
10014WAT     H240763   1.794   4.847   6.937
10014WAT    EPW40764   1.784   4.777   6.903
10015WAT      O40765   1.816   3.656   7.669
10015WAT     H140766   1.891   3.614   7.654
10015WAT     H240767   1.758   3.591   7.676
10015WAT    EPW40768   1.819   3.640   7.668
10016WAT      O40769   3.100   4.860   7.019
10016WAT     H140770   3.168   4.809   7.002
10016WAT     H240771   3.059   4.818   7.083
10016WAT    EPW40772   3.104   4.846   7.026
10017WAT      O40773   1.315   3.731   7.329
10017WAT     H140774   1.349   3.692   7.399
10017WAT     H240775   1.319   3.670   7.267
10017WAT    EPW40776   1.321   3.717   7.330
10018WAT      O40777   1.863   3.849   6.885
10018WAT     H140778   1.844   3.806   6.958
10018WAT     H240779   1.790   3.841   6.837
10018WAT    EPW40780   1.849   3.842   6.889
10019WAT      O40781   2.937   4.098   7.723
10019WAT     H140782   2.928   4.153   7.790
10019WAT     H240783   3.022   4.080   7.723
10019WAT    EPW40784   2.948   4.103   7.733
10020WAT      O40785   1.873   3.717   7.130
10020WAT     H140786   1.909   3.788   7.166
10020WAT     H240787   1.789   3.724   7.151
10020WAT    EPW40788   1.866   3.728   7.139
10021WAT      O40789   1.399   3.310   7.730
10021WAT     H140790   1.323   3.326   7.690
10021WAT     H240791   1.397   3.224   7.746
10021WAT    EPW40792   1.388   3.300   7.727
10022WAT      O40793   3.194   4.565   7.916
10022WAT     H140794   3.188   4.611   7.842
10022WAT     H240795   3.274   4.583   7.945
10022WAT    EPW40796   3.205   4.574   7.910
10023WAT      O40797   2.765   4.507   7.083
10023WAT     H140798   2.802   4.428   7.083
10023WAT     H240799   2.690   4.494   7.127
10023WAT    EPW40800   2.759   4.493   7.090
10024WAT      O40801   2.806   3.617   7.581
10024WAT     H140802   2.734   3.579   7.613
10024WAT     H240803   2.807   3.695   7.620
10024WAT    EPW40804   2.795   3.623   7.591
10025WAT      O40805   2.431   4.297   6.996
10025WAT     H140806   2.507   4.255   6.990
10025WAT     H240807   2.401   4.298   6.915
10025WAT    EPW40808   2.437   4.291   6.983
10026WAT      O40809   2.157   4.886   7.608
10026WAT     H140810   2.135   4.964   7.638
10026WAT     H240811   2.217   4.903   7.547
10026WAT    EPW40812   2.163   4.900   7.603
10027WAT      O40813   2.895   3.839   6.959
10027WAT     H140814   2.949   3.892   6.916
10027WAT     H240815   2.816   3.866   6.936
10027WAT    EPW40816   2.891   3.851   6.949
10028WAT      O40817   2.019   4.067   6.955
10028WAT     H140818   1.965   4.010   6.918
10028WAT     H240819   1.976   4.143   6.949
10028WAT    EPW40820   2.005   4.070   6.949
10029WAT      O40821   2.715   3.708   7.336
10029WAT     H140822   2.743   3.682   7.414
10029WAT     H240823   2.786   3.741   7.298
10029WAT    EPW40824   2.730   3.709   7.342
10030WAT      O40825   2.784   3.308   7.379
10030WAT     H140826   2.737   3.239   7.403
10030WAT     H240827   2.723   3.367   7.357
10030WAT    EPW40828   2.768   3.307   7.379
10031WAT      O40829   2.826   4.090   7.278
10031WAT     H140830   2.870   4.016   7.268
10031WAT     H240831   2.743   4.065   7.278
10031WAT    EPW40832   2.821   4.076   7.276
10032WAT      O40833   1.581   3.496   7.257
10032WAT     H140834   1.598   3.461   7.179
10032WAT     H240835   1.503   3.464   7.278
10032WAT    EPW40836   1.572   3.486   7.249
10033WAT      O40837   2.488   4.268   7.545
10033WAT     H140838   2.454   4.298   7.619
10033WAT     H240839   2.514   4.188   7.565
10033WAT    EPW40840   2.487   4.261   7.559
10034WAT      O40841   2.249   4.152   7.448
10034WAT     H140842   2.211   4.153   7.527
10034WAT     H240843   2.325   4.193   7.462
10034WAT    EPW40844   2.255   4.158   7.462
10035WAT      O40845   2.681   4.885   7.747
10035WAT     H140846   2.645   4.855   7.821
10035WAT     H240847   2.762   4.853   7.750
10035WAT    EPW40848   2.688   4.876   7.759
10036WAT      O40849   2.929   3.841   7.230
10036WAT     H140850   2.926   3.837   7.143
10036WAT     H240851   3.012   3.818   7.249
10036WAT    EPW40852   2.941   3.837   7.220
10037WAT      O40853   2.287   4.509   7.385
10037WAT     H140854   2.278   4.584   7.341
10037WAT     H240855   2.218   4.462   7.360
10037WAT    EPW40856   2.275   4.513   7.375
10038WAT      O40857   1.488   3.644   6.910
10038WAT     H140858   1.415   3.637   6.957
10038WAT     H240859   1.494   3.567   6.870
10038WAT    EPW40860   1.478   3.631   6.911
10039WAT      O40861   2.341   3.367   7.595
10039WAT     H140862   2.255   3.375   7.606
10039WAT     H240863   2.349   3.293   7.550
10039WAT    EPW40864   2.330   3.357   7.590
10040WAT      O40865   1.814   4.548   7.050
10040WAT     H140866   1.856   4.554   7.126
10040WAT     H240867   1.733   4.526   7.073
10040WAT    EPW40868   1.808   4.546   7.065
10041WAT      O40869   2.770   3.874   7.681
10041WAT     H140870   2.829   3.936   7.698
10041WAT     H240871   2.704   3.918   7.644
10041WAT    EPW40872   2.769   3.890   7.678
10042WAT      O40873   2.784   4.710   7.414
10042WAT     H140874   2.758   4.629   7.434
10042WAT     H240875   2.830   4.699   7.341
10042WAT    EPW40876   2.787   4.696   7.406
10043WAT      O40877   1.563   4.460   7.124
10043WAT     H140878   1.561   4.439   7.208
10043WAT     H240879   1.565   4.383   7.083
10043WAT    EPW40880   1.563   4.446   7.130
10044WAT      O40881   1.843   4.291   6.928
10044WAT     H140882   1.761   4.266   6.945
10044WAT     H240883   1.849   4.369   6.966
10044WAT    EPW40884   1.831   4.298   6.936
10045WAT      O40885   2.064   3.180   7.005
10045WAT     H140886   2.076   3.185   6.918
10045WAT     H240887   1.978   3.185   7.014
10045WAT    EPW40888   2.053   3.181   6.993
10046WAT      O40889   2.429   3.755   7.658
10046WAT     H140890   2.480   3.685   7.664
10046WAT     H240891   2.412   3.776   7.742
10046WAT    EPW40892   2.434   3.748   7.672
10047WAT      O40893   1.449   3.653   7.562
10047WAT     H140894   1.439   3.697   7.636
10047WAT     H240895   1.493   3.582   7.587
10047WAT    EPW40896   1.454   3.649   7.577
10048WAT      O40897   2.583   3.949   7.290
10048WAT     H140898   2.618   3.870   7.299
10048WAT     H240899   2.529   3.941   7.222
10048WAT    EPW40900   2.580   3.936   7.281
10049WAT      O40901   1.607   4.796   7.276
10049WAT     H140902   1.580   4.802   7.193
10049WAT     H240903   1.694   4.802   7.269
10049WAT    EPW40904   1.616   4.798   7.263
10050WAT      O40905   1.988   3.956   7.207
10050WAT     H140906   2.001   3.996   7.130
10050WAT     H240907   2.068   3.941   7.236
10050WAT    EPW40908   2.002   3.960   7.200
10051WAT      O40909   2.865   4.871   6.877
10051WAT     H140910   2.943   4.868   6.916
10051WAT     H240911   2.849   4.788   6.857
10051WAT    EPW40912   2.874   4.858   6.880
10052WAT      O40913   2.507   4.484   7.191
10052WAT     H140914   2.458   4.474   7.262
10052WAT     H240915   2.473   4.427   7.134
10052WAT    EPW40916   2.495   4.474   7.193
10053WAT      O40917   1.552   4.616   7.963
10053WAT     H140918   1.581   4.552   7.912
10053WAT     H240919   1.556   4.687   7.912
10053WAT    EPW40920   1.557   4.617   7.948
10054WAT      O40921   2.165   4.346   7.067
10054WAT     H140922   2.245   4.317   7.051
10054WAT     H240923   2.158   4.417   7.017
10054WAT    EPW40924   2.176   4.352   7.058
10055WAT      O40925   2.373   3.153   5.588
10055WAT     H140926   2.362   3.203   5.517
10055WAT     H240927   2.460   3.141   5.590
10055WAT    EPW40928   2.384   3.159   5.578
10056WAT      O40929   2.315   3.791   6.002
10056WAT     H140930   2.285   3.868   6.030
10056WAT     H240931   2.369   3.765   6.065
10056WAT    EPW40932   2.318   3.799   6.015
10057WAT      O40933   1.284   4.266   5.508
10057WAT     H140934   1.223   4.257   5.570
10057WAT     H240935   1.294   4.184   5.478
10057WAT    EPW40936   1.276   4.252   5.512
10058WAT      O40937   1.281   3.619   5.189
10058WAT     H140938   1.217   3.666   5.154
10058WAT     H240939   1.252   3.537   5.184
10058WAT    EPW40940   1.268   3.613   5.183
10059WAT      O40941   1.654   4.197   5.077
10059WAT     H140942   1.603   4.164   5.015
10059WAT     H240943   1.648   4.140   5.142
10059WAT    EPW40944   1.646   4.184   5.077
10060WAT      O40945   2.545   4.001   5.679
10060WAT     H140946   2.586   3.981   5.604
10060WAT     H240947   2.501   3.929   5.698
10060WAT    EPW40948   2.545   3.988   5.671
10061WAT      O40949   1.541   4.375   5.478
10061WAT     H140950   1.595   4.334   5.533
10061WAT     H240951   1.464   4.337   5.494
10061WAT    EPW40952   1.538   4.363   5.488
10062WAT      O40953   1.983   3.290   5.422
10062WAT     H140954   1.973   3.363   5.376
10062WAT     H240955   2.067   3.270   5.413
10062WAT    EPW40956   1.994   3.298   5.414
10063WAT      O40957   1.446   4.664   5.133
10063WAT     H140958   1.482   4.686   5.057
10063WAT     H240959   1.479   4.586   5.150
10063WAT    EPW40960   1.456   4.656   5.125
10064WAT      O40961   1.324   4.477   6.209
10064WAT     H140962   1.349   4.459   6.290
10064WAT     H240963   1.256   4.423   6.197
10064WAT    EPW40964   1.317   4.466   6.219
10065WAT      O40965   1.937   4.326   6.665
10065WAT     H140966   1.913   4.312   6.748
10065WAT     H240967   1.868   4.299   6.619
10065WAT    EPW40968   1.923   4.320   6.670
10066WAT      O40969   1.480   4.019   5.666
10066WAT     H140970   1.437   4.022   5.590
10066WAT     H240971   1.532   3.949   5.658
10066WAT    EPW40972   1.482   4.009   5.654
10067WAT      O40973   1.936   3.605   6.219
10067WAT     H140974   2.001   3.604   6.161
10067WAT     H240975   1.901   3.525   6.211
10067WAT    EPW40976   1.941   3.593   6.210
10068WAT      O40977   1.930   4.600   6.389
10068WAT     H140978   1.934   4.669   6.336
10068WAT     H240979   2.014   4.578   6.402
10068WAT    EPW40980   1.943   4.607   6.383
10069WAT      O40981   1.643   3.798   5.662
10069WAT     H140982   1.708   3.746   5.688
10069WAT     H240983   1.573   3.745   5.665
10069WAT    EPW40984   1.642   3.782   5.666
10070WAT      O40985   2.074   4.442   5.856
10070WAT     H140986   2.105   4.361   5.858
10070WAT     H240987   2.145   4.492   5.848
10070WAT    EPW40988   2.089   4.438   5.855
10071WAT      O40989   2.193   4.336   5.461
10071WAT     H140990   2.223   4.263   5.498
10071WAT     H240991   2.235   4.339   5.385
10071WAT    EPW40992   2.203   4.326   5.455
10072WAT      O40993   2.231   3.803   6.667
10072WAT     H140994   2.160   3.829   6.624
10072WAT     H240995   2.251   3.871   6.717
10072WAT    EPW40996   2.223   3.817   6.668
10073WAT      O40997   1.725   3.322   5.544
10073WAT     H140998   1.685   3.376   5.489
10073WAT     H240999   1.808   3.322   5.517
10073WAT    EPW41000   1.731   3.330   5.532
10074WAT      O41001   2.731   3.029   6.531
10074WAT     H141002   2.717   3.063   6.452
10074WAT     H241003   2.651   3.016   6.562
10074WAT    EPW41004   2.717   3.032   6.524
10075WAT      O41005   2.041   3.249   5.702
10075WAT     H141006   2.055   3.332   5.723
10075WAT     H241007   2.013   3.254   5.619
10075WAT    EPW41008   2.039   3.262   5.693
10076WAT      O41009   2.559   3.525   4.991
10076WAT     H141010   2.534   3.609   4.980
10076WAT     H241011   2.584   3.523   5.075
10076WAT    EPW41012   2.559   3.537   5.002
10077WAT      O41013   1.318   3.754   5.934
10077WAT     H141014   1.315   3.840   5.941
10077WAT     H241015   1.250   3.727   5.983
10077WAT    EPW41016   1.307   3.762   5.942
10078WAT      O41017   1.327   4.715   5.751
10078WAT     H141018   1.262   4.765   5.720
10078WAT     H241019   1.362   4.680   5.679
10078WAT    EPW41020   1.322   4.718   5.736
10079WAT      O41021   1.918   4.394   5.459
10079WAT     H141022   1.893   4.414   5.540
10079WAT     H241023   2.003   4.378   5.467
10079WAT    EPW41024   1.927   4.395   5.472
10080WAT      O41025   2.570   4.692   5.227
10080WAT     H141026   2.641   4.737   5.247
10080WAT     H241027   2.588   4.611   5.257
10080WAT    EPW41028   2.583   4.687   5.234
10081WAT      O41029   2.364   4.691   5.411
10081WAT     H141030   2.372   4.764   5.458
10081WAT     H241031   2.429   4.696   5.353
10081WAT    EPW41032   2.374   4.702   5.409
10082WAT      O41033   1.550   3.258   5.963
10082WAT     H141034   1.528   3.182   5.927
10082WAT     H241035   1.613   3.236   6.020
10082WAT    EPW41036   1.556   3.244   5.966
10083WAT      O41037   1.908   3.449   6.855
10083WAT     H141038   1.909   3.412   6.776
10083WAT     H241039   1.958   3.520   6.845
10083WAT    EPW41040   1.916   3.454   6.842
10084WAT      O41041   1.452   4.635   5.508
10084WAT     H141042   1.494   4.559   5.514
10084WAT     H241043   1.508   4.686   5.465
10084WAT    EPW41044   1.467   4.632   5.503
10085WAT      O41045   3.005   3.475   5.782
10085WAT     H141046   2.953   3.534   5.744
10085WAT     H241047   2.973   3.398   5.755
10085WAT    EPW41048   2.993   3.472   5.772
10086WAT      O41049   2.562   4.715   6.241
10086WAT     H141050   2.623   4.777   6.232
10086WAT     H241051   2.539   4.698   6.158
10086WAT    EPW41052   2.568   4.722   6.227
10087WAT      O41053   1.495   3.382   6.801
10087WAT     H141054   1.414   3.352   6.786
10087WAT     H241055   1.542   3.348   6.736
10087WAT    EPW41056   1.490   3.373   6.789
10088WAT      O41057   1.595   4.442   5.865
10088WAT     H141058   1.654   4.431   5.802
10088WAT     H241059   1.617   4.384   5.925
10088WAT    EPW41060   1.607   4.432   5.864
10089WAT      O41061   1.883   4.755   5.725
10089WAT     H141062   1.963   4.782   5.705
10089WAT     H241063   1.831   4.807   5.678
10089WAT    EPW41064   1.887   4.767   5.715
10090WAT      O41065   2.097   3.183   6.731
10090WAT     H141066   2.115   3.108   6.690
10090WAT     H241067   2.032   3.217   6.684
10090WAT    EPW41068   2.090   3.177   6.718
10091WAT      O41069   2.197   3.705   5.566
10091WAT     H141070   2.225   3.655   5.500
10091WAT     H241071   2.269   3.718   5.614
10091WAT    EPW41072   2.212   3.699   5.563
10092WAT      O41073   2.282   3.722   5.105
10092WAT     H141074   2.352   3.751   5.062
10092WAT     H241075   2.221   3.717   5.042
10092WAT    EPW41076   2.283   3.726   5.089
10093WAT      O41077   2.799   4.825   5.293
10093WAT     H141078   2.848   4.800   5.225
10093WAT     H241079   2.848   4.804   5.362
10093WAT    EPW41080   2.813   4.819   5.293
10094WAT      O41081   1.725   4.843   6.371
10094WAT     H141082   1.763   4.823   6.448
10094WAT     H241083   1.667   4.779   6.360
10094WAT    EPW41084   1.722   4.830   6.381
10095WAT      O41085   2.982   3.385   6.164
10095WAT     H141086   3.045   3.382   6.104
10095WAT     H241087   2.996   3.314   6.212
10095WAT    EPW41088   2.993   3.374   6.162
10096WAT      O41089   1.230   3.488   6.540
10096WAT     H141090   1.222   3.564   6.583
10096WAT     H241091   1.291   3.503   6.480
10096WAT    EPW41092   1.238   3.501   6.538
10097WAT      O41093   2.408   4.582   6.573
10097WAT     H141094   2.394   4.596   6.657
10097WAT     H241095   2.495   4.582   6.566
10097WAT    EPW41096   2.419   4.584   6.584
10098WAT      O41097   2.237   4.551   5.035
10098WAT     H141098   2.206   4.606   5.095
10098WAT     H241099   2.313   4.586   5.011
10098WAT    EPW41100   2.243   4.564   5.040
10099WAT      O41101   1.355   3.389   5.452
10099WAT     H141102   1.336   3.306   5.436
10099WAT     H241103   1.307   3.408   5.523
10099WAT    EPW41104   1.345   3.380   5.460
10100WAT      O41105   1.510   4.697   6.225
10100WAT     H141106   1.454   4.630   6.221
10100WAT     H241107   1.556   4.690   6.151
10100WAT    EPW41108   1.508   4.686   6.213
10101WAT      O41109   2.241   3.560   5.329
10101WAT     H141110   2.158   3.547   5.307
10101WAT     H241111   2.271   3.611   5.265
10101WAT    EPW41112   2.233   3.565   5.316
10102WAT      O41113   2.316   4.833   6.326
10102WAT     H141114   2.387   4.788   6.302
10102WAT     H241115   2.254   4.803   6.272
10102WAT    EPW41116   2.318   4.822   6.314
10103WAT      O41117   2.260   3.282   5.358
10103WAT     H141118   2.236   3.254   5.279
10103WAT     H241119   2.269   3.368   5.348
10103WAT    EPW41120   2.258   3.290   5.345
10104WAT      O41121   2.061   3.528   5.745
10104WAT     H141122   2.099   3.585   5.692
10104WAT     H241123   2.084   3.555   5.825
10104WAT    EPW41124   2.070   3.540   5.749
10105WAT      O41125   2.709   4.559   5.580
10105WAT     H141126   2.792   4.531   5.580
10105WAT     H241127   2.676   4.527   5.506
10105WAT    EPW41128   2.716   4.550   5.569
10106WAT      O41129   1.676   4.543   6.512
10106WAT     H141130   1.754   4.572   6.486
10106WAT     H241131   1.663   4.586   6.587
10106WAT    EPW41132   1.686   4.554   6.520
10107WAT      O41133   1.684   3.060   5.628
10107WAT     H141134   1.693   3.144   5.605
10107WAT     H241135   1.670   3.019   5.552
10107WAT    EPW41136   1.683   3.066   5.613
10108WAT      O41137   1.892   4.135   5.925
10108WAT     H141138   1.914   4.118   6.007
10108WAT     H241139   1.835   4.072   5.905
10108WAT    EPW41140   1.887   4.123   5.934
10109WAT      O41141   2.479   3.462   6.359
10109WAT     H141142   2.451   3.507   6.428
10109WAT     H241143   2.418   3.400   6.349
10109WAT    EPW41144   2.465   3.459   6.368
10110WAT      O41145   1.974   4.126   6.187
10110WAT     H141146   1.960   4.212   6.199
10110WAT     H241147   1.938   4.089   6.257
10110WAT    EPW41148   1.967   4.134   6.199
10111WAT      O41149   2.638   4.177   6.121
10111WAT     H141150   2.617   4.109   6.172
10111WAT     H241151   2.633   4.246   6.175
10111WAT    EPW41152   2.634   4.177   6.137
10112WAT      O41153   2.643   3.086   5.649
10112WAT     H141154   2.643   3.068   5.734
10112WAT     H241155   2.672   3.013   5.612
10112WAT    EPW41156   2.647   3.072   5.656
10113WAT      O41157   1.223   4.517   6.836
10113WAT     H141158   1.282   4.565   6.878
10113WAT     H241159   1.232   4.438   6.871
10113WAT    EPW41160   1.233   4.513   6.847
10114WAT      O41161   2.863   3.582   6.415
10114WAT     H141162   2.942   3.554   6.439
10114WAT     H241163   2.854   3.658   6.457
10114WAT    EPW41164   2.873   3.589   6.425
10115WAT      O41165   1.601   3.443   5.764
10115WAT     H141166   1.633   3.394   5.699
10115WAT     H241167   1.588   3.386   5.829
10115WAT    EPW41168   1.604   3.427   5.764
10116WAT      O41169   1.680   4.213   5.652
10116WAT     H141170   1.736   4.170   5.600
10116WAT     H241171   1.618   4.154   5.669
10116WAT    EPW41172   1.679   4.198   5.647
10117WAT      O41173   1.547   4.865   5.820
10117WAT     H141174   1.472   4.824   5.800
10117WAT     H241175   1.587   4.872   5.743
10117WAT    EPW41176   1.542   4.860   5.805
10118WAT      O41177   1.497   3.617   6.105
10118WAT     H141178   1.576   3.642   6.080
10118WAT     H241179   1.444   3.653   6.046
10118WAT    EPW41180   1.501   3.626   6.093
10119WAT      O41181   3.126   4.645   6.554
10119WAT     H141182   3.047   4.657   6.519
10119WAT     H241183   3.109   4.601   6.627
10119WAT    EPW41184   3.112   4.640   6.560
10120WAT      O41185   2.719   3.914   5.055
10120WAT     H141186   2.765   3.986   5.040
10120WAT     H241187   2.666   3.937   5.121
10120WAT    EPW41188   2.718   3.928   5.063
10121WAT      O41189   1.832   4.132   5.422
10121WAT     H141190   1.856   4.216   5.425
10121WAT     H241191   1.899   4.093   5.383
10121WAT    EPW41192   1.845   4.139   5.417
10122WAT      O41193   3.058   3.524   5.220
10122WAT     H141194   3.144   3.537   5.229
10122WAT     H241195   3.031   3.594   5.177
10122WAT    EPW41196   3.067   3.536   5.215
10123WAT      O41197   1.332   4.332   5.861
10123WAT     H141198   1.281   4.397   5.887
10123WAT     H241199   1.411   4.370   5.853
10123WAT    EPW41200   1.336   4.347   5.864
10124WAT      O41201   2.075   3.672   6.851
10124WAT     H141202   2.012   3.732   6.859
10124WAT     H241203   2.125   3.703   6.787
10124WAT    EPW41204   2.073   3.685   6.843
10125WAT      O41205   3.158   3.837   6.395
10125WAT     H141206   3.187   3.763   6.360
10125WAT     H241207   3.079   3.847   6.360
10125WAT    EPW41208   3.151   3.828   6.385
10126WAT      O41209   1.363   4.016   5.416
10126WAT     H141210   1.348   3.930   5.418
10126WAT     H241211   1.438   4.023   5.371
10126WAT    EPW41212   1.372   4.005   5.409
10127WAT      O41213   2.941   3.344   5.402
10127WAT     H141214   2.990   3.273   5.390
10127WAT     H241215   2.992   3.409   5.376
10127WAT    EPW41216   2.955   3.343   5.397
10128WAT      O41217   2.279   4.625   5.818
10128WAT     H141218   2.234   4.693   5.786
10128WAT     H241219   2.309   4.585   5.746
10128WAT    EPW41220   2.277   4.629   5.802
10129WAT      O41221   1.261   4.494   5.361
10129WAT     H141222   1.318   4.546   5.400
10129WAT     H241223   1.257   4.424   5.413
10129WAT    EPW41224   1.269   4.491   5.374
10130WAT      O41225   1.683   4.267   6.057
10130WAT     H141226   1.734   4.307   6.115
10130WAT     H241227   1.740   4.226   6.005
10130WAT    EPW41228   1.699   4.267   6.058
10131WAT      O41229   2.579   3.556   5.757
10131WAT     H141230   2.611   3.571   5.837
10131WAT     H241231   2.530   3.485   5.768
10131WAT    EPW41232   2.577   3.548   5.771
10132WAT      O41233   1.259   4.323   5.138
10132WAT     H141234   1.327   4.270   5.140
10132WAT     H241235   1.272   4.376   5.206
10132WAT    EPW41236   1.271   4.323   5.148
10133WAT      O41237   1.340   4.059   5.902
10133WAT     H141238   1.387   4.038   5.831
10133WAT     H241239   1.335   4.146   5.898
10133WAT    EPW41240   1.346   4.069   5.891
10134WAT      O41241   1.980   3.505   5.250
10134WAT     H141242   1.977   3.483   5.165
10134WAT     H241243   1.951   3.588   5.250
10134WAT    EPW41244   1.975   3.514   5.237
10135WAT      O41245   2.876   4.701   6.423
10135WAT     H141246   2.830   4.774   6.436
10135WAT     H241247   2.881   4.695   6.336
10135WAT    EPW41248   2.870   4.711   6.412
10136WAT      O41249   1.840   4.485   5.709
10136WAT     H141250   1.847   4.572   5.712
10136WAT     H241251   1.907   4.457   5.757
10136WAT    EPW41252   1.851   4.494   5.716
10137WAT      O41253   1.618   3.826   6.746
10137WAT     H141254   1.572   3.768   6.792
10137WAT     H241255   1.616   3.795   6.665
10137WAT    EPW41256   1.611   3.813   6.741
10138WAT      O41257   1.624   3.753   5.262
10138WAT     H141258   1.612   3.685   5.315
10138WAT     H241259   1.591   3.725   5.186
10138WAT    EPW41260   1.617   3.739   5.259
10139WAT      O41261   1.699   3.944   5.897
10139WAT     H141262   1.680   3.905   5.822
10139WAT     H241263   1.715   3.879   5.952
10139WAT    EPW41264   1.698   3.929   5.894
10140WAT      O41265   1.643   3.887   6.264
10140WAT     H141266   1.674   3.839   6.198
10140WAT     H241267   1.590   3.944   6.225
10140WAT    EPW41268   1.640   3.888   6.249
10141WAT      O41269   2.685   3.666   5.988
10141WAT     H141270   2.627   3.682   6.051
10141WAT     H241271   2.698   3.744   5.951
10141WAT    EPW41272   2.679   3.680   5.992
10142WAT      O41273   2.066   4.802   6.190
10142WAT     H141274   2.037   4.734   6.143
10142WAT     H241275   2.057   4.870   6.136
10142WAT    EPW41276   2.061   4.802   6.175
10143WAT      O41277   2.285   3.253   6.383
10143WAT     H141278   2.301   3.168   6.369
10143WAT     H241279   2.303   3.263   6.468
10143WAT    EPW41280   2.290   3.242   6.394
10144WAT      O41281   2.683   3.501   5.245
10144WAT     H141282   2.731   3.567   5.277
10144WAT     H241283   2.646   3.466   5.315
10144WAT    EPW41284   2.684   3.506   5.260
10145WAT      O41285   1.477   4.060   6.794
10145WAT     H141286   1.470   4.102   6.718
10145WAT     H241287   1.527   3.991   6.774
10145WAT    EPW41288   1.483   4.056   6.779
10146WAT      O41289   2.632   4.305   6.662
10146WAT     H141290   2.644   4.390   6.648
10146WAT     H241291   2.672   4.267   6.594
10146WAT    EPW41292   2.640   4.312   6.650
10147WAT      O41293   2.042   4.588   6.673
10147WAT     H141294   2.076   4.585   6.753
10147WAT     H241295   2.007   4.509   6.662
10147WAT    EPW41296   2.042   4.576   6.683
10148WAT      O41297   2.121   3.594   6.010
10148WAT     H141298   2.182   3.655   6.011
10148WAT     H241299   2.165   3.520   6.023
10148WAT    EPW41300   2.136   3.592   6.012
10149WAT      O41301   2.499   3.971   5.238
10149WAT     H141302   2.492   4.047   5.197
10149WAT     H241303   2.419   3.956   5.269
10149WAT    EPW41304   2.486   3.980   5.237
10150WAT      O41305   2.827   4.241   5.661
10150WAT     H141306   2.867   4.200   5.726
10150WAT     H241307   2.854   4.199   5.590
10150WAT    EPW41308   2.837   4.229   5.660
10151WAT      O41309   2.504   4.662   5.976
10151WAT     H141310   2.429   4.652   5.934
10151WAT     H241311   2.537   4.735   5.942
10151WAT    EPW41312   2.498   4.671   5.965
10152WAT      O41313   2.446   4.283   5.946
10152WAT     H141314   2.399   4.325   6.006
10152WAT     H241315   2.501   4.234   5.994
10152WAT    EPW41316   2.447   4.282   5.962
10153WAT      O41317   1.887   4.636   5.332
10153WAT     H141318   1.897   4.562   5.377
10153WAT     H241319   1.969   4.662   5.316
10153WAT    EPW41320   1.901   4.629   5.336
10154WAT      O41321   1.832   3.156   5.209
10154WAT     H141322   1.863   3.180   5.287
10154WAT     H241323   1.784   3.224   5.184
10154WAT    EPW41324   1.830   3.170   5.217
10155WAT      O41325   2.142   4.710   5.246
10155WAT     H141326   2.207   4.699   5.303
10155WAT     H241327   2.144   4.796   5.229
10155WAT    EPW41328   2.152   4.721   5.252
10156WAT      O41329   2.748   4.251   6.412
10156WAT     H141330   2.721   4.168   6.409
10156WAT     H241331   2.834   4.244   6.417
10156WAT    EPW41332   2.756   4.238   6.412
10157WAT      O41333   2.403   4.700   6.835
10157WAT     H141334   2.440   4.715   6.912
10157WAT     H241335   2.432   4.765   6.785
10157WAT    EPW41336   2.413   4.712   6.839
10158WAT      O41337   1.609   4.030   5.292
10158WAT     H141338   1.619   3.943   5.287
10158WAT     H241339   1.676   4.055   5.342
10158WAT    EPW41340   1.620   4.021   5.299
10159WAT      O41341   2.332   4.154   6.323
10159WAT     H141342   2.280   4.170   6.391
10159WAT     H241343   2.391   4.099   6.355
10159WAT    EPW41344   2.333   4.148   6.338
10160WAT      O41345   1.269   3.122   5.408
10160WAT     H141346   1.263   3.068   5.339
10160WAT     H241347   1.236   3.075   5.473
10160WAT    EPW41348   1.263   3.107   5.407
10161WAT      O41349   2.260   3.940   5.417
10161WAT     H141350   2.272   3.998   5.481
10161WAT     H241351   2.236   3.868   5.460
10161WAT    EPW41352   2.258   3.938   5.433
10162WAT      O41353   2.706   4.476   5.953
10162WAT     H141354   2.643   4.537   5.957
10162WAT     H241355   2.696   4.431   6.027
10162WAT    EPW41356   2.695   4.478   5.965
10163WAT      O41357   1.691   3.380   5.123
10163WAT     H141358   1.628   3.376   5.063
10163WAT     H241359   1.753   3.427   5.084
10163WAT    EPW41360   1.691   3.386   5.108
10164WAT      O41361   2.155   4.174   5.844
10164WAT     H141362   2.072   4.152   5.856
10164WAT     H241363   2.195   4.142   5.916
10164WAT    EPW41364   2.149   4.166   5.856
10165WAT      O41365   1.801   4.807   4.992
10165WAT     H141366   1.814   4.726   5.021
10165WAT     H241367   1.827   4.857   5.058
10165WAT    EPW41368   1.807   4.802   5.006
10166WAT      O41369   1.490   4.082   6.138
10166WAT     H141370   1.548   4.144   6.118
10166WAT     H241371   1.449   4.067   6.062
10166WAT    EPW41372   1.492   4.089   6.124
10167WAT      O41373   1.805   3.622   5.802
10167WAT     H141374   1.882   3.588   5.779
10167WAT     H241375   1.749   3.557   5.792
10167WAT    EPW41376   1.808   3.608   5.797
10168WAT      O41377   1.319   3.742   5.445
10168WAT     H141378   1.344   3.699   5.517
10168WAT     H241379   1.326   3.682   5.382
10168WAT    EPW41380   1.324   3.727   5.446
10169WAT      O41381   2.915   4.145   6.131
10169WAT     H141382   2.926   4.069   6.174
10169WAT     H241383   2.829   4.155   6.129
10169WAT    EPW41384   2.904   4.135   6.137
10170WAT      O41385   1.888   3.893   4.972
10170WAT     H141386   1.878   3.854   5.050
10170WAT     H241387   1.811   3.881   4.934
10170WAT    EPW41388   1.875   3.886   4.978
10171WAT      O41389   1.448   4.193   6.553
10171WAT     H141390   1.409   4.144   6.492
10171WAT     H241391   1.423   4.274   6.534
10171WAT    EPW41392   1.439   4.198   6.541
10172WAT      O41393   2.947   4.089   5.863
10172WAT     H141394   2.939   4.108   5.948
10172WAT     H241395   3.034   4.089   5.851
10172WAT    EPW41396   2.959   4.092   5.874
10173WAT      O41397   1.895   3.765   5.217
10173WAT     H141398   1.933   3.836   5.252
10173WAT     H241399   1.813   3.770   5.245
10173WAT    EPW41400   1.889   3.776   5.227
10174WAT      O41401   2.707   3.439   6.784
10174WAT     H141402   2.626   3.445   6.816
10174WAT     H241403   2.695   3.447   6.698
10174WAT    EPW41404   2.693   3.441   6.776
10175WAT      O41405   1.288   3.385   5.941
10175WAT     H141406   1.272   3.389   5.855
10175WAT     H241407   1.369   3.354   5.945
10175WAT    EPW41408   1.298   3.381   5.929
10176WAT      O41409   3.153   4.658   5.843
10176WAT     H141410   3.152   4.688   5.761
10176WAT     H241411   3.226   4.693   5.877
10176WAT    EPW41412   3.164   4.667   5.836
10177WAT      O41413   2.606   3.772   6.664
10177WAT     H141414   2.603   3.819   6.737
10177WAT     H241415   2.587   3.829   6.602
10177WAT    EPW41416   2.603   3.787   6.666
10178WAT      O41417   2.867   3.800   6.594
10178WAT     H141418   2.872   3.887   6.589
10178WAT     H241419   2.785   3.786   6.622
10178WAT    EPW41420   2.856   3.811   6.598
10179WAT      O41421   2.771   4.358   5.153
10179WAT     H141422   2.806   4.286   5.118
10179WAT     H241423   2.824   4.422   5.127
10179WAT    EPW41424   2.784   4.357   5.144
10180WAT      O41425   2.826   3.657   5.668
10180WAT     H141426   2.750   3.617   5.684
10180WAT     H241427   2.819   3.733   5.712
10180WAT    EPW41428   2.814   3.663   5.677
10181WAT      O41429   3.093   3.975   6.816
10181WAT     H141430   3.117   3.903   6.774
10181WAT     H241431   3.168   4.020   6.823
10181WAT    EPW41432   3.108   3.971   6.811
10182WAT      O41433   3.029   4.249   6.429
10182WAT     H141434   3.088   4.191   6.403
10182WAT     H241435   3.040   4.316   6.373
10182WAT    EPW41436   3.039   4.251   6.416
10183WAT      O41437   2.534   4.212   5.094
10183WAT     H141438   2.609   4.250   5.118
10183WAT     H241439   2.545   4.198   5.008
10183WAT    EPW41440   2.547   4.215   5.085
10184WAT      O41441   1.885   4.392   6.206
10184WAT     H141442   1.887   4.438   6.280
10184WAT     H241443   1.906   4.450   6.145
10184WAT    EPW41444   1.888   4.407   6.208
10185WAT      O41445   1.713   4.264   6.509
10185WAT     H141446   1.633   4.234   6.526
10185WAT     H241447   1.701   4.350   6.500
10185WAT    EPW41448   1.700   4.272   6.510
10186WAT      O41449   2.705   3.382   6.513
10186WAT     H141450   2.755   3.444   6.477
10186WAT     H241451   2.628   3.392   6.472
10186WAT    EPW41452   2.701   3.392   6.501
10187WAT      O41453   2.222   4.041   6.092
10187WAT     H141454   2.270   4.071   6.158
10187WAT     H241455   2.140   4.055   6.119
10187WAT    EPW41456   2.217   4.048   6.106
10188WAT      O41457   1.869   3.602   6.490
10188WAT     H141458   1.883   3.521   6.519
10188WAT     H241459   1.900   3.601   6.409
10188WAT    EPW41460   1.876   3.590   6.483
10189WAT      O41461   2.152   4.846   5.698
10189WAT     H141462   2.129   4.924   5.729
10189WAT     H241463   2.218   4.865   5.643
10189WAT    EPW41464   2.159   4.860   5.694
10190WAT      O41465   2.736   3.100   6.260
10190WAT     H141466   2.717   3.182   6.237
10190WAT     H241467   2.823   3.100   6.265
10190WAT    EPW41468   2.746   3.112   6.257
10191WAT      O41469   2.007   3.203   6.360
10191WAT     H141470   2.091   3.225   6.358
10191WAT     H241471   2.006   3.124   6.324
10191WAT    EPW41472   2.019   3.195   6.354
10192WAT      O41473   1.940   4.605   6.038
10192WAT     H141474   1.866   4.632   6.000
10192WAT     H241475   1.980   4.560   5.974
10192WAT    EPW41476   1.935   4.602   6.023
10193WAT      O41477   2.365   4.247   6.731
10193WAT     H141478   2.444   4.263   6.696
10193WAT     H241479   2.310   4.263   6.666
10193WAT    EPW41480   2.369   4.252   6.717
10194WAT      O41481   2.688   4.571   6.590
10194WAT     H141482   2.725   4.588   6.667
10194WAT     H241483   2.746   4.602   6.532
10194WAT    EPW41484   2.702   4.578   6.593
10195WAT      O41485   2.100   4.080   5.012
10195WAT     H141486   2.043   4.021   4.983
10195WAT     H241487   2.055   4.155   5.012
10195WAT    EPW41488   2.085   4.083   5.008
10196WAT      O41489   1.752   3.720   6.054
10196WAT     H141490   1.774   3.686   5.977
10196WAT     H241491   1.812   3.689   6.109
10196WAT    EPW41492   1.764   3.711   6.051
10197WAT      O41493   2.407   3.600   6.584
10197WAT     H141494   2.340   3.654   6.599
10197WAT     H241495   2.476   3.642   6.615
10197WAT    EPW41496   2.407   3.614   6.591
10198WAT      O41497   2.494   3.690   6.189
10198WAT     H141498   2.518   3.753   6.245
10198WAT     H241499   2.483   3.620   6.240
10198WAT    EPW41500   2.496   3.689   6.205
10199WAT      O41501   2.188   4.811   6.575
10199WAT     H141502   2.217   4.801   6.493
10199WAT     H241503   2.153   4.734   6.594
10199WAT    EPW41504   2.187   4.798   6.565
10200WAT      O41505   2.829   3.695   5.391
10200WAT     H141506   2.842   3.676   5.475
10200WAT     H241507   2.909   3.711   5.361
10200WAT    EPW41508   2.842   3.695   5.399
10201WAT      O41509   2.005   3.175   5.980
10201WAT     H141510   1.922   3.164   6.005
10201WAT     H241511   2.000   3.183   5.893
10201WAT    EPW41512   1.992   3.175   5.971
10202WAT      O41513   2.873   3.255   5.657
10202WAT     H141514   2.793   3.221   5.651
10202WAT     H241515   2.886   3.291   5.579
10202WAT    EPW41516   2.864   3.255   5.645
10203WAT      O41517   2.905   4.070   5.455
10203WAT     H141518   2.966   4.025   5.411
10203WAT     H241519   2.833   4.022   5.445
10203WAT    EPW41520   2.903   4.057   5.447
10204WAT      O41521   2.179   4.278   6.528
10204WAT     H141522   2.103   4.278   6.571
10204WAT     H241523   2.181   4.356   6.489
10204WAT    EPW41524   2.168   4.289   6.529
10205WAT      O41525   1.249   3.265   6.704
10205WAT     H141526   1.248   3.335   6.652
10205WAT     H241527   1.165   3.242   6.709
10205WAT    EPW41528   1.236   3.272   6.697
10206WAT      O41529   1.759   4.929   6.106
10206WAT     H141530   1.750   4.913   6.191
10206WAT     H241531   1.740   4.853   6.068
10206WAT    EPW41532   1.755   4.915   6.113
10207WAT      O41533   1.598   3.492   5.367
10207WAT     H141534   1.615   3.456   5.289
10207WAT     H241535   1.518   3.463   5.386
10207WAT    EPW41536   1.589   3.482   5.359
10208WAT      O41537   2.309   4.133   5.614
10208WAT     H141538   2.263   4.141   5.688
10208WAT     H241539   2.384   4.097   5.641
10208WAT    EPW41540   2.313   4.129   5.629
10209WAT      O41541   2.204   4.522   6.394
10209WAT     H141542   2.269   4.545   6.447
10209WAT     H241543   2.244   4.492   6.323
10209WAT    EPW41544   2.219   4.521   6.392
10210WAT      O41545   3.127   3.750   6.659
10210WAT     H141546   3.040   3.755   6.651
10210WAT     H241547   3.156   3.784   6.584
10210WAT    EPW41548   3.119   3.756   6.647
10211WAT      O41549   1.402   4.875   6.608
10211WAT     H141550   1.345   4.809   6.602
10211WAT     H241551   1.354   4.941   6.639
10211WAT    EPW41552   1.386   4.875   6.612
10212WAT      O41553   2.273   4.012   6.853
10212WAT     H141554   2.304   4.083   6.814
10212WAT     H241555   2.193   4.037   6.880
10212WAT    EPW41556   2.266   4.026   6.852
10213WAT      O41557   2.647   4.886   5.907
10213WAT     H141558   2.596   4.955   5.924
10213WAT     H241559   2.702   4.884   5.974
10213WAT    EPW41560   2.648   4.896   5.919
10214WAT      O41561   2.353   4.396   6.192
10214WAT     H141562   2.343   4.318   6.230
10214WAT     H241563   2.436   4.416   6.210
10214WAT    EPW41564   2.364   4.387   6.201
10215WAT      O41565   2.824   4.604   6.829
10215WAT     H141566   2.905   4.573   6.823
10215WAT     H241567   2.795   4.571   6.904
10215WAT    EPW41568   2.831   4.594   6.839
10216WAT      O41569   1.617   3.718   6.486
10216WAT     H141570   1.624   3.776   6.422
10216WAT     H241571   1.696   3.680   6.488
10216WAT    EPW41572   1.630   3.721   6.477
10217WAT      O41573   1.437   3.551   6.360
10217WAT     H141574   1.455   3.566   6.276
10217WAT     H241575   1.496   3.598   6.403
10217WAT    EPW41576   1.448   3.560   6.354
10218WAT      O41577   1.628   3.238   6.602
10218WAT     H141578   1.584   3.163   6.611
10218WAT     H241579   1.611   3.262   6.520
10218WAT    EPW41580   1.619   3.230   6.591
10219WAT      O41581   2.379   4.487   5.601
10219WAT     H141582   2.389   4.548   5.540
10219WAT     H241583   2.316   4.435   5.569
10219WAT    EPW41584   2.371   4.488   5.587
10220WAT      O41585   2.921   3.896   6.265
10220WAT     H141586   2.919   3.823   6.216
10220WAT     H241587   2.843   3.897   6.304
10220WAT    EPW41588   2.909   3.885   6.263
10221WAT      O41589   1.318   4.049   6.354
10221WAT     H141590   1.365   4.068   6.283
10221WAT     H241591   1.303   3.964   6.347
10221WAT    EPW41592   1.323   4.040   6.343
10222WAT      O41593   1.504   3.651   5.026
10222WAT     H141594   1.430   3.647   5.071
10222WAT     H241595   1.507   3.575   4.984
10222WAT    EPW41596   1.493   3.639   5.026
10223WAT      O41597   2.348   3.277   6.656
10223WAT     H141598   2.376   3.342   6.706
10223WAT     H241599   2.270   3.258   6.689
10223WAT    EPW41600   2.340   3.284   6.668
10224WAT      O41601   2.406   3.340   5.796
10224WAT     H141602   2.334   3.347   5.845
10224WAT     H241603   2.384   3.281   5.735
10224WAT    EPW41604   2.392   3.332   5.794
10225WAT      O41605   1.815   4.542   5.086
10225WAT     H141606   1.852   4.563   5.163
10225WAT     H241607   1.739   4.507   5.109
10225WAT    EPW41608   1.809   4.540   5.101
10226WAT      O41609   2.698   3.361   6.170
10226WAT     H141610   2.782   3.381   6.161
10226WAT     H241611   2.669   3.420   6.227
10226WAT    EPW41612   2.706   3.373   6.177
10227WAT      O41613   1.835   4.031   6.405
10227WAT     H141614   1.797   4.103   6.436
10227WAT     H241615   1.770   3.991   6.363
10227WAT    EPW41616   1.819   4.036   6.403
10228WAT      O41617   2.758   3.886   5.825
10228WAT     H141618   2.823   3.942   5.836
10228WAT     H241619   2.697   3.932   5.784
10228WAT    EPW41620   2.758   3.901   5.821
10229WAT      O41621   1.580   4.431   5.202
10229WAT     H141622   1.576   4.410   5.287
10229WAT     H241623   1.599   4.355   5.164
10229WAT    EPW41624   1.582   4.416   5.209
10230WAT      O41625   1.911   4.289   4.994
10230WAT     H141626   1.836   4.249   5.015
10230WAT     H241627   1.897   4.372   5.019
10230WAT    EPW41628   1.898   4.295   5.001
10231WAT      O41629   1.818   3.361   6.223
10231WAT     H141630   1.741   3.338   6.255
10231WAT     H241631   1.873   3.303   6.258
10231WAT    EPW41632   1.815   3.349   6.233
10232WAT      O41633   3.008   3.145   6.308
10232WAT     H141634   3.032   3.171   6.388
10232WAT     H241635   3.076   3.098   6.281
10232WAT    EPW41636   3.022   3.142   6.316
10233WAT      O41637   2.230   3.339   6.017
10233WAT     H141638   2.161   3.286   6.015
10233WAT     H241639   2.291   3.292   6.058
10233WAT    EPW41640   2.229   3.324   6.023
10234WAT      O41641   2.626   4.438   6.242
10234WAT     H141642   2.664   4.402   6.313
10234WAT     H241643   2.621   4.522   6.262
10234WAT    EPW41644   2.631   4.445   6.256
10235WAT      O41645   2.476   4.881   6.629
10235WAT     H141646   2.412   4.836   6.590
10235WAT     H241647   2.441   4.960   6.641
10235WAT    EPW41648   2.461   4.886   6.625
10236WAT      O41649   1.984   3.852   6.560
10236WAT     H141650   1.945   3.776   6.542
10236WAT     H241651   1.939   3.911   6.514
10236WAT    EPW41652   1.972   3.849   6.551
10237WAT      O41653   2.105   3.188   5.134
10237WAT     H141654   2.115   3.198   5.047
10237WAT     H241655   2.019   3.191   5.145
10237WAT    EPW41656   2.094   3.190   5.122
10238WAT      O41657   3.072   4.378   6.177
10238WAT     H141658   3.026   4.306   6.156
10238WAT     H241659   3.030   4.442   6.136
10238WAT    EPW41660   3.059   4.377   6.168
10239WAT      O41661   1.847   4.791   6.619
10239WAT     H141662   1.832   4.797   6.705
10239WAT     H241663   1.910   4.731   6.613
10239WAT    EPW41664   1.854   4.783   6.631
10240WAT      O41665   2.953   4.586   6.038
10240WAT     H141666   3.004   4.615   5.973
10240WAT     H241667   2.881   4.558   5.997
10240WAT    EPW41668   2.950   4.586   6.022
10241WAT      O41669   1.571   3.305   6.343
10241WAT     H141670   1.514   3.241   6.323
10241WAT     H241671   1.522   3.377   6.341
10241WAT    EPW41672   1.555   3.306   6.340
10242WAT      O41673   2.503   3.221   6.029
10242WAT     H141674   2.560   3.273   6.068
10242WAT     H241675   2.487   3.261   5.953
10242WAT    EPW41676   2.509   3.234   6.024
10243WAT      O41677   1.564   4.682   6.741
10243WAT     H141678   1.632   4.719   6.782
10243WAT     H241679   1.524   4.750   6.704
10243WAT    EPW41680   1.568   4.697   6.742
10244WAT      O41681   2.406   3.770   5.738
10244WAT     H141682   2.461   3.703   5.742
10244WAT     H241683   2.376   3.777   5.820
10244WAT    EPW41684   2.410   3.761   5.751
10245WAT      O41685   1.416   3.644   5.692
10245WAT     H141686   1.378   3.671   5.766
10245WAT     H241687   1.457   3.571   5.716
10245WAT    EPW41688   1.416   3.637   5.706
10246WAT      O41689   1.411   4.458   6.471
10246WAT     H141690   1.360   4.519   6.508
10246WAT     H241691   1.491   4.492   6.477
10246WAT    EPW41692   1.415   4.472   6.477
10247WAT      O41693   2.672   3.918   5.446
10247WAT     H141694   2.713   3.844   5.425
10247WAT     H241695   2.619   3.932   5.378
10247WAT    EPW41696   2.670   3.909   5.433
10248WAT      O41697   1.642   4.773   5.333
10248WAT     H141698   1.592   4.748   5.266
10248WAT     H241699   1.709   4.717   5.330
10248WAT    EPW41700   1.645   4.761   5.322
10249WAT      O41701   2.031   4.002   5.276
10249WAT     H141702   2.059   4.029   5.198
10249WAT     H241703   2.105   3.982   5.318
10249WAT    EPW41704   2.046   4.003   5.271
10250WAT      O41705   2.916   4.075   6.625
10250WAT     H141706   2.973   4.059   6.690
10250WAT     H241707   2.956   4.136   6.577
10250WAT    EPW41708   2.931   4.081   6.628
10251WAT      O41709   2.597   4.447   5.350
10251WAT     H141710   2.521   4.416   5.321
10251WAT     H241711   2.656   4.409   5.297
10251WAT    EPW41712   2.595   4.437   5.338
10252WAT      O41713   2.920   3.568   6.911
10252WAT     H141714   2.909   3.655   6.917
10252WAT     H241715   2.846   3.540   6.875
10252WAT    EPW41716   2.908   3.577   6.906
10253WAT      O41717   2.932   3.665   6.111
10253WAT     H141718   2.855   3.655   6.071
10253WAT     H241719   2.946   3.587   6.149
10253WAT    EPW41720   2.923   3.652   6.111
10254WAT      O41721   1.895   3.323   6.589
10254WAT     H141722   1.926   3.287   6.515
10254WAT     H241723   1.815   3.290   6.596
10254WAT    EPW41724   1.888   3.313   6.579
10255WAT      O41725   2.668   4.180   6.911
10255WAT     H141726   2.743   4.205   6.948
10255WAT     H241727   2.670   4.218   6.832
10255WAT    EPW41728   2.680   4.190   6.905
10256WAT      O41729   1.663   4.681   5.986
10256WAT     H141730   1.642   4.604   5.952
10256WAT     H241731   1.631   4.739   5.929
10256WAT    EPW41732   1.655   4.678   5.973
10257WAT      O41733   2.350   4.371   5.226
10257WAT     H141734   2.394   4.314   5.178
10257WAT     H241735   2.309   4.421   5.167
10257WAT    EPW41736   2.350   4.370   5.211
10258WAT      O41737   1.395   4.931   6.333
10258WAT     H141738   1.404   4.910   6.417
10258WAT     H241739   1.428   4.862   6.291
10258WAT    EPW41740   1.402   4.918   6.339
10259WAT      O41741   2.362   3.131   3.648
10259WAT     H141742   2.355   3.184   3.579
10259WAT     H241743   2.448   3.117   3.655
10259WAT    EPW41744   2.374   3.137   3.639
10260WAT      O41745   2.383   3.768   4.112
10260WAT     H141746   2.347   3.844   4.135
10260WAT     H241747   2.451   3.760   4.167
10260WAT    EPW41748   2.388   3.778   4.124
10261WAT      O41749   1.295   4.254   3.611
10261WAT     H141750   1.233   4.245   3.671
10261WAT     H241751   1.309   4.173   3.583
10261WAT    EPW41752   1.288   4.241   3.616
10262WAT      O41753   2.987   4.518   3.475
10262WAT     H141754   3.065   4.484   3.495
10262WAT     H241755   2.947   4.454   3.431
10262WAT    EPW41756   2.993   4.503   3.471
10263WAT      O41757   1.282   3.612   3.293
10263WAT     H141758   1.216   3.659   3.260
10263WAT     H241759   1.252   3.530   3.292
10263WAT    EPW41760   1.268   3.607   3.288
10264WAT      O41761   1.469   4.190   3.224
10264WAT     H141762   1.466   4.159   3.143
10264WAT     H241763   1.507   4.126   3.270
10264WAT    EPW41764   1.474   4.176   3.219
10265WAT      O41765   1.549   4.374   3.603
10265WAT     H141766   1.604   4.332   3.657
10265WAT     H241767   1.473   4.333   3.616
10265WAT    EPW41768   1.546   4.362   3.613
10266WAT      O41769   1.982   3.262   3.586
10266WAT     H141770   1.982   3.320   3.520
10266WAT     H241771   2.049   3.210   3.567
10266WAT    EPW41772   1.992   3.263   3.573
10267WAT      O41773   1.450   4.663   3.241
10267WAT     H141774   1.489   4.675   3.164
10267WAT     H241775   1.478   4.584   3.266
10267WAT    EPW41776   1.460   4.653   3.233
10268WAT      O41777   1.336   4.484   4.326
10268WAT     H141778   1.358   4.469   4.409
10268WAT     H241779   1.270   4.430   4.312
10268WAT    EPW41780   1.330   4.474   4.336
10269WAT      O41781   2.000   4.301   4.728
10269WAT     H141782   1.978   4.282   4.811
10269WAT     H241783   1.925   4.296   4.685
10269WAT    EPW41784   1.986   4.298   4.734
10270WAT      O41785   1.489   4.014   3.786
10270WAT     H141786   1.451   4.014   3.707
10270WAT     H241787   1.541   3.944   3.782
10270WAT    EPW41788   1.491   4.003   3.774
10271WAT      O41789   1.959   3.587   4.324
10271WAT     H141790   2.031   3.590   4.274
10271WAT     H241791   1.935   3.503   4.320
10271WAT    EPW41792   1.966   3.575   4.316
10272WAT      O41793   2.024   4.538   4.498
10272WAT     H141794   1.974   4.606   4.477
10272WAT     H241795   2.043   4.551   4.582
10272WAT    EPW41796   2.020   4.550   4.507
10273WAT      O41797   1.651   3.792   3.783
10273WAT     H141798   1.715   3.740   3.813
10273WAT     H241799   1.581   3.740   3.781
10273WAT    EPW41800   1.650   3.777   3.787
10274WAT      O41801   2.079   4.394   3.915
10274WAT     H141802   2.103   4.312   3.932
10274WAT     H241803   2.155   4.435   3.902
10274WAT    EPW41804   2.094   4.388   3.916
10275WAT      O41805   2.185   4.323   3.580
10275WAT     H141806   2.220   4.256   3.623
10275WAT     H241807   2.202   4.306   3.496
10275WAT    EPW41808   2.193   4.311   3.574
10276WAT      O41809   2.304   3.895   4.606
10276WAT     H141810   2.218   3.878   4.607
10276WAT     H241811   2.318   3.936   4.681
10276WAT    EPW41812   2.293   3.898   4.617
10277WAT      O41813   1.715   3.318   3.652
10277WAT     H141814   1.683   3.371   3.592
10277WAT     H241815   1.799   3.310   3.631
10277WAT    EPW41816   1.723   3.324   3.640
10278WAT      O41817   2.670   3.094   4.651
10278WAT     H141818   2.674   3.168   4.605
10278WAT     H241819   2.594   3.100   4.692
10278WAT    EPW41820   2.660   3.106   4.650
10279WAT      O41821   2.022   3.264   3.872
10279WAT     H141822   2.046   3.346   3.885
10279WAT     H241823   1.995   3.263   3.789
10279WAT    EPW41824   2.021   3.276   3.861
10280WAT      O41825   2.410   3.537   3.107
10280WAT     H141826   2.464   3.606   3.101
10280WAT     H241827   2.453   3.482   3.160
10280WAT    EPW41828   2.425   3.539   3.114
10281WAT      O41829   1.314   3.756   4.028
10281WAT     H141830   1.309   3.843   4.038
10281WAT     H241831   1.245   3.726   4.073
10281WAT    EPW41832   1.303   3.765   4.036
10282WAT      O41833   1.342   4.731   3.866
10282WAT     H141834   1.274   4.775   3.833
10282WAT     H241835   1.377   4.691   3.797
10282WAT    EPW41836   1.337   4.732   3.851
10283WAT      O41837   1.910   4.376   3.559
10283WAT     H141838   1.881   4.402   3.637
10283WAT     H241839   1.995   4.362   3.573
10283WAT    EPW41840   1.918   4.378   3.573
10284WAT      O41841   2.560   4.683   3.316
10284WAT     H141842   2.639   4.718   3.321
10284WAT     H241843   2.573   4.600   3.341
10284WAT    EPW41844   2.574   4.676   3.320
10285WAT      O41845   2.350   4.705   3.497
10285WAT     H141846   2.363   4.773   3.550
10285WAT     H241847   2.416   4.710   3.440
10285WAT    EPW41848   2.362   4.716   3.497
10286WAT      O41849   1.546   3.243   4.064
10286WAT     H141850   1.536   3.170   4.017
10286WAT     H241851   1.601   3.220   4.127
10286WAT    EPW41852   1.552   3.229   4.066
10287WAT      O41853   1.918   3.483   4.974
10287WAT     H141854   1.909   3.441   4.898
10287WAT     H241855   1.966   3.552   4.953
10287WAT    EPW41856   1.924   3.487   4.959
10288WAT      O41857   1.457   4.635   3.626
10288WAT     H141858   1.499   4.559   3.634
10288WAT     H241859   1.513   4.684   3.580
10288WAT    EPW41860   1.472   4.631   3.620
10289WAT      O41861   2.550   4.820   4.313
10289WAT     H141862   2.594   4.857   4.379
10289WAT     H241863   2.530   4.888   4.262
10289WAT    EPW41864   2.553   4.836   4.315
10290WAT      O41865   1.503   3.389   4.914
10290WAT     H141866   1.421   3.360   4.903
10290WAT     H241867   1.546   3.358   4.845
10290WAT    EPW41868   1.497   3.380   4.903
10291WAT      O41869   1.606   4.450   3.972
10291WAT     H141870   1.666   4.446   3.910
10291WAT     H241871   1.632   4.391   4.030
10291WAT    EPW41872   1.618   4.441   3.972
10292WAT      O41873   1.913   4.736   3.854
10292WAT     H141874   1.995   4.757   3.835
10292WAT     H241875   1.866   4.790   3.806
10292WAT    EPW41876   1.918   4.747   3.844
10293WAT      O41877   2.106   3.212   4.856
10293WAT     H141878   2.122   3.142   4.807
10293WAT     H241879   2.033   3.245   4.822
10293WAT    EPW41880   2.098   3.207   4.844
10294WAT      O41881   2.208   3.670   3.692
10294WAT     H141882   2.224   3.628   3.617
10294WAT     H241883   2.286   3.672   3.731
10294WAT    EPW41884   2.222   3.664   3.687
10295WAT      O41885   2.814   4.789   3.367
10295WAT     H141886   2.818   4.875   3.382
10295WAT     H241887   2.809   4.754   3.447
10295WAT    EPW41888   2.814   4.797   3.381
10296WAT      O41889   1.825   4.734   4.441
10296WAT     H141890   1.830   4.770   4.520
10296WAT     H241891   1.739   4.720   4.431
10296WAT    EPW41892   1.813   4.737   4.451
10297WAT      O41893   1.234   3.493   4.651
10297WAT     H141894   1.229   3.569   4.694
10297WAT     H241895   1.300   3.505   4.595
10297WAT    EPW41896   1.243   3.506   4.649
10298WAT      O41897   2.573   4.473   4.755
10298WAT     H141898   2.555   4.521   4.825
10298WAT     H241899   2.661   4.469   4.754
10298WAT    EPW41900   2.584   4.479   4.765
10299WAT      O41901   2.200   4.522   3.151
10299WAT     H141902   2.168   4.577   3.210
10299WAT     H241903   2.274   4.559   3.125
10299WAT    EPW41904   2.206   4.536   3.156
10300WAT      O41905   2.532   3.359   3.287
10300WAT     H141906   2.590   3.294   3.283
10300WAT     H241907   2.565   3.411   3.348
10300WAT    EPW41908   2.546   3.357   3.295
10301WAT      O41909   1.345   3.393   3.558
10301WAT     H141910   1.328   3.309   3.543
10301WAT     H241911   1.301   3.411   3.631
10301WAT    EPW41912   1.336   3.383   3.567
10302WAT      O41913   1.541   4.696   4.355
10302WAT     H141914   1.483   4.632   4.351
10302WAT     H241915   1.575   4.699   4.274
10302WAT    EPW41916   1.538   4.687   4.342
10303WAT      O41917   2.217   3.541   3.435
10303WAT     H141918   2.264   3.468   3.437
10303WAT     H241919   2.135   3.513   3.429
10303WAT    EPW41920   2.212   3.526   3.434
10304WAT      O41921   2.318   4.786   4.460
10304WAT     H141922   2.393   4.797   4.416
10304WAT     H241923   2.259   4.770   4.397
10304WAT    EPW41924   2.320   4.785   4.444
10305WAT      O41925   2.306   3.274   3.418
10305WAT     H141926   2.249   3.243   3.359
10305WAT     H241927   2.377   3.291   3.371
10305WAT    EPW41928   2.308   3.272   3.402
10306WAT      O41929   3.102   4.865   3.519
10306WAT     H141930   3.046   4.918   3.559
10306WAT     H241931   3.138   4.821   3.585
10306WAT    EPW41932   3.099   4.866   3.535
10307WAT      O41933   2.065   3.537   3.896
10307WAT     H141934   2.109   3.580   3.834
10307WAT     H241935   2.108   3.556   3.969
10307WAT    EPW41936   2.078   3.546   3.898
10308WAT      O41937   2.713   4.448   3.803
10308WAT     H141938   2.762   4.379   3.783
10308WAT     H241939   2.631   4.418   3.798
10308WAT    EPW41940   2.708   4.433   3.799
10309WAT      O41941   1.665   4.557   4.699
10309WAT     H141942   1.737   4.606   4.690
10309WAT     H241943   1.622   4.594   4.765
10309WAT    EPW41944   1.670   4.569   4.707
10310WAT      O41945   1.669   3.049   3.679
10310WAT     H141946   1.676   3.136   3.669
10310WAT     H241947   1.638   3.022   3.603
10310WAT    EPW41948   1.666   3.058   3.666
10311WAT      O41949   1.910   4.100   4.068
10311WAT     H141950   1.932   4.081   4.150
10311WAT     H241951   1.849   4.040   4.049
10311WAT    EPW41952   1.904   4.089   4.077
10312WAT      O41953   2.483   3.508   4.460
10312WAT     H141954   2.467   3.553   4.533
10312WAT     H241955   2.412   3.459   4.449
10312WAT    EPW41956   2.470   3.508   4.469
10313WAT      O41957   2.034   4.137   4.329
10313WAT     H141958   1.991   4.211   4.312
10313WAT     H241959   1.989   4.101   4.394
10313WAT    EPW41960   2.021   4.143   4.336
10314WAT      O41961   2.679   4.121   4.373
10314WAT     H141962   2.738   4.066   4.341
10314WAT     H241963   2.715   4.151   4.447
10314WAT    EPW41964   2.693   4.118   4.379
10315WAT      O41965   2.628   3.078   3.691
10315WAT     H141966   2.637   3.058   3.775
10315WAT     H241967   2.673   3.015   3.650
10315WAT    EPW41968   2.636   3.066   3.697
10316WAT      O41969   1.230   4.541   4.963
10316WAT     H141970   1.290   4.589   5.004
10316WAT     H241971   1.237   4.463   5.001
10316WAT    EPW41972   1.240   4.536   4.975
10317WAT      O41973   2.874   3.535   4.429
10317WAT     H141974   2.960   3.543   4.411
10317WAT     H241975   2.848   3.617   4.440
10317WAT    EPW41976   2.883   3.548   4.428
10318WAT      O41977   1.606   3.437   3.876
10318WAT     H141978   1.637   3.391   3.809
10318WAT     H241979   1.591   3.377   3.938
10318WAT    EPW41980   1.608   3.421   3.876
10319WAT      O41981   1.694   4.199   3.762
10319WAT     H141982   1.735   4.158   3.696
10319WAT     H241983   1.629   4.144   3.783
10319WAT    EPW41984   1.691   4.185   3.755
10320WAT      O41985   1.563   4.887   3.926
10320WAT     H141986   1.488   4.848   3.906
10320WAT     H241987   1.609   4.884   3.852
10320WAT    EPW41988   1.559   4.881   3.912
10321WAT      O41989   1.462   3.679   4.254
10321WAT     H141990   1.545   3.674   4.229
10321WAT     H241991   1.419   3.691   4.178
10321WAT    EPW41992   1.468   3.680   4.239
10322WAT      O41993   2.612   3.956   3.315
10322WAT     H141994   2.687   3.996   3.295
10322WAT     H241995   2.627   3.920   3.393
10322WAT    EPW41996   2.625   3.957   3.324
10323WAT      O41997   1.801   4.124   3.511
10323WAT     H141998   1.831   4.206   3.515
10323WAT     H241999   1.872   4.077   3.492
10323WAT    EPW42000   1.816   4.129   3.509
10324WAT      O42001   3.072   3.404   3.250
10324WAT     H142002   3.110   3.341   3.203
10324WAT     H242003   3.139   3.443   3.289
10324WAT    EPW42004   3.088   3.400   3.249
10325WAT      O42005   1.344   4.339   3.975
10325WAT     H142006   1.294   4.405   4.003
10325WAT     H242007   1.422   4.375   3.966
10325WAT    EPW42008   1.348   4.354   3.978
10326WAT      O42009   2.077   3.705   4.904
10326WAT     H142010   2.018   3.766   4.926
10326WAT     H242011   2.098   3.725   4.822
10326WAT    EPW42012   2.071   3.717   4.895
10327WAT      O42013   1.385   4.002   3.530
10327WAT     H142014   1.361   3.918   3.534
10327WAT     H242015   1.453   4.001   3.475
10327WAT    EPW42016   1.391   3.989   3.522
10328WAT      O42017   2.919   3.262   3.452
10328WAT     H142018   2.981   3.204   3.474
10328WAT     H242019   2.959   3.314   3.394
10328WAT    EPW42020   2.934   3.261   3.447
10329WAT      O42021   2.317   4.534   3.907
10329WAT     H142022   2.286   4.615   3.896
10329WAT     H242023   2.356   4.516   3.831
10329WAT    EPW42024   2.318   4.544   3.894
10330WAT      O42025   1.263   4.493   3.481
10330WAT     H142026   1.321   4.544   3.522
10330WAT     H242027   1.265   4.419   3.528
10330WAT    EPW42028   1.272   4.490   3.494
10331WAT      O42029   1.701   4.268   4.158
10331WAT     H142030   1.753   4.311   4.213
10331WAT     H242031   1.757   4.219   4.112
10331WAT    EPW42032   1.717   4.267   4.159
10332WAT      O42033   2.621   3.475   3.864
10332WAT     H142034   2.665   3.534   3.912
10332WAT     H242035   2.682   3.442   3.812
10332WAT    EPW42036   2.637   3.479   3.864
10333WAT      O42037   1.238   4.343   3.246
10333WAT     H142038   1.305   4.288   3.242
10333WAT     H242039   1.255   4.391   3.317
10333WAT    EPW42040   1.250   4.342   3.256
10334WAT      O42041   1.347   4.065   4.017
10334WAT     H142042   1.394   4.043   3.947
10334WAT     H242043   1.343   4.152   4.013
10334WAT    EPW42044   1.353   4.074   4.006
10335WAT      O42045   1.962   3.448   3.380
10335WAT     H142046   1.947   3.434   3.295
10335WAT     H242047   1.937   3.531   3.392
10335WAT    EPW42048   1.956   3.458   3.369
10336WAT      O42049   2.961   4.872   4.336
10336WAT     H142050   2.920   4.840   4.406
10336WAT     H242051   3.040   4.892   4.366
10336WAT    EPW42052   2.966   4.870   4.351
10337WAT      O42053   1.834   4.478   3.805
10337WAT     H142054   1.854   4.562   3.816
10337WAT     H242055   1.901   4.435   3.842
10337WAT    EPW42056   1.847   4.484   3.812
10338WAT      O42057   1.631   3.841   4.862
10338WAT     H142058   1.588   3.782   4.909
10338WAT     H242059   1.628   3.808   4.781
10338WAT    EPW42060   1.624   3.827   4.857
10339WAT      O42061   1.651   3.719   3.340
10339WAT     H142062   1.630   3.655   3.396
10339WAT     H242063   1.611   3.695   3.266
10339WAT    EPW42064   1.642   3.706   3.337
10340WAT      O42065   1.705   3.924   4.029
10340WAT     H142066   1.687   3.890   3.951
10340WAT     H242067   1.715   3.854   4.081
10340WAT    EPW42068   1.704   3.909   4.025
10341WAT      O42069   1.673   3.904   4.383
10341WAT     H142070   1.693   3.845   4.322
10341WAT     H242071   1.616   3.957   4.343
10341WAT    EPW42072   1.668   3.903   4.368
10342WAT      O42073   2.723   3.681   4.022
10342WAT     H142074   2.712   3.737   4.088
10342WAT     H242075   2.776   3.724   3.968
10342WAT    EPW42076   2.729   3.696   4.024
10343WAT      O42077   2.167   4.743   4.232
10343WAT     H142078   2.111   4.684   4.202
10343WAT     H242079   2.146   4.816   4.189
10343WAT    EPW42080   2.156   4.745   4.221
10344WAT      O42081   2.284   3.284   4.476
10344WAT     H142082   2.304   3.199   4.470
10344WAT     H242083   2.303   3.302   4.560
10344WAT    EPW42084   2.290   3.274   4.488
10345WAT      O42085   2.611   3.535   3.487
10345WAT     H142086   2.686   3.535   3.531
10345WAT     H242087   2.582   3.616   3.495
10345WAT    EPW42088   2.618   3.547   3.494
10346WAT      O42089   1.486   4.074   4.897
10346WAT     H142090   1.483   4.116   4.821
10346WAT     H242091   1.534   4.003   4.880
10346WAT    EPW42092   1.493   4.070   4.883
10347WAT      O42093   2.092   4.552   4.793
10347WAT     H142094   2.130   4.546   4.872
10347WAT     H242095   2.069   4.469   4.776
10347WAT    EPW42096   2.094   4.538   4.802
10348WAT      O42097   2.182   3.577   4.147
10348WAT     H142098   2.246   3.635   4.140
10348WAT     H242099   2.223   3.501   4.160
10348WAT    EPW42100   2.197   3.574   4.148
10349WAT      O42101   2.340   3.860   3.334
10349WAT     H142102   2.421   3.892   3.329
10349WAT     H242103   2.315   3.879   3.415
10349WAT    EPW42104   2.349   3.868   3.345
10350WAT      O42105   2.865   4.209   3.804
10350WAT     H142106   2.926   4.258   3.841
10350WAT     H242107   2.905   4.132   3.791
10350WAT    EPW42108   2.880   4.205   3.807
10351WAT      O42109   2.596   4.252   4.125
10351WAT     H142110   2.522   4.288   4.154
10351WAT     H242111   2.626   4.207   4.194
10351WAT    EPW42112   2.590   4.251   4.140
10352WAT      O42113   1.867   4.606   3.414
10352WAT     H142114   1.881   4.535   3.464
10352WAT     H242115   1.947   4.639   3.403
10352WAT    EPW42116   1.881   4.600   3.420
10353WAT      O42117   1.824   3.123   3.279
10353WAT     H142118   1.800   3.087   3.355
10353WAT     H242119   1.768   3.189   3.268
10353WAT    EPW42120   1.812   3.127   3.288
10354WAT      O42121   2.117   4.700   3.345
10354WAT     H142122   2.186   4.703   3.398
10354WAT     H242123   2.113   4.781   3.312
10354WAT    EPW42124   2.127   4.713   3.348
10355WAT      O42125   2.490   4.650   4.962
10355WAT     H142126   2.526   4.665   5.040
10355WAT     H242127   2.508   4.723   4.918
10355WAT    EPW42128   2.498   4.663   4.967
10356WAT      O42129   2.821   3.205   4.871
10356WAT     H142130   2.777   3.178   4.801
10356WAT     H242131   2.863   3.133   4.898
10356WAT    EPW42132   2.821   3.191   4.864
10357WAT      O42133   1.609   3.993   3.362
10357WAT     H142134   1.623   3.907   3.371
10357WAT     H242135   1.670   4.028   3.413
10357WAT    EPW42136   1.620   3.985   3.371
10358WAT      O42137   2.400   4.096   4.427
10358WAT     H142138   2.487   4.093   4.417
10358WAT     H242139   2.383   4.029   4.480
10358WAT    EPW42140   2.411   4.086   4.434
10359WAT      O42141   1.265   3.124   3.518
10359WAT     H142142   1.261   3.070   3.450
10359WAT     H242143   1.234   3.077   3.584
10359WAT    EPW42144   1.260   3.109   3.518
10360WAT      O42145   2.234   3.924   3.581
10360WAT     H142146   2.268   3.981   3.637
10360WAT     H242147   2.224   3.852   3.629
10360WAT    EPW42148   2.238   3.922   3.597
10361WAT      O42149   2.930   4.216   4.168
10361WAT     H142150   2.993   4.198   4.110
10361WAT     H242151   2.922   4.142   4.214
10361WAT    EPW42152   2.938   4.203   4.167
10362WAT      O42153   1.665   3.347   3.228
10362WAT     H142154   1.600   3.347   3.169
10362WAT     H242155   1.726   3.397   3.191
10362WAT    EPW42156   1.664   3.355   3.214
10363WAT      O42157   2.165   4.133   3.967
10363WAT     H142158   2.082   4.112   3.984
10363WAT     H242159   2.210   4.099   4.033
10363WAT    EPW42160   2.159   4.125   3.979
10364WAT      O42161   1.818   4.729   3.047
10364WAT     H142162   1.831   4.651   3.084
10364WAT     H242163   1.824   4.785   3.114
10364WAT    EPW42164   1.821   4.726   3.063
10365WAT      O42165   1.507   4.087   4.249
10365WAT     H142166   1.564   4.149   4.225
10365WAT     H242167   1.464   4.069   4.176
10365WAT    EPW42168   1.509   4.094   4.235
10366WAT      O42169   1.803   3.619   3.937
10366WAT     H142170   1.884   3.590   3.920
10366WAT     H242171   1.753   3.550   3.918
10366WAT    EPW42172   1.808   3.604   3.932
10367WAT      O42173   3.343   4.714   3.252
10367WAT     H142174   3.382   4.671   3.188
10367WAT     H242175   3.394   4.699   3.322
10367WAT    EPW42176   3.356   4.706   3.253
10368WAT      O42177   1.323   3.732   3.550
10368WAT     H142178   1.349   3.690   3.622
10368WAT     H242179   1.327   3.671   3.488
10368WAT    EPW42180   1.328   3.717   3.552
10369WAT      O42181   1.768   3.972   3.123
10369WAT     H142182   1.719   3.978   3.195
10369WAT     H242183   1.715   3.935   3.065
10369WAT    EPW42184   1.753   3.967   3.125
10370WAT      O42185   1.477   4.207   4.655
10370WAT     H142186   1.434   4.159   4.596
10370WAT     H242187   1.447   4.288   4.642
10370WAT    EPW42188   1.466   4.211   4.644
10371WAT      O42189   1.928   3.719   3.369
10371WAT     H142190   1.952   3.798   3.396
10371WAT     H242191   1.842   3.726   3.357
10371WAT    EPW42192   1.919   3.731   3.371
10372WAT      O42193   2.822   3.496   4.913
10372WAT     H142194   2.736   3.505   4.921
10372WAT     H242195   2.830   3.427   4.859
10372WAT    EPW42196   2.810   3.487   4.906
10373WAT      O42197   1.297   3.386   4.047
10373WAT     H142198   1.276   3.389   3.963
10373WAT     H242199   1.372   3.341   4.049
10373WAT    EPW42200   1.305   3.380   4.035
10374WAT      O42201   3.174   4.625   3.972
10374WAT     H142202   3.188   4.645   3.889
10374WAT     H242203   3.254   4.622   4.007
10374WAT    EPW42204   3.187   4.627   3.965
10375WAT      O42205   2.498   3.795   4.930
10375WAT     H142206   2.573   3.829   4.958
10375WAT     H242207   2.452   3.864   4.903
10375WAT    EPW42208   2.502   3.810   4.930
10376WAT      O42209   2.833   4.371   3.295
10376WAT     H142210   2.833   4.285   3.281
10376WAT     H242211   2.755   4.385   3.333
10376WAT    EPW42212   2.821   4.360   3.299
10377WAT      O42213   2.490   4.211   3.249
10377WAT     H142214   2.524   4.133   3.268
10377WAT     H242215   2.487   4.211   3.162
10377WAT    EPW42216   2.494   4.199   3.239
10378WAT      O42217   1.917   4.383   4.295
10378WAT     H142218   1.930   4.428   4.368
10378WAT     H242219   1.934   4.442   4.232
10378WAT    EPW42220   1.921   4.399   4.296
10379WAT      O42221   1.741   4.288   4.621
10379WAT     H142222   1.662   4.252   4.629
10379WAT     H242223   1.726   4.373   4.639
10379WAT    EPW42224   1.727   4.296   4.625
10380WAT      O42225   2.695   3.331   4.500
10380WAT     H142226   2.764   3.384   4.496
10380WAT     H242227   2.627   3.384   4.487
10380WAT    EPW42228   2.695   3.346   4.497
10381WAT      O42229   2.261   4.013   4.202
10381WAT     H142230   2.321   4.033   4.263
10381WAT     H242231   2.185   4.030   4.241
10381WAT    EPW42232   2.259   4.018   4.217
10382WAT      O42233   1.879   3.608   4.591
10382WAT     H142234   1.884   3.530   4.628
10382WAT     H242235   1.908   3.595   4.510
10382WAT    EPW42236   1.884   3.595   4.584
10383WAT      O42237   2.198   4.788   3.849
10383WAT     H142238   2.183   4.840   3.917
10383WAT     H242239   2.253   4.835   3.799
10383WAT    EPW42240   2.204   4.803   3.852
10384WAT      O42241   2.738   3.153   4.283
10384WAT     H142242   2.733   3.210   4.349
10384WAT     H242243   2.811   3.176   4.242
10384WAT    EPW42244   2.748   3.165   4.287
10385WAT      O42245   2.023   3.203   4.538
10385WAT     H142246   2.103   3.229   4.514
10385WAT     H242247   2.034   3.119   4.560
10385WAT    EPW42248   2.037   3.194   4.538
10386WAT      O42249   1.985   4.571   4.104
10386WAT     H142250   1.940   4.631   4.060
10386WAT     H242251   2.016   4.518   4.041
10386WAT    EPW42252   1.983   4.572   4.088
10387WAT      O42253   2.578   4.197   4.820
10387WAT     H142254   2.664   4.183   4.809
10387WAT     H242255   2.568   4.280   4.794
10387WAT    EPW42256   2.589   4.207   4.814
10388WAT      O42257   2.122   4.073   3.189
10388WAT     H142258   2.056   4.109   3.147
10388WAT     H242259   2.161   4.140   3.229
10388WAT    EPW42260   2.118   4.088   3.189
10389WAT      O42261   1.743   3.697   4.193
10389WAT     H142262   1.758   3.665   4.113
10389WAT     H242263   1.809   3.668   4.241
10389WAT    EPW42264   1.755   3.688   4.188
10390WAT      O42265   2.401   3.644   4.694
10390WAT     H142266   2.372   3.717   4.657
10390WAT     H242267   2.452   3.673   4.759
10390WAT    EPW42268   2.404   3.659   4.698
10391WAT      O42269   2.591   3.733   4.300
10391WAT     H142270   2.658   3.764   4.347
10391WAT     H242271   2.568   3.661   4.343
10391WAT    EPW42272   2.598   3.727   4.314
10392WAT      O42273   2.255   4.771   4.730
10392WAT     H142274   2.256   4.780   4.643
10392WAT     H242275   2.212   4.696   4.743
10392WAT    EPW42276   2.249   4.761   4.719
10393WAT      O42277   2.843   3.632   3.624
10393WAT     H142278   2.846   3.675   3.700
10393WAT     H242279   2.927   3.632   3.597
10393WAT    EPW42280   2.856   3.638   3.631
10394WAT      O42281   2.031   3.193   4.152
10394WAT     H142282   1.961   3.225   4.192
10394WAT     H242283   2.013   3.204   4.067
10394WAT    EPW42284   2.018   3.199   4.145
10395WAT      O42285   2.791   3.304   3.712
10395WAT     H142286   2.740   3.235   3.696
10395WAT     H242287   2.835   3.315   3.638
10395WAT    EPW42288   2.790   3.296   3.699
10396WAT      O42289   1.259   3.271   4.815
10396WAT     H142290   1.258   3.340   4.762
10396WAT     H242291   1.175   3.251   4.824
10396WAT    EPW42292   1.246   3.278   4.809
10397WAT      O42293   1.870   4.855   4.180
10397WAT     H142294   1.874   4.834   4.264
10397WAT     H242295   1.803   4.807   4.150
10397WAT    EPW42296   1.860   4.845   4.188
10398WAT      O42297   1.592   3.478   3.466
10398WAT     H142298   1.604   3.432   3.392
10398WAT     H242299   1.512   3.455   3.491
10398WAT    EPW42300   1.582   3.468   3.459
10399WAT      O42301   2.578   4.184   3.851
10399WAT     H142302   2.580   4.193   3.938
10399WAT     H242303   2.660   4.167   3.830
10399WAT    EPW42304   2.590   4.183   3.861
10400WAT      O42305   2.322   4.136   3.738
10400WAT     H142306   2.275   4.132   3.811
10400WAT     H242307   2.404   4.148   3.767
10400WAT    EPW42308   2.327   4.137   3.753
10401WAT      O42309   2.384   4.510   4.543
10401WAT     H142310   2.441   4.506   4.608
10401WAT     H242311   2.373   4.596   4.529
10401WAT    EPW42312   2.391   4.522   4.550
10402WAT      O42313   1.381   4.885   4.729
10402WAT     H142314   1.321   4.822   4.722
10402WAT     H242315   1.337   4.952   4.764
10402WAT    EPW42316   1.366   4.886   4.733
10403WAT      O42317   2.352   4.018   4.849
10403WAT     H142318   2.412   4.081   4.841
10403WAT     H242319   2.290   4.055   4.899
10403WAT    EPW42320   2.352   4.033   4.855
10404WAT      O42321   2.711   4.875   3.966
10404WAT     H142322   2.661   4.900   4.033
10404WAT     H242323   2.772   4.825   4.004
10404WAT    EPW42324   2.713   4.871   3.982
10405WAT      O42325   2.374   4.418   4.191
10405WAT     H142326   2.349   4.450   4.114
10405WAT     H242327   2.439   4.471   4.216
10405WAT    EPW42328   2.380   4.430   4.184
10406WAT      O42329   1.630   3.732   4.604
10406WAT     H142330   1.633   3.790   4.539
10406WAT     H242331   1.707   3.693   4.600
10406WAT    EPW42332   1.642   3.735   4.593
10407WAT      O42333   1.457   3.541   4.492
10407WAT     H142334   1.448   3.577   4.413
10407WAT     H242335   1.506   3.598   4.535
10407WAT    EPW42336   1.463   3.555   4.487
10408WAT      O42337   1.628   3.252   4.705
10408WAT     H142338   1.590   3.174   4.711
10408WAT     H242339   1.621   3.272   4.620
10408WAT    EPW42340   1.621   3.244   4.694
10409WAT      O42341   2.409   4.476   3.642
10409WAT     H142342   2.391   4.550   3.600
10409WAT     H242343   2.339   4.426   3.627
10409WAT    EPW42344   2.396   4.480   3.634
10410WAT      O42345   1.332   4.070   4.464
10410WAT     H142346   1.381   4.085   4.393
10410WAT     H242347   1.312   3.986   4.458
10410WAT    EPW42348   1.336   4.060   4.452
10411WAT      O42349   1.497   3.636   3.119
10411WAT     H142350   1.427   3.634   3.170
10411WAT     H242351   1.495   3.558   3.080
10411WAT    EPW42352   1.486   3.624   3.121
10412WAT      O42353   2.326   3.360   4.738
10412WAT     H142354   2.349   3.443   4.750
10412WAT     H242355   2.258   3.350   4.792
10412WAT    EPW42356   2.319   3.371   4.748
10413WAT      O42357   2.400   3.301   3.874
10413WAT     H142358   2.455   3.363   3.848
10413WAT     H242359   2.384   3.255   3.801
10413WAT    EPW42360   2.406   3.303   3.860
10414WAT      O42361   1.806   4.468   3.181
10414WAT     H142362   1.846   4.502   3.250
10414WAT     H242363   1.726   4.450   3.210
10414WAT    EPW42364   1.800   4.470   3.195
10415WAT      O42365   2.728   3.457   4.194
10415WAT     H142366   2.773   3.480   4.265
10415WAT     H242367   2.733   3.528   4.144
10415WAT    EPW42368   2.735   3.471   4.197
10416WAT      O42369   1.868   4.041   4.528
10416WAT     H142370   1.829   4.112   4.561
10416WAT     H242371   1.804   4.001   4.485
10416WAT    EPW42372   1.853   4.046   4.527
10417WAT      O42373   2.789   4.651   3.617
10417WAT     H142374   2.756   4.596   3.676
10417WAT     H242375   2.858   4.608   3.585
10417WAT    EPW42376   2.795   4.637   3.621
10418WAT      O42377   1.567   4.426   3.324
10418WAT     H142378   1.572   4.411   3.410
10418WAT     H242379   1.537   4.351   3.292
10418WAT    EPW42380   1.563   4.413   3.332
10419WAT      O42381   1.911   4.216   3.079
10419WAT     H142382   1.850   4.154   3.089
10419WAT     H242383   1.874   4.287   3.115
10419WAT    EPW42384   1.896   4.218   3.086
10420WAT      O42385   1.866   3.331   4.348
10420WAT     H142386   1.781   3.315   4.362
10420WAT     H242387   1.906   3.279   4.406
10420WAT    EPW42388   1.859   3.321   4.359
10421WAT      O42389   2.286   3.322   4.199
10421WAT     H142390   2.217   3.277   4.171
10421WAT     H242391   2.283   3.313   4.286
10421WAT    EPW42392   2.275   3.314   4.208
10422WAT      O42393   2.612   4.552   4.263
10422WAT     H142394   2.630   4.527   4.345
10422WAT     H242395   2.597   4.637   4.270
10422WAT    EPW42396   2.613   4.561   4.276
10423WAT      O42397   2.508   4.871   4.784
10423WAT     H142398   2.435   4.831   4.759
10423WAT     H242399   2.484   4.954   4.793
10423WAT    EPW42400   2.494   4.878   4.782
10424WAT      O42401   2.034   3.836   4.642
10424WAT     H142402   1.985   3.766   4.624
10424WAT     H242403   1.983   3.903   4.620
10424WAT    EPW42404   2.019   3.835   4.636
10425WAT      O42405   2.099   3.173   3.251
10425WAT     H142406   2.107   3.180   3.165
10425WAT     H242407   2.012   3.170   3.264
10425WAT    EPW42408   2.087   3.173   3.240
10426WAT      O42409   1.883   4.731   4.727
10426WAT     H142410   1.863   4.783   4.794
10426WAT     H242411   1.947   4.681   4.758
10426WAT    EPW42412   1.890   4.731   4.741
10427WAT      O42413   2.916   4.702   4.097
10427WAT     H142414   2.995   4.689   4.061
10427WAT     H242415   2.933   4.747   4.169
10427WAT    EPW42416   2.930   4.707   4.102
10428WAT      O42417   1.596   3.308   4.437
10428WAT     H142418   1.538   3.245   4.420
10428WAT     H242419   1.547   3.379   4.445
10428WAT    EPW42420   1.580   3.309   4.436
10429WAT      O42421   1.551   4.732   4.890
10429WAT     H142422   1.625   4.774   4.910
10429WAT     H242423   1.508   4.789   4.839
10429WAT    EPW42424   1.556   4.747   4.885
10430WAT      O42425   2.441   3.697   3.834
10430WAT     H142426   2.501   3.634   3.839
10430WAT     H242427   2.434   3.725   3.916
10430WAT    EPW42428   2.449   3.692   3.847
10431WAT      O42429   1.423   3.638   3.797
10431WAT     H142430   1.383   3.667   3.868
10431WAT     H242431   1.464   3.565   3.823
10431WAT    EPW42432   1.423   3.631   3.811
10432WAT      O42433   1.416   4.473   4.592
10432WAT     H142434   1.359   4.530   4.625
10432WAT     H242435   1.494   4.509   4.611
10432WAT    EPW42436   1.420   4.487   4.600
10433WAT      O42437   2.636   3.816   3.555
10433WAT     H142438   2.712   3.777   3.572
10433WAT     H242439   2.606   3.836   3.635
10433WAT    EPW42440   2.643   3.813   3.570
10434WAT      O42441   1.641   4.763   3.442
10434WAT     H142442   1.585   4.740   3.379
10434WAT     H242443   1.706   4.706   3.434
10434WAT    EPW42444   1.642   4.751   3.431
10435WAT      O42445   2.014   3.973   3.425
10435WAT     H142446   2.049   4.003   3.351
10435WAT     H242447   2.083   3.964   3.478
10435WAT    EPW42448   2.029   3.976   3.422
10436WAT      O42449   2.580   4.423   3.408
10436WAT     H142450   2.541   4.419   3.486
10436WAT     H242451   2.545   4.355   3.365
10436WAT    EPW42452   2.569   4.412   3.413
10437WAT      O42453   2.911   3.713   5.076
10437WAT     H142454   2.853   3.778   5.067
10437WAT     H242455   2.893   3.660   5.008
10437WAT    EPW42456   2.900   3.715   5.064
10438WAT      O42457   1.888   3.349   4.725
10438WAT     H142458   1.928   3.306   4.660
10438WAT     H242459   1.807   3.315   4.725
10438WAT    EPW42460   1.882   3.337   4.716
10439WAT      O42461   1.652   4.695   4.100
10439WAT     H142462   1.639   4.619   4.060
10439WAT     H242463   1.621   4.754   4.043
10439WAT    EPW42464   1.645   4.692   4.086
10440WAT      O42465   2.235   4.292   3.309
10440WAT     H142466   2.318   4.269   3.291
10440WAT     H242467   2.222   4.361   3.257
10440WAT    EPW42468   2.246   4.299   3.299
10441WAT      O42469   1.410   4.927   4.454
10441WAT     H142470   1.409   4.910   4.540
10441WAT     H242471   1.449   4.857   4.420
10441WAT    EPW42472   1.415   4.914   4.462
10442WAT      O42473   2.431   3.186   1.768
10442WAT     H142474   2.460   3.253   1.719
10442WAT     H242475   2.504   3.145   1.791
10442WAT    EPW42476   2.446   3.190   1.764
10443WAT      O42477   2.321   3.811   2.236
10443WAT     H142478   2.287   3.888   2.259
10443WAT     H242479   2.382   3.796   2.296
10443WAT    EPW42480   2.325   3.820   2.248
10444WAT      O42481   1.285   4.254   1.716
10444WAT     H142482   1.223   4.249   1.777
10444WAT     H242483   1.294   4.171   1.690
10444WAT    EPW42484   1.277   4.241   1.721
10445WAT      O42485   2.938   4.635   1.533
10445WAT     H142486   3.001   4.579   1.559
10445WAT     H242487   2.886   4.586   1.483
10445WAT    EPW42488   2.940   4.620   1.530
10446WAT      O42489   1.264   3.610   1.365
10446WAT     H142490   1.200   3.662   1.336
10446WAT     H242491   1.232   3.530   1.352
10446WAT    EPW42492   1.250   3.606   1.359
10447WAT      O42493   1.547   4.203   1.317
10447WAT     H142494   1.526   4.163   1.243
10447WAT     H242495   1.562   4.138   1.373
10447WAT    EPW42496   1.546   4.188   1.315
10448WAT      O42497   2.575   3.963   1.856
10448WAT     H142498   2.580   3.941   1.772
10448WAT     H242499   2.519   3.906   1.889
10448WAT    EPW42500   2.568   3.951   1.848
10449WAT      O42501   1.536   4.380   1.716
10449WAT     H142502   1.590   4.340   1.772
10449WAT     H242503   1.461   4.336   1.725
10449WAT    EPW42504   1.533   4.367   1.726
10450WAT      O42505   2.024   3.307   1.667
10450WAT     H142506   2.009   3.376   1.617
10450WAT     H242507   2.095   3.271   1.631
10450WAT    EPW42508   2.033   3.312   1.654
10451WAT      O42509   1.447   4.660   1.322
10451WAT     H142510   1.491   4.667   1.247
10451WAT     H242511   1.479   4.586   1.357
10451WAT    EPW42512   1.458   4.650   1.316
10452WAT      O42513   1.315   4.487   2.419
10452WAT     H142514   1.345   4.468   2.499
10452WAT     H242515   1.248   4.433   2.408
10452WAT    EPW42516   1.310   4.476   2.429
10453WAT      O42517   2.003   4.301   2.832
10453WAT     H142518   1.982   4.272   2.911
10453WAT     H242519   1.930   4.291   2.786
10453WAT    EPW42520   1.989   4.295   2.837
10454WAT      O42521   1.482   4.010   1.884
10454WAT     H142522   1.435   4.007   1.811
10454WAT     H242523   1.539   3.944   1.875
10454WAT    EPW42524   1.483   4.000   1.872
10455WAT      O42525   1.940   3.583   2.436
10455WAT     H142526   2.010   3.583   2.384
10455WAT     H242527   1.915   3.499   2.437
10455WAT    EPW42528   1.947   3.570   2.429
10456WAT      O42529   2.043   4.606   2.583
10456WAT     H142530   2.062   4.658   2.515
10456WAT     H242531   2.121   4.574   2.605
10456WAT    EPW42532   2.058   4.609   2.576
10457WAT      O42533   1.656   3.798   1.878
10457WAT     H142534   1.721   3.747   1.905
10457WAT     H242535   1.587   3.745   1.875
10457WAT    EPW42536   1.656   3.783   1.882
10458WAT      O42537   2.054   4.412   2.015
10458WAT     H142538   2.084   4.333   2.036
10458WAT     H242539   2.127   4.457   2.000
10458WAT    EPW42540   2.069   4.407   2.016
10459WAT      O42541   2.148   4.374   1.649
10459WAT     H142542   2.175   4.305   1.696
10459WAT     H242543   2.158   4.347   1.566
10459WAT    EPW42544   2.154   4.360   1.644
10460WAT      O42545   2.235   3.737   2.917
10460WAT     H142546   2.165   3.756   2.868
10460WAT     H242547   2.265   3.815   2.940
10460WAT    EPW42548   2.229   3.752   2.913
10461WAT      O42549   1.751   3.310   1.749
10461WAT     H142550   1.715   3.366   1.693
10461WAT     H242551   1.835   3.309   1.726
10461WAT    EPW42552   1.758   3.318   1.737
10462WAT      O42553   2.707   3.018   2.764
10462WAT     H142554   2.696   3.068   2.693
10462WAT     H242555   2.626   3.013   2.798
10462WAT    EPW42556   2.693   3.025   2.759
10463WAT      O42557   2.079   3.257   1.938
10463WAT     H142558   2.082   3.339   1.967
10463WAT     H242559   2.058   3.266   1.854
10463WAT    EPW42560   2.076   3.270   1.930
10464WAT      O42561   2.455   3.455   1.166
10464WAT     H142562   2.412   3.521   1.204
10464WAT     H242563   2.471   3.400   1.232
10464WAT    EPW42564   2.451   3.456   1.181
10465WAT      O42565   1.321   3.749   2.134
10465WAT     H142566   1.320   3.836   2.144
10465WAT     H242567   1.254   3.722   2.183
10465WAT    EPW42568   1.311   3.758   2.142
10466WAT      O42569   1.303   4.712   1.949
10466WAT     H142570   1.240   4.763   1.917
10466WAT     H242571   1.340   4.678   1.879
10466WAT    EPW42572   1.299   4.714   1.934
10467WAT      O42573   1.875   4.406   1.655
10467WAT     H142574   1.850   4.426   1.737
10467WAT     H242575   1.961   4.395   1.662
10467WAT    EPW42576   1.884   4.407   1.668
10468WAT      O42577   2.491   4.752   1.435
10468WAT     H142578   2.563   4.802   1.432
10468WAT     H242579   2.522   4.674   1.457
10468WAT    EPW42580   2.507   4.748   1.437
10469WAT      O42581   2.312   4.800   1.639
10469WAT     H142582   2.332   4.878   1.673
10469WAT     H242583   2.369   4.792   1.573
10469WAT    EPW42584   2.323   4.810   1.634
10470WAT      O42585   1.555   3.256   2.157
10470WAT     H142586   1.538   3.182   2.114
10470WAT     H242587   1.616   3.233   2.215
10470WAT    EPW42588   1.562   3.242   2.159
10471WAT      O42589   1.883   3.478   3.105
10471WAT     H142590   1.892   3.444   3.025
10471WAT     H242591   1.891   3.564   3.091
10471WAT    EPW42592   1.886   3.486   3.091
10472WAT      O42593   1.437   4.637   1.714
10472WAT     H142594   1.484   4.565   1.730
10472WAT     H242595   1.492   4.688   1.670
10472WAT    EPW42596   1.452   4.634   1.710
10473WAT      O42597   3.036   3.440   1.873
10473WAT     H142598   2.979   3.505   1.884
10473WAT     H242599   2.984   3.370   1.860
10473WAT    EPW42600   3.020   3.439   1.873
10474WAT      O42601   2.596   4.734   2.480
10474WAT     H142602   2.641   4.801   2.514
10474WAT     H242603   2.642   4.713   2.409
10474WAT    EPW42604   2.610   4.741   2.475
10475WAT      O42605   1.482   3.373   3.017
10475WAT     H142606   1.402   3.347   2.997
10475WAT     H242607   1.532   3.341   2.953
10475WAT    EPW42608   1.478   3.365   3.005
10476WAT      O42609   1.588   4.455   2.086
10476WAT     H142610   1.647   4.448   2.022
10476WAT     H242611   1.618   4.401   2.147
10476WAT    EPW42612   1.601   4.446   2.085
10477WAT      O42613   1.877   4.752   1.965
10477WAT     H142614   1.956   4.773   1.934
10477WAT     H242615   1.823   4.800   1.915
10477WAT    EPW42616   1.880   4.762   1.953
10478WAT      O42617   2.107   3.198   2.975
10478WAT     H142618   2.123   3.128   2.926
10478WAT     H242619   2.036   3.233   2.939
10478WAT    EPW42620   2.099   3.193   2.963
10479WAT      O42621   2.221   3.697   1.804
10479WAT     H142622   2.249   3.651   1.736
10479WAT     H242623   2.292   3.710   1.853
10479WAT    EPW42624   2.235   3.692   1.802
10480WAT      O42625   2.309   3.655   1.298
10480WAT     H142626   2.337   3.733   1.324
10480WAT     H242627   2.234   3.672   1.257
10480WAT    EPW42628   2.302   3.669   1.296
10481WAT      O42629   2.700   4.938   1.397
10481WAT     H142630   2.750   4.914   1.330
10481WAT     H242631   2.754   4.982   1.449
10481WAT    EPW42632   2.715   4.941   1.394
10482WAT      O42633   1.711   4.866   2.558
10482WAT     H142634   1.760   4.826   2.619
10482WAT     H242635   1.651   4.806   2.538
10482WAT    EPW42636   1.709   4.851   2.564
10483WAT      O42637   2.974   3.399   2.304
10483WAT     H142638   3.031   3.376   2.242
10483WAT     H242639   2.978   3.333   2.361
10483WAT    EPW42640   2.983   3.386   2.303
10484WAT      O42641   1.223   3.487   2.742
10484WAT     H142642   1.216   3.562   2.786
10484WAT     H242643   1.283   3.504   2.682
10484WAT    EPW42644   1.231   3.501   2.740
10485WAT      O42645   2.503   4.522   2.841
10485WAT     H142646   2.480   4.555   2.918
10485WAT     H242647   2.588   4.504   2.851
10485WAT    EPW42648   2.512   4.524   2.854
10486WAT      O42649   2.171   4.566   1.265
10486WAT     H142650   2.149   4.622   1.328
10486WAT     H242651   2.246   4.599   1.234
10486WAT    EPW42652   2.179   4.579   1.270
10487WAT      O42653   2.500   3.280   1.380
10487WAT     H142654   2.561   3.218   1.376
10487WAT     H242655   2.520   3.324   1.453
10487WAT    EPW42656   2.512   3.277   1.390
10488WAT      O42657   1.359   3.398   1.654
10488WAT     H142658   1.338   3.315   1.636
10488WAT     H242659   1.312   3.415   1.726
10488WAT    EPW42660   1.349   3.388   1.662
10489WAT      O42661   1.494   4.714   2.443
10489WAT     H142662   1.438   4.647   2.440
10489WAT     H242663   1.534   4.711   2.366
10489WAT    EPW42664   1.492   4.703   2.431
10490WAT      O42665   2.286   3.561   1.564
10490WAT     H142666   2.215   3.510   1.553
10490WAT     H242667   2.299   3.595   1.484
10490WAT    EPW42668   2.277   3.558   1.550
10491WAT      O42669   2.327   4.829   2.529
10491WAT     H142670   2.404   4.798   2.505
10491WAT     H242671   2.274   4.809   2.463
10491WAT    EPW42672   2.330   4.822   2.516
10492WAT      O42673   2.244   3.246   1.501
10492WAT     H142674   2.188   3.214   1.442
10492WAT     H242675   2.320   3.249   1.458
10492WAT    EPW42676   2.247   3.241   1.486
10493WAT      O42677   2.985   4.850   1.827
10493WAT     H142678   2.944   4.927   1.836
10493WAT     H242679   2.921   4.794   1.810
10493WAT    EPW42680   2.969   4.853   1.826
10494WAT      O42681   2.076   3.532   1.985
10494WAT     H142682   2.118   3.586   1.931
10494WAT     H242683   2.102   3.559   2.064
10494WAT    EPW42684   2.086   3.544   1.989
10495WAT      O42685   2.715   4.431   1.855
10495WAT     H142686   2.777   4.372   1.840
10495WAT     H242687   2.642   4.384   1.853
10495WAT    EPW42688   2.713   4.415   1.853
10496WAT      O42689   1.663   4.542   2.774
10496WAT     H142690   1.726   4.599   2.758
10496WAT     H242691   1.626   4.571   2.848
10496WAT    EPW42692   1.667   4.555   2.782
10497WAT      O42693   1.685   3.045   1.794
10497WAT     H142694   1.704   3.129   1.781
10497WAT     H242695   1.660   3.017   1.715
10497WAT    EPW42696   1.684   3.054   1.780
10498WAT      O42697   1.892   4.134   2.169
10498WAT     H142698   1.913   4.118   2.252
10498WAT     H242699   1.835   4.071   2.149
10498WAT    EPW42700   1.887   4.122   2.178
10499WAT      O42701   2.418   3.514   2.557
10499WAT     H142702   2.420   3.545   2.638
10499WAT     H242703   2.367   3.443   2.564
10499WAT    EPW42704   2.411   3.508   2.570
10500WAT      O42705   1.985   4.144   2.431
10500WAT     H142706   1.966   4.229   2.437
10500WAT     H242707   1.949   4.110   2.502
10500WAT    EPW42708   1.977   4.152   2.442
10501WAT      O42709   2.575   4.221   2.379
10501WAT     H142710   2.527   4.180   2.440
10501WAT     H242711   2.561   4.306   2.397
10501WAT    EPW42712   2.566   4.227   2.391
10502WAT      O42713   2.657   3.049   1.854
10502WAT     H142714   2.653   3.025   1.938
10502WAT     H242715   2.691   2.979   1.814
10502WAT    EPW42716   2.662   3.035   1.861
10503WAT      O42717   1.233   4.549   3.058
10503WAT     H142718   1.295   4.596   3.098
10503WAT     H242719   1.233   4.474   3.102
10503WAT    EPW42720   1.242   4.545   3.071
10504WAT      O42721   1.617   3.438   1.959
10504WAT     H142722   1.654   3.389   1.898
10504WAT     H242723   1.600   3.382   2.024
10504WAT    EPW42724   1.620   3.423   1.960
10505WAT      O42725   2.906   4.218   1.389
10505WAT     H142726   2.905   4.167   1.460
10505WAT     H242727   2.991   4.231   1.375
10505WAT    EPW42728   2.918   4.212   1.397
10506WAT      O42729   1.677   4.209   1.881
10506WAT     H142730   1.723   4.174   1.816
10506WAT     H242731   1.613   4.150   1.895
10506WAT    EPW42732   1.674   4.195   1.874
10507WAT      O42733   1.514   4.873   2.012
10507WAT     H142734   1.443   4.827   1.989
10507WAT     H242735   1.562   4.874   1.939
10507WAT    EPW42736   1.511   4.867   1.998
10508WAT      O42737   1.498   3.624   2.312
10508WAT     H142738   1.579   3.647   2.290
10508WAT     H242739   1.449   3.660   2.250
10508WAT    EPW42740   1.503   3.633   2.300
10509WAT      O42741   3.172   4.644   2.805
10509WAT     H142742   3.087   4.652   2.787
10509WAT     H242743   3.174   4.580   2.865
10509WAT    EPW42744   3.160   4.636   2.811
10510WAT      O42745   2.709   3.896   1.317
10510WAT     H142746   2.702   3.979   1.291
10510WAT     H242747   2.682   3.898   1.400
10510WAT    EPW42748   2.704   3.909   1.325
10511WAT      O42749   1.790   4.141   1.634
10511WAT     H142750   1.816   4.224   1.628
10511WAT     H242751   1.861   4.096   1.608
10511WAT    EPW42752   1.804   4.147   1.629
10512WAT      O42753   3.022   3.359   1.301
10512WAT     H142754   3.065   3.303   1.249
10512WAT     H242755   2.981   3.412   1.245
10512WAT    EPW42756   3.022   3.359   1.285
10513WAT      O42757   1.335   4.328   2.075
10513WAT     H142758   1.280   4.392   2.098
10513WAT     H242759   1.413   4.369   2.070
10513WAT    EPW42760   1.339   4.343   2.077
10514WAT      O42761   1.945   3.751   3.063
10514WAT     H142762   1.899   3.816   3.099
10514WAT     H242763   1.957   3.777   2.981
10514WAT    EPW42764   1.940   3.765   3.056
10515WAT      O42765   3.129   3.803   2.594
10515WAT     H142766   3.171   3.737   2.554
10515WAT     H242767   3.047   3.797   2.563
10515WAT    EPW42768   3.123   3.792   2.583
10516WAT      O42769   1.348   3.992   1.644
10516WAT     H142770   1.330   3.906   1.643
10516WAT     H242771   1.419   3.999   1.594
10516WAT    EPW42772   1.356   3.980   1.636
10517WAT      O42773   2.898   3.236   1.524
10517WAT     H142774   2.972   3.198   1.549
10517WAT     H242775   2.922   3.287   1.458
10517WAT    EPW42776   2.912   3.238   1.518
10518WAT      O42777   2.266   4.582   1.973
10518WAT     H142778   2.229   4.659   1.954
10518WAT     H242779   2.310   4.562   1.900
10518WAT    EPW42780   2.267   4.591   1.959
10519WAT      O42781   1.265   4.479   1.563
10519WAT     H142782   1.319   4.532   1.605
10519WAT     H242783   1.261   4.409   1.615
10519WAT    EPW42784   1.272   4.476   1.577
10520WAT      O42785   1.692   4.289   2.282
10520WAT     H142786   1.741   4.333   2.339
10520WAT     H242787   1.750   4.246   2.233
10520WAT    EPW42788   1.707   4.289   2.283
10521WAT      O42789   2.587   3.543   2.056
10521WAT     H142790   2.620   3.518   2.133
10521WAT     H242791   2.535   3.477   2.033
10521WAT    EPW42792   2.584   3.529   2.064
10522WAT      O42793   1.278   4.309   1.340
10522WAT     H142794   1.355   4.267   1.336
10522WAT     H242795   1.288   4.362   1.409
10522WAT    EPW42796   1.291   4.311   1.350
10523WAT      O42797   1.351   4.056   2.121
10523WAT     H142798   1.395   4.035   2.049
10523WAT     H242799   1.344   4.143   2.116
10523WAT    EPW42800   1.356   4.066   2.110
10524WAT      O42801   2.006   3.507   1.477
10524WAT     H142802   1.993   3.474   1.397
10524WAT     H242803   1.976   3.589   1.470
10524WAT    EPW42804   1.999   3.514   1.464
10525WAT      O42805   2.904   4.661   2.723
10525WAT     H142806   2.852   4.725   2.750
10525WAT     H242807   2.893   4.661   2.636
10525WAT    EPW42808   2.895   4.670   2.714
10526WAT      O42809   1.809   4.492   1.908
10526WAT     H142810   1.826   4.576   1.922
10526WAT     H242811   1.877   4.451   1.946
10526WAT    EPW42812   1.822   4.498   1.916
10527WAT      O42813   1.592   3.837   2.950
10527WAT     H142814   1.557   3.772   2.996
10527WAT     H242815   1.597   3.804   2.869
10527WAT    EPW42816   1.588   3.823   2.945
10528WAT      O42817   1.632   3.734   1.460
10528WAT     H142818   1.622   3.666   1.514
10528WAT     H242819   1.592   3.709   1.387
10528WAT    EPW42820   1.625   3.720   1.457
10529WAT      O42821   1.706   3.938   2.123
10529WAT     H142822   1.690   3.905   2.043
10529WAT     H242823   1.724   3.868   2.171
10529WAT    EPW42824   1.706   3.923   2.118
10530WAT      O42825   1.673   3.897   2.478
10530WAT     H142826   1.700   3.845   2.413
10530WAT     H242827   1.620   3.954   2.439
10530WAT    EPW42828   1.669   3.898   2.463
10531WAT      O42829   2.751   3.823   2.296
10531WAT     H142830   2.673   3.792   2.320
10531WAT     H242831   2.745   3.826   2.209
10531WAT    EPW42832   2.738   3.819   2.287
10532WAT      O42833   2.103   4.772   2.360
10532WAT     H142834   2.071   4.710   2.308
10532WAT     H242835   2.080   4.847   2.321
10532WAT    EPW42836   2.095   4.774   2.347
10533WAT      O42837   2.279   3.281   2.637
10533WAT     H142838   2.303   3.201   2.612
10533WAT     H242839   2.311   3.287   2.719
10533WAT    EPW42840   2.287   3.270   2.646
10534WAT      O42841   2.520   3.417   1.620
10534WAT     H142842   2.581   3.479   1.628
10534WAT     H242843   2.446   3.463   1.608
10534WAT    EPW42844   2.518   3.433   1.619
10535WAT      O42845   1.452   4.072   2.978
10535WAT     H142846   1.457   4.117   2.903
10535WAT     H242847   1.499   4.000   2.962
10535WAT    EPW42848   1.459   4.068   2.964
10536WAT      O42849   2.712   4.201   2.884
10536WAT     H142850   2.739   4.283   2.882
10536WAT     H242851   2.743   4.167   2.810
10536WAT    EPW42852   2.720   4.208   2.873
10537WAT      O42853   2.085   4.566   2.898
10537WAT     H142854   2.114   4.550   2.979
10537WAT     H242855   2.059   4.487   2.870
10537WAT    EPW42856   2.085   4.552   2.906
10538WAT      O42857   2.147   3.588   2.248
10538WAT     H142858   2.206   3.652   2.249
10538WAT     H242859   2.195   3.516   2.256
10538WAT    EPW42860   2.163   3.587   2.249
10539WAT      O42861   2.386   3.893   1.421
10539WAT     H142862   2.367   3.949   1.357
10539WAT     H242863   2.329   3.912   1.483
10539WAT    EPW42864   2.375   3.904   1.420
10540WAT      O42865   2.900   4.229   1.822
10540WAT     H142866   2.918   4.181   1.892
10540WAT     H242867   2.892   4.170   1.758
10540WAT    EPW42868   2.901   4.214   1.823
10541WAT      O42869   2.438   4.610   2.188
10541WAT     H142870   2.381   4.594   2.124
10541WAT     H242871   2.488   4.674   2.156
10541WAT    EPW42872   2.437   4.617   2.174
10542WAT      O42873   2.437   4.245   2.133
10542WAT     H142874   2.373   4.293   2.168
10542WAT     H242875   2.490   4.230   2.201
10542WAT    EPW42876   2.435   4.250   2.149
10543WAT      O42877   1.856   4.658   1.550
10543WAT     H142878   1.867   4.581   1.589
10543WAT     H242879   1.937   4.687   1.539
10543WAT    EPW42880   1.869   4.651   1.554
10544WAT      O42881   1.769   3.111   1.372
10544WAT     H142882   1.721   3.075   1.436
10544WAT     H242883   1.738   3.192   1.366
10544WAT    EPW42884   1.757   3.117   1.381
10545WAT      O42885   2.103   4.747   1.464
10545WAT     H142886   2.166   4.765   1.521
10545WAT     H242887   2.089   4.823   1.424
10545WAT    EPW42888   2.110   4.761   1.467
10546WAT      O42889   2.845   4.092   2.661
10546WAT     H142890   2.857   4.148   2.595
10546WAT     H242891   2.916   4.104   2.711
10546WAT    EPW42892   2.857   4.102   2.659
10547WAT      O42893   2.429   4.659   3.073
10547WAT     H142894   2.476   4.670   3.146
10547WAT     H242895   2.441   4.734   3.029
10547WAT    EPW42896   2.437   4.672   3.077
10548WAT      O42897   2.813   3.196   2.947
10548WAT     H142898   2.778   3.137   2.893
10548WAT     H242899   2.847   3.148   3.012
10548WAT    EPW42900   2.813   3.180   2.949
10549WAT      O42901   1.583   4.007   1.506
10549WAT     H142902   1.605   3.923   1.497
10549WAT     H242903   1.650   4.041   1.552
10549WAT    EPW42904   1.596   4.000   1.512
10550WAT      O42905   2.402   4.088   2.562
10550WAT     H142906   2.361   4.134   2.624
10550WAT     H242907   2.439   4.023   2.606
10550WAT    EPW42908   2.401   4.086   2.578
10551WAT      O42909   1.263   3.136   1.607
10551WAT     H142910   1.260   3.078   1.541
10551WAT     H242911   1.231   3.091   1.674
10551WAT    EPW42912   1.258   3.121   1.607
10552WAT      O42913   2.233   3.932   1.650
10552WAT     H142914   2.244   4.001   1.703
10552WAT     H242915   2.223   3.865   1.706
10552WAT    EPW42916   2.233   3.932   1.666
10553WAT      O42917   2.789   4.438   2.127
10553WAT     H142918   2.875   4.448   2.115
10553WAT     H242919   2.757   4.437   2.046
10553WAT    EPW42920   2.797   4.440   2.113
10554WAT      O42921   1.688   3.372   1.337
10554WAT     H142922   1.629   3.375   1.272
10554WAT     H242923   1.758   3.410   1.302
10554WAT    EPW42924   1.689   3.378   1.322
10555WAT      O42925   2.141   4.145   2.052
10555WAT     H142926   2.061   4.131   2.083
10555WAT     H242927   2.193   4.128   2.121
10555WAT    EPW42928   2.137   4.140   2.067
10556WAT      O42929   1.809   4.793   1.157
10556WAT     H142930   1.830   4.716   1.191
10556WAT     H242931   1.801   4.845   1.226
10556WAT    EPW42932   1.811   4.789   1.172
10557WAT      O42933   1.510   4.087   2.353
10557WAT     H142934   1.562   4.155   2.335
10557WAT     H242935   1.472   4.069   2.277
10557WAT    EPW42936   1.512   4.094   2.339
10558WAT      O42937   1.816   3.619   2.018
10558WAT     H142938   1.894   3.587   2.001
10558WAT     H242939   1.761   3.553   2.001
10558WAT    EPW42940   1.819   3.605   2.013
10559WAT      O42941   3.096   4.811   1.392
10559WAT     H142942   3.167   4.766   1.369
10559WAT     H242943   3.048   4.752   1.435
10559WAT    EPW42944   3.100   4.795   1.395
10560WAT      O42945   1.310   3.714   1.646
10560WAT     H142946   1.342   3.681   1.720
10560WAT     H242947   1.319   3.649   1.589
10560WAT    EPW42948   1.316   3.699   1.648
10561WAT      O42949   2.814   4.101   2.290
10561WAT     H142950   2.791   4.018   2.298
10561WAT     H242951   2.740   4.145   2.305
10561WAT    EPW42952   2.800   4.095   2.293
10562WAT      O42953   1.814   3.967   1.220
10562WAT     H142954   1.825   3.902   1.278
10562WAT     H242955   1.762   3.933   1.159
10562WAT    EPW42956   1.808   3.952   1.220
10563WAT      O42957   1.469   4.204   2.738
10563WAT     H142958   1.425   4.155   2.680
10563WAT     H242959   1.440   4.285   2.723
10563WAT    EPW42960   1.458   4.209   2.727
10564WAT      O42961   2.957   4.072   2.047
10564WAT     H142962   2.920   4.099   2.122
10564WAT     H242963   3.041   4.059   2.070
10564WAT    EPW42964   2.964   4.074   2.062
10565WAT      O42965   1.898   3.763   1.407
10565WAT     H142966   1.925   3.828   1.459
10565WAT     H242967   1.815   3.750   1.432
10565WAT    EPW42968   1.890   3.771   1.419
10566WAT      O42969   2.690   3.463   2.932
10566WAT     H142970   2.750   3.496   2.986
10566WAT     H242971   2.706   3.378   2.932
10566WAT    EPW42972   2.701   3.456   2.940
10567WAT      O42973   1.284   3.362   2.138
10567WAT     H142974   1.270   3.375   2.053
10567WAT     H242975   1.368   3.337   2.141
10567WAT    EPW42976   1.295   3.360   2.126
10568WAT      O42977   3.063   4.503   2.128
10568WAT     H142978   3.094   4.575   2.090
10568WAT     H242979   3.066   4.522   2.213
10568WAT    EPW42980   3.068   4.517   2.135
10569WAT      O42981   2.548   3.792   3.089
10569WAT     H142982   2.581   3.824   3.163
10569WAT     H242983   2.482   3.846   3.071
10569WAT    EPW42984   2.543   3.805   3.097
10570WAT      O42985   2.742   3.838   2.888
10570WAT     H142986   2.805   3.886   2.925
10570WAT     H242987   2.686   3.823   2.953
10570WAT    EPW42988   2.743   3.843   2.903
10571WAT      O42989   2.784   4.466   1.387
10571WAT     H142990   2.816   4.385   1.395
10571WAT     H242991   2.707   4.463   1.428
10571WAT    EPW42992   2.777   4.454   1.394
10572WAT      O42993   2.811   3.613   1.906
10572WAT     H142994   2.746   3.577   1.952
10572WAT     H242995   2.816   3.694   1.938
10572WAT    EPW42996   2.802   3.620   1.917
10573WAT      O42997   3.078   4.164   2.804
10573WAT     H142998   3.126   4.140   2.735
10573WAT     H242999   3.088   4.251   2.806
10573WAT    EPW43000   3.086   4.174   2.794
10574WAT      O43001   2.453   4.291   1.316
10574WAT     H143002   2.527   4.246   1.307
10574WAT     H243003   2.424   4.299   1.234
10574WAT    EPW43004   2.459   4.285   1.302
10575WAT      O43005   1.903   4.417   2.423
10575WAT     H143006   1.937   4.466   2.487
10575WAT     H243007   1.920   4.464   2.351
10575WAT    EPW43008   1.911   4.431   2.422
10576WAT      O43009   1.739   4.272   2.723
10576WAT     H143010   1.658   4.240   2.727
10576WAT     H243011   1.728   4.358   2.733
10576WAT    EPW43012   1.725   4.280   2.725
10577WAT      O43013   2.687   3.452   2.568
10577WAT     H143014   2.693   3.365   2.567
10577WAT     H243015   2.601   3.466   2.569
10577WAT    EPW43016   2.675   3.441   2.568
10578WAT      O43017   2.233   4.064   2.340
10578WAT     H143018   2.285   4.063   2.410
10578WAT     H243019   2.153   4.075   2.373
10578WAT    EPW43020   2.229   4.065   2.355
10579WAT      O43021   1.856   3.596   2.703
10579WAT     H143022   1.866   3.517   2.740
10579WAT     H243023   1.886   3.585   2.622
10579WAT    EPW43024   1.862   3.583   2.697
10580WAT      O43025   2.138   4.818   1.880
10580WAT     H143026   2.141   4.901   1.907
10580WAT     H243027   2.180   4.820   1.803
10580WAT    EPW43028   2.145   4.830   1.873
10581WAT      O43029   2.691   3.174   2.533
10581WAT     H143030   2.642   3.121   2.485
10581WAT     H243031   2.772   3.161   2.502
10581WAT    EPW43032   2.696   3.164   2.521
10582WAT      O43033   2.013   3.194   2.660
10582WAT     H143034   2.095   3.219   2.645
10582WAT     H243035   2.020   3.109   2.677
10582WAT    EPW43036   2.026   3.185   2.660
10583WAT      O43037   1.959   4.589   2.206
10583WAT     H143038   1.912   4.640   2.152
10583WAT     H243039   1.995   4.531   2.152
10583WAT    EPW43040   1.957   4.588   2.190
10584WAT      O43041   2.450   4.202   2.969
10584WAT     H143042   2.531   4.203   2.935
10584WAT     H243043   2.401   4.235   2.904
10584WAT    EPW43044   2.455   4.207   2.954
10585WAT      O43045   2.784   4.472   2.888
10585WAT     H143046   2.826   4.494   2.961
10585WAT     H243047   2.821   4.524   2.828
10585WAT    EPW43048   2.796   4.483   2.890
10586WAT      O43049   2.952   3.774   1.280
10586WAT     H143050   3.003   3.831   1.240
10586WAT     H243051   2.875   3.814   1.284
10586WAT    EPW43052   2.948   3.788   1.275
10587WAT      O43053   2.075   4.067   1.277
10587WAT     H143054   1.996   4.058   1.242
10587WAT     H243055   2.081   4.152   1.294
10587WAT    EPW43056   2.064   4.078   1.275
10588WAT      O43057   1.762   3.710   2.272
10588WAT     H143058   1.783   3.676   2.194
10588WAT     H243059   1.818   3.672   2.327
10588WAT    EPW43060   1.773   3.699   2.269
10589WAT      O43061   2.468   3.622   2.806
10589WAT     H143062   2.397   3.641   2.853
10589WAT     H243063   2.516   3.573   2.860
10589WAT    EPW43064   2.465   3.617   2.821
10590WAT      O43065   2.513   3.746   2.427
10590WAT     H143066   2.522   3.791   2.501
10590WAT     H243067   2.482   3.669   2.453
10590WAT    EPW43068   2.509   3.742   2.442
10591WAT      O43069   2.204   4.797   2.786
10591WAT     H143070   2.235   4.783   2.706
10591WAT     H243071   2.173   4.719   2.810
10591WAT    EPW43072   2.204   4.783   2.778
10592WAT      O43073   2.704   3.638   1.650
10592WAT     H143074   2.730   3.626   1.733
10592WAT     H243075   2.777   3.665   1.610
10592WAT    EPW43076   2.719   3.640   1.657
10593WAT      O43077   2.025   3.160   2.217
10593WAT     H143078   1.941   3.155   2.241
10593WAT     H243079   2.021   3.171   2.131
10593WAT    EPW43080   2.012   3.161   2.208
10594WAT      O43081   2.863   3.230   1.805
10594WAT     H143082   2.791   3.186   1.825
10594WAT     H243083   2.857   3.243   1.719
10594WAT    EPW43084   2.852   3.225   1.795
10595WAT      O43085   2.856   4.047   1.608
10595WAT     H143086   2.896   3.970   1.602
10595WAT     H243087   2.771   4.027   1.610
10595WAT    EPW43088   2.849   4.033   1.608
10596WAT      O43089   2.272   4.255   2.749
10596WAT     H143090   2.188   4.253   2.775
10596WAT     H243091   2.282   4.335   2.717
10596WAT    EPW43092   2.261   4.266   2.748
10597WAT      O43093   1.250   3.262   2.900
10597WAT     H143094   1.247   3.331   2.847
10597WAT     H243095   1.166   3.244   2.915
10597WAT    EPW43096   1.237   3.269   2.894
10598WAT      O43097   1.749   4.945   2.290
10598WAT     H143098   1.744   4.933   2.376
10598WAT     H243099   1.726   4.868   2.257
10598WAT    EPW43100   1.745   4.932   2.298
10599WAT      O43101   1.613   3.483   1.582
10599WAT     H143102   1.627   3.445   1.504
10599WAT     H243103   1.533   3.457   1.603
10599WAT    EPW43104   1.604   3.473   1.573
10600WAT      O43105   2.510   4.236   1.871
10600WAT     H143106   2.490   4.245   1.955
10600WAT     H243107   2.542   4.155   1.866
10600WAT    EPW43108   2.512   4.225   1.882
10601WAT      O43109   2.253   4.165   1.799
10601WAT     H143110   2.215   4.156   1.877
10601WAT     H243111   2.334   4.191   1.818
10601WAT    EPW43112   2.259   4.167   1.813
10602WAT      O43113   2.303   4.512   2.648
10602WAT     H143114   2.363   4.525   2.710
10602WAT     H243115   2.351   4.506   2.575
10602WAT    EPW43116   2.319   4.513   2.646
10603WAT      O43117   3.061   3.750   2.865
10603WAT     H143118   3.053   3.822   2.913
10603WAT     H243119   3.095   3.780   2.790
10603WAT    EPW43120   3.065   3.765   2.861
10604WAT      O43121   2.536   3.866   2.683
10604WAT     H143122   2.504   3.796   2.724
10604WAT     H243123   2.608   3.886   2.727
10604WAT    EPW43124   2.542   3.859   2.695
10605WAT      O43125   1.413   4.891   2.833
10605WAT     H143126   1.356   4.826   2.821
10605WAT     H243127   1.364   4.956   2.863
10605WAT    EPW43128   1.398   4.891   2.836
10606WAT      O43129   2.331   3.964   3.035
10606WAT     H143130   2.369   4.037   3.004
10606WAT     H243131   2.270   3.994   3.089
10606WAT    EPW43132   2.328   3.979   3.038
10607WAT      O43133   2.602   4.823   2.108
10607WAT     H143134   2.565   4.883   2.160
10607WAT     H243135   2.668   4.792   2.157
10607WAT    EPW43136   2.606   4.827   2.123
10608WAT      O43137   2.240   4.347   2.301
10608WAT     H143138   2.235   4.264   2.326
10608WAT     H243139   2.294   4.383   2.359
10608WAT    EPW43140   2.247   4.340   2.313
10609WAT      O43141   2.961   4.528   3.107
10609WAT     H143142   3.032   4.485   3.080
10609WAT     H243143   2.923   4.474   3.164
10609WAT    EPW43144   2.966   4.514   3.112
10610WAT      O43145   1.611   3.726   2.691
10610WAT     H143146   1.624   3.784   2.628
10610WAT     H243147   1.686   3.682   2.696
10610WAT    EPW43148   1.624   3.728   2.683
10611WAT      O43149   1.427   3.561   2.565
10611WAT     H143150   1.447   3.574   2.481
10611WAT     H243151   1.486   3.608   2.608
10611WAT    EPW43152   1.439   3.570   2.559
10612WAT      O43153   2.928   3.781   1.560
10612WAT     H143154   2.944   3.779   1.474
10612WAT     H243155   3.004   3.757   1.595
10612WAT    EPW43156   2.942   3.777   1.552
10613WAT      O43157   1.628   3.245   2.820
10613WAT     H143158   1.594   3.165   2.822
10613WAT     H243159   1.613   3.272   2.738
10613WAT    EPW43160   1.620   3.237   2.808
10614WAT      O43161   2.363   4.535   1.717
10614WAT     H143162   2.344   4.617   1.693
10614WAT     H243163   2.291   4.490   1.694
10614WAT    EPW43164   2.349   4.540   1.710
10615WAT      O43165   2.850   3.825   2.566
10615WAT     H143166   2.820   3.829   2.484
10615WAT     H243167   2.842   3.907   2.594
10615WAT    EPW43168   2.844   3.838   2.558
10616WAT      O43169   1.321   4.060   2.555
10616WAT     H143170   1.372   4.074   2.486
10616WAT     H243171   1.304   3.974   2.551
10616WAT    EPW43172   1.326   4.049   2.544
10617WAT      O43173   1.500   3.650   1.226
10617WAT     H143174   1.423   3.645   1.266
10617WAT     H243175   1.509   3.573   1.187
10617WAT    EPW43176   1.490   3.638   1.226
10618WAT      O43177   2.351   3.320   2.913
10618WAT     H143178   2.374   3.386   2.965
10618WAT     H243179   2.273   3.295   2.944
10618WAT    EPW43180   2.343   3.326   2.925
10619WAT      O43181   2.417   3.331   2.005
10619WAT     H143182   2.339   3.329   2.042
10619WAT     H243183   2.406   3.285   1.931
10619WAT    EPW43184   2.404   3.324   1.999
10620WAT      O43185   1.794   4.546   1.308
10620WAT     H143186   1.834   4.578   1.378
10620WAT     H243187   1.719   4.514   1.339
10620WAT    EPW43188   1.788   4.546   1.323
10621WAT      O43189   2.701   3.437   2.289
10621WAT     H143190   2.786   3.421   2.279
10621WAT     H243191   2.692   3.452   2.374
10621WAT    EPW43192   2.712   3.437   2.300
10622WAT      O43193   1.858   4.024   2.646
10622WAT     H143194   1.819   4.096   2.676
10622WAT     H243195   1.798   3.986   2.596
10622WAT    EPW43196   1.843   4.029   2.643
10623WAT      O43197   2.777   3.865   2.021
10623WAT     H143198   2.840   3.925   2.021
10623WAT     H243199   2.715   3.900   1.971
10623WAT    EPW43200   2.777   3.879   2.013
10624WAT      O43201   2.770   4.687   1.749
10624WAT     H143202   2.749   4.609   1.783
10624WAT     H243203   2.815   4.666   1.677
10624WAT    EPW43204   2.773   4.672   1.743
10625WAT      O43205   1.572   4.445   1.442
10625WAT     H143206   1.573   4.426   1.527
10625WAT     H243207   1.566   4.367   1.403
10625WAT    EPW43208   1.571   4.430   1.449
10626WAT      O43209   1.868   4.282   1.242
10626WAT     H143210   1.796   4.236   1.261
10626WAT     H243211   1.847   4.363   1.266
10626WAT    EPW43212   1.854   4.287   1.248
10627WAT      O43213   1.839   3.335   2.487
10627WAT     H143214   1.755   3.318   2.504
10627WAT     H243215   1.882   3.273   2.531
10627WAT    EPW43216   1.833   3.323   2.496
10628WAT      O43217   2.967   3.181   2.480
10628WAT     H143218   2.978   3.200   2.564
10628WAT     H243219   3.034   3.128   2.462
10628WAT    EPW43220   2.978   3.176   2.490
10629WAT      O43221   2.253   3.327   2.242
10629WAT     H143222   2.184   3.273   2.247
10629WAT     H243223   2.318   3.279   2.274
10629WAT    EPW43224   2.252   3.312   2.247
10630WAT      O43225   2.472   4.484   2.427
10630WAT     H143226   2.523   4.543   2.467
10630WAT     H243227   2.460   4.518   2.348
10630WAT    EPW43228   2.478   4.498   2.422
10631WAT      O43229   2.458   4.869   2.889
10631WAT     H143230   2.389   4.834   2.849
10631WAT     H243231   2.437   4.953   2.895
10631WAT    EPW43232   2.445   4.876   2.884
10632WAT      O43233   1.991   3.818   2.797
10632WAT     H143234   1.949   3.751   2.761
10632WAT     H243235   1.959   3.887   2.755
10632WAT    EPW43236   1.980   3.818   2.786
10633WAT      O43237   2.047   3.133   1.343
10633WAT     H143238   2.057   3.147   1.257
10633WAT     H243239   1.961   3.136   1.355
10633WAT    EPW43240   2.036   3.135   1.332
10634WAT      O43241   2.966   4.257   2.463
10634WAT     H143242   3.033   4.205   2.482
10634WAT     H243243   2.925   4.214   2.399
10634WAT    EPW43244   2.969   4.243   2.456
10635WAT      O43245   1.863   4.734   2.755
10635WAT     H143246   1.882   4.729   2.840
10635WAT     H243247   1.928   4.690   2.717
10635WAT    EPW43248   1.876   4.727   2.762
10636WAT      O43249   2.774   4.669   2.277
10636WAT     H143250   2.854   4.662   2.312
10636WAT     H243251   2.766   4.595   2.231
10636WAT    EPW43252   2.785   4.657   2.275
10637WAT      O43253   1.568   3.316   2.562
10637WAT     H143254   1.515   3.250   2.539
10637WAT     H243255   1.517   3.387   2.554
10637WAT    EPW43256   1.552   3.317   2.557
10638WAT      O43257   2.539   3.214   2.226
10638WAT     H143258   2.593   3.277   2.253
10638WAT     H243259   2.507   3.245   2.151
10638WAT    EPW43260   2.542   3.228   2.219
10639WAT      O43261   1.553   4.696   2.988
10639WAT     H143262   1.636   4.719   3.001
10639WAT     H243263   1.521   4.763   2.941
10639WAT    EPW43264   1.561   4.709   2.983
10640WAT      O43265   2.428   3.760   1.980
10640WAT     H143266   2.481   3.695   2.003
10640WAT     H243267   2.391   3.784   2.055
10640WAT    EPW43268   2.431   3.754   1.994
10641WAT      O43269   1.429   3.641   1.892
10641WAT     H143270   1.389   3.665   1.965
10641WAT     H243271   1.472   3.568   1.914
10641WAT    EPW43272   1.430   3.634   1.906
10642WAT      O43273   1.410   4.470   2.679
10642WAT     H143274   1.360   4.531   2.715
10642WAT     H243275   1.491   4.499   2.693
10642WAT    EPW43276   1.415   4.483   2.686
10643WAT      O43277   2.609   3.894   1.585
10643WAT     H143278   2.628   3.811   1.603
10643WAT     H243279   2.534   3.889   1.542
10643WAT    EPW43280   2.601   3.881   1.581
10644WAT      O43281   1.611   4.782   1.540
10644WAT     H143282   1.567   4.755   1.471
10644WAT     H243283   1.684   4.734   1.539
10644WAT    EPW43284   1.616   4.771   1.530
10645WAT      O43285   1.995   3.989   1.529
10645WAT     H143286   2.024   4.020   1.453
10645WAT     H243287   2.068   3.972   1.573
10645WAT    EPW43288   2.010   3.991   1.524
10646WAT      O43289   2.890   4.856   1.208
10646WAT     H143290   2.958   4.850   1.263
10646WAT     H243291   2.872   4.773   1.189
10646WAT    EPW43292   2.897   4.843   1.214
10647WAT      O43293   2.996   3.983   3.008
10647WAT     H143294   3.035   3.996   3.085
10647WAT     H243295   3.029   4.045   2.957
10647WAT    EPW43296   3.007   3.994   3.011
10648WAT      O43297   2.536   4.485   1.502
10648WAT     H143298   2.493   4.483   1.577
10648WAT     H243299   2.495   4.427   1.452
10648WAT    EPW43300   2.524   4.476   1.505
10649WAT      O43301   2.929   3.558   3.042
10649WAT     H143302   2.986   3.620   3.017
10649WAT     H243303   2.969   3.519   3.108
10649WAT    EPW43304   2.943   3.561   3.048
10650WAT      O43305   2.999   3.681   2.299
10650WAT     H143306   2.916   3.709   2.297
10650WAT     H243307   2.991   3.594   2.306
10650WAT    EPW43308   2.986   3.672   2.300
10651WAT      O43309   1.886   3.345   2.849
10651WAT     H143310   1.926   3.305   2.782
10651WAT     H243311   1.806   3.311   2.848
10651WAT    EPW43312   1.880   3.334   2.839
10652WAT      O43313   2.830   4.102   3.225
10652WAT     H143314   2.911   4.084   3.253
10652WAT     H243315   2.836   4.095   3.138
10652WAT    EPW43316   2.843   4.098   3.216
10653WAT      O43317   1.624   4.706   2.199
10653WAT     H143318   1.619   4.626   2.166
10653WAT     H243319   1.588   4.756   2.137
10653WAT    EPW43320   1.618   4.702   2.185
10654WAT      O43321   2.182   4.311   1.382
10654WAT     H143322   2.267   4.295   1.369
10654WAT     H243323   2.169   4.387   1.340
10654WAT    EPW43324   2.193   4.320   1.374
10655WAT      O43325   1.389   4.948   2.556
10655WAT     H143326   1.403   4.928   2.640
10655WAT     H243327   1.418   4.878   2.513
10655WAT    EPW43328   1.396   4.935   2.562
10656WAT      O43329   2.296   3.790   0.359
10656WAT     H143330   2.264   3.868   0.382
10656WAT     H243331   2.361   3.777   0.415
10656WAT    EPW43332   2.301   3.800   0.370
10657WAT      O43333   1.340   4.485   0.528
10657WAT     H143334   1.355   4.476   0.613
10657WAT     H243335   1.283   4.421   0.510
10657WAT    EPW43336   1.334   4.474   0.538
10658WAT      O43337   1.956   4.311   0.982
10658WAT     H143338   1.934   4.295   1.065
10658WAT     H243339   1.882   4.294   0.939
10658WAT    EPW43340   1.942   4.306   0.988
10659WAT      O43341   1.907   3.579   0.558
10659WAT     H143342   1.983   3.581   0.517
10659WAT     H243343   1.882   3.495   0.551
10659WAT    EPW43344   1.914   3.567   0.551
10660WAT      O43345   1.935   4.606   0.729
10660WAT     H143346   1.956   4.661   0.664
10660WAT     H243347   2.013   4.576   0.755
10660WAT    EPW43348   1.950   4.610   0.724
10661WAT      O43349   2.244   3.875   0.921
10661WAT     H143350   2.157   3.866   0.920
10661WAT     H243351   2.258   3.919   0.995
10661WAT    EPW43352   2.233   3.880   0.932
10662WAT      O43353   2.672   3.048   0.826
10662WAT     H143354   2.662   3.128   0.793
10662WAT     H243355   2.603   3.039   0.879
10662WAT    EPW43356   2.660   3.058   0.829
10663WAT      O43357   1.308   3.806   0.319
10663WAT     H143358   1.274   3.887   0.327
10663WAT     H243359   1.244   3.755   0.350
10663WAT    EPW43360   1.293   3.811   0.325
10664WAT      O43361   1.541   3.222   0.384
10664WAT     H143362   1.553   3.283   0.323
10664WAT     H243363   1.602   3.162   0.367
10664WAT    EPW43364   1.552   3.222   0.373
10665WAT      O43365   1.920   3.466   1.205
10665WAT     H143366   1.915   3.428   1.127
10665WAT     H243367   1.962   3.540   1.189
10665WAT    EPW43368   1.925   3.471   1.191
10666WAT      O43369   2.524   4.773   0.609
10666WAT     H143370   2.583   4.806   0.664
10666WAT     H243371   2.554   4.795   0.530
10666WAT    EPW43372   2.537   4.781   0.606
10667WAT      O43373   1.513   3.388   1.122
10667WAT     H143374   1.433   3.355   1.117
10667WAT     H243375   1.553   3.356   1.051
10667WAT    EPW43376   1.507   3.379   1.111
10668WAT      O43377   2.084   3.176   1.073
10668WAT     H143378   2.101   3.102   1.031
10668WAT     H243379   2.013   3.207   1.032
10668WAT    EPW43380   2.076   3.170   1.061
10669WAT      O43381   1.734   4.847   0.627
10669WAT     H143382   1.760   4.842   0.710
10669WAT     H243383   1.670   4.788   0.621
10669WAT    EPW43384   1.728   4.838   0.638
10670WAT      O43385   3.006   3.366   0.479
10670WAT     H143386   3.064   3.318   0.435
10670WAT     H243387   2.998   3.324   0.555
10670WAT    EPW43388   3.013   3.353   0.484
10671WAT      O43389   1.260   3.493   0.872
10671WAT     H143390   1.246   3.573   0.906
10671WAT     H243391   1.317   3.508   0.807
10671WAT    EPW43392   1.267   3.507   0.868
10672WAT      O43393   2.426   4.572   0.913
10672WAT     H143394   2.416   4.590   0.998
10672WAT     H243395   2.512   4.556   0.906
10672WAT    EPW43396   2.437   4.572   0.925
10673WAT      O43397   1.528   4.688   0.511
10673WAT     H143398   1.472   4.622   0.519
10673WAT     H243399   1.563   4.676   0.432
10673WAT    EPW43400   1.525   4.677   0.500
10674WAT      O43401   2.265   4.840   0.673
10674WAT     H143402   2.343   4.810   0.648
10674WAT     H243403   2.210   4.805   0.615
10674WAT    EPW43404   2.268   4.830   0.660
10675WAT      O43405   1.673   4.548   0.843
10675WAT     H143406   1.750   4.579   0.817
10675WAT     H243407   1.659   4.589   0.919
10675WAT    EPW43408   1.682   4.559   0.850
10676WAT      O43409   1.888   4.191   0.267
10676WAT     H143410   1.900   4.156   0.347
10676WAT     H243411   1.880   4.121   0.216
10676WAT    EPW43412   1.889   4.175   0.271
10677WAT      O43413   2.455   3.493   0.681
10677WAT     H143414   2.443   3.543   0.752
10677WAT     H243415   2.386   3.439   0.683
10677WAT    EPW43416   2.443   3.492   0.692
10678WAT      O43417   1.949   4.131   0.533
10678WAT     H143418   1.941   4.217   0.549
10678WAT     H243419   1.924   4.094   0.608
10678WAT    EPW43420   1.944   4.138   0.547
10679WAT      O43421   2.533   4.244   0.479
10679WAT     H143422   2.484   4.199   0.536
10679WAT     H243423   2.524   4.327   0.506
10679WAT    EPW43424   2.524   4.249   0.491
10680WAT      O43425   1.240   4.529   1.170
10680WAT     H143426   1.299   4.576   1.213
10680WAT     H243427   1.249   4.449   1.204
10680WAT    EPW43428   1.250   4.524   1.181
10681WAT      O43429   2.861   3.518   0.773
10681WAT     H143430   2.943   3.500   0.797
10681WAT     H243431   2.820   3.528   0.849
10681WAT    EPW43432   2.867   3.517   0.788
10682WAT      O43433   1.504   3.630   0.409
10682WAT     H143434   1.583   3.664   0.395
10682WAT     H243435   1.450   3.687   0.372
10682WAT    EPW43436   1.508   3.643   0.402
10683WAT      O43437   3.135   4.665   0.911
10683WAT     H143438   3.057   4.672   0.874
10683WAT     H243439   3.120   4.618   0.983
10683WAT    EPW43440   3.122   4.659   0.916
10684WAT      O43441   2.055   3.710   1.182
10684WAT     H143442   2.007   3.741   1.248
10684WAT     H243443   2.030   3.758   1.114
10684WAT    EPW43444   2.044   3.722   1.181
10685WAT      O43445   3.133   3.781   0.659
10685WAT     H143446   3.193   3.717   0.658
10685WAT     H243447   3.073   3.754   0.602
10685WAT    EPW43448   3.133   3.768   0.650
10686WAT      O43449   1.673   4.341   0.372
10686WAT     H143450   1.720   4.363   0.442
10686WAT     H243451   1.729   4.296   0.323
10686WAT    EPW43452   1.688   4.337   0.375
10687WAT      O43453   2.878   4.692   0.788
10687WAT     H143454   2.822   4.759   0.795
10687WAT     H243455   2.869   4.667   0.705
10687WAT    EPW43456   2.868   4.698   0.777
10688WAT      O43457   1.613   3.845   1.059
10688WAT     H143458   1.575   3.783   1.107
10688WAT     H243459   1.610   3.812   0.978
10688WAT    EPW43460   1.607   3.831   1.054
10689WAT      O43461   1.659   3.918   0.588
10689WAT     H143462   1.692   3.871   0.523
10689WAT     H243463   1.610   3.978   0.547
10689WAT    EPW43464   1.657   3.920   0.573
10690WAT      O43465   2.715   3.644   0.381
10690WAT     H143466   2.654   3.674   0.435
10690WAT     H243467   2.683   3.661   0.302
10690WAT    EPW43468   2.701   3.651   0.377
10691WAT      O43469   2.042   4.764   0.523
10691WAT     H143470   2.036   4.706   0.458
10691WAT     H243471   2.024   4.840   0.484
10691WAT    EPW43472   2.038   4.766   0.507
10692WAT      O43473   2.274   3.265   0.709
10692WAT     H143474   2.290   3.181   0.696
10692WAT     H243475   2.292   3.277   0.793
10692WAT    EPW43476   2.279   3.255   0.719
10693WAT      O43477   1.458   4.068   1.098
10693WAT     H143478   1.456   4.113   1.023
10693WAT     H243479   1.510   4.001   1.081
10693WAT    EPW43480   1.465   4.065   1.085
10694WAT      O43481   2.633   4.250   0.955
10694WAT     H143482   2.660   4.332   0.941
10694WAT     H243483   2.664   4.206   0.887
10694WAT    EPW43484   2.642   4.256   0.943
10695WAT      O43485   2.025   4.583   1.030
10695WAT     H143486   2.064   4.575   1.107
10695WAT     H243487   2.005   4.501   1.008
10695WAT    EPW43488   2.027   4.570   1.038
10696WAT      O43489   2.133   3.570   0.407
10696WAT     H143490   2.187   3.634   0.385
10696WAT     H243491   2.182   3.498   0.399
10696WAT    EPW43492   2.148   3.569   0.403
10697WAT      O43493   2.638   4.536   0.260
10697WAT     H143494   2.563   4.506   0.227
10697WAT     H243495   2.625   4.623   0.263
10697WAT    EPW43496   2.625   4.545   0.256
10698WAT      O43497   2.422   4.350   0.234
10698WAT     H143498   2.337   4.333   0.240
10698WAT     H243499   2.458   4.302   0.298
10698WAT    EPW43500   2.415   4.341   0.244
10699WAT      O43501   2.744   4.107   0.739
10699WAT     H143502   2.743   4.084   0.654
10699WAT     H243503   2.828   4.127   0.753
10699WAT    EPW43504   2.756   4.107   0.728
10700WAT      O43505   2.407   4.689   1.177
10700WAT     H143506   2.437   4.710   1.256
10700WAT     H243507   2.423   4.760   1.129
10700WAT    EPW43508   2.414   4.703   1.182
10701WAT      O43509   2.898   3.133   0.966
10701WAT     H143510   2.821   3.112   0.931
10701WAT     H243511   2.897   3.091   1.043
10701WAT    EPW43512   2.886   3.123   0.972
10702WAT      O43513   2.356   4.118   0.657
10702WAT     H143514   2.306   4.152   0.720
10702WAT     H243515   2.397   4.053   0.697
10702WAT    EPW43516   2.355   4.114   0.672
10703WAT      O43517   2.787   4.353   0.405
10703WAT     H143518   2.751   4.403   0.344
10703WAT     H243519   2.720   4.303   0.432
10703WAT    EPW43520   2.772   4.353   0.400
10704WAT      O43521   2.158   4.284   0.310
10704WAT     H143522   2.077   4.270   0.283
10704WAT     H243523   2.180   4.209   0.349
10704WAT    EPW43524   2.149   4.271   0.312
10705WAT      O43525   1.504   4.116   0.451
10705WAT     H143526   1.546   4.191   0.435
10705WAT     H243527   1.456   4.102   0.379
10705WAT    EPW43528   1.503   4.125   0.438
10706WAT      O43529   2.775   3.979   0.490
10706WAT     H143530   2.788   3.909   0.541
10706WAT     H243531   2.695   3.967   0.458
10706WAT    EPW43532   2.765   3.967   0.493
10707WAT      O43533   1.452   4.204   0.860
10707WAT     H143534   1.414   4.154   0.799
10707WAT     H243535   1.422   4.284   0.841
10707WAT    EPW43536   1.442   4.208   0.848
10708WAT      O43537   3.012   4.059   0.364
10708WAT     H143538   2.940   4.032   0.406
10708WAT     H243539   2.981   4.096   0.292
10708WAT    EPW43540   2.997   4.061   0.360
10709WAT      O43541   2.674   3.484   0.995
10709WAT     H143542   2.606   3.480   1.049
10709WAT     H243543   2.658   3.421   0.936
10709WAT    EPW43544   2.662   3.474   0.994
10710WAT      O43545   3.057   4.662   0.373
10710WAT     H143546   3.080   4.650   0.290
10710WAT     H243547   3.116   4.616   0.418
10710WAT    EPW43548   3.069   4.654   0.367
10711WAT      O43549   2.548   3.830   1.100
10711WAT     H143550   2.592   3.836   1.176
10711WAT     H243551   2.478   3.880   1.114
10711WAT    EPW43552   2.545   3.839   1.113
10712WAT      O43553   2.784   3.857   0.944
10712WAT     H143554   2.811   3.937   0.964
10712WAT     H243555   2.712   3.846   0.992
10712WAT    EPW43556   2.778   3.867   0.954
10713WAT      O43557   3.112   3.941   1.130
10713WAT     H143558   3.114   3.886   1.062
10713WAT     H243559   3.190   3.981   1.126
10713WAT    EPW43560   3.124   3.938   1.119
10714WAT      O43561   3.010   4.186   0.766
10714WAT     H143562   3.075   4.132   0.743
10714WAT     H243563   3.010   4.246   0.703
10714WAT    EPW43564   3.020   4.187   0.754
10715WAT      O43565   1.890   4.406   0.540
10715WAT     H143566   1.899   4.459   0.609
10715WAT     H243567   1.924   4.452   0.474
10715WAT    EPW43568   1.897   4.420   0.540
10716WAT      O43569   1.719   4.271   0.838
10716WAT     H143570   1.638   4.241   0.849
10716WAT     H243571   1.709   4.357   0.832
10716WAT    EPW43572   1.705   4.279   0.839
10717WAT      O43573   2.659   3.320   0.763
10717WAT     H143574   2.731   3.363   0.741
10717WAT     H243575   2.595   3.367   0.726
10717WAT    EPW43576   2.660   3.334   0.754
10718WAT      O43577   2.198   4.044   0.446
10718WAT     H143578   2.251   4.063   0.513
10718WAT     H243579   2.118   4.056   0.479
10718WAT    EPW43580   2.194   4.048   0.461
10719WAT      O43581   1.857   3.611   0.828
10719WAT     H143582   1.864   3.532   0.865
10719WAT     H243583   1.883   3.598   0.746
10719WAT    EPW43584   1.862   3.597   0.822
10720WAT      O43585   2.769   3.101   0.522
10720WAT     H143586   2.742   3.182   0.503
10720WAT     H243587   2.837   3.115   0.575
10720WAT    EPW43588   2.775   3.115   0.527
10721WAT      O43589   2.000   3.206   0.756
10721WAT     H143590   2.086   3.209   0.741
10721WAT     H243591   1.986   3.124   0.782
10721WAT    EPW43592   2.011   3.194   0.758
10722WAT      O43593   1.950   4.576   0.324
10722WAT     H143594   1.870   4.590   0.291
10722WAT     H243595   1.998   4.555   0.255
10722WAT    EPW43596   1.945   4.575   0.309
10723WAT      O43597   2.376   4.247   1.053
10723WAT     H143598   2.454   4.250   1.014
10723WAT     H243599   2.320   4.258   0.987
10723WAT    EPW43600   2.379   4.249   1.037
10724WAT      O43601   2.704   4.519   0.925
10724WAT     H143602   2.741   4.539   1.002
10724WAT     H243603   2.754   4.562   0.867
10724WAT    EPW43604   2.717   4.528   0.928
10725WAT      O43605   1.760   3.743   0.393
10725WAT     H143606   1.800   3.739   0.315
10725WAT     H243607   1.809   3.691   0.443
10725WAT    EPW43608   1.773   3.735   0.389
10726WAT      O43609   2.435   3.684   0.882
10726WAT     H143610   2.364   3.733   0.893
10726WAT     H243611   2.478   3.694   0.957
10726WAT    EPW43612   2.431   3.692   0.895
10727WAT      O43613   2.504   3.728   0.534
10727WAT     H143614   2.516   3.785   0.599
10727WAT     H243615   2.484   3.654   0.575
10727WAT    EPW43616   2.503   3.726   0.550
10728WAT      O43617   2.175   4.802   0.932
10728WAT     H143618   2.196   4.792   0.848
10728WAT     H243619   2.138   4.726   0.954
10728WAT    EPW43620   2.173   4.789   0.923
10729WAT      O43621   2.002   3.162   0.391
10729WAT     H143622   1.954   3.217   0.441
10729WAT     H243623   1.942   3.126   0.338
10729WAT    EPW43624   1.986   3.165   0.391
10730WAT      O43625   2.194   4.259   0.845
10730WAT     H143626   2.118   4.256   0.887
10730WAT     H243627   2.198   4.340   0.814
10730WAT    EPW43628   2.184   4.270   0.846
10731WAT      O43629   1.267   3.272   1.038
10731WAT     H143630   1.265   3.341   0.985
10731WAT     H243631   1.194   3.229   1.017
10731WAT    EPW43632   1.256   3.276   1.027
10732WAT      O43633   1.748   4.879   0.348
10732WAT     H143634   1.752   4.868   0.435
10732WAT     H243635   1.727   4.799   0.319
10732WAT    EPW43636   1.745   4.865   0.357
10733WAT      O43637   2.198   4.521   0.761
10733WAT     H143638   2.274   4.541   0.799
10733WAT     H243639   2.218   4.517   0.676
10733WAT    EPW43640   2.212   4.523   0.754
10734WAT      O43641   3.055   3.764   0.923
10734WAT     H143642   2.969   3.777   0.929
10734WAT     H243643   3.073   3.779   0.839
10734WAT    EPW43644   3.045   3.768   0.912
10735WAT      O43645   2.525   3.914   0.740
10735WAT     H143646   2.507   3.855   0.801
10735WAT     H243647   2.597   3.953   0.771
10735WAT    EPW43648   2.533   3.911   0.754
10736WAT      O43649   1.417   4.888   0.939
10736WAT     H143650   1.357   4.826   0.929
10736WAT     H243651   1.371   4.956   0.969
10736WAT    EPW43652   1.402   4.889   0.942
10737WAT      O43653   2.317   4.001   1.162
10737WAT     H143654   2.341   4.078   1.131
10737WAT     H243655   2.237   4.016   1.193
10737WAT    EPW43656   2.309   4.014   1.162
10738WAT      O43657   2.611   4.806   0.342
10738WAT     H143658   2.569   4.880   0.323
10738WAT     H243659   2.684   4.833   0.382
10738WAT    EPW43660   2.616   4.821   0.345
10739WAT      O43661   2.233   4.498   0.487
10739WAT     H143662   2.211   4.432   0.435
10739WAT     H243663   2.320   4.502   0.479
10739WAT    EPW43664   2.243   4.489   0.478
10740WAT      O43665   2.849   4.590   1.152
10740WAT     H143666   2.933   4.566   1.150
10740WAT     H243667   2.819   4.549   1.223
10740WAT    EPW43668   2.857   4.580   1.162
10741WAT      O43669   1.612   3.737   0.799
10741WAT     H143670   1.625   3.797   0.737
10741WAT     H243671   1.690   3.699   0.806
10741WAT    EPW43672   1.626   3.740   0.791
10742WAT      O43673   1.443   3.566   0.667
10742WAT     H143674   1.462   3.582   0.583
10742WAT     H243675   1.501   3.615   0.710
10742WAT    EPW43676   1.455   3.576   0.661
10743WAT      O43677   1.622   3.247   0.908
10743WAT     H143678   1.581   3.170   0.918
10743WAT     H243679   1.606   3.267   0.825
10743WAT    EPW43680   1.613   3.238   0.897
10744WAT      O43681   2.810   3.777   0.676
10744WAT     H143682   2.827   3.692   0.689
10744WAT     H243683   2.796   3.807   0.757
10744WAT    EPW43684   2.811   3.769   0.690
10745WAT      O43685   1.336   4.042   0.667
10745WAT     H143686   1.380   4.064   0.595
10745WAT     H243687   1.320   3.957   0.657
10745WAT    EPW43688   1.340   4.033   0.655
10746WAT      O43689   2.320   3.295   0.982
10746WAT     H143690   2.356   3.352   1.037
10746WAT     H243691   2.246   3.272   1.023
10746WAT    EPW43692   2.314   3.300   0.996
10747WAT      O43693   2.729   3.366   0.423
10747WAT     H143694   2.816   3.362   0.428
10747WAT     H243695   2.713   3.452   0.415
10747WAT    EPW43696   2.739   3.378   0.422
10748WAT      O43697   1.841   4.026   0.768
10748WAT     H143698   1.805   4.101   0.794
10748WAT     H243699   1.780   3.992   0.716
10748WAT    EPW43700   1.827   4.032   0.764
10749WAT      O43701   1.841   3.314   0.560
10749WAT     H143702   1.757   3.304   0.580
10749WAT     H243703   1.882   3.274   0.626
10749WAT    EPW43704   1.835   3.307   0.573
10750WAT      O43705   2.977   3.186   0.693
10750WAT     H143706   2.958   3.175   0.778
10750WAT     H243707   3.056   3.150   0.685
10750WAT    EPW43708   2.986   3.179   0.705
10751WAT      O43709   2.251   3.309   0.424
10751WAT     H143710   2.182   3.261   0.400
10751WAT     H243711   2.254   3.299   0.510
10751WAT    EPW43712   2.241   3.301   0.433
10752WAT      O43713   2.511   4.516   0.510
10752WAT     H143714   2.522   4.588   0.558
10752WAT     H243715   2.557   4.532   0.437
10752WAT    EPW43716   2.519   4.529   0.506
10753WAT      O43717   2.440   4.892   0.985
10753WAT     H143718   2.369   4.851   0.956
10753WAT     H243719   2.414   4.975   0.993
10753WAT    EPW43720   2.426   4.899   0.982
10754WAT      O43721   1.969   3.838   0.941
10754WAT     H143722   1.936   3.767   0.904
10754WAT     H243723   1.931   3.904   0.898
10754WAT    EPW43724   1.959   3.837   0.929
10755WAT      O43725   3.039   4.300   0.506
10755WAT     H143726   3.050   4.221   0.471
10755WAT     H243727   2.962   4.326   0.476
10755WAT    EPW43728   3.029   4.292   0.497
10756WAT      O43729   1.863   4.829   0.883
10756WAT     H143730   1.854   4.822   0.970
10756WAT     H243731   1.904   4.755   0.861
10756WAT    EPW43732   1.868   4.817   0.893
10757WAT      O43733   2.836   4.605   0.532
10757WAT     H143734   2.898   4.632   0.477
10757WAT     H243735   2.814   4.526   0.502
10757WAT    EPW43736   2.842   4.597   0.520
10758WAT      O43737   1.574   3.317   0.647
10758WAT     H143738   1.545   3.276   0.575
10758WAT     H243739   1.528   3.392   0.647
10758WAT    EPW43740   1.563   3.322   0.636
10759WAT      O43741   2.502   3.213   0.323
10759WAT     H143742   2.562   3.270   0.350
10759WAT     H243743   2.427   3.249   0.350
10759WAT    EPW43744   2.500   3.227   0.331
10760WAT      O43745   1.570   4.693   1.073
10760WAT     H143746   1.644   4.730   1.098
10760WAT     H243747   1.527   4.757   1.033
10760WAT    EPW43748   1.575   4.708   1.071
10761WAT      O43749   1.406   4.473   0.794
10761WAT     H143750   1.357   4.533   0.833
10761WAT     H243751   1.487   4.503   0.805
10761WAT    EPW43752   1.411   4.486   0.802
10762WAT      O43753   2.910   4.095   1.019
10762WAT     H143754   2.977   4.059   1.061
10762WAT     H243755   2.947   4.138   0.953
10762WAT    EPW43756   2.925   4.096   1.015
10763WAT      O43757   2.914   3.537   1.124
10763WAT     H143758   2.911   3.618   1.158
10763WAT     H243759   2.834   3.525   1.092
10763WAT    EPW43760   2.902   3.547   1.124
10764WAT      O43761   2.990   3.647   0.451
10764WAT     H143762   2.905   3.654   0.434
10764WAT     H243763   3.001   3.561   0.461
10764WAT    EPW43764   2.979   3.635   0.450
10765WAT      O43765   1.877   3.351   0.949
10765WAT     H143766   1.920   3.314   0.883
10765WAT     H243767   1.797   3.315   0.943
10765WAT    EPW43768   1.871   3.340   0.939
10766WAT      O43769   2.684   4.157   1.231
10766WAT     H143770   2.762   4.181   1.264
10766WAT     H243771   2.692   4.174   1.146
10766WAT    EPW43772   2.697   4.163   1.223
10767WAT      O43773   1.668   4.606   0.265
10767WAT     H143774   1.656   4.524   0.290
10767WAT     H243775   1.635   4.608   0.184
10767WAT    EPW43776   1.661   4.594   0.256
10768WAT      O43777   1.374   4.893   0.648
10768WAT     H143778   1.416   4.887   0.724
10768WAT     H243779   1.418   4.839   0.596
10768WAT    EPW43780   1.386   4.884   0.652
10769WAT      O43781   2.345   1.289   7.428
10769WAT     H143782   2.334   1.332   7.353
10769WAT     H243783   2.431   1.279   7.433
10769WAT    EPW43784   2.356   1.294   7.418
10770WAT      O43785   1.288   2.413   7.385
10770WAT     H143786   1.211   2.407   7.426
10770WAT     H243787   1.299   2.333   7.351
10770WAT    EPW43788   1.278   2.400   7.386
10771WAT      O43789   2.935   2.789   7.197
10771WAT     H143790   2.998   2.731   7.218
10771WAT     H243791   2.879   2.741   7.150
10771WAT    EPW43792   2.936   2.773   7.193
10772WAT      O43793   1.271   1.761   7.061
10772WAT     H143794   1.204   1.807   7.031
10772WAT     H243795   1.244   1.678   7.055
10772WAT    EPW43796   1.257   1.755   7.056
10773WAT      O43797   1.635   2.335   7.015
10773WAT     H143798   1.595   2.295   6.949
10773WAT     H243799   1.646   2.271   7.074
10773WAT    EPW43800   1.631   2.319   7.014
10774WAT      O43801   2.548   2.144   7.527
10774WAT     H143802   2.561   2.132   7.441
10774WAT     H243803   2.505   2.073   7.552
10774WAT    EPW43804   2.544   2.132   7.518
10775WAT      O43805   1.542   2.531   7.389
10775WAT     H143806   1.594   2.495   7.448
10775WAT     H243807   1.466   2.489   7.400
10775WAT    EPW43808   1.538   2.520   7.399
10776WAT      O43809   2.020   1.465   7.345
10776WAT     H143810   2.007   1.528   7.286
10776WAT     H243811   2.087   1.420   7.313
10776WAT    EPW43812   2.028   1.468   7.332
10777WAT      O43813   1.414   2.781   6.969
10777WAT     H143814   1.470   2.796   6.903
10777WAT     H243815   1.455   2.721   7.017
10777WAT    EPW43816   1.428   2.774   6.966
10778WAT      O43817   1.498   2.179   7.540
10778WAT     H143818   1.451   2.179   7.466
10778WAT     H243819   1.556   2.115   7.527
10778WAT    EPW43820   1.500   2.170   7.527
10779WAT      O43821   1.671   1.981   7.456
10779WAT     H143822   1.729   1.953   7.515
10779WAT     H243823   1.605   1.925   7.464
10779WAT    EPW43824   1.670   1.969   7.466
10780WAT      O43825   1.989   2.572   7.625
10780WAT     H143826   2.017   2.493   7.651
10780WAT     H243827   2.060   2.622   7.632
10780WAT    EPW43828   2.004   2.568   7.630
10781WAT      O43829   2.086   2.495   7.321
10781WAT     H143830   2.132   2.434   7.363
10781WAT     H243831   2.107   2.482   7.237
10781WAT    EPW43832   2.096   2.484   7.315
10782WAT      O43833   1.749   1.476   7.436
10782WAT     H143834   1.707   1.523   7.375
10782WAT     H243835   1.831   1.472   7.406
10782WAT    EPW43836   1.755   1.482   7.422
10783WAT      O43837   2.078   1.465   7.620
10783WAT     H143838   2.055   1.545   7.645
10783WAT     H243839   2.056   1.464   7.535
10783WAT    EPW43840   2.072   1.477   7.611
10784WAT      O43841   2.480   1.616   6.844
10784WAT     H143842   2.432   1.681   6.875
10784WAT     H243843   2.491   1.564   6.913
10784WAT    EPW43844   2.475   1.618   6.858
10785WAT      O43845   1.422   1.941   7.796
10785WAT     H143846   1.391   2.022   7.794
10785WAT     H243847   1.369   1.900   7.852
10785WAT    EPW43848   1.410   1.947   7.804
10786WAT      O43849   1.300   2.855   7.618
10786WAT     H143850   1.234   2.902   7.584
10786WAT     H243851   1.346   2.831   7.548
10786WAT    EPW43852   1.297   2.859   7.603
10787WAT      O43853   1.868   2.671   7.324
10787WAT     H143854   1.821   2.669   7.398
10787WAT     H243855   1.933   2.615   7.339
10787WAT    EPW43856   1.871   2.662   7.337
10788WAT      O43857   2.502   2.900   7.118
10788WAT     H143858   2.577   2.944   7.121
10788WAT     H243859   2.524   2.819   7.142
10788WAT    EPW43860   2.516   2.895   7.122
10789WAT      O43861   2.284   2.920   7.284
10789WAT     H143862   2.299   2.981   7.344
10789WAT     H243863   2.356   2.922   7.234
10789WAT    EPW43864   2.297   2.929   7.286
10790WAT      O43865   1.447   2.792   7.385
10790WAT     H143866   1.492   2.719   7.401
10790WAT     H243867   1.507   2.847   7.355
10790WAT    EPW43868   1.463   2.790   7.383
10791WAT      O43869   3.028   1.602   7.540
10791WAT     H143870   2.984   1.675   7.559
10791WAT     H243871   2.966   1.544   7.523
10791WAT    EPW43872   3.013   1.604   7.540
10792WAT      O43873   1.613   2.581   7.769
10792WAT     H143874   1.644   2.639   7.712
10792WAT     H243875   1.640   2.504   7.736
10792WAT    EPW43876   1.622   2.578   7.756
10793WAT      O43877   1.833   2.947   7.702
10793WAT     H143878   1.913   2.964   7.671
10793WAT     H243879   1.782   3.005   7.661
10793WAT    EPW43880   1.837   2.958   7.691
10794WAT      O43881   2.218   1.857   7.465
10794WAT     H143882   2.242   1.807   7.398
10794WAT     H243883   2.292   1.866   7.511
10794WAT    EPW43884   2.233   1.851   7.462
10795WAT      O43885   2.311   1.809   6.963
10795WAT     H143886   2.335   1.889   6.989
10795WAT     H243887   2.234   1.823   6.924
10795WAT    EPW43888   2.303   1.823   6.961
10796WAT      O43889   2.719   3.077   7.083
10796WAT     H143890   2.755   3.047   7.010
10796WAT     H243891   2.782   3.127   7.118
10796WAT    EPW43892   2.734   3.080   7.078
10797WAT      O43893   2.163   2.725   6.930
10797WAT     H143894   2.128   2.784   6.983
10797WAT     H243895   2.241   2.759   6.909
10797WAT    EPW43896   2.169   2.739   6.934
10798WAT      O43897   2.504   1.447   7.064
10798WAT     H143898   2.563   1.383   7.066
10798WAT     H243899   2.524   1.496   7.133
10798WAT    EPW43900   2.515   1.445   7.075
10799WAT      O43901   1.339   1.554   7.329
10799WAT     H143902   1.321   1.469   7.317
10799WAT     H243903   1.287   1.577   7.395
10799WAT    EPW43904   1.328   1.545   7.337
10800WAT      O43905   2.278   1.719   7.227
10800WAT     H143906   2.207   1.670   7.215
10800WAT     H243907   2.295   1.751   7.148
10800WAT    EPW43908   2.270   1.716   7.213
10801WAT      O43909   2.257   1.391   7.187
10801WAT     H143910   2.200   1.363   7.128
10801WAT     H243911   2.328   1.410   7.140
10801WAT    EPW43912   2.259   1.390   7.171
10802WAT      O43913   2.976   3.029   7.472
10802WAT     H143914   2.935   3.094   7.513
10802WAT     H243915   2.912   2.972   7.455
10802WAT    EPW43916   2.960   3.030   7.476
10803WAT      O43917   2.057   1.742   7.663
10803WAT     H143918   2.101   1.777   7.596
10803WAT     H243919   2.100   1.772   7.733
10803WAT    EPW43920   2.070   1.752   7.663
10804WAT      O43921   2.679   2.607   7.499
10804WAT     H143922   2.743   2.547   7.498
10804WAT     H243923   2.606   2.560   7.506
10804WAT    EPW43924   2.678   2.591   7.500
10805WAT      O43925   1.681   1.219   7.514
10805WAT     H143926   1.699   1.303   7.500
10805WAT     H243927   1.649   1.191   7.438
10805WAT    EPW43928   1.679   1.227   7.501
10806WAT      O43929   2.610   1.249   7.482
10806WAT     H143930   2.613   1.234   7.567
10806WAT     H243931   2.649   1.178   7.447
10806WAT    EPW43932   2.616   1.236   7.489
10807WAT      O43933   1.625   1.621   7.640
10807WAT     H143934   1.664   1.568   7.582
10807WAT     H243935   1.556   1.575   7.666
10807WAT    EPW43936   1.621   1.606   7.635
10808WAT      O43937   2.897   2.392   7.062
10808WAT     H143938   2.893   2.339   7.131
10808WAT     H243939   2.982   2.398   7.044
10808WAT    EPW43940   2.909   2.385   7.069
10809WAT      O43941   1.682   2.381   7.580
10809WAT     H143942   1.748   2.358   7.528
10809WAT     H243943   1.626   2.315   7.572
10809WAT    EPW43944   1.684   2.368   7.572
10810WAT      O43945   1.466   3.024   7.762
10810WAT     H143946   1.410   2.973   7.718
10810WAT     H243947   1.526   3.045   7.702
10810WAT    EPW43948   1.466   3.020   7.746
10811WAT      O43949   2.705   2.054   6.991
10811WAT     H143950   2.698   2.136   6.964
10811WAT     H243951   2.674   2.056   7.072
10811WAT    EPW43952   2.699   2.066   6.999
10812WAT      O43953   1.873   2.318   7.388
10812WAT     H143954   1.930   2.381   7.368
10812WAT     H243955   1.889   2.255   7.330
10812WAT    EPW43956   1.884   2.318   7.377
10813WAT      O43957   3.035   1.523   6.973
10813WAT     H143958   3.078   1.466   6.922
10813WAT     H243959   3.000   1.579   6.916
10813WAT    EPW43960   3.036   1.523   6.957
10814WAT      O43961   1.366   2.467   7.843
10814WAT     H143962   1.317   2.538   7.853
10814WAT     H243963   1.444   2.499   7.822
10814WAT    EPW43964   1.370   2.482   7.841
10815WAT      O43965   1.369   2.162   7.294
10815WAT     H143966   1.344   2.079   7.297
10815WAT     H243967   1.446   2.159   7.254
10815WAT    EPW43968   1.376   2.149   7.288
10816WAT      O43969   2.901   1.420   7.197
10816WAT     H143970   2.972   1.379   7.227
10816WAT     H243971   2.931   1.464   7.127
10816WAT    EPW43972   2.916   1.421   7.191
10817WAT      O43973   2.222   2.729   7.637
10817WAT     H143974   2.187   2.808   7.627
10817WAT     H243975   2.256   2.711   7.558
10817WAT    EPW43976   2.222   2.738   7.624
10818WAT      O43977   1.265   2.640   7.233
10818WAT     H143978   1.322   2.694   7.271
10818WAT     H243979   1.265   2.570   7.285
10818WAT    EPW43980   1.274   2.638   7.246
10819WAT      O43981   2.563   1.669   7.688
10819WAT     H143982   2.585   1.622   7.758
10819WAT     H243983   2.502   1.621   7.649
10819WAT    EPW43984   2.557   1.655   7.693
10820WAT      O43985   1.265   2.453   7.015
10820WAT     H143986   1.336   2.404   7.013
10820WAT     H243987   1.283   2.513   7.075
10820WAT    EPW43988   1.278   2.455   7.023
10821WAT      O43989   1.335   2.204   7.761
10821WAT     H143990   1.385   2.202   7.690
10821WAT     H243991   1.352   2.283   7.795
10821WAT    EPW43992   1.345   2.215   7.756
10822WAT      O43993   2.008   1.648   7.140
10822WAT     H143994   1.992   1.613   7.061
10822WAT     H243995   1.973   1.727   7.135
10822WAT    EPW43996   2.000   1.654   7.127
10823WAT      O43997   1.760   2.716   7.578
10823WAT     H143998   1.779   2.791   7.617
10823WAT     H243999   1.825   2.663   7.602
10823WAT    EPW44000   1.773   2.719   7.587
10824WAT      O44001   1.617   1.860   7.111
10824WAT     H144002   1.605   1.794   7.167
10824WAT     H244003   1.576   1.833   7.039
10824WAT    EPW44004   1.609   1.846   7.109
10825WAT      O44005   1.690   1.976   7.889
10825WAT     H144006   1.606   1.968   7.866
10825WAT     H244007   1.733   1.938   7.823
10825WAT    EPW44008   1.684   1.969   7.876
10826WAT      O44009   2.530   1.605   7.286
10826WAT     H144010   2.586   1.672   7.296
10826WAT     H244011   2.452   1.644   7.280
10826WAT    EPW44012   2.527   1.621   7.287
10827WAT      O44013   2.379   2.051   7.087
10827WAT     H144014   2.354   2.102   7.021
10827WAT     H244015   2.318   2.065   7.148
10827WAT    EPW44016   2.366   2.060   7.086
10828WAT      O44017   2.862   2.396   7.493
10828WAT     H144018   2.890   2.346   7.558
10828WAT     H244019   2.861   2.342   7.424
10828WAT    EPW44020   2.866   2.381   7.492
10829WAT      O44021   2.337   2.517   7.786
10829WAT     H144022   2.307   2.589   7.747
10829WAT     H244023   2.374   2.547   7.859
10829WAT    EPW44024   2.338   2.532   7.791
10830WAT      O44025   1.930   2.934   7.333
10830WAT     H144026   1.913   2.849   7.343
10830WAT     H244027   1.971   2.939   7.256
10830WAT    EPW44028   1.933   2.923   7.323
10831WAT      O44029   1.778   1.285   7.078
10831WAT     H144030   1.730   1.253   7.143
10831WAT     H244031   1.739   1.361   7.059
10831WAT    EPW44032   1.765   1.292   7.085
10832WAT      O44033   2.080   2.924   7.103
10832WAT     H144034   2.149   2.926   7.156
10832WAT     H244035   2.082   3.001   7.063
10832WAT    EPW44036   2.090   2.935   7.105
10833WAT      O44037   1.626   2.121   7.203
10833WAT     H144038   1.615   2.042   7.168
10833WAT     H244039   1.665   2.105   7.279
10833WAT    EPW44040   1.630   2.107   7.209
10834WAT      O44041   1.257   1.285   7.290
10834WAT     H144042   1.257   1.232   7.221
10834WAT     H244043   1.222   1.236   7.353
10834WAT    EPW44044   1.252   1.270   7.289
10835WAT      O44045   2.214   2.085   7.306
10835WAT     H144046   2.224   2.153   7.359
10835WAT     H244047   2.209   2.017   7.361
10835WAT    EPW44048   2.214   2.085   7.322
10836WAT      O44049   1.670   1.527   7.002
10836WAT     H144050   1.611   1.520   6.939
10836WAT     H244051   1.739   1.563   6.962
10836WAT    EPW44052   1.672   1.531   6.987
10837WAT      O44053   2.126   2.344   7.720
10837WAT     H144054   2.087   2.305   7.788
10837WAT     H244055   2.190   2.390   7.758
10837WAT    EPW44056   2.130   2.345   7.736
10838WAT      O44057   1.783   2.944   6.908
10838WAT     H144058   1.802   2.871   6.951
10838WAT     H244059   1.785   3.005   6.969
10838WAT    EPW44060   1.786   2.942   6.923
10839WAT      O44061   1.797   1.841   7.666
10839WAT     H144062   1.878   1.808   7.663
10839WAT     H244063   1.746   1.771   7.667
10839WAT    EPW44064   1.801   1.826   7.666
10840WAT      O44065   3.091   2.961   7.050
10840WAT     H144066   3.158   2.913   7.022
10840WAT     H244067   3.042   2.904   7.095
10840WAT    EPW44068   3.093   2.946   7.053
10841WAT      O44069   1.314   1.890   7.314
10841WAT     H144070   1.354   1.853   7.382
10841WAT     H244071   1.321   1.829   7.251
10841WAT    EPW44072   1.321   1.876   7.314
10842WAT      O44073   1.803   2.077   6.877
10842WAT     H144074   1.803   2.016   6.940
10842WAT     H244075   1.748   2.044   6.817
10842WAT    EPW44076   1.795   2.063   6.878
10843WAT      O44077   2.947   2.244   7.714
10843WAT     H144078   2.941   2.303   7.778
10843WAT     H244079   3.030   2.219   7.716
10843WAT    EPW44080   2.958   2.249   7.724
10844WAT      O44081   1.886   1.897   7.086
10844WAT     H144082   1.905   1.967   7.134
10844WAT     H244083   1.803   1.880   7.105
10844WAT    EPW44084   1.877   1.905   7.096
10845WAT      O44085   1.380   1.498   7.690
10845WAT     H144086   1.309   1.529   7.651
10845WAT     H244087   1.363   1.413   7.700
10845WAT    EPW44088   1.367   1.490   7.686
10846WAT      O44089   3.122   2.703   7.814
10846WAT     H144090   3.126   2.757   7.745
10846WAT     H244091   3.193   2.724   7.860
10846WAT    EPW44092   3.133   2.714   7.811
10847WAT      O44093   2.760   2.631   7.061
10847WAT     H144094   2.797   2.553   7.067
10847WAT     H244095   2.685   2.622   7.105
10847WAT    EPW44096   2.754   2.618   7.068
10848WAT      O44097   2.801   1.781   7.584
10848WAT     H144098   2.734   1.738   7.619
10848WAT     H244099   2.796   1.860   7.620
10848WAT    EPW44100   2.791   1.786   7.594
10849WAT      O44101   2.436   2.442   6.985
10849WAT     H144102   2.511   2.398   6.978
10849WAT     H244103   2.406   2.446   6.904
10849WAT    EPW44104   2.443   2.436   6.972
10850WAT      O44105   2.080   2.974   7.569
10850WAT     H144106   2.091   3.060   7.577
10850WAT     H244107   2.039   2.965   7.493
10850WAT    EPW44108   2.076   2.985   7.559
10851WAT      O44109   2.956   1.943   6.959
10851WAT     H144110   3.004   1.999   6.913
10851WAT     H244111   2.876   1.979   6.959
10851WAT    EPW44112   2.951   1.956   6.952
10852WAT      O44113   2.031   2.219   6.943
10852WAT     H144114   1.961   2.183   6.907
10852WAT     H244115   2.011   2.304   6.945
10852WAT    EPW44116   2.018   2.227   6.938
10853WAT      O44117   2.703   1.828   7.329
10853WAT     H144118   2.728   1.809   7.411
10853WAT     H244119   2.776   1.854   7.291
10853WAT    EPW44120   2.717   1.829   7.336
10854WAT      O44121   2.828   1.423   7.465
10854WAT     H144122   2.748   1.387   7.472
10854WAT     H244123   2.835   1.438   7.380
10854WAT    EPW44124   2.817   1.420   7.454
10855WAT      O44125   2.843   2.219   7.276
10855WAT     H144126   2.886   2.143   7.272
10855WAT     H244127   2.759   2.195   7.271
10855WAT    EPW44128   2.837   2.204   7.274
10856WAT      O44129   1.597   1.623   7.255
10856WAT     H144130   1.609   1.585   7.177
10856WAT     H244131   1.515   1.601   7.276
10856WAT    EPW44132   1.587   1.614   7.246
10857WAT      O44133   2.472   2.417   7.551
10857WAT     H144134   2.447   2.436   7.633
10857WAT     H244135   2.507   2.338   7.559
10857WAT    EPW44136   2.473   2.408   7.564
10858WAT      O44137   2.231   2.311   7.463
10858WAT     H144138   2.191   2.310   7.541
10858WAT     H244139   2.309   2.348   7.481
10858WAT    EPW44140   2.237   2.317   7.478
10859WAT      O44141   2.634   3.057   7.730
10859WAT     H144142   2.559   3.054   7.775
10859WAT     H244143   2.682   2.994   7.767
10859WAT    EPW44144   2.630   3.047   7.742
10860WAT      O44145   2.931   1.957   7.236
10860WAT     H144146   2.945   1.953   7.150
10860WAT     H244147   3.007   1.933   7.270
10860WAT    EPW44148   2.944   1.953   7.228
10861WAT      O44149   2.302   2.663   7.380
10861WAT     H144150   2.290   2.742   7.347
10861WAT     H244151   2.231   2.619   7.355
10861WAT    EPW44152   2.290   2.668   7.371
10862WAT      O44153   1.479   1.781   6.881
10862WAT     H144154   1.407   1.778   6.930
10862WAT     H244155   1.483   1.702   6.845
10862WAT    EPW44156   1.469   1.769   6.883
10863WAT      O44157   2.351   1.523   7.590
10863WAT     H144158   2.266   1.512   7.610
10863WAT     H244159   2.367   1.457   7.535
10863WAT    EPW44160   2.340   1.511   7.585
10864WAT      O44161   1.804   2.700   7.051
10864WAT     H144162   1.838   2.697   7.132
10864WAT     H244163   1.722   2.671   7.063
10864WAT    EPW44164   1.797   2.695   7.065
10865WAT      O44165   2.758   2.039   7.680
10865WAT     H144166   2.821   2.098   7.693
10865WAT     H244167   2.700   2.081   7.631
10865WAT    EPW44168   2.759   2.054   7.674
10866WAT      O44169   2.766   2.855   7.404
10866WAT     H144170   2.736   2.780   7.438
10866WAT     H244171   2.814   2.829   7.336
10866WAT    EPW44172   2.769   2.840   7.399
10867WAT      O44173   1.559   2.582   7.110
10867WAT     H144174   1.559   2.571   7.196
10867WAT     H244175   1.581   2.503   7.079
10867WAT    EPW44176   1.562   2.569   7.118
10868WAT      O44177   1.872   2.457   6.918
10868WAT     H144178   1.800   2.414   6.944
10868WAT     H244179   1.864   2.534   6.958
10868WAT    EPW44180   1.860   2.462   6.928
10869WAT      O44181   2.054   1.298   7.024
10869WAT     H144182   2.061   1.309   6.937
10869WAT     H244183   1.968   1.306   7.039
10869WAT    EPW44184   2.042   1.301   7.013
10870WAT      O44185   2.434   1.912   7.638
10870WAT     H144186   2.481   1.840   7.648
10870WAT     H244187   2.426   1.944   7.719
10870WAT    EPW44188   2.439   1.906   7.652
10871WAT      O44189   1.459   1.822   7.541
10871WAT     H144190   1.442   1.860   7.618
10871WAT     H244191   1.505   1.751   7.564
10871WAT    EPW44192   1.464   1.817   7.556
10872WAT      O44193   2.597   2.074   7.256
10872WAT     H144194   2.618   1.993   7.279
10872WAT     H244195   2.524   2.065   7.210
10872WAT    EPW44196   2.589   2.061   7.253
10873WAT      O44197   1.653   2.968   7.299
10873WAT     H144198   1.649   3.024   7.231
10873WAT     H244199   1.738   2.954   7.309
10873WAT    EPW44200   1.665   2.974   7.290
10874WAT      O44201   1.966   2.134   7.200
10874WAT     H144202   1.986   2.170   7.123
10874WAT     H244203   2.044   2.117   7.235
10874WAT    EPW44204   1.980   2.137   7.194
10875WAT      O44205   2.879   3.006   6.869
10875WAT     H144206   2.952   2.999   6.917
10875WAT     H244207   2.862   2.924   6.845
10875WAT    EPW44208   2.887   2.993   6.873
10876WAT      O44209   2.509   2.629   7.182
10876WAT     H144210   2.459   2.621   7.253
10876WAT     H244211   2.473   2.572   7.125
10876WAT    EPW44212   2.496   2.619   7.184
10877WAT      O44213   1.515   2.799   7.949
10877WAT     H144214   1.556   2.740   7.900
10877WAT     H244215   1.519   2.872   7.901
10877WAT    EPW44216   1.522   2.801   7.935
10878WAT      O44217   2.169   2.478   7.062
10878WAT     H144218   2.251   2.453   7.045
10878WAT     H244219   2.160   2.551   7.016
10878WAT    EPW44220   2.180   2.485   7.053
10879WAT      O44221   2.367   1.339   5.564
10879WAT     H144222   2.371   1.384   5.489
10879WAT     H244223   2.451   1.321   5.582
10879WAT    EPW44224   2.380   1.343   5.556
10880WAT      O44225   2.321   1.951   5.996
10880WAT     H144226   2.287   2.027   6.022
10880WAT     H244227   2.378   1.932   6.059
10880WAT    EPW44228   2.324   1.959   6.009
10881WAT      O44229   1.272   2.413   5.494
10881WAT     H144230   1.212   2.405   5.556
10881WAT     H244231   1.287   2.331   5.469
10881WAT    EPW44232   1.266   2.399   5.500
10882WAT      O44233   2.919   2.782   5.344
10882WAT     H144234   2.984   2.728   5.366
10882WAT     H244235   2.875   2.738   5.283
10882WAT    EPW44236   2.922   2.767   5.338
10883WAT      O44237   1.280   1.768   5.183
10883WAT     H144238   1.215   1.815   5.150
10883WAT     H244239   1.252   1.686   5.176
10883WAT    EPW44240   1.266   1.763   5.177
10884WAT      O44241   1.607   2.362   5.085
10884WAT     H144242   1.568   2.321   5.018
10884WAT     H244243   1.613   2.300   5.146
10884WAT    EPW44244   1.602   2.347   5.084
10885WAT      O44245   2.571   2.127   5.636
10885WAT     H144246   2.577   2.109   5.550
10885WAT     H244247   2.518   2.065   5.666
10885WAT    EPW44248   2.564   2.115   5.628
10886WAT      O44249   1.526   2.526   5.479
10886WAT     H144250   1.578   2.490   5.540
10886WAT     H244251   1.449   2.486   5.492
10886WAT    EPW44252   1.522   2.515   5.490
10887WAT      O44253   2.025   1.443   5.464
10887WAT     H144254   2.013   1.505   5.404
10887WAT     H244255   2.100   1.406   5.440
10887WAT    EPW44256   2.034   1.446   5.451
10888WAT      O44257   1.409   2.796   5.073
10888WAT     H144258   1.464   2.813   5.007
10888WAT     H244259   1.452   2.738   5.121
10888WAT    EPW44260   1.424   2.790   5.070
10889WAT      O44261   1.326   2.635   6.221
10889WAT     H144262   1.351   2.614   6.302
10889WAT     H244263   1.259   2.582   6.206
10889WAT    EPW44264   1.320   2.624   6.231
10890WAT      O44265   1.957   2.473   6.652
10890WAT     H144266   1.937   2.463   6.737
10890WAT     H244267   1.885   2.446   6.611
10890WAT    EPW44268   1.944   2.468   6.659
10891WAT      O44269   1.495   2.176   5.665
10891WAT     H144270   1.448   2.175   5.592
10891WAT     H244271   1.550   2.109   5.655
10891WAT    EPW44272   1.496   2.166   5.653
10892WAT      O44273   1.922   1.765   6.231
10892WAT     H144274   1.991   1.770   6.177
10892WAT     H244275   1.895   1.682   6.222
10892WAT    EPW44276   1.928   1.754   6.222
10893WAT      O44277   1.926   2.727   6.398
10893WAT     H144278   1.907   2.805   6.366
10893WAT     H244279   2.011   2.733   6.416
10893WAT    EPW44280   1.936   2.739   6.396
10894WAT      O44281   1.665   1.956   5.654
10894WAT     H144282   1.731   1.905   5.677
10894WAT     H244283   1.596   1.903   5.656
10894WAT    EPW44284   1.664   1.941   5.658
10895WAT      O44285   2.092   2.604   5.822
10895WAT     H144286   2.117   2.522   5.840
10895WAT     H244287   2.167   2.646   5.807
10895WAT    EPW44288   2.106   2.598   5.823
10896WAT      O44289   2.167   2.528   5.432
10896WAT     H144290   2.192   2.459   5.480
10896WAT     H244291   2.191   2.506   5.351
10896WAT    EPW44292   2.174   2.515   5.427
10897WAT      O44293   2.245   2.000   6.622
10897WAT     H144294   2.159   1.993   6.607
10897WAT     H244295   2.250   2.052   6.691
10897WAT    EPW44296   2.233   2.007   6.630
10898WAT      O44297   1.748   1.475   5.541
10898WAT     H144298   1.713   1.532   5.485
10898WAT     H244299   1.832   1.470   5.515
10898WAT    EPW44300   1.755   1.483   5.529
10899WAT      O44301   2.709   1.229   6.491
10899WAT     H144302   2.689   1.299   6.442
10899WAT     H244303   2.635   1.210   6.532
10899WAT    EPW44304   2.695   1.236   6.490
10900WAT      O44305   2.053   1.393   5.741
10900WAT     H144306   2.064   1.475   5.768
10900WAT     H244307   2.033   1.402   5.657
10900WAT    EPW44308   2.052   1.407   5.733
10901WAT      O44309   2.474   1.633   4.958
10901WAT     H144310   2.424   1.693   4.995
10901WAT     H244311   2.490   1.577   5.023
10901WAT    EPW44312   2.469   1.633   4.973
10902WAT      O44313   1.318   1.909   5.923
10902WAT     H144314   1.321   1.996   5.933
10902WAT     H244315   1.251   1.885   5.972
10902WAT    EPW44316   1.309   1.919   5.931
10903WAT      O44317   1.310   2.853   5.740
10903WAT     H144318   1.245   2.903   5.709
10903WAT     H244319   1.349   2.824   5.668
10903WAT    EPW44320   1.306   2.856   5.725
10904WAT      O44321   1.903   2.598   5.413
10904WAT     H144322   1.879   2.609   5.496
10904WAT     H244323   1.987   2.575   5.419
10904WAT    EPW44324   1.912   2.596   5.426
10905WAT      O44325   2.540   2.945   5.233
10905WAT     H144326   2.617   2.987   5.233
10905WAT     H244327   2.562   2.862   5.244
10905WAT    EPW44328   2.555   2.939   5.234
10906WAT      O44329   2.325   2.943   5.408
10906WAT     H144330   2.334   3.003   5.471
10906WAT     H244331   2.395   2.957   5.357
10906WAT    EPW44332   2.337   2.954   5.410
10907WAT      O44333   1.618   1.428   5.970
10907WAT     H144334   1.574   1.360   5.937
10907WAT     H244335   1.672   1.392   6.027
10907WAT    EPW44336   1.619   1.413   5.973
10908WAT      O44337   1.908   1.609   6.869
10908WAT     H144338   1.913   1.570   6.792
10908WAT     H244339   1.951   1.684   6.857
10908WAT    EPW44340   1.915   1.614   6.856
10909WAT      O44341   1.441   2.787   5.497
10909WAT     H144342   1.480   2.710   5.506
10909WAT     H244343   1.501   2.837   5.459
10909WAT    EPW44344   1.456   2.783   5.493
10910WAT      O44345   3.051   1.584   5.655
10910WAT     H144346   3.007   1.659   5.665
10910WAT     H244347   2.988   1.525   5.642
10910WAT    EPW44348   3.035   1.587   5.655
10911WAT      O44349   2.523   2.917   6.231
10911WAT     H144350   2.593   2.970   6.232
10911WAT     H244351   2.517   2.894   6.147
10911WAT    EPW44352   2.533   2.921   6.219
10912WAT      O44353   1.490   1.514   6.789
10912WAT     H144354   1.410   1.484   6.773
10912WAT     H244355   1.539   1.480   6.725
10912WAT    EPW44356   1.486   1.505   6.777
10913WAT      O44357   1.598   2.591   5.874
10913WAT     H144358   1.636   2.554   5.804
10913WAT     H244359   1.625   2.541   5.940
10913WAT    EPW44360   1.607   2.578   5.873
10914WAT      O44361   1.863   2.913   5.790
10914WAT     H144362   1.942   2.932   5.758
10914WAT     H244363   1.810   2.964   5.742
10914WAT    EPW44364   1.867   2.924   5.778
10915WAT      O44365   2.095   1.329   6.750
10915WAT     H144366   2.118   1.260   6.702
10915WAT     H244367   2.032   1.366   6.703
10915WAT    EPW44368   2.089   1.324   6.736
10916WAT      O44369   2.212   1.856   5.586
10916WAT     H144370   2.237   1.811   5.516
10916WAT     H244371   2.286   1.869   5.630
10916WAT    EPW44372   2.227   1.851   5.582
10917WAT      O44373   2.305   1.814   5.088
10917WAT     H144374   2.328   1.893   5.117
10917WAT     H244375   2.228   1.828   5.049
10917WAT    EPW44376   2.297   1.828   5.087
10918WAT      O44377   2.787   3.082   5.211
10918WAT     H144378   2.817   3.042   5.139
10918WAT     H244379   2.853   3.073   5.268
10918WAT    EPW44380   2.801   3.074   5.209
10919WAT      O44381   1.773   2.964   6.354
10919WAT     H144382   1.784   2.972   6.440
10919WAT     H244383   1.696   2.922   6.347
10919WAT    EPW44384   1.763   2.959   6.365
10920WAT      O44385   2.961   1.548   6.086
10920WAT     H144386   3.028   1.543   6.030
10920WAT     H244387   2.980   1.488   6.146
10920WAT    EPW44388   2.974   1.538   6.086
10921WAT      O44389   1.227   1.641   6.532
10921WAT     H144390   1.227   1.715   6.578
10921WAT     H244391   1.283   1.657   6.467
10921WAT    EPW44392   1.235   1.654   6.529
10922WAT      O44393   2.420   2.715   6.604
10922WAT     H144394   2.414   2.733   6.689
10922WAT     H244395   2.506   2.703   6.591
10922WAT    EPW44396   2.432   2.716   6.615
10923WAT      O44397   2.189   2.747   5.044
10923WAT     H144398   2.153   2.800   5.104
10923WAT     H244399   2.263   2.787   5.023
10923WAT    EPW44400   2.194   2.761   5.050
10924WAT      O44401   2.504   1.452   5.167
10924WAT     H144402   2.558   1.383   5.171
10924WAT     H244403   2.525   1.498   5.238
10924WAT    EPW44404   2.515   1.448   5.178
10925WAT      O44405   1.362   1.556   5.457
10925WAT     H144406   1.340   1.474   5.440
10925WAT     H244407   1.315   1.575   5.528
10925WAT    EPW44408   1.352   1.547   5.465
10926WAT      O44409   1.518   2.852   6.250
10926WAT     H144410   1.460   2.787   6.249
10926WAT     H244411   1.554   2.849   6.171
10926WAT    EPW44412   1.515   2.842   6.238
10927WAT      O44413   2.279   1.716   5.350
10927WAT     H144414   2.214   1.660   5.338
10927WAT     H244415   2.291   1.752   5.272
10927WAT    EPW44416   2.271   1.713   5.337
10928WAT      O44417   2.277   2.974   6.332
10928WAT     H144418   2.355   2.959   6.295
10928WAT     H244419   2.222   2.974   6.264
10928WAT    EPW44420   2.280   2.972   6.316
10929WAT      O44421   2.265   1.397   5.301
10929WAT     H144422   2.202   1.375   5.244
10929WAT     H244423   2.334   1.412   5.250
10929WAT    EPW44424   2.266   1.396   5.285
10930WAT      O44425   2.991   3.007   5.619
10930WAT     H144426   2.960   3.085   5.642
10930WAT     H244427   2.920   2.956   5.615
10930WAT    EPW44428   2.976   3.011   5.622
10931WAT      O44429   2.098   1.673   5.770
10931WAT     H144430   2.124   1.736   5.716
10931WAT     H244431   2.106   1.710   5.849
10931WAT    EPW44432   2.103   1.688   5.774
10932WAT      O44433   2.734   2.586   5.686
10932WAT     H144434   2.792   2.524   5.668
10932WAT     H244435   2.657   2.546   5.677
10932WAT    EPW44436   2.731   2.571   5.682
10933WAT      O44437   1.680   2.685   6.534
10933WAT     H144438   1.758   2.710   6.503
10933WAT     H244439   1.669   2.734   6.605
10933WAT    EPW44440   1.690   2.696   6.540
10934WAT      O44441   1.691   1.213   5.610
10934WAT     H144442   1.707   1.296   5.591
10934WAT     H244443   1.663   1.180   5.534
10934WAT    EPW44444   1.689   1.220   5.596
10935WAT      O44445   1.885   2.270   5.939
10935WAT     H144446   1.908   2.252   6.021
10935WAT     H244447   1.826   2.208   5.920
10935WAT    EPW44448   1.879   2.258   5.949
10936WAT      O44449   2.449   1.647   6.335
10936WAT     H144450   2.447   1.692   6.410
10936WAT     H244451   2.382   1.591   6.343
10936WAT    EPW44452   2.439   1.646   6.348
10937WAT      O44453   1.974   2.264   6.201
10937WAT     H144454   1.963   2.350   6.211
10937WAT     H244455   1.943   2.231   6.276
10937WAT    EPW44456   1.968   2.272   6.214
10938WAT      O44457   2.588   2.356   6.212
10938WAT     H144458   2.512   2.329   6.245
10938WAT     H244459   2.583   2.443   6.218
10938WAT    EPW44460   2.576   2.365   6.218
10939WAT      O44461   2.621   1.255   5.641
10939WAT     H144462   2.623   1.238   5.727
10939WAT     H244463   2.653   1.182   5.605
10939WAT    EPW44464   2.626   1.242   5.648
10940WAT      O44465   1.214   2.659   6.822
10940WAT     H144466   1.274   2.702   6.868
10940WAT     H244467   1.218   2.578   6.854
10940WAT    EPW44468   1.223   2.653   6.834
10941WAT      O44469   2.832   1.690   6.430
10941WAT     H144470   2.915   1.675   6.452
10941WAT     H244471   2.789   1.683   6.506
10941WAT    EPW44472   2.838   1.687   6.444
10942WAT      O44473   1.618   1.601   5.757
10942WAT     H144474   1.650   1.550   5.694
10942WAT     H244475   1.616   1.549   5.827
10942WAT    EPW44476   1.623   1.586   5.758
10943WAT      O44477   2.910   2.387   5.214
10943WAT     H144478   2.906   2.332   5.282
10943WAT     H244479   2.996   2.394   5.198
10943WAT    EPW44480   2.922   2.380   5.222
10944WAT      O44481   1.667   2.394   5.674
10944WAT     H144482   1.727   2.364   5.618
10944WAT     H244483   1.613   2.326   5.683
10944WAT    EPW44484   1.668   2.379   5.667
10945WAT      O44485   1.504   3.021   5.832
10945WAT     H144486   1.437   2.975   5.802
10945WAT     H244487   1.555   3.032   5.762
10945WAT    EPW44488   1.502   3.016   5.818
10946WAT      O44489   1.479   1.733   6.063
10946WAT     H144490   1.563   1.755   6.052
10946WAT     H244491   1.435   1.794   6.019
10946WAT    EPW44492   1.485   1.745   6.055
10947WAT      O44493   3.132   2.792   6.558
10947WAT     H144494   3.056   2.797   6.516
10947WAT     H244495   3.112   2.751   6.632
10947WAT    EPW44496   3.118   2.787   6.563
10948WAT      O44497   2.696   2.067   5.080
10948WAT     H144498   2.701   2.152   5.062
10948WAT     H244499   2.669   2.065   5.163
10948WAT    EPW44500   2.693   2.079   5.090
10949WAT      O44501   1.806   2.326   5.434
10949WAT     H144502   1.833   2.406   5.414
10949WAT     H244503   1.870   2.275   5.406
10949WAT    EPW44504   1.820   2.330   5.427
10950WAT      O44505   2.929   1.563   5.038
10950WAT     H144506   2.904   1.495   4.990
10950WAT     H244507   2.938   1.628   4.981
10950WAT    EPW44508   2.926   1.562   5.023
10951WAT      O44509   1.339   2.479   5.875
10951WAT     H144510   1.285   2.543   5.900
10951WAT     H244511   1.416   2.519   5.869
10951WAT    EPW44512   1.342   2.494   5.878
10952WAT      O44513   2.047   1.852   6.858
10952WAT     H144514   1.999   1.884   6.924
10952WAT     H244515   2.022   1.901   6.790
10952WAT    EPW44516   2.036   1.864   6.857
10953WAT      O44517   3.143   1.929   6.317
10953WAT     H144518   3.202   1.866   6.321
10953WAT     H244519   3.090   1.904   6.253
10953WAT    EPW44520   3.144   1.916   6.308
10954WAT      O44521   1.368   2.163   5.420
10954WAT     H144522   1.352   2.077   5.421
10954WAT     H244523   1.441   2.169   5.372
10954WAT    EPW44524   1.377   2.151   5.413
10955WAT      O44525   2.869   1.436   5.294
10955WAT     H144526   2.945   1.395   5.307
10955WAT     H244527   2.884   1.484   5.223
10955WAT    EPW44528   2.882   1.437   5.285
10956WAT      O44529   2.308   2.769   5.759
10956WAT     H144530   2.255   2.833   5.733
10956WAT     H244531   2.343   2.740   5.685
10956WAT    EPW44532   2.306   2.774   5.744
10957WAT      O44533   1.257   2.640   5.341
10957WAT     H144534   1.314   2.692   5.382
10957WAT     H244535   1.252   2.570   5.394
10957WAT    EPW44536   1.265   2.637   5.355
10958WAT      O44537   1.697   2.427   6.070
10958WAT     H144538   1.752   2.468   6.123
10958WAT     H244539   1.749   2.381   6.017
10958WAT    EPW44540   1.713   2.426   6.070
10959WAT      O44541   2.592   1.680   5.769
10959WAT     H144542   2.624   1.649   5.844
10959WAT     H244543   2.523   1.630   5.753
10959WAT    EPW44544   2.587   1.668   5.778
10960WAT      O44545   1.262   2.462   5.120
10960WAT     H144546   1.336   2.416   5.117
10960WAT     H244547   1.276   2.521   5.182
10960WAT    EPW44548   1.275   2.464   5.129
10961WAT      O44549   1.354   2.206   5.904
10961WAT     H144550   1.401   2.188   5.834
10961WAT     H244551   1.346   2.293   5.902
10961WAT    EPW44552   1.360   2.216   5.894
10962WAT      O44553   2.014   1.627   5.260
10962WAT     H144554   1.996   1.601   5.179
10962WAT     H244555   1.990   1.711   5.260
10962WAT    EPW44556   2.008   1.636   5.248
10963WAT      O44557   2.882   2.806   6.418
10963WAT     H144558   2.842   2.880   6.441
10963WAT     H244559   2.879   2.807   6.331
10963WAT    EPW44560   2.875   2.817   6.409
10964WAT      O44561   1.860   2.660   5.674
10964WAT     H144562   1.846   2.738   5.709
10964WAT     H244563   1.929   2.629   5.719
10964WAT    EPW44564   1.868   2.667   5.686
10965WAT      O44565   1.588   1.979   6.720
10965WAT     H144566   1.549   1.916   6.765
10965WAT     H244567   1.588   1.949   6.638
10965WAT    EPW44568   1.582   1.966   6.714
10966WAT      O44569   1.650   1.897   5.235
10966WAT     H144570   1.634   1.837   5.295
10966WAT     H244571   1.605   1.869   5.165
10966WAT    EPW44572   1.641   1.884   5.233
10967WAT      O44573   1.690   2.081   5.904
10967WAT     H144574   1.682   2.048   5.823
10967WAT     H244575   1.704   2.011   5.953
10967WAT    EPW44576   1.691   2.066   5.899
10968WAT      O44577   1.665   2.039   6.258
10968WAT     H144578   1.690   1.989   6.191
10968WAT     H244579   1.613   2.099   6.221
10968WAT    EPW44580   1.661   2.041   6.242
10969WAT      O44581   2.735   1.864   6.038
10969WAT     H144582   2.667   1.888   6.087
10969WAT     H244583   2.728   1.915   5.967
10969WAT    EPW44584   2.724   1.875   6.035
10970WAT      O44585   2.067   2.970   6.157
10970WAT     H144586   2.036   2.897   6.119
10970WAT     H244587   2.053   3.032   6.097
10970WAT    EPW44588   2.060   2.968   6.143
10971WAT      O44589   2.275   1.437   6.407
10971WAT     H144590   2.295   1.356   6.381
10971WAT     H244591   2.299   1.438   6.491
10971WAT    EPW44592   2.282   1.425   6.416
10972WAT      O44593   2.530   1.598   5.397
10972WAT     H144594   2.589   1.662   5.404
10972WAT     H244595   2.454   1.641   5.392
10972WAT    EPW44596   2.528   1.614   5.397
10973WAT      O44597   1.481   2.219   6.814
10973WAT     H144598   1.472   2.267   6.742
10973WAT     H244599   1.521   2.147   6.785
10973WAT    EPW44600   1.486   2.215   6.799
10974WAT      O44601   2.623   2.411   6.653
10974WAT     H144602   2.651   2.490   6.630
10974WAT     H244603   2.655   2.358   6.592
10974WAT    EPW44604   2.632   2.415   6.641
10975WAT      O44605   2.041   2.742   6.683
10975WAT     H144606   2.073   2.733   6.764
10975WAT     H244607   2.013   2.661   6.664
10975WAT    EPW44608   2.041   2.729   6.693
10976WAT      O44609   2.116   1.766   6.029
10976WAT     H144610   2.183   1.822   6.028
10976WAT     H244611   2.154   1.691   6.055
10976WAT    EPW44612   2.132   1.763   6.033
10977WAT      O44613   2.375   2.051   5.217
10977WAT     H144614   2.354   2.106   5.152
10977WAT     H244615   2.320   2.071   5.281
10977WAT    EPW44616   2.364   2.062   5.217
10978WAT      O44617   2.905   2.368   5.644
10978WAT     H144618   2.906   2.320   5.717
10978WAT     H244619   2.881   2.311   5.583
10978WAT    EPW44620   2.901   2.352   5.646
10979WAT      O44621   2.495   2.793   5.976
10979WAT     H144622   2.433   2.782   5.915
10979WAT     H244623   2.549   2.851   5.939
10979WAT    EPW44624   2.494   2.800   5.962
10980WAT      O44625   2.492   2.432   5.959
10980WAT     H144626   2.417   2.467   5.986
10980WAT     H244627   2.519   2.385   6.028
10980WAT    EPW44628   2.485   2.430   5.973
10981WAT      O44629   1.934   2.886   5.438
10981WAT     H144630   1.932   2.798   5.444
10981WAT     H244631   1.984   2.901   5.369
10981WAT    EPW44632   1.941   2.875   5.429
10982WAT      O44633   1.778   1.287   5.199
10982WAT     H144634   1.729   1.251   5.261
10982WAT     H244635   1.738   1.363   5.184
10982WAT    EPW44636   1.765   1.293   5.206
10983WAT      O44637   2.112   2.931   5.236
10983WAT     H144638   2.182   2.934   5.289
10983WAT     H244639   2.114   3.009   5.196
10983WAT    EPW44640   2.123   2.943   5.238
10984WAT      O44641   2.711   2.260   6.439
10984WAT     H144642   2.677   2.297   6.368
10984WAT     H244643   2.797   2.276   6.431
10984WAT    EPW44644   2.719   2.268   6.428
10985WAT      O44645   2.408   2.843   6.862
10985WAT     H144646   2.442   2.861   6.940
10985WAT     H244647   2.434   2.910   6.812
10985WAT    EPW44648   2.417   2.856   6.866
10986WAT      O44649   2.841   1.364   6.693
10986WAT     H144650   2.804   1.318   6.629
10986WAT     H244651   2.844   1.308   6.760
10986WAT    EPW44652   2.836   1.349   6.694
10987WAT      O44653   1.612   2.176   5.291
10987WAT     H144654   1.633   2.091   5.289
10987WAT     H244655   1.672   2.210   5.344
10987WAT    EPW44656   1.624   2.168   5.298
10988WAT      O44657   2.351   2.273   6.324
10988WAT     H144658   2.299   2.311   6.383
10988WAT     H244659   2.380   2.202   6.366
10988WAT    EPW44660   2.348   2.268   6.339
10989WAT      O44661   1.266   1.290   5.408
10989WAT     H144662   1.259   1.236   5.340
10989WAT     H244663   1.231   1.246   5.474
10989WAT    EPW44664   1.260   1.276   5.407
10990WAT      O44665   2.221   2.099   5.443
10990WAT     H144666   2.237   2.165   5.498
10990WAT     H244667   2.210   2.030   5.496
10990WAT    EPW44668   2.222   2.099   5.459
10991WAT      O44669   2.752   2.567   5.973
10991WAT     H144670   2.762   2.585   5.888
10991WAT     H244671   2.671   2.535   5.977
10991WAT    EPW44672   2.742   2.565   5.961
10992WAT      O44673   1.674   1.533   5.128
10992WAT     H144674   1.612   1.531   5.066
10992WAT     H244675   1.743   1.565   5.086
10992WAT    EPW44676   1.675   1.537   5.112
10993WAT      O44677   2.142   2.329   5.852
10993WAT     H144678   2.058   2.308   5.865
10993WAT     H244679   2.183   2.296   5.922
10993WAT    EPW44680   2.136   2.321   5.864
10994WAT      O44681   1.791   2.945   5.018
10994WAT     H144682   1.811   2.872   5.061
10994WAT     H244683   1.808   3.008   5.076
10994WAT    EPW44684   1.797   2.944   5.033
10995WAT      O44685   1.505   2.236   6.143
10995WAT     H144686   1.559   2.301   6.125
10995WAT     H244687   1.466   2.220   6.067
10995WAT    EPW44688   1.507   2.243   6.129
10996WAT      O44689   1.829   1.773   5.792
10996WAT     H144690   1.906   1.734   5.780
10996WAT     H244691   1.771   1.709   5.780
10996WAT    EPW44692   1.832   1.758   5.788
10997WAT      O44693   3.112   2.883   5.166
10997WAT     H144694   3.136   2.819   5.111
10997WAT     H244695   3.052   2.845   5.217
10997WAT    EPW44696   3.107   2.868   5.165
10998WAT      O44697   1.325   1.888   5.440
10998WAT     H144698   1.355   1.849   5.512
10998WAT     H244699   1.329   1.826   5.379
10998WAT    EPW44700   1.330   1.873   5.441
10999WAT      O44701   2.826   2.197   6.139
10999WAT     H144702   2.831   2.128   6.192
10999WAT     H244703   2.747   2.230   6.154
10999WAT    EPW44704   2.815   2.192   6.149
11000WAT      O44705   1.809   2.062   5.002
11000WAT     H144706   1.769   2.030   5.073
11000WAT     H244707   1.754   2.042   4.937
11000WAT    EPW44708   1.795   2.054   5.003
11001WAT      O44709   1.452   2.354   6.574
11001WAT     H144710   1.417   2.306   6.511
11001WAT     H244711   1.429   2.435   6.554
11001WAT    EPW44712   1.444   2.359   6.562
11002WAT      O44713   2.935   2.212   5.876
11002WAT     H144714   2.907   2.210   5.959
11002WAT     H244715   3.021   2.204   5.884
11002WAT    EPW44716   2.943   2.210   5.890
11003WAT      O44717   1.927   1.890   5.237
11003WAT     H144718   1.946   1.968   5.271
11003WAT     H244719   1.840   1.886   5.244
11003WAT    EPW44720   1.917   1.901   5.243
11004WAT      O44721   2.713   1.619   6.680
11004WAT     H144722   2.639   1.621   6.727
11004WAT     H244723   2.741   1.537   6.688
11004WAT    EPW44724   2.706   1.607   6.688
11005WAT      O44725   1.296   1.522   5.936
11005WAT     H144726   1.280   1.548   5.855
11005WAT     H244727   1.371   1.562   5.957
11005WAT    EPW44728   1.305   1.532   5.927
11006WAT      O44729   3.107   2.737   5.945
11006WAT     H144730   3.128   2.785   5.875
11006WAT     H244731   3.170   2.754   6.002
11006WAT    EPW44732   3.119   2.746   5.943
11007WAT      O44733   2.560   1.979   6.766
11007WAT     H144734   2.598   1.989   6.844
11007WAT     H244735   2.486   2.026   6.773
11007WAT    EPW44736   2.554   1.987   6.778
11008WAT      O44737   2.796   2.015   6.614
11008WAT     H144738   2.817   2.097   6.635
11008WAT     H244739   2.722   2.001   6.658
11008WAT    EPW44740   2.788   2.025   6.624
11009WAT      O44741   2.795   2.633   5.155
11009WAT     H144742   2.826   2.554   5.179
11009WAT     H244743   2.714   2.634   5.188
11009WAT    EPW44744   2.788   2.621   5.163
11010WAT      O44745   2.835   1.774   5.668
11010WAT     H144746   2.768   1.728   5.699
11010WAT     H244747   2.828   1.850   5.710
11010WAT    EPW44748   2.824   1.778   5.679
11011WAT      O44749   3.108   2.100   6.793
11011WAT     H144750   3.112   2.045   6.725
11011WAT     H244751   3.187   2.136   6.795
11011WAT    EPW44752   3.120   2.097   6.783
11012WAT      O44753   2.979   2.342   6.419
11012WAT     H144754   3.044   2.292   6.389
11012WAT     H244755   2.971   2.404   6.359
11012WAT    EPW44756   2.988   2.344   6.406
11013WAT      O44757   2.486   2.474   5.046
11013WAT     H144758   2.562   2.431   5.044
11013WAT     H244759   2.455   2.466   4.965
11013WAT    EPW44760   2.493   2.467   5.034
11014WAT      O44761   1.925   2.543   6.193
11014WAT     H144762   1.920   2.591   6.266
11014WAT     H244763   1.932   2.602   6.130
11014WAT    EPW44764   1.925   2.559   6.194
11015WAT      O44765   1.720   2.407   6.516
11015WAT     H144766   1.641   2.378   6.539
11015WAT     H244767   1.710   2.493   6.511
11015WAT    EPW44768   1.707   2.415   6.518
11016WAT      O44769   2.671   1.475   6.344
11016WAT     H144770   2.730   1.538   6.359
11016WAT     H244771   2.596   1.519   6.336
11016WAT    EPW44772   2.668   1.491   6.345
11017WAT      O44773   2.220   2.195   6.091
11017WAT     H144774   2.270   2.222   6.157
11017WAT     H244775   2.139   2.203   6.123
11017WAT    EPW44776   2.215   2.200   6.106
11018WAT      O44777   1.852   1.750   6.500
11018WAT     H144778   1.871   1.670   6.529
11018WAT     H244779   1.884   1.751   6.419
11018WAT    EPW44780   1.860   1.739   6.493
11019WAT      O44781   2.108   2.957   5.665
11019WAT     H144782   2.120   3.043   5.668
11019WAT     H244783   2.066   2.945   5.589
11019WAT    EPW44784   2.104   2.968   5.654
11020WAT      O44785   2.752   1.276   6.164
11020WAT     H144786   2.720   1.347   6.202
11020WAT     H244787   2.836   1.276   6.188
11020WAT    EPW44788   2.760   1.287   6.173
11021WAT      O44789   2.005   1.372   6.382
11021WAT     H144790   2.088   1.399   6.378
11021WAT     H244791   2.012   1.285   6.377
11021WAT    EPW44792   2.019   1.363   6.381
11022WAT      O44793   1.958   2.754   6.013
11022WAT     H144794   1.904   2.799   5.962
11022WAT     H244795   2.007   2.710   5.956
11022WAT    EPW44796   1.957   2.754   5.997
11023WAT      O44797   2.357   2.398   6.722
11023WAT     H144798   2.438   2.404   6.690
11023WAT     H244799   2.306   2.417   6.653
11023WAT    EPW44800   2.361   2.402   6.707
11024WAT      O44801   2.698   2.671   6.585
11024WAT     H144802   2.737   2.695   6.659
11024WAT     H244803   2.752   2.700   6.523
11024WAT    EPW44804   2.712   2.679   6.587
11025WAT      O44805   2.946   1.952   5.045
11025WAT     H144806   2.996   2.016   5.013
11025WAT     H244807   2.868   1.989   5.054
11025WAT    EPW44808   2.942   1.967   5.041
11026WAT      O44809   2.024   2.232   5.052
11026WAT     H144810   1.961   2.179   5.024
11026WAT     H244811   1.990   2.311   5.045
11026WAT    EPW44812   2.010   2.236   5.047
11027WAT      O44813   1.740   1.848   6.045
11027WAT     H144814   1.774   1.820   5.970
11027WAT     H244815   1.797   1.821   6.105
11027WAT    EPW44816   1.753   1.840   6.043
11028WAT      O44817   2.446   1.824   6.554
11028WAT     H144818   2.371   1.866   6.572
11028WAT     H244819   2.494   1.835   6.626
11028WAT    EPW44820   2.442   1.832   6.568
11029WAT      O44821   2.503   1.884   6.191
11029WAT     H144822   2.509   1.940   6.258
11029WAT     H244823   2.487   1.808   6.229
11029WAT    EPW44824   2.501   1.881   6.206
11030WAT      O44825   2.200   2.961   6.600
11030WAT     H144826   2.213   2.957   6.514
11030WAT     H244827   2.161   2.885   6.618
11030WAT    EPW44828   2.196   2.949   6.590
11031WAT      O44829   2.719   1.815   5.420
11031WAT     H144830   2.748   1.799   5.501
11031WAT     H244831   2.790   1.844   5.378
11031WAT    EPW44832   2.734   1.817   5.426
11032WAT      O44833   2.026   1.308   6.019
11032WAT     H144834   1.943   1.301   6.044
11032WAT     H244835   2.020   1.319   5.933
11032WAT    EPW44836   2.013   1.308   6.010
11033WAT      O44837   2.841   1.418   5.578
11033WAT     H144838   2.763   1.384   5.600
11033WAT     H244839   2.831   1.438   5.494
11033WAT    EPW44840   2.828   1.416   5.569
11034WAT      O44841   2.853   2.203   5.420
11034WAT     H144842   2.896   2.130   5.400
11034WAT     H244843   2.770   2.182   5.407
11034WAT    EPW44844   2.847   2.189   5.415
11035WAT      O44845   2.191   2.435   6.498
11035WAT     H144846   2.116   2.435   6.543
11035WAT     H244847   2.196   2.516   6.466
11035WAT    EPW44848   2.181   2.447   6.500
11036WAT      O44849   1.238   1.416   6.696
11036WAT     H144850   1.240   1.486   6.643
11036WAT     H244851   1.154   1.394   6.698
11036WAT    EPW44852   1.226   1.423   6.688
11037WAT      O44853   1.759   3.078   6.088
11037WAT     H144854   1.769   3.056   6.172
11037WAT     H244855   1.734   3.004   6.049
11037WAT    EPW44856   1.757   3.064   6.095
11038WAT      O44857   1.611   1.652   5.373
11038WAT     H144858   1.622   1.612   5.295
11038WAT     H244859   1.532   1.626   5.398
11038WAT    EPW44860   1.601   1.642   5.365
11039WAT      O44861   2.516   2.397   5.685
11039WAT     H144862   2.506   2.404   5.772
11039WAT     H244863   2.543   2.315   5.675
11039WAT    EPW44864   2.519   2.386   5.697
11040WAT      O44865   2.261   2.326   5.600
11040WAT     H144866   2.219   2.324   5.676
11040WAT     H244867   2.341   2.353   5.621
11040WAT    EPW44868   2.267   2.330   5.614
11041WAT      O44869   2.219   2.706   6.413
11041WAT     H144870   2.279   2.706   6.477
11041WAT     H244871   2.240   2.776   6.365
11041WAT    EPW44872   2.231   2.716   6.415
11042WAT      O44873   3.061   1.923   6.583
11042WAT     H144874   2.975   1.937   6.588
11042WAT     H244875   3.079   1.934   6.498
11042WAT    EPW44876   3.051   1.927   6.571
11043WAT      O44877   2.507   2.057   6.408
11043WAT     H144878   2.496   1.993   6.466
11043WAT     H244879   2.583   2.094   6.433
11043WAT    EPW44880   2.517   2.053   6.420
11044WAT      O44881   1.407   3.040   6.622
11044WAT     H144882   1.352   2.972   6.614
11044WAT     H244883   1.356   3.104   6.653
11044WAT    EPW44884   1.391   3.039   6.626
11045WAT      O44885   2.285   2.161   6.846
11045WAT     H144886   2.310   2.236   6.808
11045WAT     H244887   2.204   2.178   6.874
11045WAT    EPW44888   2.276   2.175   6.845
11046WAT      O44889   2.657   3.016   5.923
11046WAT     H144890   2.611   3.077   5.964
11046WAT     H244891   2.728   3.007   5.973
11046WAT    EPW44892   2.661   3.023   5.937
11047WAT      O44893   2.274   2.539   6.103
11047WAT     H144894   2.200   2.528   6.149
11047WAT     H244895   2.330   2.572   6.162
11047WAT    EPW44896   2.271   2.542   6.119
11048WAT      O44897   2.834   2.739   6.817
11048WAT     H144898   2.915   2.709   6.814
11048WAT     H244899   2.801   2.703   6.889
11048WAT    EPW44900   2.841   2.729   6.827
11049WAT      O44901   1.600   1.863   6.462
11049WAT     H144902   1.618   1.923   6.402
11049WAT     H244903   1.676   1.823   6.475
11049WAT    EPW44904   1.614   1.866   6.455
11050WAT      O44905   1.409   1.712   6.328
11050WAT     H144906   1.429   1.718   6.243
11050WAT     H244907   1.472   1.759   6.367
11050WAT    EPW44908   1.421   1.720   6.321
11051WAT      O44909   2.945   1.955   5.328
11051WAT     H144910   2.963   1.949   5.243
11051WAT     H244911   3.020   1.935   5.366
11051WAT    EPW44912   2.958   1.951   5.321
11052WAT      O44913   1.641   1.396   6.587
11052WAT     H144914   1.641   1.310   6.572
11052WAT     H244915   1.617   1.431   6.511
11052WAT    EPW44916   1.637   1.389   6.574
11053WAT      O44917   2.382   2.689   5.497
11053WAT     H144918   2.360   2.769   5.470
11053WAT     H244919   2.311   2.642   5.480
11053WAT    EPW44920   2.368   2.694   5.491
11054WAT      O44921   2.819   1.975   6.333
11054WAT     H144922   2.819   1.888   6.336
11054WAT     H244923   2.807   1.999   6.416
11054WAT    EPW44924   2.817   1.966   6.346
11055WAT      O44925   1.336   2.217   6.364
11055WAT     H144926   1.384   2.232   6.293
11055WAT     H244927   1.316   2.132   6.357
11055WAT    EPW44928   1.340   2.207   6.352
11056WAT      O44929   1.498   1.803   5.016
11056WAT     H144930   1.426   1.799   5.065
11056WAT     H244931   1.501   1.725   4.978
11056WAT    EPW44932   1.488   1.791   5.018
11057WAT      O44933   2.345   1.439   6.676
11057WAT     H144934   2.380   1.501   6.726
11057WAT     H244935   2.270   1.420   6.717
11057WAT    EPW44936   2.339   1.445   6.690
11058WAT      O44937   2.354   1.538   5.759
11058WAT     H144938   2.275   1.574   5.762
11058WAT     H244939   2.345   1.475   5.698
11058WAT    EPW44940   2.341   1.534   5.750
11059WAT      O44941   1.815   2.699   5.163
11059WAT     H144942   1.853   2.674   5.237
11059WAT     H244943   1.730   2.680   5.176
11059WAT    EPW44944   1.808   2.693   5.176
11060WAT      O44945   2.690   1.592   6.013
11060WAT     H144946   2.769   1.559   6.029
11060WAT     H244947   2.699   1.676   6.034
11060WAT    EPW44948   2.703   1.599   6.019
11061WAT      O44949   1.847   2.167   6.430
11061WAT     H144950   1.806   2.239   6.457
11061WAT     H244951   1.788   2.128   6.380
11061WAT    EPW44952   1.832   2.172   6.427
11062WAT      O44953   2.765   2.010   5.799
11062WAT     H144954   2.823   2.071   5.820
11062WAT     H244955   2.708   2.052   5.748
11062WAT    EPW44956   2.765   2.025   5.794
11063WAT      O44957   2.767   2.845   5.569
11063WAT     H144958   2.752   2.769   5.608
11063WAT     H244959   2.806   2.822   5.494
11063WAT    EPW44960   2.771   2.831   5.564
11064WAT      O44961   1.558   2.603   5.210
11064WAT     H144962   1.552   2.580   5.294
11064WAT     H244963   1.572   2.527   5.169
11064WAT    EPW44964   1.559   2.588   5.217
11065WAT      O44965   1.866   2.462   5.017
11065WAT     H144966   1.787   2.427   5.030
11065WAT     H244967   1.861   2.539   5.057
11065WAT    EPW44968   1.853   2.468   5.025
11066WAT      O44969   1.817   1.517   6.230
11066WAT     H144970   1.737   1.496   6.258
11066WAT     H244971   1.868   1.459   6.270
11066WAT    EPW44972   1.813   1.505   6.240
11067WAT      O44973   3.004   1.351   6.282
11067WAT     H144974   2.988   1.384   6.361
11067WAT     H244975   3.085   1.318   6.290
11067WAT    EPW44976   3.014   1.351   6.295
11068WAT      O44977   2.205   1.514   6.088
11068WAT     H144978   2.150   1.447   6.075
11068WAT     H244979   2.284   1.478   6.077
11068WAT    EPW44980   2.209   1.499   6.085
11069WAT      O44981   2.527   2.630   6.207
11069WAT     H144982   2.539   2.698   6.259
11069WAT     H244983   2.525   2.665   6.127
11069WAT    EPW44984   2.528   2.645   6.203
11070WAT      O44985   2.475   3.028   6.657
11070WAT     H144986   2.406   2.985   6.625
11070WAT     H244987   2.446   3.110   6.664
11070WAT    EPW44988   2.460   3.034   6.653
11071WAT      O44989   1.968   1.978   6.610
11071WAT     H144990   1.932   1.906   6.575
11071WAT     H244991   1.933   2.043   6.564
11071WAT    EPW44992   1.957   1.977   6.598
11072WAT      O44993   2.054   1.306   5.143
11072WAT     H144994   2.059   1.317   5.056
11072WAT     H244995   1.969   1.310   5.159
11072WAT    EPW44996   2.043   1.308   5.133
11073WAT      O44997   2.958   2.450   6.152
11073WAT     H144998   2.929   2.368   6.147
11073WAT     H244999   2.905   2.494   6.099
11073WAT    EPW45000   2.946   2.444   6.143
11074WAT      O45001   1.854   2.946   6.630
11074WAT     H145002   1.836   2.964   6.713
11074WAT     H245003   1.913   2.882   6.635
11074WAT    EPW45004   1.860   2.939   6.643
11075WAT      O45005   2.869   2.787   6.118
11075WAT     H145006   2.943   2.782   6.073
11075WAT     H245007   2.819   2.725   6.082
11075WAT    EPW45008   2.872   2.777   6.106
11076WAT      O45009   1.560   1.476   6.338
11076WAT     H145010   1.509   1.407   6.321
11076WAT     H245011   1.506   1.544   6.328
11076WAT    EPW45012   1.545   1.476   6.334
11077WAT      O45013   2.457   1.430   5.995
11077WAT     H145014   2.524   1.482   6.014
11077WAT     H245015   2.425   1.465   5.921
11077WAT    EPW45016   2.462   1.443   5.987
11078WAT      O45017   1.575   2.844   6.752
11078WAT     H145018   1.639   2.881   6.797
11078WAT     H245019   1.533   2.911   6.716
11078WAT    EPW45020   1.578   2.859   6.753
11079WAT      O45021   2.433   1.911   5.743
11079WAT     H145022   2.488   1.844   5.756
11079WAT     H245023   2.400   1.926   5.823
11079WAT    EPW45024   2.436   1.903   5.757
11080WAT      O45025   1.437   1.805   5.685
11080WAT     H145026   1.394   1.830   5.756
11080WAT     H245027   1.476   1.731   5.710
11080WAT    EPW45028   1.436   1.798   5.699
11081WAT      O45029   1.414   2.615   6.483
11081WAT     H145030   1.364   2.679   6.517
11081WAT     H245031   1.495   2.645   6.493
11081WAT    EPW45032   1.418   2.629   6.490
11082WAT      O45033   2.610   2.064   5.361
11082WAT     H145034   2.632   1.982   5.378
11082WAT     H245035   2.532   2.057   5.322
11082WAT    EPW45036   2.602   2.051   5.358
11083WAT      O45037   1.661   2.932   5.383
11083WAT     H145038   1.660   2.985   5.313
11083WAT     H245039   1.745   2.911   5.392
11083WAT    EPW45040   1.673   2.936   5.374
11084WAT      O45041   1.984   2.151   5.315
11084WAT     H145042   2.006   2.182   5.237
11084WAT     H245043   2.060   2.140   5.355
11084WAT    EPW45044   1.998   2.154   5.309
11085WAT      O45045   2.915   2.974   4.992
11085WAT     H145046   2.990   2.956   5.033
11085WAT     H245047   2.895   2.899   4.953
11085WAT    EPW45048   2.923   2.961   4.992
11086WAT      O45049   2.908   2.262   6.687
11086WAT     H145050   2.977   2.224   6.725
11086WAT     H245051   2.942   2.299   6.616
11086WAT    EPW45052   2.923   2.262   6.682
11087WAT      O45053   2.543   2.664   5.263
11087WAT     H145054   2.500   2.654   5.338
11087WAT     H245055   2.500   2.612   5.207
11087WAT    EPW45056   2.530   2.655   5.266
11088WAT      O45057   2.944   1.712   6.799
11088WAT     H145058   2.934   1.791   6.834
11088WAT     H245059   2.866   1.695   6.764
11088WAT    EPW45060   2.931   1.721   6.799
11089WAT      O45061   3.005   1.829   6.095
11089WAT     H145062   2.922   1.852   6.083
11089WAT     H245063   3.002   1.741   6.096
11089WAT    EPW45064   2.993   1.819   6.094
11090WAT      O45065   1.900   1.486   6.609
11090WAT     H145066   1.935   1.453   6.536
11090WAT     H245067   1.819   1.456   6.607
11090WAT    EPW45068   1.893   1.476   6.598
11091WAT      O45069   2.674   2.315   6.914
11091WAT     H145070   2.751   2.342   6.945
11091WAT     H245071   2.677   2.338   6.830
11091WAT    EPW45072   2.686   2.322   6.906
11092WAT      O45073   1.628   2.841   5.997
11092WAT     H145074   1.626   2.764   5.956
11092WAT     H245075   1.587   2.894   5.942
11092WAT    EPW45076   1.622   2.838   5.983
11093WAT      O45077   2.235   2.498   5.167
11093WAT     H145078   2.311   2.474   5.132
11093WAT     H245079   2.215   2.572   5.125
11093WAT    EPW45080   2.243   2.506   5.156
11094WAT      O45081   1.396   3.085   6.344
11094WAT     H145082   1.401   3.067   6.429
11094WAT     H245083   1.430   3.015   6.305
11094WAT    EPW45084   1.402   3.072   6.351
11095WAT      O45085   2.352   1.328   3.639
11095WAT     H145086   2.350   1.361   3.559
11095WAT     H245087   2.435   1.304   3.649
11095WAT    EPW45088   2.364   1.329   3.629
11096WAT      O45089   2.304   1.941   4.076
11096WAT     H145090   2.276   2.017   4.108
11096WAT     H245091   2.368   1.918   4.132
11096WAT    EPW45092   2.310   1.949   4.089
11097WAT      O45093   1.278   2.413   3.602
11097WAT     H145094   1.217   2.404   3.663
11097WAT     H245095   1.291   2.331   3.574
11097WAT    EPW45096   1.271   2.400   3.607
11098WAT      O45097   3.013   2.904   3.393
11098WAT     H145098   3.100   2.905   3.395
11098WAT     H245099   2.994   2.820   3.377
11098WAT    EPW45100   3.023   2.892   3.391
11099WAT      O45101   1.280   1.765   3.284
11099WAT     H145102   1.214   1.813   3.251
11099WAT     H245103   1.251   1.683   3.276
11099WAT    EPW45104   1.266   1.760   3.278
11100WAT      O45105   1.574   2.361   3.195
11100WAT     H145106   1.545   2.318   3.124
11100WAT     H245107   1.587   2.297   3.253
11100WAT    EPW45108   1.572   2.345   3.193
11101WAT      O45109   2.626   2.149   3.770
11101WAT     H145110   2.635   2.137   3.684
11101WAT     H245111   2.563   2.093   3.792
11101WAT    EPW45112   2.618   2.139   3.760
11102WAT      O45113   1.531   2.533   3.598
11102WAT     H145114   1.584   2.496   3.656
11102WAT     H245115   1.455   2.491   3.609
11102WAT    EPW45116   1.528   2.521   3.608
11103WAT      O45117   1.959   1.418   3.529
11103WAT     H145118   1.997   1.481   3.482
11103WAT     H245119   2.016   1.405   3.594
11103WAT    EPW45120   1.973   1.425   3.532
11104WAT      O45121   1.435   2.811   3.206
11104WAT     H145122   1.481   2.820   3.132
11104WAT     H245123   1.470   2.740   3.242
11104WAT    EPW45124   1.447   2.802   3.200
11105WAT      O45125   1.330   2.636   4.317
11105WAT     H145126   1.360   2.619   4.398
11105WAT     H245127   1.263   2.580   4.308
11105WAT    EPW45128   1.325   2.625   4.328
11106WAT      O45129   1.973   2.492   4.758
11106WAT     H145130   1.947   2.479   4.840
11106WAT     H245131   1.903   2.469   4.711
11106WAT    EPW45132   1.959   2.486   4.763
11107WAT      O45133   1.478   2.179   3.774
11107WAT     H145134   1.435   2.180   3.699
11107WAT     H245135   1.535   2.114   3.765
11107WAT    EPW45136   1.480   2.170   3.762
11108WAT      O45137   1.941   1.748   4.326
11108WAT     H145138   2.005   1.745   4.267
11108WAT     H245139   1.903   1.670   4.319
11108WAT    EPW45140   1.945   1.736   4.317
11109WAT      O45141   1.975   2.755   4.494
11109WAT     H145142   1.983   2.821   4.437
11109WAT     H245143   2.056   2.741   4.521
11109WAT    EPW45144   1.988   2.763   4.489
11110WAT      O45145   1.650   1.966   3.762
11110WAT     H145146   1.717   1.916   3.787
11110WAT     H245147   1.581   1.912   3.766
11110WAT    EPW45148   1.650   1.951   3.766
11111WAT      O45149   2.061   2.600   3.926
11111WAT     H145150   2.095   2.521   3.939
11111WAT     H245151   2.132   2.651   3.920
11111WAT    EPW45152   2.077   2.596   3.927
11112WAT      O45153   2.149   2.513   3.556
11112WAT     H145154   2.185   2.447   3.601
11112WAT     H245155   2.174   2.497   3.474
11112WAT    EPW45156   2.158   2.501   3.551
11113WAT      O45157   2.286   1.989   4.788
11113WAT     H145158   2.205   1.985   4.757
11113WAT     H245159   2.281   2.047   4.853
11113WAT    EPW45160   2.274   1.997   4.793
11114WAT      O45161   1.732   1.510   3.657
11114WAT     H145162   1.689   1.559   3.600
11114WAT     H245163   1.807   1.492   3.616
11114WAT    EPW45164   1.737   1.514   3.643
11115WAT      O45165   2.707   1.251   4.646
11115WAT     H145166   2.681   1.320   4.599
11115WAT     H245167   2.634   1.226   4.687
11115WAT    EPW45168   2.692   1.258   4.645
11116WAT      O45169   2.027   1.396   3.818
11116WAT     H145170   2.060   1.477   3.826
11116WAT     H245171   1.940   1.410   3.819
11116WAT    EPW45172   2.019   1.410   3.819
11117WAT      O45173   2.491   1.648   3.035
11117WAT     H145174   2.446   1.706   3.082
11117WAT     H245175   2.512   1.586   3.093
11117WAT    EPW45176   2.487   1.647   3.051
11118WAT      O45177   1.322   1.919   4.041
11118WAT     H145178   1.323   2.005   4.050
11118WAT     H245179   1.253   1.894   4.088
11118WAT    EPW45180   1.312   1.928   4.049
11119WAT      O45181   1.314   2.864   3.857
11119WAT     H145182   1.250   2.915   3.828
11119WAT     H245183   1.348   2.830   3.784
11119WAT    EPW45184   1.310   2.867   3.842
11120WAT      O45185   1.884   2.589   3.539
11120WAT     H145186   1.858   2.602   3.621
11120WAT     H245187   1.969   2.568   3.547
11120WAT    EPW45188   1.893   2.588   3.552
11121WAT      O45189   2.555   2.904   3.331
11121WAT     H145190   2.610   2.971   3.339
11121WAT     H245191   2.600   2.836   3.361
11121WAT    EPW45192   2.570   2.903   3.337
11122WAT      O45193   2.328   2.908   3.486
11122WAT     H145194   2.340   2.976   3.539
11122WAT     H245195   2.400   2.907   3.437
11122WAT    EPW45196   2.340   2.918   3.486
11123WAT      O45197   1.608   1.441   4.084
11123WAT     H145198   1.568   1.370   4.054
11123WAT     H245199   1.671   1.409   4.136
11123WAT    EPW45200   1.612   1.426   4.087
11124WAT      O45201   1.907   1.608   4.986
11124WAT     H145202   1.913   1.571   4.907
11124WAT     H245203   1.948   1.684   4.976
11124WAT    EPW45204   1.914   1.613   4.973
11125WAT      O45205   1.426   2.787   3.611
11125WAT     H145206   1.473   2.715   3.622
11125WAT     H245207   1.478   2.839   3.563
11125WAT    EPW45208   1.441   2.784   3.606
11126WAT      O45209   3.100   1.602   3.761
11126WAT     H145210   3.070   1.682   3.777
11126WAT     H245211   3.028   1.553   3.760
11126WAT    EPW45212   3.085   1.606   3.763
11127WAT      O45213   2.490   3.033   4.241
11127WAT     H145214   2.574   3.046   4.261
11127WAT     H245215   2.492   2.965   4.186
11127WAT    EPW45216   2.503   3.025   4.236
11128WAT      O45217   1.492   1.540   4.914
11128WAT     H145218   1.411   1.515   4.898
11128WAT     H245219   1.539   1.503   4.850
11128WAT    EPW45220   1.487   1.531   4.902
11129WAT      O45221   1.597   2.593   3.987
11129WAT     H145222   1.649   2.580   3.918
11129WAT     H245223   1.630   2.540   4.048
11129WAT    EPW45224   1.610   2.584   3.986
11130WAT      O45225   1.882   2.918   3.815
11130WAT     H145226   1.961   2.953   3.802
11130WAT     H245227   1.829   2.969   3.768
11130WAT    EPW45228   1.886   2.931   3.806
11131WAT      O45229   2.092   1.339   4.868
11131WAT     H145230   2.116   1.268   4.823
11131WAT     H245231   2.028   1.373   4.819
11131WAT    EPW45232   2.086   1.334   4.854
11132WAT      O45233   2.225   1.850   3.679
11132WAT     H145234   2.256   1.808   3.609
11132WAT     H245235   2.297   1.872   3.723
11132WAT    EPW45236   2.240   1.847   3.675
11133WAT      O45237   2.336   1.839   3.180
11133WAT     H145238   2.353   1.914   3.220
11133WAT     H245239   2.258   1.851   3.145
11133WAT    EPW45240   2.327   1.852   3.180
11134WAT      O45241   2.711   3.140   3.307
11134WAT     H145242   2.761   3.102   3.246
11134WAT     H245243   2.770   3.175   3.362
11134WAT    EPW45244   2.727   3.139   3.306
11135WAT      O45245   1.731   3.000   4.492
11135WAT     H145246   1.771   2.985   4.568
11135WAT     H245247   1.679   2.931   4.481
11135WAT    EPW45248   1.729   2.988   4.501
11136WAT      O45249   2.975   1.582   4.226
11136WAT     H145250   3.031   1.561   4.162
11136WAT     H245251   2.987   1.518   4.284
11136WAT    EPW45252   2.985   1.569   4.225
11137WAT      O45253   1.233   1.650   4.639
11137WAT     H145254   1.225   1.727   4.680
11137WAT     H245255   1.294   1.666   4.579
11137WAT    EPW45256   1.241   1.664   4.636
11138WAT      O45257   2.413   2.719   4.771
11138WAT     H145258   2.420   2.772   4.840
11138WAT     H245259   2.495   2.696   4.754
11138WAT    EPW45260   2.426   2.724   4.778
11139WAT      O45261   2.193   2.719   3.149
11139WAT     H145262   2.158   2.776   3.205
11139WAT     H245263   2.270   2.755   3.129
11139WAT    EPW45264   2.200   2.733   3.154
11140WAT      O45265   2.541   1.448   3.225
11140WAT     H145266   2.592   1.379   3.242
11140WAT     H245267   2.553   1.500   3.295
11140WAT    EPW45268   2.551   1.445   3.238
11141WAT      O45269   1.356   1.549   3.549
11141WAT     H145270   1.335   1.467   3.529
11141WAT     H245271   1.307   1.566   3.619
11141WAT    EPW45272   1.346   1.539   3.556
11142WAT      O45273   1.513   2.857   4.336
11142WAT     H145274   1.457   2.791   4.328
11142WAT     H245275   1.559   2.853   4.261
11142WAT    EPW45276   1.512   2.847   4.323
11143WAT      O45277   2.295   1.723   3.435
11143WAT     H145278   2.227   1.670   3.419
11143WAT     H245279   2.310   1.761   3.358
11143WAT    EPW45280   2.287   1.721   3.421
11144WAT      O45281   2.286   3.008   4.425
11144WAT     H145282   2.354   3.007   4.370
11144WAT     H245283   2.219   2.983   4.375
11144WAT    EPW45284   2.286   3.004   4.409
11145WAT      O45285   2.306   1.388   3.372
11145WAT     H145286   2.237   1.374   3.321
11145WAT     H245287   2.371   1.402   3.316
11145WAT    EPW45288   2.305   1.388   3.356
11146WAT      O45289   2.894   3.200   3.958
11146WAT     H145290   2.879   3.245   3.884
11146WAT     H245291   2.981   3.202   3.965
11146WAT    EPW45292   2.904   3.207   3.948
11147WAT      O45293   2.063   1.677   3.843
11147WAT     H145294   2.113   1.728   3.793
11147WAT     H245295   2.091   1.692   3.924
11147WAT    EPW45296   2.074   1.687   3.847
11148WAT      O45297   2.742   2.615   3.712
11148WAT     H145298   2.816   2.574   3.732
11148WAT     H245299   2.680   2.556   3.730
11148WAT    EPW45300   2.744   2.600   3.718
11149WAT      O45301   1.711   2.709   4.611
11149WAT     H145302   1.789   2.734   4.580
11149WAT     H245303   1.704   2.753   4.686
11149WAT    EPW45304   1.722   2.719   4.617
11150WAT      O45305   1.701   1.251   3.748
11150WAT     H145306   1.701   1.333   3.721
11150WAT     H245307   1.693   1.205   3.674
11150WAT    EPW45308   1.700   1.256   3.733
11151WAT      O45309   1.891   2.274   4.048
11151WAT     H145310   1.915   2.250   4.128
11151WAT     H245311   1.829   2.217   4.026
11151WAT    EPW45312   1.886   2.262   4.056
11152WAT      O45313   2.431   1.635   4.411
11152WAT     H145314   2.413   1.680   4.484
11152WAT     H245315   2.363   1.581   4.403
11152WAT    EPW45316   2.418   1.634   4.421
11153WAT      O45317   1.984   2.260   4.309
11153WAT     H145318   1.983   2.346   4.320
11153WAT     H245319   1.959   2.229   4.387
11153WAT    EPW45320   1.980   2.268   4.322
11154WAT      O45321   2.551   2.429   4.291
11154WAT     H145322   2.490   2.382   4.333
11154WAT     H245323   2.536   2.510   4.318
11154WAT    EPW45324   2.540   2.434   4.301
11155WAT      O45325   2.596   1.211   3.716
11155WAT     H145326   2.584   1.195   3.801
11155WAT     H245327   2.631   1.137   3.686
11155WAT    EPW45328   2.600   1.198   3.724
11156WAT      O45329   1.215   2.667   4.925
11156WAT     H145330   1.275   2.712   4.971
11156WAT     H245331   1.219   2.587   4.960
11156WAT    EPW45332   1.224   2.661   4.937
11157WAT      O45333   2.833   1.712   4.527
11157WAT     H145334   2.914   1.683   4.543
11157WAT     H245335   2.796   1.713   4.606
11157WAT    EPW45336   2.840   1.708   4.541
11158WAT      O45337   1.606   1.622   3.880
11158WAT     H145338   1.638   1.575   3.814
11158WAT     H245339   1.609   1.567   3.948
11158WAT    EPW45340   1.611   1.607   3.880
11159WAT      O45341   3.008   2.387   3.380
11159WAT     H145342   3.053   2.395   3.454
11159WAT     H245343   3.070   2.385   3.318
11159WAT    EPW45344   3.024   2.388   3.381
11160WAT      O45345   1.673   2.378   3.775
11160WAT     H145346   1.724   2.344   3.713
11160WAT     H245347   1.612   2.317   3.786
11160WAT    EPW45348   1.671   2.364   3.768
11161WAT      O45349   1.537   3.011   3.919
11161WAT     H145350   1.463   2.969   3.900
11161WAT     H245351   1.577   3.019   3.841
11161WAT    EPW45352   1.532   3.006   3.904
11162WAT      O45353   1.499   1.765   4.194
11162WAT     H145354   1.580   1.791   4.175
11162WAT     H245355   1.449   1.815   4.142
11162WAT    EPW45356   1.503   1.776   4.184
11163WAT      O45357   1.803   2.314   3.532
11163WAT     H145358   1.830   2.396   3.521
11163WAT     H245359   1.872   2.266   3.510
11163WAT    EPW45360   1.817   2.319   3.527
11164WAT      O45361   2.940   1.469   3.253
11164WAT     H145362   2.938   1.409   3.189
11164WAT     H245363   2.916   1.543   3.213
11164WAT    EPW45364   2.936   1.471   3.238
11165WAT      O45365   1.337   2.484   3.983
11165WAT     H145366   1.284   2.549   4.006
11165WAT     H245367   1.416   2.522   3.978
11165WAT    EPW45368   1.341   2.499   3.986
11166WAT      O45369   2.043   1.851   4.980
11166WAT     H145370   1.998   1.886   5.046
11166WAT     H245371   2.023   1.903   4.912
11166WAT    EPW45372   2.034   1.864   4.980
11167WAT      O45373   3.121   2.004   4.417
11167WAT     H145374   3.204   1.985   4.399
11167WAT     H245375   3.076   1.959   4.357
11167WAT    EPW45376   3.127   1.994   4.406
11168WAT      O45377   1.364   2.162   3.523
11168WAT     H145378   1.347   2.076   3.526
11168WAT     H245379   1.438   2.167   3.477
11168WAT    EPW45380   1.372   2.150   3.516
11169WAT      O45381   2.885   1.355   3.495
11169WAT     H145382   2.966   1.326   3.507
11169WAT     H245383   2.891   1.408   3.426
11169WAT    EPW45384   2.898   1.359   3.487
11170WAT      O45385   2.270   2.784   3.906
11170WAT     H145386   2.232   2.859   3.885
11170WAT     H245387   2.301   2.754   3.830
11170WAT    EPW45388   2.269   2.790   3.892
11171WAT      O45389   1.260   2.637   3.447
11171WAT     H145390   1.312   2.690   3.493
11171WAT     H245391   1.254   2.566   3.498
11171WAT    EPW45392   1.267   2.634   3.462
11172WAT      O45393   1.712   2.435   4.183
11172WAT     H145394   1.767   2.471   4.240
11172WAT     H245395   1.765   2.389   4.131
11172WAT    EPW45396   1.728   2.433   4.184
11173WAT      O45397   1.281   2.467   3.223
11173WAT     H145398   1.356   2.424   3.220
11173WAT     H245399   1.290   2.521   3.291
11173WAT    EPW45400   1.293   2.468   3.233
11174WAT      O45401   1.353   2.212   4.020
11174WAT     H145402   1.396   2.195   3.946
11174WAT     H245403   1.345   2.299   4.019
11174WAT    EPW45404   1.358   2.222   4.009
11175WAT      O45405   2.043   1.618   3.357
11175WAT     H145406   2.027   1.596   3.274
11175WAT     H245407   2.010   1.699   3.364
11175WAT    EPW45408   2.036   1.627   3.346
11176WAT      O45409   2.673   2.853   4.500
11176WAT     H145410   2.667   2.927   4.546
11176WAT     H245411   2.745   2.864   4.452
11176WAT    EPW45412   2.683   2.866   4.500
11177WAT      O45413   1.819   2.653   3.798
11177WAT     H145414   1.832   2.739   3.803
11177WAT     H245415   1.891   2.620   3.836
11177WAT    EPW45416   1.832   2.661   3.804
11178WAT      O45417   1.599   1.988   4.832
11178WAT     H145418   1.560   1.927   4.880
11178WAT     H245419   1.605   1.950   4.753
11178WAT    EPW45420   1.594   1.973   4.827
11179WAT      O45421   1.655   1.895   3.324
11179WAT     H145422   1.636   1.839   3.387
11179WAT     H245423   1.609   1.867   3.256
11179WAT    EPW45424   1.646   1.883   3.323
11180WAT      O45425   1.685   2.096   4.012
11180WAT     H145426   1.676   2.061   3.932
11180WAT     H245427   1.706   2.027   4.062
11180WAT    EPW45428   1.687   2.080   4.007
11181WAT      O45429   1.681   2.051   4.376
11181WAT     H145430   1.708   2.003   4.308
11181WAT     H245431   1.627   2.109   4.340
11181WAT    EPW45432   1.677   2.052   4.361
11182WAT      O45433   2.748   1.988   4.160
11182WAT     H145434   2.675   1.940   4.158
11182WAT     H245435   2.768   1.998   4.075
11182WAT    EPW45436   2.740   1.983   4.147
11183WAT      O45437   2.052   2.942   4.285
11183WAT     H145438   2.026   2.883   4.227
11183WAT     H245439   2.039   3.018   4.245
11183WAT    EPW45440   2.046   2.945   4.271
11184WAT      O45441   2.264   1.415   4.527
11184WAT     H145442   2.291   1.334   4.508
11184WAT     H245443   2.292   1.428   4.608
11184WAT    EPW45444   2.272   1.405   4.536
11185WAT      O45445   2.550   1.607   3.445
11185WAT     H145446   2.601   1.672   3.473
11185WAT     H245447   2.469   1.640   3.454
11185WAT    EPW45448   2.545   1.622   3.450
11186WAT      O45449   1.472   2.227   4.886
11186WAT     H145450   1.471   2.273   4.812
11186WAT     H245451   1.516   2.155   4.865
11186WAT    EPW45452   1.479   2.223   4.872
11187WAT      O45453   2.623   2.393   4.628
11187WAT     H145454   2.644   2.473   4.656
11187WAT     H245455   2.661   2.387   4.550
11187WAT    EPW45456   2.632   2.404   4.621
11188WAT      O45457   2.063   2.760   4.796
11188WAT     H145458   2.100   2.752   4.875
11188WAT     H245459   2.038   2.679   4.777
11188WAT    EPW45460   2.065   2.747   4.805
11189WAT      O45461   2.123   1.732   4.112
11189WAT     H145462   2.181   1.796   4.103
11189WAT     H245463   2.170   1.664   4.140
11189WAT    EPW45464   2.138   1.731   4.115
11190WAT      O45465   2.410   2.070   3.319
11190WAT     H145466   2.377   2.124   3.258
11190WAT     H245467   2.356   2.081   3.387
11190WAT    EPW45468   2.397   2.080   3.320
11191WAT      O45469   2.979   2.467   3.798
11191WAT     H145470   3.065   2.469   3.814
11191WAT     H245471   2.967   2.388   3.762
11191WAT    EPW45472   2.990   2.455   3.795
11192WAT      O45473   2.474   2.792   4.101
11192WAT     H145474   2.409   2.785   4.044
11192WAT     H245475   2.544   2.768   4.055
11192WAT    EPW45476   2.475   2.787   4.086
11193WAT      O45477   2.436   2.451   4.035
11193WAT     H145478   2.359   2.483   4.062
11193WAT     H245479   2.482   2.442   4.108
11193WAT    EPW45480   2.431   2.454   4.049
11194WAT      O45481   1.861   2.855   3.453
11194WAT     H145482   1.873   2.782   3.499
11194WAT     H245483   1.941   2.876   3.425
11194WAT    EPW45484   1.874   2.847   3.456
11195WAT      O45485   1.810   1.299   3.323
11195WAT     H145486   1.854   1.328   3.393
11195WAT     H245487   1.766   1.369   3.297
11195WAT    EPW45488   1.810   1.314   3.330
11196WAT      O45489   2.103   2.907   3.332
11196WAT     H145490   2.172   2.903   3.384
11196WAT     H245491   2.107   2.987   3.299
11196WAT    EPW45492   2.113   2.918   3.335
11197WAT      O45493   2.828   2.301   4.446
11197WAT     H145494   2.823   2.304   4.359
11197WAT     H245495   2.902   2.344   4.464
11197WAT    EPW45496   2.838   2.308   4.436
11198WAT      O45497   2.415   2.902   4.985
11198WAT     H145498   2.458   2.921   5.059
11198WAT     H245499   2.427   2.973   4.936
11198WAT    EPW45500   2.424   2.916   4.989
11199WAT      O45501   2.872   1.353   4.850
11199WAT     H145502   2.819   1.329   4.785
11199WAT     H245503   2.869   1.285   4.905
11199WAT    EPW45504   2.864   1.339   4.849
11200WAT      O45505   1.607   2.171   3.393
11200WAT     H145506   1.631   2.088   3.385
11200WAT     H245507   1.670   2.206   3.442
11200WAT    EPW45508   1.619   2.164   3.399
11201WAT      O45509   2.364   2.269   4.418
11201WAT     H145510   2.312   2.302   4.480
11201WAT     H245511   2.396   2.197   4.455
11201WAT    EPW45512   2.361   2.263   4.433
11202WAT      O45513   1.268   1.282   3.489
11202WAT     H145514   1.263   1.229   3.419
11202WAT     H245515   1.234   1.234   3.554
11202WAT    EPW45516   1.262   1.267   3.488
11203WAT      O45517   2.242   2.098   3.541
11203WAT     H145518   2.260   2.162   3.597
11203WAT     H245519   2.232   2.028   3.592
11203WAT    EPW45520   2.243   2.097   3.557
11204WAT      O45521   2.874   2.522   4.057
11204WAT     H145522   2.914   2.503   3.982
11204WAT     H245523   2.838   2.446   4.081
11204WAT    EPW45524   2.875   2.508   4.049
11205WAT      O45525   1.690   1.529   3.228
11205WAT     H145526   1.628   1.525   3.166
11205WAT     H245527   1.757   1.565   3.185
11205WAT    EPW45528   1.690   1.534   3.212
11206WAT      O45529   2.146   2.332   3.950
11206WAT     H145530   2.064   2.308   3.965
11206WAT     H245531   2.190   2.299   4.018
11206WAT    EPW45532   2.140   2.323   3.962
11207WAT      O45533   1.809   2.929   3.072
11207WAT     H145534   1.824   2.855   3.115
11207WAT     H245535   1.817   2.990   3.133
11207WAT    EPW45536   1.812   2.927   3.087
11208WAT      O45537   1.517   2.242   4.253
11208WAT     H145538   1.572   2.308   4.235
11208WAT     H245539   1.481   2.225   4.176
11208WAT    EPW45540   1.520   2.249   4.239
11209WAT      O45541   1.818   1.797   3.903
11209WAT     H145542   1.894   1.759   3.879
11209WAT     H245543   1.760   1.732   3.895
11209WAT    EPW45544   1.821   1.781   3.898
11210WAT      O45545   1.319   1.888   3.544
11210WAT     H145546   1.346   1.850   3.618
11210WAT     H245547   1.326   1.824   3.485
11210WAT    EPW45548   1.324   1.873   3.546
11211WAT      O45549   2.760   2.286   4.172
11211WAT     H145550   2.741   2.201   4.171
11211WAT     H245551   2.688   2.324   4.204
11211WAT    EPW45552   2.747   2.279   4.176
11212WAT      O45553   1.804   2.044   3.113
11212WAT     H145554   1.760   2.008   3.179
11212WAT     H245555   1.753   2.028   3.044
11212WAT    EPW45556   1.790   2.036   3.113
11213WAT      O45557   1.476   2.360   4.645
11213WAT     H145558   1.432   2.312   4.587
11213WAT     H245559   1.451   2.442   4.628
11213WAT    EPW45560   1.466   2.365   4.634
11214WAT      O45561   3.101   2.225   3.995
11214WAT     H145562   3.114   2.246   4.079
11214WAT     H245563   3.148   2.284   3.951
11214WAT    EPW45564   3.110   2.237   4.001
11215WAT      O45565   1.935   1.876   3.349
11215WAT     H145566   1.956   1.953   3.385
11215WAT     H245567   1.848   1.876   3.347
11215WAT    EPW45568   1.926   1.887   3.354
11216WAT      O45569   2.668   1.673   4.761
11216WAT     H145570   2.617   1.662   4.831
11216WAT     H245571   2.648   1.605   4.710
11216WAT    EPW45572   2.658   1.661   4.764
11217WAT      O45573   1.288   1.533   4.033
11217WAT     H145574   1.271   1.550   3.949
11217WAT     H245575   1.373   1.550   4.040
11217WAT    EPW45576   1.298   1.538   4.021
11218WAT      O45577   2.586   2.015   4.823
11218WAT     H145578   2.603   2.020   4.908
11218WAT     H245579   2.499   2.016   4.819
11218WAT    EPW45580   2.576   2.016   4.835
11219WAT      O45581   2.910   2.647   3.335
11219WAT     H145582   2.938   2.566   3.350
11219WAT     H245583   2.825   2.644   3.356
11219WAT    EPW45584   2.901   2.635   3.340
11220WAT      O45585   2.959   1.836   3.815
11220WAT     H145586   2.883   1.796   3.829
11220WAT     H245587   2.947   1.916   3.849
11220WAT    EPW45588   2.946   1.842   3.822
11221WAT      O45589   3.087   2.145   4.895
11221WAT     H145590   3.075   2.102   4.820
11221WAT     H245591   3.167   2.180   4.887
11221WAT    EPW45592   3.097   2.144   4.883
11222WAT      O45593   3.058   2.439   4.573
11222WAT     H145594   3.145   2.434   4.582
11222WAT     H245595   3.047   2.485   4.500
11222WAT    EPW45596   3.069   2.445   4.564
11223WAT      O45597   2.496   2.465   3.218
11223WAT     H145598   2.555   2.404   3.201
11223WAT     H245599   2.455   2.476   3.142
11223WAT    EPW45600   2.498   2.458   3.205
11224WAT      O45601   1.955   2.545   4.308
11224WAT     H145602   1.956   2.596   4.379
11224WAT     H245603   1.945   2.602   4.242
11224WAT    EPW45604   1.954   2.561   4.308
11225WAT      O45605   1.745   2.427   4.606
11225WAT     H145606   1.664   2.397   4.621
11225WAT     H245607   1.733   2.513   4.597
11225WAT    EPW45608   1.731   2.436   4.607
11226WAT      O45609   2.646   1.501   4.531
11226WAT     H145610   2.708   1.553   4.499
11226WAT     H245611   2.574   1.527   4.489
11226WAT    EPW45612   2.644   1.513   4.520
11227WAT      O45613   2.225   2.187   4.188
11227WAT     H145614   2.280   2.219   4.248
11227WAT     H245615   2.146   2.198   4.223
11227WAT    EPW45616   2.222   2.193   4.202
11228WAT      O45617   1.886   1.753   4.603
11228WAT     H145618   1.893   1.671   4.632
11228WAT     H245619   1.914   1.748   4.520
11228WAT    EPW45620   1.891   1.740   4.595
11229WAT      O45621   2.152   3.025   3.806
11229WAT     H145622   2.124   3.097   3.846
11229WAT     H245623   2.220   3.052   3.759
11229WAT    EPW45624   2.158   3.039   3.805
11230WAT      O45625   2.752   1.271   4.253
11230WAT     H145626   2.731   1.352   4.227
11230WAT     H245627   2.829   1.282   4.294
11230WAT    EPW45628   2.760   1.285   4.255
11231WAT      O45629   1.993   1.362   4.484
11231WAT     H145630   2.077   1.384   4.486
11231WAT     H245631   1.994   1.279   4.455
11231WAT    EPW45632   2.006   1.353   4.480
11232WAT      O45633   1.934   2.748   4.124
11232WAT     H145634   1.858   2.780   4.094
11232WAT     H245635   1.970   2.711   4.053
11232WAT    EPW45636   1.928   2.747   4.109
11233WAT      O45637   2.399   2.365   4.799
11233WAT     H145638   2.470   2.367   4.748
11233WAT     H245639   2.334   2.388   4.744
11233WAT    EPW45640   2.400   2.369   4.783
11234WAT      O45641   2.677   2.656   4.703
11234WAT     H145642   2.740   2.675   4.760
11234WAT     H245643   2.687   2.717   4.641
11234WAT    EPW45644   2.688   2.668   4.702
11235WAT      O45645   2.869   1.981   3.194
11235WAT     H145646   2.935   1.995   3.138
11235WAT     H245647   2.798   1.994   3.145
11235WAT    EPW45648   2.868   1.985   3.178
11236WAT      O45649   2.019   2.213   3.162
11236WAT     H145650   1.956   2.158   3.135
11236WAT     H245651   1.982   2.292   3.154
11236WAT    EPW45652   2.004   2.216   3.157
11237WAT      O45653   1.760   1.871   4.162
11237WAT     H145654   1.788   1.844   4.083
11237WAT     H245655   1.818   1.835   4.217
11237WAT    EPW45656   1.773   1.862   4.158
11238WAT      O45657   2.434   1.802   4.640
11238WAT     H145658   2.380   1.844   4.694
11238WAT     H245659   2.503   1.782   4.690
11238WAT    EPW45660   2.436   1.805   4.655
11239WAT      O45661   2.500   1.865   4.254
11239WAT     H145662   2.486   1.917   4.322
11239WAT     H245663   2.486   1.785   4.285
11239WAT    EPW45664   2.496   1.861   4.269
11240WAT      O45665   2.190   2.992   4.686
11240WAT     H145666   2.224   2.975   4.608
11240WAT     H245667   2.163   2.914   4.714
11240WAT    EPW45668   2.191   2.978   4.679
11241WAT      O45669   2.706   1.816   3.546
11241WAT     H145670   2.698   1.789   3.628
11241WAT     H245671   2.792   1.821   3.534
11241WAT    EPW45672   2.717   1.813   3.556
11242WAT      O45673   2.044   1.325   4.098
11242WAT     H145674   1.960   1.309   4.117
11242WAT     H245675   2.043   1.339   4.012
11242WAT    EPW45676   2.031   1.325   4.088
11243WAT      O45677   2.868   1.447   3.756
11243WAT     H145678   2.805   1.502   3.778
11243WAT     H245679   2.854   1.433   3.671
11243WAT    EPW45680   2.857   1.453   3.747
11244WAT      O45681   2.957   2.214   3.680
11244WAT     H145682   3.037   2.195   3.653
11244WAT     H245683   2.943   2.158   3.746
11244WAT    EPW45684   2.967   2.203   3.686
11245WAT      O45685   2.205   2.423   4.608
11245WAT     H145686   2.131   2.431   4.654
11245WAT     H245687   2.221   2.505   4.583
11245WAT    EPW45688   2.196   2.437   4.611
11246WAT      O45689   1.246   1.433   4.810
11246WAT     H145690   1.246   1.501   4.757
11246WAT     H245691   1.161   1.410   4.815
11246WAT    EPW45692   1.233   1.439   4.803
11247WAT      O45693   1.730   3.090   4.223
11247WAT     H145694   1.735   3.070   4.308
11247WAT     H245695   1.730   3.012   4.184
11247WAT    EPW45696   1.731   3.076   4.230
11248WAT      O45697   1.598   1.655   3.464
11248WAT     H145698   1.618   1.613   3.390
11248WAT     H245699   1.519   1.626   3.484
11248WAT    EPW45700   1.589   1.645   3.456
11249WAT      O45701   2.545   2.417   3.780
11249WAT     H145702   2.515   2.433   3.860
11249WAT     H245703   2.574   2.335   3.785
11249WAT    EPW45704   2.545   2.408   3.792
11250WAT      O45705   2.285   2.322   3.706
11250WAT     H145706   2.245   2.321   3.784
11250WAT     H245707   2.363   2.357   3.724
11250WAT    EPW45708   2.291   2.327   3.720
11251WAT      O45709   2.252   2.692   4.546
11251WAT     H145710   2.292   2.704   4.622
11251WAT     H245711   2.315   2.704   4.487
11251WAT    EPW45712   2.267   2.696   4.549
11252WAT      O45713   2.992   2.006   4.674
11252WAT     H145714   2.980   1.923   4.695
11252WAT     H245715   3.030   2.002   4.595
11252WAT    EPW45716   2.996   1.993   4.665
11253WAT      O45717   2.497   2.025   4.485
11253WAT     H145718   2.470   1.962   4.539
11253WAT     H245719   2.581   2.006   4.472
11253WAT    EPW45720   2.505   2.013   4.491
11254WAT      O45721   1.413   3.045   4.722
11254WAT     H145722   1.359   2.978   4.713
11254WAT     H245723   1.363   3.109   4.754
11254WAT    EPW45724   1.398   3.045   4.726
11255WAT      O45725   2.292   2.182   4.986
11255WAT     H145726   2.325   2.245   4.935
11255WAT     H245727   2.210   2.209   5.001
11255WAT    EPW45728   2.285   2.196   4.980
11256WAT      O45729   2.675   3.032   3.961
11256WAT     H145730   2.753   3.072   3.966
11256WAT     H245731   2.694   2.948   3.969
11256WAT    EPW45732   2.689   3.026   3.963
11257WAT      O45733   2.230   2.544   4.212
11257WAT     H145734   2.150   2.541   4.246
11257WAT     H245735   2.275   2.592   4.270
11257WAT    EPW45736   2.225   2.550   4.226
11258WAT      O45737   2.868   2.714   4.900
11258WAT     H145738   2.954   2.696   4.904
11258WAT     H245739   2.838   2.686   4.977
11258WAT    EPW45740   2.876   2.707   4.912
11259WAT      O45741   1.632   1.867   4.580
11259WAT     H145742   1.644   1.928   4.520
11259WAT     H245743   1.710   1.829   4.588
11259WAT    EPW45744   1.645   1.870   4.572
11260WAT      O45745   1.437   1.715   4.454
11260WAT     H145746   1.456   1.725   4.369
11260WAT     H245747   1.501   1.759   4.494
11260WAT    EPW45748   1.450   1.723   4.447
11261WAT      O45749   2.975   1.875   3.498
11261WAT     H145750   3.019   1.844   3.429
11261WAT     H245751   3.033   1.873   3.562
11261WAT    EPW45752   2.990   1.870   3.497
11262WAT      O45753   1.624   1.394   4.718
11262WAT     H145754   1.577   1.321   4.725
11262WAT     H245755   1.608   1.421   4.637
11262WAT    EPW45756   1.615   1.387   4.707
11263WAT      O45757   2.339   2.691   3.656
11263WAT     H145758   2.338   2.757   3.599
11263WAT     H245759   2.279   2.636   3.626
11263WAT    EPW45760   2.330   2.693   3.643
11264WAT      O45761   2.760   1.967   4.445
11264WAT     H145762   2.787   1.886   4.459
11264WAT     H245763   2.771   1.979   4.360
11264WAT    EPW45764   2.766   1.957   4.435
11265WAT      O45765   1.331   2.212   4.458
11265WAT     H145766   1.382   2.229   4.389
11265WAT     H245767   1.313   2.127   4.450
11265WAT    EPW45768   1.336   2.202   4.447
11266WAT      O45769   1.497   1.795   3.114
11266WAT     H145770   1.425   1.792   3.164
11266WAT     H245771   1.501   1.716   3.078
11266WAT    EPW45772   1.487   1.783   3.116
11267WAT      O45773   2.341   1.448   4.795
11267WAT     H145774   2.373   1.512   4.845
11267WAT     H245775   2.264   1.429   4.833
11267WAT    EPW45776   2.334   1.455   4.808
11268WAT      O45777   2.366   1.505   3.856
11268WAT     H145778   2.432   1.559   3.835
11268WAT     H245779   2.357   1.456   3.785
11268WAT    EPW45780   2.375   1.506   3.843
11269WAT      O45781   1.813   2.690   3.225
11269WAT     H145782   1.857   2.716   3.295
11269WAT     H245783   1.736   2.664   3.257
11269WAT    EPW45784   1.808   2.690   3.240
11270WAT      O45785   2.712   1.532   4.150
11270WAT     H145786   2.792   1.555   4.176
11270WAT     H245787   2.700   1.578   4.078
11270WAT    EPW45788   2.722   1.542   4.143
11271WAT      O45789   1.868   2.172   4.549
11271WAT     H145790   1.832   2.249   4.571
11271WAT     H245791   1.807   2.134   4.499
11271WAT    EPW45792   1.853   2.178   4.545
11272WAT      O45793   2.862   2.082   3.916
11272WAT     H145794   2.909   2.148   3.950
11272WAT     H245795   2.793   2.122   3.881
11272WAT    EPW45796   2.859   2.098   3.916
11273WAT      O45797   2.775   2.875   3.571
11273WAT     H145798   2.776   2.796   3.607
11273WAT     H245799   2.854   2.882   3.535
11273WAT    EPW45800   2.787   2.864   3.571
11274WAT      O45801   1.571   2.601   3.327
11274WAT     H145802   1.568   2.581   3.411
11274WAT     H245803   1.572   2.524   3.287
11274WAT    EPW45804   1.570   2.587   3.333
11275WAT      O45805   1.852   2.435   3.117
11275WAT     H145806   1.771   2.405   3.132
11275WAT     H245807   1.852   2.515   3.153
11275WAT    EPW45808   1.840   2.442   3.125
11276WAT      O45809   1.811   1.510   4.332
11276WAT     H145810   1.733   1.493   4.367
11276WAT     H245811   1.864   1.455   4.374
11276WAT    EPW45812   1.807   1.499   4.343
11277WAT      O45813   2.986   1.355   4.398
11277WAT     H145814   2.965   1.366   4.482
11277WAT     H245815   3.068   1.327   4.400
11277WAT    EPW45816   2.995   1.353   4.411
11278WAT      O45817   2.235   1.498   4.209
11278WAT     H145818   2.173   1.444   4.181
11278WAT     H245819   2.308   1.462   4.177
11278WAT    EPW45820   2.237   1.485   4.200
11279WAT      O45821   2.467   2.696   4.361
11279WAT     H145822   2.526   2.744   4.404
11279WAT     H245823   2.469   2.728   4.280
11279WAT    EPW45824   2.476   2.708   4.356
11280WAT      O45825   2.427   3.102   4.787
11280WAT     H145826   2.356   3.065   4.753
11280WAT     H245827   2.408   3.187   4.788
11280WAT    EPW45828   2.414   3.109   4.782
11281WAT      O45829   2.009   1.978   4.720
11281WAT     H145830   1.974   1.907   4.683
11281WAT     H245831   1.971   2.044   4.678
11281WAT    EPW45832   1.998   1.977   4.709
11282WAT      O45833   2.077   1.319   3.218
11282WAT     H145834   2.084   1.326   3.131
11282WAT     H245835   1.992   1.326   3.233
11282WAT    EPW45836   2.066   1.321   3.208
11283WAT      O45837   3.020   2.498   4.302
11283WAT     H145838   3.062   2.424   4.283
11283WAT     H245839   2.981   2.520   4.227
11283WAT    EPW45840   3.020   2.490   4.288
11284WAT      O45841   1.864   2.951   4.742
11284WAT     H145842   1.845   2.964   4.826
11284WAT     H245843   1.927   2.891   4.744
11284WAT    EPW45844   1.870   2.944   4.755
11285WAT      O45845   2.715   2.744   3.965
11285WAT     H145846   2.716   2.716   3.882
11285WAT     H245847   2.767   2.688   4.007
11285WAT    EPW45848   2.723   2.732   3.959
11286WAT      O45849   1.566   1.467   4.461
11286WAT     H145850   1.510   1.404   4.436
11286WAT     H245851   1.519   1.540   4.452
11286WAT    EPW45852   1.551   1.468   4.456
11287WAT      O45853   2.467   1.397   4.087
11287WAT     H145854   2.529   1.453   4.112
11287WAT     H245855   2.435   1.433   4.014
11287WAT    EPW45856   2.471   1.410   4.080
11288WAT      O45857   1.578   2.852   4.858
11288WAT     H145858   1.642   2.890   4.903
11288WAT     H245859   1.539   2.920   4.819
11288WAT    EPW45860   1.582   2.868   4.859
11289WAT      O45861   2.438   1.947   3.832
11289WAT     H145862   2.493   1.880   3.844
11289WAT     H245863   2.394   1.951   3.907
11289WAT    EPW45864   2.440   1.938   3.845
11290WAT      O45865   1.421   1.814   3.797
11290WAT     H145866   1.382   1.844   3.869
11290WAT     H245867   1.464   1.744   3.825
11290WAT    EPW45868   1.422   1.808   3.812
11291WAT      O45869   1.437   2.628   4.575
11291WAT     H145870   1.385   2.688   4.611
11291WAT     H245871   1.516   2.664   4.578
11291WAT    EPW45872   1.441   2.642   4.581
11292WAT      O45873   2.645   2.080   3.490
11292WAT     H145874   2.653   1.994   3.505
11292WAT     H245875   2.577   2.084   3.436
11292WAT    EPW45876   2.636   2.068   3.484
11293WAT      O45877   1.593   2.929   3.434
11293WAT     H145878   1.558   2.909   3.357
11293WAT     H245879   1.673   2.894   3.431
11293WAT    EPW45880   1.600   2.921   3.422
11294WAT      O45881   1.993   2.138   3.428
11294WAT     H145882   2.010   2.169   3.348
11294WAT     H245883   2.072   2.132   3.465
11294WAT    EPW45884   2.007   2.142   3.421
11295WAT      O45885   2.903   3.003   3.150
11295WAT     H145886   2.944   2.986   3.225
11295WAT     H245887   2.910   2.928   3.105
11295WAT    EPW45888   2.910   2.990   3.154
11296WAT      O45889   2.905   2.330   4.795
11296WAT     H145890   2.970   2.285   4.833
11296WAT     H245891   2.946   2.378   4.735
11296WAT    EPW45892   2.921   2.330   4.792
11297WAT      O45893   2.637   2.638   3.395
11297WAT     H145894   2.615   2.615   3.476
11297WAT     H245895   2.588   2.587   3.344
11297WAT    EPW45896   2.627   2.627   3.399
11298WAT      O45897   2.931   1.768   4.837
11298WAT     H145898   2.933   1.827   4.902
11298WAT     H245899   2.846   1.749   4.830
11298WAT    EPW45900   2.918   1.774   4.846
11299WAT      O45901   2.999   1.862   4.209
11299WAT     H145902   2.919   1.889   4.187
11299WAT     H245903   2.991   1.776   4.216
11299WAT    EPW45904   2.986   1.854   4.207
11300WAT      O45905   1.894   1.478   4.717
11300WAT     H145906   1.924   1.441   4.645
11300WAT     H245907   1.812   1.447   4.724
11300WAT    EPW45908   1.886   1.468   4.708
11301WAT      O45909   2.729   2.332   5.015
11301WAT     H145910   2.787   2.350   5.077
11301WAT     H245911   2.773   2.346   4.941
11301WAT    EPW45912   2.744   2.337   5.013
11302WAT      O45913   1.663   2.839   4.093
11302WAT     H145914   1.640   2.761   4.061
11302WAT     H245915   1.630   2.895   4.034
11302WAT    EPW45916   1.654   2.836   4.079
11303WAT      O45917   2.224   2.480   3.294
11303WAT     H145918   2.309   2.464   3.283
11303WAT     H245919   2.209   2.549   3.244
11303WAT    EPW45920   2.234   2.488   3.285
11304WAT      O45921   1.406   3.096   4.441
11304WAT     H145922   1.415   3.077   4.526
11304WAT     H245923   1.438   3.026   4.401
11304WAT    EPW45924   1.412   3.083   4.448
11305WAT      O45925   2.407   1.359   1.768
11305WAT     H145926   2.436   1.422   1.715
11305WAT     H245927   2.479   1.325   1.802
11305WAT    EPW45928   2.422   1.363   1.765
11306WAT      O45929   2.322   1.972   2.229
11306WAT     H145930   2.286   2.048   2.252
11306WAT     H245931   2.381   1.958   2.292
11306WAT    EPW45932   2.326   1.981   2.242
11307WAT      O45933   1.284   2.409   1.719
11307WAT     H145934   1.223   2.405   1.781
11307WAT     H245935   1.292   2.326   1.693
11307WAT    EPW45936   1.276   2.396   1.725
11308WAT      O45937   2.967   2.796   1.531
11308WAT     H145938   3.030   2.743   1.560
11308WAT     H245939   2.917   2.743   1.483
11308WAT    EPW45940   2.969   2.780   1.528
11309WAT      O45941   1.267   1.767   1.369
11309WAT     H145942   1.203   1.818   1.341
11309WAT     H245943   1.236   1.686   1.355
11309WAT    EPW45944   1.253   1.762   1.363
11310WAT      O45945   1.542   2.358   1.320
11310WAT     H145946   1.522   2.318   1.245
11310WAT     H245947   1.557   2.293   1.376
11310WAT    EPW45948   1.541   2.343   1.317
11311WAT      O45949   2.570   2.112   1.850
11311WAT     H145950   2.576   2.089   1.766
11311WAT     H245951   2.514   2.054   1.883
11311WAT    EPW45952   2.562   2.100   1.842
11312WAT      O45953   1.536   2.533   1.718
11312WAT     H145954   1.590   2.493   1.773
11312WAT     H245955   1.461   2.490   1.727
11312WAT    EPW45956   1.533   2.521   1.728
11313WAT      O45957   2.020   1.468   1.669
11313WAT     H145958   2.004   1.537   1.618
11313WAT     H245959   2.090   1.431   1.632
11313WAT    EPW45960   2.028   1.473   1.656
11314WAT      O45961   1.448   2.813   1.323
11314WAT     H145962   1.491   2.820   1.247
11314WAT     H245963   1.479   2.739   1.357
11314WAT    EPW45964   1.459   2.803   1.317
11315WAT      O45965   1.320   2.637   2.416
11315WAT     H145966   1.350   2.618   2.495
11315WAT     H245967   1.252   2.583   2.406
11315WAT    EPW45968   1.314   2.626   2.426
11316WAT      O45969   1.960   2.486   2.862
11316WAT     H145970   1.934   2.466   2.943
11316WAT     H245971   1.891   2.465   2.813
11316WAT    EPW45972   1.946   2.480   2.867
11317WAT      O45973   1.482   2.160   1.880
11317WAT     H145974   1.433   2.159   1.808
11317WAT     H245975   1.539   2.095   1.868
11317WAT    EPW45976   1.483   2.150   1.867
11318WAT      O45977   1.938   1.774   2.447
11318WAT     H145978   2.005   1.777   2.391
11318WAT     H245979   1.905   1.694   2.437
11318WAT    EPW45980   1.943   1.763   2.437
11319WAT      O45981   2.028   2.761   2.592
11319WAT     H145982   2.040   2.818   2.527
11319WAT     H245983   2.109   2.734   2.610
11319WAT    EPW45984   2.042   2.765   2.585
11320WAT      O45985   1.664   1.951   1.873
11320WAT     H145986   1.731   1.901   1.898
11320WAT     H245987   1.596   1.897   1.873
11320WAT    EPW45988   1.664   1.936   1.877
11321WAT      O45989   2.057   2.577   2.024
11321WAT     H145990   2.089   2.499   2.045
11321WAT     H245991   2.129   2.627   2.017
11321WAT    EPW45992   2.073   2.573   2.026
11322WAT      O45993   2.154   2.534   1.650
11322WAT     H145994   2.179   2.465   1.696
11322WAT     H245995   2.166   2.509   1.567
11322WAT    EPW45996   2.159   2.520   1.644
11323WAT      O45997   2.268   2.003   2.880
11323WAT     H145998   2.183   2.004   2.860
11323WAT     H245999   2.275   2.062   2.945
11323WAT    EPW46000   2.257   2.012   2.887
11324WAT      O46001   1.749   1.472   1.754
11324WAT     H146002   1.709   1.525   1.697
11324WAT     H246003   1.832   1.472   1.727
11324WAT    EPW46004   1.755   1.480   1.741
11325WAT      O46005   2.711   1.233   2.716
11325WAT     H146006   2.688   1.301   2.666
11325WAT     H246007   2.637   1.213   2.757
11325WAT    EPW46008   2.697   1.240   2.714
11326WAT      O46009   2.056   1.398   1.940
11326WAT     H146010   2.067   1.479   1.971
11326WAT     H246011   2.038   1.411   1.856
11326WAT    EPW46012   2.055   1.412   1.932
11327WAT      O46013   2.455   1.611   1.163
11327WAT     H146014   2.411   1.677   1.199
11327WAT     H246015   2.468   1.557   1.230
11327WAT    EPW46016   2.450   1.613   1.178
11328WAT      O46017   1.323   1.906   2.134
11328WAT     H146018   1.324   1.992   2.143
11328WAT     H246019   1.255   1.880   2.181
11328WAT    EPW46020   1.313   1.915   2.142
11329WAT      O46021   1.307   2.867   1.953
11329WAT     H146022   1.245   2.919   1.921
11329WAT     H246023   1.344   2.833   1.882
11329WAT    EPW46024   1.303   2.870   1.938
11330WAT      O46025   1.879   2.561   1.657
11330WAT     H146026   1.855   2.581   1.738
11330WAT     H246027   1.966   2.552   1.662
11330WAT    EPW46028   1.888   2.563   1.670
11331WAT      O46029   2.494   2.904   1.437
11331WAT     H146030   2.566   2.953   1.431
11331WAT     H246031   2.524   2.825   1.460
11331WAT    EPW46032   2.509   2.899   1.439
11332WAT      O46033   2.321   2.962   1.645
11332WAT     H146034   2.348   3.038   1.676
11332WAT     H246035   2.376   2.947   1.578
11332WAT    EPW46036   2.333   2.971   1.639
11333WAT      O46037   1.566   1.425   2.170
11333WAT     H146038   1.550   1.351   2.126
11333WAT     H246039   1.624   1.402   2.230
11333WAT    EPW46040   1.572   1.411   2.172
11334WAT      O46041   1.923   1.609   3.086
11334WAT     H146042   1.925   1.577   3.005
11334WAT     H246043   1.963   1.687   3.078
11334WAT    EPW46044   1.929   1.616   3.073
11335WAT      O46045   1.439   2.791   1.717
11335WAT     H146046   1.485   2.719   1.732
11335WAT     H246047   1.494   2.842   1.672
11335WAT    EPW46048   1.454   2.788   1.713
11336WAT      O46049   3.047   1.602   1.868
11336WAT     H146050   3.001   1.675   1.880
11336WAT     H246051   2.987   1.541   1.854
11336WAT    EPW46052   3.032   1.604   1.868
11337WAT      O46053   2.537   2.955   2.436
11337WAT     H146054   2.610   2.907   2.439
11337WAT     H246055   2.497   2.928   2.363
11337WAT    EPW46056   2.542   2.944   2.425
11338WAT      O46057   1.502   1.531   3.018
11338WAT     H146058   1.420   1.503   3.002
11338WAT     H246059   1.547   1.500   2.949
11338WAT    EPW46060   1.496   1.522   3.005
11339WAT      O46061   1.587   2.608   2.083
11339WAT     H146062   1.647   2.601   2.020
11339WAT     H246063   1.615   2.554   2.145
11339WAT    EPW46064   1.600   2.599   2.082
11340WAT      O46065   1.874   2.909   1.957
11340WAT     H146066   1.953   2.932   1.929
11340WAT     H246067   1.820   2.957   1.907
11340WAT    EPW46068   1.878   2.919   1.945
11341WAT      O46069   2.104   1.342   2.945
11341WAT     H146070   2.124   1.271   2.899
11341WAT     H246071   2.037   1.377   2.902
11341WAT    EPW46072   2.097   1.337   2.932
11342WAT      O46073   2.211   1.853   1.800
11342WAT     H146074   2.241   1.810   1.730
11342WAT     H246075   2.283   1.867   1.847
11342WAT    EPW46076   2.226   1.849   1.796
11343WAT      O46077   2.305   1.810   1.291
11343WAT     H146078   2.333   1.888   1.317
11343WAT     H246079   2.230   1.827   1.251
11343WAT    EPW46080   2.298   1.824   1.289
11344WAT      O46081   2.705   3.085   1.391
11344WAT     H146082   2.757   3.059   1.326
11344WAT     H246083   2.760   3.127   1.445
11344WAT    EPW46084   2.721   3.087   1.390
11345WAT      O46085   1.721   3.018   2.564
11345WAT     H146086   1.768   2.989   2.632
11345WAT     H246087   1.664   2.954   2.549
11345WAT    EPW46088   1.720   3.004   2.572
11346WAT      O46089   2.950   1.538   2.298
11346WAT     H146090   3.012   1.521   2.238
11346WAT     H246091   2.972   1.486   2.364
11346WAT    EPW46092   2.963   1.528   2.299
11347WAT      O46093   1.234   1.644   2.743
11347WAT     H146094   1.225   1.721   2.783
11347WAT     H246095   1.294   1.659   2.682
11347WAT    EPW46096   1.242   1.657   2.740
11348WAT      O46097   2.482   2.729   2.840
11348WAT     H146098   2.463   2.757   2.921
11348WAT     H246099   2.567   2.713   2.844
11348WAT    EPW46100   2.492   2.731   2.853
11349WAT      O46101   2.175   2.719   1.269
11349WAT     H146102   2.155   2.773   1.334
11349WAT     H246103   2.249   2.752   1.238
11349WAT    EPW46104   2.183   2.732   1.274
11350WAT      O46105   2.489   1.437   1.379
11350WAT     H146106   2.550   1.375   1.375
11350WAT     H246107   2.509   1.481   1.451
11350WAT    EPW46108   2.501   1.434   1.389
11351WAT      O46109   1.356   1.553   1.656
11351WAT     H146110   1.334   1.471   1.637
11351WAT     H246111   1.309   1.571   1.727
11351WAT    EPW46112   1.346   1.544   1.663
11352WAT      O46113   1.504   2.861   2.443
11352WAT     H146114   1.446   2.795   2.436
11352WAT     H246115   1.546   2.859   2.367
11352WAT    EPW46116   1.502   2.851   2.431
11353WAT      O46117   2.276   1.723   1.557
11353WAT     H146118   2.201   1.679   1.546
11353WAT     H246119   2.292   1.755   1.477
11353WAT    EPW46120   2.267   1.721   1.543
11354WAT      O46121   2.291   3.012   2.553
11354WAT     H146122   2.370   2.988   2.525
11354WAT     H246123   2.237   2.984   2.490
11354WAT    EPW46124   2.295   3.004   2.539
11355WAT      O46125   2.233   1.396   1.500
11355WAT     H146126   2.178   1.365   1.440
11355WAT     H246127   2.309   1.404   1.456
11355WAT    EPW46128   2.236   1.393   1.484
11356WAT      O46129   3.020   2.999   1.827
11356WAT     H146130   2.975   3.073   1.835
11356WAT     H246131   2.958   2.938   1.816
11356WAT    EPW46132   3.004   3.001   1.827
11357WAT      O46133   2.102   1.673   1.985
11357WAT     H146134   2.126   1.735   1.929
11357WAT     H246135   2.111   1.712   2.063
11357WAT    EPW46136   2.107   1.688   1.988
11358WAT      O46137   2.691   2.562   1.738
11358WAT     H146138   2.762   2.513   1.751
11358WAT     H246139   2.629   2.519   1.781
11358WAT    EPW46140   2.692   2.548   1.746
11359WAT      O46141   1.680   2.706   2.745
11359WAT     H146142   1.748   2.759   2.732
11359WAT     H246143   1.646   2.735   2.820
11359WAT    EPW46144   1.685   2.718   2.754
11360WAT      O46145   1.701   1.204   1.800
11360WAT     H146146   1.714   1.289   1.785
11360WAT     H246147   1.675   1.174   1.722
11360WAT    EPW46148   1.699   1.213   1.786
11361WAT      O46149   1.879   2.286   2.159
11361WAT     H146150   1.898   2.269   2.243
11361WAT     H246151   1.820   2.225   2.139
11361WAT    EPW46152   1.873   2.274   2.168
11362WAT      O46153   2.440   1.669   2.553
11362WAT     H146154   2.439   1.708   2.631
11362WAT     H246155   2.375   1.611   2.558
11362WAT    EPW46156   2.430   1.666   2.565
11363WAT      O46157   1.967   2.293   2.422
11363WAT     H146158   1.951   2.378   2.434
11363WAT     H246159   1.941   2.257   2.498
11363WAT    EPW46160   1.961   2.300   2.435
11364WAT      O46161   2.536   2.348   2.395
11364WAT     H146162   2.480   2.315   2.453
11364WAT     H246163   2.531   2.434   2.407
11364WAT    EPW46164   2.527   2.356   2.405
11365WAT      O46165   2.637   1.253   1.876
11365WAT     H146166   2.639   1.236   1.962
11365WAT     H246167   2.666   1.179   1.840
11365WAT    EPW46168   2.642   1.240   1.884
11366WAT      O46169   1.232   2.684   3.047
11366WAT     H146170   1.291   2.730   3.093
11366WAT     H246171   1.240   2.604   3.080
11366WAT    EPW46172   1.242   2.679   3.059
11367WAT      O46173   2.819   1.692   2.629
11367WAT     H146174   2.904   1.671   2.633
11367WAT     H246175   2.794   1.689   2.712
11367WAT    EPW46176   2.828   1.688   2.642
11368WAT      O46177   1.623   1.603   1.968
11368WAT     H146178   1.656   1.551   1.906
11368WAT     H246179   1.609   1.549   2.035
11368WAT    EPW46180   1.626   1.587   1.969
11369WAT      O46181   2.908   2.363   1.388
11369WAT     H146182   2.905   2.309   1.456
11369WAT     H246183   2.993   2.381   1.380
11369WAT    EPW46184   2.920   2.358   1.397
11370WAT      O46185   1.676   2.360   1.882
11370WAT     H146186   1.722   2.327   1.816
11370WAT     H246187   1.613   2.301   1.895
11370WAT    EPW46188   1.673   2.347   1.875
11371WAT      O46189   1.522   3.023   2.017
11371WAT     H146190   1.450   2.979   1.996
11371WAT     H246191   1.566   3.027   1.942
11371WAT    EPW46192   1.518   3.017   2.003
11372WAT      O46193   1.502   1.767   2.300
11372WAT     H146194   1.582   1.793   2.279
11372WAT     H246195   1.451   1.808   2.243
11372WAT    EPW46196   1.506   1.777   2.289
11373WAT      O46197   3.158   2.689   2.775
11373WAT     H146198   3.081   2.731   2.770
11373WAT     H246199   3.169   2.676   2.860
11373WAT    EPW46200   3.148   2.694   2.787
11374WAT      O46201   2.706   2.039   1.312
11374WAT     H146202   2.702   2.122   1.287
11374WAT     H246203   2.679   2.041   1.395
11374WAT    EPW46204   2.701   2.051   1.321
11375WAT      O46205   1.790   2.297   1.634
11375WAT     H146206   1.816   2.381   1.629
11375WAT     H246207   1.859   2.252   1.607
11375WAT    EPW46208   1.804   2.303   1.629
11376WAT      O46209   3.018   1.502   1.292
11376WAT     H146210   3.057   1.441   1.243
11376WAT     H246211   2.979   1.554   1.234
11376WAT    EPW46212   3.018   1.500   1.276
11377WAT      O46213   1.335   2.480   2.071
11377WAT     H146214   1.279   2.543   2.096
11377WAT     H246215   1.411   2.521   2.066
11377WAT    EPW46216   1.338   2.495   2.074
11378WAT      O46217   2.059   1.855   3.093
11378WAT     H146218   2.014   1.882   3.163
11378WAT     H246219   2.031   1.909   3.030
11378WAT    EPW46220   2.048   1.867   3.094
11379WAT      O46221   3.099   1.983   2.525
11379WAT     H146222   3.111   1.925   2.461
11379WAT     H246223   3.013   1.996   2.525
11379WAT    EPW46224   3.088   1.976   2.515
11380WAT      O46225   1.343   2.148   1.642
11380WAT     H146226   1.326   2.062   1.642
11380WAT     H246227   1.415   2.155   1.593
11380WAT    EPW46228   1.351   2.136   1.635
11381WAT      O46229   2.886   1.402   1.522
11381WAT     H146230   2.959   1.363   1.550
11381WAT     H246231   2.913   1.447   1.452
11381WAT    EPW46232   2.901   1.402   1.515
11382WAT      O46233   2.261   2.764   2.005
11382WAT     H146234   2.219   2.836   1.980
11382WAT     H246235   2.302   2.738   1.932
11382WAT    EPW46236   2.261   2.771   1.990
11383WAT      O46237   1.265   2.634   1.567
11383WAT     H146238   1.320   2.688   1.609
11383WAT     H246239   1.261   2.564   1.618
11383WAT    EPW46240   1.273   2.632   1.581
11384WAT      O46241   1.687   2.444   2.280
11384WAT     H146242   1.737   2.486   2.338
11384WAT     H246243   1.744   2.400   2.231
11384WAT    EPW46244   1.703   2.444   2.282
11385WAT      O46245   2.588   1.690   1.998
11385WAT     H146246   2.619   1.658   2.073
11385WAT     H246247   2.522   1.637   1.979
11385WAT    EPW46248   2.583   1.677   2.006
11386WAT      O46249   1.276   2.465   1.344
11386WAT     H146250   1.352   2.423   1.339
11386WAT     H246251   1.286   2.518   1.412
11386WAT    EPW46252   1.289   2.466   1.353
11387WAT      O46253   1.352   2.208   2.119
11387WAT     H146254   1.397   2.187   2.047
11387WAT     H246255   1.345   2.295   2.113
11387WAT    EPW46256   1.358   2.218   2.107
11388WAT      O46257   2.001   1.667   1.477
11388WAT     H146258   1.989   1.632   1.398
11388WAT     H246259   1.970   1.748   1.469
11388WAT    EPW46260   1.995   1.674   1.464
11389WAT      O46261   2.901   2.818   2.697
11389WAT     H146262   2.851   2.886   2.716
11389WAT     H246263   2.892   2.809   2.611
11389WAT    EPW46264   2.893   2.827   2.687
11390WAT      O46265   1.812   2.645   1.910
11390WAT     H146266   1.827   2.731   1.920
11390WAT     H246267   1.881   2.608   1.948
11390WAT    EPW46268   1.824   2.652   1.917
11391WAT      O46269   1.596   1.983   2.933
11391WAT     H146270   1.557   1.921   2.980
11391WAT     H246271   1.602   1.948   2.853
11391WAT    EPW46272   1.591   1.968   2.928
11392WAT      O46273   1.630   1.890   1.461
11392WAT     H146274   1.619   1.822   1.514
11392WAT     H246275   1.590   1.865   1.387
11392WAT    EPW46276   1.623   1.876   1.458
11393WAT      O46277   1.689   2.093   2.117
11393WAT     H146278   1.680   2.059   2.037
11393WAT     H246279   1.710   2.024   2.166
11393WAT    EPW46280   1.691   2.078   2.112
11394WAT      O46281   1.677   2.052   2.476
11394WAT     H146282   1.704   2.003   2.409
11394WAT     H246283   1.622   2.109   2.439
11394WAT    EPW46284   1.673   2.053   2.461
11395WAT      O46285   2.731   1.873   2.257
11395WAT     H146286   2.666   1.901   2.309
11395WAT     H246287   2.731   1.931   2.192
11395WAT    EPW46288   2.721   1.886   2.255
11396WAT      O46289   2.091   2.930   2.370
11396WAT     H146290   2.059   2.868   2.318
11396WAT     H246291   2.072   3.004   2.328
11396WAT    EPW46292   2.083   2.932   2.356
11397WAT      O46293   2.278   1.446   2.614
11397WAT     H146294   2.297   1.365   2.587
11397WAT     H246295   2.304   1.446   2.697
11397WAT    EPW46296   2.285   1.434   2.623
11398WAT      O46297   2.507   1.578   1.617
11398WAT     H146298   2.570   1.637   1.628
11398WAT     H246299   2.436   1.626   1.603
11398WAT    EPW46300   2.506   1.594   1.617
11399WAT      O46301   1.469   2.221   2.984
11399WAT     H146302   1.467   2.266   2.909
11399WAT     H246303   1.514   2.149   2.964
11399WAT    EPW46304   1.475   2.217   2.970
11400WAT      O46305   2.618   2.421   2.853
11400WAT     H146306   2.666   2.494   2.856
11400WAT     H246307   2.657   2.374   2.792
11400WAT    EPW46308   2.631   2.425   2.845
11401WAT      O46309   2.077   2.742   2.899
11401WAT     H146310   2.109   2.731   2.979
11401WAT     H246311   2.040   2.666   2.880
11401WAT    EPW46312   2.076   2.729   2.908
11402WAT      O46313   2.126   1.773   2.242
11402WAT     H146314   2.192   1.830   2.245
11402WAT     H246315   2.163   1.698   2.268
11402WAT    EPW46316   2.141   1.770   2.246
11403WAT      O46317   2.382   2.046   1.418
11403WAT     H146318   2.366   2.103   1.354
11403WAT     H246319   2.325   2.067   1.480
11403WAT    EPW46320   2.372   2.057   1.417
11404WAT      O46321   2.909   2.386   1.782
11404WAT     H146322   2.903   2.354   1.863
11404WAT     H246323   2.889   2.318   1.731
11404WAT    EPW46324   2.905   2.371   1.787
11405WAT      O46325   2.438   2.809   2.214
11405WAT     H146326   2.377   2.793   2.154
11405WAT     H246327   2.502   2.846   2.168
11405WAT    EPW46328   2.438   2.812   2.199
11406WAT      O46329   2.491   2.433   2.132
11406WAT     H146330   2.416   2.473   2.154
11406WAT     H246331   2.509   2.384   2.201
11406WAT    EPW46332   2.482   2.432   2.145
11407WAT      O46333   1.859   2.812   1.549
11407WAT     H146334   1.869   2.735   1.589
11407WAT     H246335   1.941   2.841   1.540
11407WAT    EPW46336   1.873   2.805   1.554
11408WAT      O46337   1.765   1.265   1.365
11408WAT     H146338   1.721   1.228   1.430
11408WAT     H246339   1.733   1.346   1.362
11408WAT    EPW46340   1.754   1.272   1.374
11409WAT      O46341   2.110   2.899   1.472
11409WAT     H146342   2.173   2.920   1.529
11409WAT     H246343   2.095   2.973   1.429
11409WAT    EPW46344   2.117   2.913   1.474
11410WAT      O46345   2.759   2.256   2.683
11410WAT     H146346   2.763   2.255   2.596
11410WAT     H246347   2.837   2.284   2.707
11410WAT    EPW46348   2.771   2.260   2.673
11411WAT      O46349   2.430   2.854   3.087
11411WAT     H146350   2.475   2.867   3.161
11411WAT     H246351   2.445   2.927   3.041
11411WAT    EPW46352   2.439   2.867   3.091
11412WAT      O46353   2.856   1.371   2.910
11412WAT     H146354   2.816   1.326   2.846
11412WAT     H246355   2.863   1.312   2.974
11412WAT    EPW46356   2.851   1.355   2.910
11413WAT      O46357   1.581   2.163   1.509
11413WAT     H146358   1.603   2.079   1.499
11413WAT     H246359   1.648   2.197   1.554
11413WAT    EPW46360   1.594   2.155   1.514
11414WAT      O46361   2.344   2.248   2.567
11414WAT     H146362   2.300   2.292   2.628
11414WAT     H246363   2.387   2.188   2.613
11414WAT    EPW46364   2.344   2.245   2.583
11415WAT      O46365   1.263   1.290   1.604
11415WAT     H146366   1.261   1.233   1.539
11415WAT     H246367   1.227   1.246   1.671
11415WAT    EPW46368   1.258   1.275   1.604
11416WAT      O46369   2.231   2.088   1.648
11416WAT     H146370   2.240   2.157   1.700
11416WAT     H246371   2.217   2.022   1.704
11416WAT    EPW46372   2.230   2.089   1.664
11417WAT      O46373   2.770   2.489   2.160
11417WAT     H146374   2.785   2.566   2.200
11417WAT     H246375   2.685   2.491   2.143
11417WAT    EPW46376   2.760   2.501   2.164
11418WAT      O46377   1.684   1.528   1.337
11418WAT     H146378   1.625   1.531   1.273
11418WAT     H246379   1.754   1.566   1.303
11418WAT    EPW46380   1.685   1.534   1.323
11419WAT      O46381   2.132   2.302   2.050
11419WAT     H146382   2.048   2.291   2.071
11419WAT     H246383   2.175   2.278   2.122
11419WAT    EPW46384   2.126   2.297   2.064
11420WAT      O46385   1.809   2.945   1.152
11420WAT     H146386   1.833   2.868   1.186
11420WAT     H246387   1.800   2.997   1.221
11420WAT    EPW46388   1.811   2.941   1.167
11421WAT      O46389   1.509   2.240   2.354
11421WAT     H146390   1.559   2.309   2.336
11421WAT     H246391   1.472   2.221   2.277
11421WAT    EPW46392   1.511   2.247   2.340
11422WAT      O46393   1.834   1.774   2.011
11422WAT     H146394   1.911   1.734   1.996
11422WAT     H246395   1.775   1.711   1.999
11422WAT    EPW46396   1.837   1.759   2.007
11423WAT      O46397   3.124   2.961   1.378
11423WAT     H146398   3.196   2.915   1.361
11423WAT     H246399   3.076   2.907   1.426
11423WAT    EPW46400   3.128   2.946   1.383
11424WAT      O46401   1.309   1.869   1.650
11424WAT     H146402   1.343   1.837   1.723
11424WAT     H246403   1.319   1.805   1.592
11424WAT    EPW46404   1.316   1.855   1.652
11425WAT      O46405   2.791   2.232   2.411
11425WAT     H146406   2.787   2.145   2.420
11425WAT     H246407   2.710   2.253   2.388
11425WAT    EPW46408   2.779   2.222   2.409
11426WAT      O46409   1.812   2.128   1.219
11426WAT     H146410   1.824   2.063   1.276
11426WAT     H246411   1.761   2.093   1.158
11426WAT    EPW46412   1.807   2.113   1.219
11427WAT      O46413   1.464   2.354   2.743
11427WAT     H146414   1.421   2.305   2.685
11427WAT     H246415   1.437   2.435   2.726
11427WAT    EPW46416   1.453   2.359   2.732
11428WAT      O46417   2.908   2.279   2.039
11428WAT     H146418   2.871   2.343   2.086
11428WAT     H246419   2.992   2.282   2.061
11428WAT    EPW46420   2.915   2.289   2.049
11429WAT      O46421   1.895   1.922   1.404
11429WAT     H146422   1.922   1.987   1.456
11429WAT     H246423   1.812   1.909   1.429
11429WAT    EPW46424   1.886   1.929   1.416
11430WAT      O46425   2.753   1.635   2.901
11430WAT     H146426   2.673   1.635   2.936
11430WAT     H246427   2.777   1.552   2.905
11430WAT    EPW46428   2.745   1.623   2.907
11431WAT      O46429   1.288   1.519   2.139
11431WAT     H146430   1.276   1.535   2.055
11431WAT     H246431   1.374   1.503   2.145
11431WAT    EPW46432   1.299   1.519   2.128
11432WAT      O46433   3.149   2.767   2.191
11432WAT     H146434   3.166   2.826   2.128
11432WAT     H246435   3.066   2.783   2.213
11432WAT    EPW46436   3.140   2.778   2.185
11433WAT      O46437   2.629   2.011   3.053
11433WAT     H146438   2.554   1.983   3.089
11433WAT     H246439   2.625   2.098   3.064
11433WAT    EPW46440   2.617   2.020   3.060
11434WAT      O46441   2.803   1.997   2.831
11434WAT     H146442   2.828   2.078   2.853
11434WAT     H246443   2.741   1.978   2.890
11434WAT    EPW46444   2.798   2.006   2.843
11435WAT      O46445   2.811   2.622   1.389
11435WAT     H146446   2.835   2.539   1.396
11435WAT     H246447   2.731   2.623   1.424
11435WAT    EPW46448   2.803   2.610   1.395
11436WAT      O46449   2.828   1.793   1.899
11436WAT     H146450   2.761   1.751   1.936
11436WAT     H246451   2.827   1.871   1.938
11436WAT    EPW46452   2.818   1.798   1.910
11437WAT      O46453   3.086   2.025   3.024
11437WAT     H146454   3.097   1.970   2.958
11437WAT     H246455   3.159   2.074   3.022
11437WAT    EPW46456   3.099   2.024   3.014
11438WAT      O46457   3.011   2.369   2.740
11438WAT     H146458   3.098   2.365   2.741
11438WAT     H246459   2.993   2.422   2.672
11438WAT    EPW46460   3.021   2.376   2.730
11439WAT      O46461   2.464   2.439   1.325
11439WAT     H146462   2.536   2.391   1.312
11439WAT     H246463   2.433   2.451   1.244
11439WAT    EPW46464   2.470   2.434   1.311
11440WAT      O46465   1.898   2.569   2.426
11440WAT     H146466   1.929   2.617   2.492
11440WAT     H246467   1.912   2.619   2.356
11440WAT    EPW46468   1.905   2.584   2.426
11441WAT      O46469   1.731   2.426   2.711
11441WAT     H146470   1.650   2.396   2.723
11441WAT     H246471   1.720   2.513   2.706
11441WAT    EPW46472   1.717   2.435   2.712
11442WAT      O46473   2.652   1.477   2.567
11442WAT     H146474   2.712   1.539   2.578
11442WAT     H246475   2.578   1.522   2.555
11442WAT    EPW46476   2.650   1.493   2.567
11443WAT      O46477   2.215   2.223   2.323
11443WAT     H146478   2.261   2.222   2.397
11443WAT     H246479   2.132   2.234   2.351
11443WAT    EPW46480   2.209   2.225   2.338
11444WAT      O46481   1.880   1.764   2.720
11444WAT     H146482   1.889   1.681   2.745
11444WAT     H246483   1.910   1.765   2.638
11444WAT    EPW46484   1.886   1.752   2.711
11445WAT      O46485   2.136   2.984   1.881
11445WAT     H146486   2.136   3.068   1.903
11445WAT     H246487   2.183   2.982   1.807
11445WAT    EPW46488   2.143   2.996   1.873
11446WAT      O46489   2.757   1.278   2.400
11446WAT     H146490   2.720   1.349   2.436
11446WAT     H246491   2.840   1.284   2.427
11446WAT    EPW46492   2.764   1.290   2.409
11447WAT      O46493   2.006   1.383   2.586
11447WAT     H146494   2.090   1.408   2.583
11447WAT     H246495   2.009   1.298   2.568
11447WAT    EPW46496   2.019   1.374   2.583
11448WAT      O46497   1.948   2.746   2.214
11448WAT     H146498   1.895   2.793   2.165
11448WAT     H246499   1.987   2.692   2.157
11448WAT    EPW46500   1.946   2.745   2.199
11449WAT      O46501   2.368   2.422   2.967
11449WAT     H146502   2.443   2.428   2.923
11449WAT     H246503   2.308   2.428   2.905
11449WAT    EPW46504   2.370   2.424   2.952
11450WAT      O46505   2.759   2.661   2.874
11450WAT     H146506   2.810   2.674   2.943
11450WAT     H246507   2.801   2.701   2.809
11450WAT    EPW46508   2.773   2.668   2.875
11451WAT      O46509   2.947   1.914   1.271
11451WAT     H146510   2.997   1.973   1.232
11451WAT     H246511   2.869   1.953   1.276
11451WAT    EPW46512   2.943   1.929   1.266
11452WAT      O46513   2.079   2.225   1.278
11452WAT     H146514   2.000   2.223   1.242
11452WAT     H246515   2.091   2.309   1.298
11452WAT    EPW46516   2.069   2.237   1.275
11453WAT      O46517   1.761   1.869   2.261
11453WAT     H146518   1.791   1.835   2.187
11453WAT     H246519   1.818   1.840   2.321
11453WAT    EPW46520   1.774   1.859   2.259
11454WAT      O46521   2.452   1.817   2.796
11454WAT     H146522   2.387   1.868   2.822
11454WAT     H246523   2.471   1.769   2.866
11454WAT    EPW46524   2.445   1.817   2.810
11455WAT      O46525   2.509   1.911   2.424
11455WAT     H146526   2.522   1.960   2.495
11455WAT     H246527   2.489   1.833   2.457
11455WAT    EPW46528   2.508   1.907   2.439
11456WAT      O46529   2.197   2.982   2.812
11456WAT     H146530   2.224   2.972   2.730
11456WAT     H246531   2.169   2.902   2.834
11456WAT    EPW46532   2.197   2.968   2.803
11457WAT      O46533   2.702   1.787   1.649
11457WAT     H146534   2.730   1.784   1.731
11457WAT     H246535   2.772   1.810   1.603
11457WAT    EPW46536   2.716   1.790   1.654
11458WAT      O46537   2.018   1.318   2.221
11458WAT     H146538   1.934   1.314   2.244
11458WAT     H246539   2.016   1.325   2.135
11458WAT    EPW46540   2.006   1.318   2.212
11459WAT      O46541   2.852   1.416   1.803
11459WAT     H146542   2.776   1.380   1.827
11459WAT     H246543   2.843   1.425   1.716
11459WAT    EPW46544   2.839   1.412   1.794
11460WAT      O46545   2.851   2.184   1.599
11460WAT     H146546   2.893   2.108   1.592
11460WAT     H246547   2.767   2.162   1.599
11460WAT    EPW46548   2.845   2.170   1.598
11461WAT      O46549   2.207   2.426   2.741
11461WAT     H146550   2.126   2.439   2.773
11461WAT     H246551   2.228   2.504   2.708
11461WAT    EPW46552   2.198   2.439   2.741
11462WAT      O46553   1.253   1.425   2.913
11462WAT     H146554   1.253   1.494   2.860
11462WAT     H246555   1.169   1.400   2.915
11462WAT    EPW46556   1.241   1.431   2.906
11463WAT      O46557   1.760   3.095   2.294
11463WAT     H146558   1.755   3.085   2.380
11463WAT     H246559   1.737   3.017   2.262
11463WAT    EPW46560   1.756   3.082   2.302
11464WAT      O46561   1.610   1.638   1.582
11464WAT     H146562   1.624   1.600   1.505
11464WAT     H246563   1.529   1.613   1.603
11464WAT    EPW46564   1.600   1.629   1.574
11465WAT      O46565   2.510   2.383   1.861
11465WAT     H146566   2.505   2.402   1.946
11465WAT     H246567   2.537   2.300   1.860
11465WAT    EPW46568   2.513   2.373   1.874
11466WAT      O46569   2.248   2.320   1.798
11466WAT     H146570   2.210   2.314   1.876
11466WAT     H246571   2.329   2.345   1.817
11466WAT    EPW46572   2.255   2.322   1.812
11467WAT      O46573   2.297   2.671   2.638
11467WAT     H146574   2.349   2.693   2.705
11467WAT     H246575   2.353   2.664   2.571
11467WAT    EPW46576   2.313   2.674   2.638
11468WAT      O46577   3.054   1.874   2.787
11468WAT     H146578   2.972   1.902   2.795
11468WAT     H246579   3.081   1.911   2.713
11468WAT    EPW46580   3.046   1.883   2.777
11469WAT      O46581   2.532   2.062   2.661
11469WAT     H146582   2.520   1.996   2.717
11469WAT     H246583   2.603   2.102   2.691
11469WAT    EPW46584   2.541   2.058   2.674
11470WAT      O46585   1.411   3.038   2.826
11470WAT     H146586   1.356   2.971   2.815
11470WAT     H246587   1.359   3.103   2.853
11470WAT    EPW46588   1.395   3.038   2.828
11471WAT      O46589   2.289   2.186   3.094
11471WAT     H146590   2.314   2.261   3.059
11471WAT     H246591   2.205   2.200   3.115
11471WAT    EPW46592   2.280   2.199   3.092
11472WAT      O46593   2.646   2.974   2.124
11472WAT     H146594   2.622   3.045   2.168
11472WAT     H246595   2.707   2.937   2.176
11472WAT    EPW46596   2.652   2.979   2.138
11473WAT      O46597   2.258   2.502   2.273
11473WAT     H146598   2.241   2.420   2.299
11473WAT     H246599   2.298   2.537   2.342
11473WAT    EPW46600   2.261   2.495   2.287
11474WAT      O46601   2.955   2.728   3.073
11474WAT     H146602   3.039   2.708   3.063
11474WAT     H246603   2.937   2.698   3.153
11474WAT    EPW46604   2.965   2.721   3.083
11475WAT      O46605   1.625   1.868   2.680
11475WAT     H146606   1.639   1.930   2.619
11475WAT     H246607   1.704   1.833   2.692
11475WAT    EPW46608   1.639   1.872   2.673
11476WAT      O46609   1.435   1.712   2.557
11476WAT     H146610   1.454   1.723   2.472
11476WAT     H246611   1.497   1.757   2.598
11476WAT    EPW46612   1.447   1.720   2.550
11477WAT      O46613   2.927   1.920   1.549
11477WAT     H146614   2.942   1.918   1.463
11477WAT     H246615   3.004   1.897   1.584
11477WAT    EPW46616   2.941   1.916   1.542
11478WAT      O46617   1.633   1.404   2.808
11478WAT     H146618   1.595   1.325   2.813
11478WAT     H246619   1.619   1.428   2.726
11478WAT    EPW46620   1.625   1.396   2.797
11479WAT      O46621   2.355   2.700   1.755
11479WAT     H146622   2.350   2.778   1.716
11479WAT     H246623   2.293   2.654   1.716
11479WAT    EPW46624   2.345   2.705   1.744
11480WAT      O46625   2.821   1.971   2.549
11480WAT     H146626   2.812   1.884   2.549
11480WAT     H246627   2.804   1.993   2.632
11480WAT    EPW46628   2.817   1.962   2.562
11481WAT      O46629   1.322   2.206   2.556
11481WAT     H146630   1.373   2.224   2.488
11481WAT     H246631   1.305   2.121   2.548
11481WAT    EPW46632   1.327   2.196   2.545
11482WAT      O46633   1.500   1.808   1.226
11482WAT     H146634   1.423   1.802   1.267
11482WAT     H246635   1.508   1.730   1.187
11482WAT    EPW46636   1.490   1.795   1.226
11483WAT      O46637   2.354   1.452   2.882
11483WAT     H146638   2.384   1.517   2.932
11483WAT     H246639   2.277   1.433   2.918
11483WAT    EPW46640   2.347   1.459   2.895
11484WAT      O46641   2.359   1.536   1.977
11484WAT     H146642   2.278   1.570   1.975
11484WAT     H246643   2.358   1.479   1.911
11484WAT    EPW46644   2.347   1.532   1.967
11485WAT      O46645   1.794   2.699   1.308
11485WAT     H146646   1.835   2.732   1.377
11485WAT     H246647   1.720   2.667   1.341
11485WAT    EPW46648   1.789   2.699   1.323
11486WAT      O46649   2.682   1.599   2.241
11486WAT     H146650   2.761   1.564   2.253
11486WAT     H246651   2.693   1.683   2.261
11486WAT    EPW46652   2.695   1.606   2.246
11487WAT      O46653   1.858   2.178   2.653
11487WAT     H146654   1.818   2.252   2.676
11487WAT     H246655   1.800   2.138   2.602
11487WAT    EPW46656   1.844   2.183   2.649
11488WAT      O46657   2.768   2.038   2.031
11488WAT     H146658   2.817   2.109   2.042
11488WAT     H246659   2.706   2.064   1.975
11488WAT    EPW46660   2.766   2.052   2.024
11489WAT      O46661   2.796   2.831   1.747
11489WAT     H146662   2.759   2.752   1.757
11489WAT     H246663   2.844   2.822   1.674
11489WAT    EPW46664   2.798   2.818   1.737
11490WAT      O46665   1.573   2.599   1.444
11490WAT     H146666   1.574   2.580   1.529
11490WAT     H246667   1.566   2.521   1.405
11490WAT    EPW46668   1.572   2.585   1.451
11491WAT      O46669   1.870   2.435   1.243
11491WAT     H146670   1.799   2.389   1.261
11491WAT     H246671   1.848   2.516   1.267
11491WAT    EPW46672   1.856   2.440   1.249
11492WAT      O46673   1.823   1.530   2.435
11492WAT     H146674   1.744   1.505   2.463
11492WAT     H246675   1.877   1.474   2.474
11492WAT    EPW46676   1.819   1.518   2.445
11493WAT      O46677   3.014   1.379   2.518
11493WAT     H146678   3.025   1.441   2.578
11493WAT     H246679   3.091   1.338   2.515
11493WAT    EPW46680   3.027   1.382   2.527
11494WAT      O46681   2.204   1.517   2.299
11494WAT     H146682   2.147   1.453   2.282
11494WAT     H246683   2.282   1.478   2.289
11494WAT    EPW46684   2.207   1.501   2.295
11495WAT      O46685   2.484   2.628   2.423
11495WAT     H146686   2.565   2.651   2.446
11495WAT     H246687   2.468   2.678   2.353
11495WAT    EPW46688   2.493   2.639   2.416
11496WAT      O46689   2.455   3.058   2.896
11496WAT     H146690   2.379   3.028   2.866
11496WAT     H246691   2.440   3.143   2.910
11496WAT    EPW46692   2.442   3.066   2.894
11497WAT      O46693   1.990   1.993   2.839
11497WAT     H146694   1.958   1.920   2.802
11497WAT     H246695   1.955   2.057   2.792
11497WAT    EPW46696   1.980   1.991   2.827
11498WAT      O46697   2.042   1.283   1.337
11498WAT     H146698   2.052   1.300   1.252
11498WAT     H246699   1.955   1.286   1.348
11498WAT    EPW46700   2.031   1.286   1.326
11499WAT      O46701   2.928   2.471   2.487
11499WAT     H146702   2.885   2.408   2.444
11499WAT     H246703   2.895   2.545   2.453
11499WAT    EPW46704   2.917   2.473   2.476
11500WAT      O46705   1.870   2.923   2.789
11500WAT     H146706   1.863   2.930   2.876
11500WAT     H246707   1.938   2.870   2.777
11500WAT    EPW46708   1.879   2.916   2.800
11501WAT      O46709   1.573   1.469   2.548
11501WAT     H146710   1.519   1.404   2.528
11501WAT     H246711   1.523   1.540   2.544
11501WAT    EPW46712   1.558   1.470   2.545
11502WAT      O46713   2.458   1.428   2.214
11502WAT     H146714   2.522   1.483   2.235
11502WAT     H246715   2.427   1.460   2.139
11502WAT    EPW46716   2.463   1.441   2.206
11503WAT      O46717   1.568   2.846   2.966
11503WAT     H146718   1.643   2.881   2.994
11503WAT     H246719   1.529   2.912   2.924
11503WAT    EPW46720   1.574   2.861   2.964
11504WAT      O46721   2.421   1.912   1.971
11504WAT     H146722   2.477   1.847   1.987
11504WAT     H246723   2.391   1.933   2.050
11504WAT    EPW46724   2.425   1.906   1.985
11505WAT      O46725   1.434   1.799   1.894
11505WAT     H146726   1.393   1.825   1.966
11505WAT     H246727   1.476   1.727   1.919
11505WAT    EPW46728   1.434   1.792   1.908
11506WAT      O46729   1.420   2.621   2.673
11506WAT     H146730   1.369   2.681   2.710
11506WAT     H246731   1.500   2.655   2.679
11506WAT    EPW46732   1.425   2.635   2.679
11507WAT      O46733   2.606   2.040   1.581
11507WAT     H146734   2.624   1.957   1.599
11507WAT     H246735   2.530   2.036   1.537
11507WAT    EPW46736   2.597   2.027   1.577
11508WAT      O46737   1.613   2.934   1.540
11508WAT     H146738   1.569   2.905   1.470
11508WAT     H246739   1.686   2.887   1.539
11508WAT    EPW46740   1.617   2.923   1.529
11509WAT      O46741   1.992   2.145   1.527
11509WAT     H146742   2.022   2.177   1.451
11509WAT     H246743   2.065   2.128   1.571
11509WAT    EPW46744   2.007   2.148   1.522
11510WAT      O46745   2.903   3.002   1.209
11510WAT     H146746   2.974   2.998   1.259
11510WAT     H246747   2.887   2.919   1.188
11510WAT    EPW46748   2.911   2.989   1.213
11511WAT      O46749   2.913   2.229   2.962
11511WAT     H146750   2.978   2.174   2.982
11511WAT     H246751   2.951   2.285   2.906
11511WAT    EPW46752   2.929   2.229   2.956
11512WAT      O46753   2.562   2.643   1.496
11512WAT     H146754   2.578   2.613   1.576
11512WAT     H246755   2.521   2.576   1.457
11512WAT    EPW46756   2.558   2.629   1.502
11513WAT      O46757   2.894   1.711   3.131
11513WAT     H146758   2.874   1.792   3.154
11513WAT     H246759   2.854   1.701   3.054
11513WAT    EPW46760   2.885   1.721   3.123
11514WAT      O46761   3.001   1.813   2.302
11514WAT     H146762   2.919   1.841   2.294
11514WAT     H246763   2.993   1.726   2.306
11514WAT    EPW46764   2.988   1.804   2.301
11515WAT      O46765   1.899   1.491   2.816
11515WAT     H146766   1.931   1.459   2.742
11515WAT     H246767   1.818   1.459   2.819
11515WAT    EPW46768   1.892   1.482   2.806
11516WAT      O46769   2.671   2.284   3.087
11516WAT     H146770   2.757   2.273   3.071
11516WAT     H246771   2.644   2.327   3.016
11516WAT    EPW46772   2.680   2.289   3.074
11517WAT      O46773   1.639   2.855   2.199
11517WAT     H146774   1.627   2.775   2.167
11517WAT     H246775   1.602   2.907   2.140
11517WAT    EPW46776   1.631   2.851   2.186
11518WAT      O46777   2.191   2.464   1.384
11518WAT     H146778   2.276   2.449   1.375
11518WAT     H246779   2.179   2.540   1.343
11518WAT    EPW46780   2.202   2.473   1.377
11519WAT      O46781   1.392   3.095   2.550
11519WAT     H146782   1.404   3.075   2.633
11519WAT     H246783   1.424   3.026   2.507
11519WAT    EPW46784   1.399   3.082   2.556
11520WAT      O46785   2.298   1.951   0.352
11520WAT     H146786   2.265   2.028   0.378
11520WAT     H246787   2.363   1.937   0.408
11520WAT    EPW46788   2.302   1.961   0.364
11521WAT      O46789   1.339   2.640   0.528
11521WAT     H146790   1.354   2.631   0.613
11521WAT     H246791   1.282   2.577   0.510
11521WAT    EPW46792   1.333   2.630   0.538
11522WAT      O46793   1.956   2.465   0.984
11522WAT     H146794   1.935   2.449   1.067
11522WAT     H246795   1.882   2.448   0.940
11522WAT    EPW46796   1.942   2.460   0.989
11523WAT      O46797   1.903   1.745   0.558
11523WAT     H146798   1.980   1.748   0.518
11523WAT     H246799   1.878   1.662   0.548
11523WAT    EPW46800   1.911   1.733   0.551
11524WAT      O46801   1.939   2.758   0.731
11524WAT     H146802   1.959   2.812   0.665
11524WAT     H246803   2.016   2.728   0.757
11524WAT    EPW46804   1.953   2.762   0.725
11525WAT      O46805   2.242   2.031   0.918
11525WAT     H146806   2.155   2.023   0.916
11525WAT     H246807   2.258   2.076   0.991
11525WAT    EPW46808   2.232   2.036   0.928
11526WAT      O46809   2.667   1.196   0.811
11526WAT     H146810   2.661   1.278   0.781
11526WAT     H246811   2.601   1.189   0.867
11526WAT    EPW46812   2.657   1.207   0.815
11527WAT      O46813   1.303   1.953   0.313
11527WAT     H146814   1.275   2.035   0.324
11527WAT     H246815   1.238   1.904   0.345
11527WAT    EPW46816   1.289   1.958   0.319
11528WAT      O46817   1.559   1.379   0.377
11528WAT     H146818   1.565   1.440   0.316
11528WAT     H246819   1.619   1.320   0.354
11528WAT    EPW46820   1.569   1.379   0.365
11529WAT      O46821   1.915   1.622   1.206
11529WAT     H146822   1.910   1.584   1.128
11529WAT     H246823   1.957   1.697   1.189
11529WAT    EPW46824   1.921   1.627   1.192
11530WAT      O46825   2.524   2.926   0.612
11530WAT     H146826   2.583   2.958   0.667
11530WAT     H246827   2.554   2.948   0.533
11530WAT    EPW46828   2.537   2.934   0.609
11531WAT      O46829   1.512   1.546   1.120
11531WAT     H146830   1.431   1.513   1.115
11531WAT     H246831   1.552   1.514   1.050
11531WAT    EPW46832   1.506   1.537   1.109
11532WAT      O46833   2.081   1.338   1.070
11532WAT     H146834   2.097   1.264   1.026
11532WAT     H246835   2.010   1.369   1.031
11532WAT    EPW46836   2.073   1.331   1.058
11533WAT      O46837   1.734   3.001   0.627
11533WAT     H146838   1.762   2.995   0.710
11533WAT     H246839   1.670   2.942   0.622
11533WAT    EPW46840   1.729   2.992   0.639
11534WAT      O46841   3.012   1.519   0.474
11534WAT     H146842   3.075   1.479   0.428
11534WAT     H246843   3.007   1.471   0.547
11534WAT    EPW46844   3.021   1.506   0.478
11535WAT      O46845   1.256   1.652   0.869
11535WAT     H146846   1.244   1.732   0.903
11535WAT     H246847   1.313   1.666   0.804
11535WAT    EPW46848   1.263   1.666   0.865
11536WAT      O46849   2.431   2.722   0.916
11536WAT     H146850   2.421   2.740   1.001
11536WAT     H246851   2.517   2.705   0.909
11536WAT    EPW46852   2.442   2.722   0.927
11537WAT      O46853   1.527   2.844   0.513
11537WAT     H146854   1.471   2.777   0.521
11537WAT     H246855   1.564   2.830   0.435
11537WAT    EPW46856   1.524   2.832   0.503
11538WAT      O46857   2.264   2.992   0.674
11538WAT     H146858   2.343   2.962   0.649
11538WAT     H246859   2.210   2.957   0.616
11538WAT    EPW46860   2.268   2.982   0.661
11539WAT      O46861   1.674   2.703   0.842
11539WAT     H146862   1.752   2.733   0.817
11539WAT     H246863   1.660   2.743   0.918
11539WAT    EPW46864   1.683   2.713   0.850
11540WAT      O46865   1.883   2.343   0.268
11540WAT     H146866   1.896   2.309   0.347
11540WAT     H246867   1.871   2.274   0.217
11540WAT    EPW46868   1.883   2.328   0.272
11541WAT      O46869   2.454   1.648   0.675
11541WAT     H146870   2.443   1.698   0.746
11541WAT     H246871   2.384   1.595   0.676
11541WAT    EPW46872   2.442   1.648   0.686
11542WAT      O46873   1.946   2.285   0.533
11542WAT     H146874   1.938   2.370   0.549
11542WAT     H246875   1.921   2.248   0.607
11542WAT    EPW46876   1.941   2.292   0.546
11543WAT      O46877   2.529   2.398   0.478
11543WAT     H146878   2.481   2.353   0.536
11543WAT     H246879   2.521   2.480   0.504
11543WAT    EPW46880   2.521   2.403   0.491
11544WAT      O46881   1.240   2.683   1.171
11544WAT     H146882   1.300   2.730   1.213
11544WAT     H246883   1.249   2.603   1.206
11544WAT    EPW46884   1.250   2.678   1.182
11545WAT      O46885   2.854   1.668   0.764
11545WAT     H146886   2.936   1.651   0.787
11545WAT     H246887   2.813   1.679   0.840
11545WAT    EPW46888   2.860   1.667   0.778
11546WAT      O46889   1.503   1.783   0.406
11546WAT     H146890   1.581   1.820   0.392
11546WAT     H246891   1.447   1.837   0.368
11546WAT    EPW46892   1.506   1.797   0.399
11547WAT      O46893   3.135   2.815   0.912
11547WAT     H146894   3.055   2.822   0.876
11547WAT     H246895   3.122   2.766   0.983
11547WAT    EPW46896   3.121   2.809   0.917
11548WAT      O46897   2.051   1.865   1.179
11548WAT     H146898   2.004   1.898   1.245
11548WAT     H246899   2.027   1.914   1.111
11548WAT    EPW46900   2.040   1.877   1.179
11549WAT      O46901   3.132   1.932   0.657
11549WAT     H146902   3.190   1.867   0.652
11549WAT     H246903   3.070   1.908   0.600
11549WAT    EPW46904   3.131   1.919   0.648
11550WAT      O46905   1.669   2.495   0.374
11550WAT     H146906   1.717   2.516   0.444
11550WAT     H246907   1.724   2.449   0.324
11550WAT    EPW46908   1.684   2.492   0.377
11551WAT      O46909   2.877   2.843   0.790
11551WAT     H146910   2.823   2.910   0.798
11551WAT     H246911   2.868   2.818   0.707
11551WAT    EPW46912   2.868   2.849   0.779
11552WAT      O46913   1.613   2.001   1.058
11552WAT     H146914   1.575   1.940   1.106
11552WAT     H246915   1.609   1.969   0.977
11552WAT    EPW46916   1.607   1.987   1.053
11553WAT      O46917   1.653   2.076   0.587
11553WAT     H146918   1.687   2.029   0.521
11553WAT     H246919   1.604   2.136   0.547
11553WAT    EPW46920   1.651   2.078   0.571
11554WAT      O46921   2.716   1.795   0.375
11554WAT     H146922   2.655   1.826   0.429
11554WAT     H246923   2.684   1.812   0.296
11554WAT    EPW46924   2.702   1.802   0.371
11555WAT      O46925   2.042   2.915   0.523
11555WAT     H146926   2.036   2.858   0.458
11555WAT     H246927   2.025   2.992   0.484
11555WAT    EPW46928   2.039   2.918   0.508
11556WAT      O46929   2.269   1.428   0.707
11556WAT     H146930   2.286   1.343   0.695
11556WAT     H246931   2.287   1.440   0.792
11556WAT    EPW46932   2.274   1.417   0.718
11557WAT      O46933   1.457   2.224   1.099
11557WAT     H146934   1.456   2.269   1.024
11557WAT     H246935   1.509   2.156   1.082
11557WAT    EPW46936   1.464   2.221   1.085
11558WAT      O46937   2.633   2.400   0.956
11558WAT     H146938   2.661   2.482   0.942
11558WAT     H246939   2.662   2.357   0.886
11558WAT    EPW46940   2.641   2.406   0.943
11559WAT      O46941   2.026   2.736   1.034
11559WAT     H146942   2.066   2.727   1.111
11559WAT     H246943   2.007   2.654   1.012
11559WAT    EPW46944   2.029   2.722   1.042
11560WAT      O46945   2.131   1.737   0.409
11560WAT     H146946   2.185   1.800   0.384
11560WAT     H246947   2.178   1.664   0.400
11560WAT    EPW46948   2.146   1.735   0.404
11561WAT      O46949   2.635   2.688   0.259
11561WAT     H146950   2.561   2.658   0.226
11561WAT     H246951   2.623   2.774   0.262
11561WAT    EPW46952   2.623   2.696   0.254
11562WAT      O46953   2.418   2.504   0.233
11562WAT     H146954   2.333   2.487   0.239
11562WAT     H246955   2.453   2.456   0.297
11562WAT    EPW46956   2.411   2.495   0.243
11563WAT      O46957   2.739   2.258   0.736
11563WAT     H146958   2.738   2.236   0.651
11563WAT     H246959   2.822   2.279   0.751
11563WAT    EPW46960   2.751   2.258   0.725
11564WAT      O46961   2.411   2.840   1.179
11564WAT     H146962   2.441   2.860   1.258
11564WAT     H246963   2.427   2.911   1.132
11564WAT    EPW46964   2.417   2.853   1.184
11565WAT      O46965   2.902   1.267   0.945
11565WAT     H146966   2.825   1.248   0.908
11565WAT     H246967   2.896   1.232   1.025
11565WAT    EPW46968   2.890   1.259   0.951
11566WAT      O46969   2.354   2.273   0.659
11566WAT     H146970   2.306   2.307   0.724
11566WAT     H246971   2.395   2.206   0.697
11566WAT    EPW46972   2.353   2.268   0.674
11567WAT      O46973   2.784   2.505   0.405
11567WAT     H146974   2.748   2.556   0.344
11567WAT     H246975   2.718   2.455   0.432
11567WAT    EPW46976   2.769   2.505   0.400
11568WAT      O46977   2.153   2.438   0.308
11568WAT     H146978   2.072   2.423   0.281
11568WAT     H246979   2.176   2.364   0.348
11568WAT    EPW46980   2.145   2.425   0.310
11569WAT      O46981   1.495   2.274   0.453
11569WAT     H146982   1.538   2.347   0.435
11569WAT     H246983   1.442   2.264   0.385
11569WAT    EPW46984   1.494   2.283   0.440
11570WAT      O46985   2.771   2.132   0.486
11570WAT     H146986   2.784   2.062   0.536
11570WAT     H246987   2.691   2.120   0.454
11570WAT    EPW46988   2.761   2.120   0.488
11571WAT      O46989   1.451   2.359   0.860
11571WAT     H146990   1.413   2.309   0.800
11571WAT     H246991   1.422   2.439   0.842
11571WAT    EPW46992   1.441   2.363   0.849
11572WAT      O46993   3.009   2.209   0.360
11572WAT     H146994   2.937   2.182   0.402
11572WAT     H246995   2.978   2.243   0.285
11572WAT    EPW46996   2.993   2.210   0.355
11573WAT      O46997   2.671   1.633   0.987
11573WAT     H146998   2.604   1.631   1.042
11573WAT     H246999   2.653   1.570   0.929
11573WAT    EPW47000   2.659   1.623   0.986
11574WAT      O47001   3.059   2.812   0.380
11574WAT     H147002   3.077   2.796   0.296
11574WAT     H247003   3.118   2.764   0.423
11574WAT    EPW47004   3.071   2.803   0.374
11575WAT      O47005   2.545   1.981   1.094
11575WAT     H147006   2.589   1.985   1.170
11575WAT     H247007   2.476   2.033   1.108
11575WAT    EPW47008   2.542   1.989   1.107
11576WAT      O47009   2.782   2.005   0.939
11576WAT     H147010   2.809   2.085   0.959
11576WAT     H247011   2.710   1.995   0.986
11576WAT    EPW47012   2.776   2.015   0.949
11577WAT      O47013   3.104   2.088   1.127
11577WAT     H147014   3.110   2.034   1.059
11577WAT     H247015   3.180   2.131   1.126
11577WAT    EPW47016   3.116   2.087   1.117
11578WAT      O47017   3.004   2.340   0.763
11578WAT     H147018   3.070   2.286   0.743
11578WAT     H247019   3.006   2.398   0.698
11578WAT    EPW47020   3.014   2.341   0.750
11579WAT      O47021   1.888   2.559   0.540
11579WAT     H147022   1.899   2.611   0.610
11579WAT     H247023   1.922   2.605   0.475
11579WAT    EPW47024   1.895   2.573   0.541
11580WAT      O47025   1.719   2.425   0.840
11580WAT     H147026   1.637   2.396   0.850
11580WAT     H247027   1.709   2.512   0.833
11580WAT    EPW47028   1.705   2.434   0.840
11581WAT      O47029   2.654   1.470   0.754
11581WAT     H147030   2.726   1.512   0.732
11581WAT     H247031   2.590   1.518   0.718
11581WAT    EPW47032   2.655   1.483   0.746
11582WAT      O47033   2.197   2.200   0.446
11582WAT     H147034   2.249   2.220   0.513
11582WAT     H247035   2.117   2.211   0.479
11582WAT    EPW47036   2.193   2.205   0.461
11583WAT      O47037   1.852   1.768   0.829
11583WAT     H147038   1.860   1.689   0.864
11583WAT     H247039   1.878   1.756   0.747
11583WAT    EPW47040   1.857   1.755   0.822
11584WAT      O47041   2.770   1.249   0.511
11584WAT     H147042   2.744   1.331   0.493
11584WAT     H247043   2.841   1.261   0.560
11584WAT    EPW47044   2.777   1.263   0.516
11585WAT      O47045   1.994   1.375   0.747
11585WAT     H147046   2.081   1.376   0.735
11585WAT     H247047   1.978   1.293   0.773
11585WAT    EPW47048   2.005   1.363   0.749
11586WAT      O47049   1.950   2.729   0.325
11586WAT     H147050   1.870   2.744   0.293
11586WAT     H247051   1.996   2.707   0.254
11586WAT    EPW47052   1.945   2.728   0.310
11587WAT      O47053   2.379   2.405   1.061
11587WAT     H147054   2.457   2.407   1.021
11587WAT     H247055   2.322   2.417   0.996
11587WAT    EPW47056   2.382   2.407   1.046
11588WAT      O47057   2.709   2.668   0.929
11588WAT     H147058   2.749   2.686   1.004
11588WAT     H247059   2.757   2.712   0.870
11588WAT    EPW47060   2.722   2.677   0.931
11589WAT      O47061   1.756   1.904   0.389
11589WAT     H147062   1.794   1.898   0.311
11589WAT     H247063   1.805   1.854   0.440
11589WAT    EPW47064   1.769   1.896   0.385
11590WAT      O47065   2.431   1.836   0.878
11590WAT     H147066   2.360   1.886   0.887
11590WAT     H247067   2.474   1.848   0.953
11590WAT    EPW47068   2.427   1.845   0.890
11591WAT      O47069   2.504   1.882   0.527
11591WAT     H147070   2.515   1.939   0.593
11591WAT     H247071   2.484   1.808   0.568
11591WAT    EPW47072   2.503   1.880   0.543
11592WAT      O47073   2.178   2.952   0.934
11592WAT     H147074   2.198   2.942   0.850
11592WAT     H247075   2.141   2.877   0.956
11592WAT    EPW47076   2.176   2.940   0.925
11593WAT      O47077   1.999   1.328   0.385
11593WAT     H147078   1.948   1.382   0.431
11593WAT     H247079   1.943   1.289   0.330
11593WAT    EPW47080   1.983   1.330   0.383
11594WAT      O47081   2.198   2.412   0.852
11594WAT     H147082   2.121   2.410   0.893
11594WAT     H247083   2.202   2.494   0.821
11594WAT    EPW47084   2.187   2.424   0.853
11595WAT      O47085   1.267   1.431   1.035
11595WAT     H147086   1.264   1.501   0.983
11595WAT     H247087   1.194   1.387   1.014
11595WAT    EPW47088   1.256   1.435   1.024
11596WAT      O47089   1.749   3.032   0.349
11596WAT     H147090   1.753   3.023   0.436
11596WAT     H247091   1.728   2.953   0.321
11596WAT    EPW47092   1.747   3.019   0.358
11597WAT      O47093   2.202   2.673   0.764
11597WAT     H147094   2.278   2.693   0.801
11597WAT     H247095   2.221   2.668   0.679
11597WAT    EPW47096   2.216   2.675   0.757
11598WAT      O47097   3.053   1.910   0.920
11598WAT     H147098   2.967   1.925   0.925
11598WAT     H247099   3.071   1.927   0.836
11598WAT    EPW47100   3.043   1.915   0.908
11599WAT      O47101   2.522   2.066   0.735
11599WAT     H147102   2.504   2.006   0.796
11599WAT     H247103   2.594   2.105   0.765
11599WAT    EPW47104   2.530   2.063   0.749
11600WAT      O47105   1.417   3.042   0.939
11600WAT     H147106   1.357   2.980   0.929
11600WAT     H247107   1.371   3.110   0.970
11600WAT    EPW47108   1.401   3.043   0.942
11601WAT      O47109   2.318   2.155   1.159
11601WAT     H147110   2.344   2.234   1.130
11601WAT     H247111   2.238   2.170   1.190
11601WAT    EPW47112   2.310   2.169   1.159
11602WAT      O47113   2.609   2.956   0.342
11602WAT     H147114   2.568   3.030   0.323
11602WAT     H247115   2.682   2.983   0.383
11602WAT    EPW47116   2.614   2.971   0.345
11603WAT      O47117   2.230   2.648   0.490
11603WAT     H147118   2.207   2.584   0.436
11603WAT     H247119   2.317   2.653   0.480
11603WAT    EPW47120   2.240   2.639   0.480
11604WAT      O47121   2.866   2.736   1.149
11604WAT     H147122   2.950   2.712   1.146
11604WAT     H247123   2.837   2.699   1.223
11604WAT    EPW47124   2.874   2.727   1.159
11605WAT      O47125   1.607   1.894   0.797
11605WAT     H147126   1.620   1.954   0.735
11605WAT     H247127   1.685   1.856   0.805
11605WAT    EPW47128   1.621   1.897   0.789
11606WAT      O47129   1.441   1.721   0.664
11606WAT     H147130   1.460   1.736   0.580
11606WAT     H247131   1.498   1.770   0.707
11606WAT    EPW47132   1.453   1.730   0.658
11607WAT      O47133   1.618   1.405   0.905
11607WAT     H147134   1.574   1.330   0.915
11607WAT     H247135   1.604   1.426   0.822
11607WAT    EPW47136   1.610   1.397   0.894
11608WAT      O47137   2.810   1.930   0.670
11608WAT     H147138   2.824   1.844   0.682
11608WAT     H247139   2.795   1.959   0.751
11608WAT    EPW47140   2.810   1.921   0.684
11609WAT      O47141   1.332   2.196   0.670
11609WAT     H147142   1.376   2.219   0.598
11609WAT     H247143   1.316   2.111   0.658
11609WAT    EPW47144   1.337   2.187   0.658
11610WAT      O47145   2.319   1.454   0.979
11610WAT     H147146   2.356   1.510   1.034
11610WAT     H247147   2.246   1.430   1.020
11610WAT    EPW47148   2.313   1.458   0.993
11611WAT      O47149   2.734   1.520   0.423
11611WAT     H147150   2.821   1.515   0.428
11611WAT     H247151   2.718   1.605   0.414
11611WAT    EPW47152   2.744   1.532   0.422
11612WAT      O47153   1.837   2.181   0.767
11612WAT     H147154   1.803   2.256   0.794
11612WAT     H247155   1.776   2.147   0.715
11612WAT    EPW47156   1.823   2.187   0.763
11613WAT      O47157   1.837   1.481   0.549
11613WAT     H147158   1.753   1.468   0.569
11613WAT     H247159   1.879   1.443   0.615
11613WAT    EPW47160   1.831   1.473   0.562
11614WAT      O47161   2.986   1.323   0.675
11614WAT     H147162   2.971   1.308   0.759
11614WAT     H247163   3.063   1.284   0.660
11614WAT    EPW47164   2.995   1.315   0.685
11615WAT      O47165   2.245   1.476   0.423
11615WAT     H147166   2.177   1.428   0.397
11615WAT     H247167   2.246   1.464   0.509
11615WAT    EPW47168   2.235   1.467   0.432
11616WAT      O47169   2.509   2.669   0.509
11616WAT     H147170   2.520   2.741   0.557
11616WAT     H247171   2.554   2.686   0.436
11616WAT    EPW47172   2.517   2.682   0.505
11617WAT      O47173   2.442   3.044   0.988
11617WAT     H147174   2.370   3.003   0.959
11617WAT     H247175   2.416   3.127   0.996
11617WAT    EPW47176   2.427   3.050   0.985
11618WAT      O47177   1.968   1.995   0.939
11618WAT     H147178   1.933   1.923   0.903
11618WAT     H247179   1.929   2.060   0.896
11618WAT    EPW47180   1.957   1.994   0.928
11619WAT      O47181   3.039   2.449   0.501
11619WAT     H147182   3.047   2.370   0.465
11619WAT     H247183   2.961   2.477   0.472
11619WAT    EPW47184   3.028   2.442   0.491
11620WAT      O47185   1.867   2.983   0.881
11620WAT     H147186   1.857   2.975   0.967
11620WAT     H247187   1.908   2.909   0.859
11620WAT    EPW47188   1.872   2.971   0.890
11621WAT      O47189   2.835   2.755   0.535
11621WAT     H147190   2.898   2.782   0.481
11621WAT     H247191   2.813   2.677   0.502
11621WAT    EPW47192   2.841   2.747   0.522
11622WAT      O47193   1.572   1.471   0.642
11622WAT     H147194   1.547   1.430   0.569
11622WAT     H247195   1.525   1.545   0.642
11622WAT    EPW47196   1.562   1.476   0.631
11623WAT      O47197   2.496   1.378   0.328
11623WAT     H147198   2.557   1.434   0.355
11623WAT     H247199   2.421   1.417   0.353
11623WAT    EPW47200   2.494   1.392   0.336
11624WAT      O47201   1.569   2.845   1.072
11624WAT     H147202   1.644   2.882   1.097
11624WAT     H247203   1.526   2.910   1.033
11624WAT    EPW47204   1.574   2.860   1.070
11625WAT      O47205   1.407   2.628   0.794
11625WAT     H147206   1.357   2.688   0.834
11625WAT     H247207   1.488   2.658   0.804
11625WAT    EPW47208   1.411   2.641   0.801
11626WAT      O47209   2.904   2.244   1.014
11626WAT     H147210   2.971   2.208   1.057
11626WAT     H247211   2.943   2.289   0.950
11626WAT    EPW47212   2.920   2.245   1.011
11627WAT      O47213   2.913   1.679   1.113
11627WAT     H147214   2.911   1.760   1.148
11627WAT     H247215   2.833   1.668   1.081
11627WAT    EPW47216   2.901   1.690   1.114
11628WAT      O47217   2.990   1.800   0.446
11628WAT     H147218   2.905   1.806   0.428
11628WAT     H247219   3.002   1.714   0.458
11628WAT    EPW47220   2.980   1.788   0.445
11629WAT      O47221   1.873   1.507   0.950
11629WAT     H147222   1.916   1.474   0.881
11629WAT     H247223   1.793   1.471   0.943
11629WAT    EPW47224   1.867   1.497   0.939
11630WAT      O47225   2.688   2.301   1.230
11630WAT     H147226   2.765   2.325   1.264
11630WAT     H247227   2.697   2.319   1.145
11630WAT    EPW47228   2.701   2.307   1.222
11631WAT      O47229   1.667   2.761   0.271
11631WAT     H147230   1.655   2.678   0.296
11631WAT     H247231   1.630   2.764   0.192
11631WAT    EPW47232   1.660   2.749   0.263
11632WAT      O47233   1.372   3.048   0.649
11632WAT     H147234   1.415   3.043   0.725
11632WAT     H247235   1.417   2.994   0.597
11632WAT    EPW47236   1.385   3.039   0.653
11633WAT      O47237   1.290   0.631   7.490
11633WAT     H147238   1.306   0.648   7.574
11633WAT     H247239   1.207   0.603   7.491
11633WAT    EPW47240   1.280   0.629   7.503
11634WAT      O47241   2.935   0.937   7.216
11634WAT     H147242   2.993   0.880   7.245
11634WAT     H247243   2.883   0.890   7.164
11634WAT    EPW47244   2.936   0.922   7.213
11635WAT      O47245   1.545   0.525   7.019
11635WAT     H147246   1.516   0.477   6.952
11635WAT     H247247   1.552   0.468   7.084
11635WAT    EPW47248   1.542   0.510   7.018
11636WAT      O47249   2.616   0.284   7.505
11636WAT     H147250   2.655   0.278   7.428
11636WAT     H247251   2.570   0.210   7.510
11636WAT    EPW47252   2.615   0.272   7.494
11637WAT      O47253   1.549   0.713   7.416
11637WAT     H147254   1.602   0.679   7.477
11637WAT     H247255   1.473   0.674   7.432
11637WAT    EPW47256   1.546   0.702   7.427
11638WAT      O47257   1.468   1.003   7.026
11638WAT     H147258   1.487   0.998   6.941
11638WAT     H247259   1.489   0.924   7.057
11638WAT    EPW47260   1.474   0.991   7.018
11639WAT      O47261   1.434   0.293   7.587
11639WAT     H147262   1.392   0.283   7.511
11639WAT     H247263   1.451   0.211   7.611
11639WAT    EPW47264   1.430   0.279   7.579
11640WAT      O47265   2.052   0.715   7.688
11640WAT     H147266   2.093   0.642   7.713
11640WAT     H247267   2.116   0.775   7.685
11640WAT    EPW47268   2.068   0.713   7.691
11641WAT      O47269   2.139   0.663   7.335
11641WAT     H147270   2.163   0.591   7.378
11641WAT     H247271   2.162   0.647   7.253
11641WAT    EPW47272   2.146   0.650   7.329
11642WAT      O47273   1.315   1.066   7.641
11642WAT     H147274   1.243   1.104   7.610
11642WAT     H247275   1.352   1.032   7.571
11642WAT    EPW47276   1.310   1.067   7.626
11643WAT      O47277   1.871   0.726   7.354
11643WAT     H147278   1.855   0.750   7.436
11643WAT     H247279   1.957   0.709   7.354
11643WAT    EPW47280   1.882   0.727   7.366
11644WAT      O47281   2.512   1.052   7.107
11644WAT     H147282   2.581   1.104   7.116
11644WAT     H247283   2.540   0.975   7.137
11644WAT    EPW47284   2.526   1.048   7.113
11645WAT      O47285   2.296   1.063   7.275
11645WAT     H147286   2.307   1.133   7.325
11645WAT     H247287   2.364   1.067   7.219
11645WAT    EPW47288   2.308   1.074   7.274
11646WAT      O47289   1.440   0.970   7.410
11646WAT     H147290   1.490   0.900   7.425
11646WAT     H247291   1.492   1.023   7.364
11646WAT    EPW47292   1.455   0.967   7.405
11647WAT      O47293   1.626   0.710   7.791
11647WAT     H147294   1.678   0.759   7.741
11647WAT     H247295   1.636   0.630   7.758
11647WAT    EPW47296   1.635   0.705   7.779
11648WAT      O47297   1.908   1.060   7.564
11648WAT     H147298   1.982   1.105   7.578
11648WAT     H247299   1.849   1.122   7.549
11648WAT    EPW47300   1.910   1.076   7.564
11649WAT      O47301   2.706   1.253   7.092
11649WAT     H147302   2.753   1.228   7.023
11649WAT     H247303   2.761   1.303   7.137
11649WAT    EPW47304   2.721   1.257   7.088
11650WAT      O47305   2.188   0.870   6.926
11650WAT     H147306   2.151   0.924   6.983
11650WAT     H247307   2.262   0.911   6.903
11650WAT    EPW47308   2.194   0.884   6.931
11651WAT      O47309   2.965   1.184   7.509
11651WAT     H147310   2.924   1.261   7.508
11651WAT     H247311   2.904   1.127   7.484
11651WAT    EPW47312   2.950   1.187   7.505
11652WAT      O47313   2.676   0.780   7.510
11652WAT     H147314   2.748   0.731   7.504
11652WAT     H247315   2.611   0.723   7.499
11652WAT    EPW47316   2.677   0.765   7.507
11653WAT      O47317   2.905   0.548   7.052
11653WAT     H147318   2.920   0.511   7.130
11653WAT     H247319   2.985   0.569   7.024
11653WAT    EPW47320   2.919   0.545   7.059
11654WAT      O47321   1.633   0.494   7.605
11654WAT     H147322   1.687   0.472   7.540
11654WAT     H247323   1.571   0.432   7.601
11654WAT    EPW47324   1.632   0.481   7.595
11655WAT      O47325   1.565   1.112   7.760
11655WAT     H147326   1.485   1.106   7.725
11655WAT     H247327   1.612   1.146   7.695
11655WAT    EPW47328   1.560   1.116   7.745
11656WAT      O47329   2.656   0.136   6.983
11656WAT     H147330   2.677   0.212   6.945
11656WAT     H247331   2.579   0.152   7.020
11656WAT    EPW47332   2.648   0.149   6.983
11657WAT      O47333   1.777   0.463   7.361
11657WAT     H147334   1.803   0.546   7.351
11657WAT     H247335   1.843   0.417   7.329
11657WAT    EPW47336   1.790   0.469   7.355
11658WAT      O47337   1.352   0.677   7.757
11658WAT     H147338   1.318   0.746   7.798
11658WAT     H247339   1.438   0.688   7.766
11658WAT    EPW47340   1.360   0.689   7.764
11659WAT      O47341   1.322   0.252   7.326
11659WAT     H147342   1.332   0.166   7.314
11659WAT     H247343   1.394   0.286   7.290
11659WAT    EPW47344   1.334   0.244   7.319
11660WAT      O47345   2.264   0.904   7.666
11660WAT     H147346   2.231   0.984   7.662
11660WAT     H247347   2.292   0.888   7.585
11660WAT    EPW47348   2.263   0.913   7.654
11661WAT      O47349   1.271   0.799   7.271
11661WAT     H147350   1.323   0.860   7.304
11661WAT     H247351   1.263   0.742   7.336
11661WAT    EPW47352   1.277   0.800   7.285
11662WAT      O47353   1.287   0.667   7.022
11662WAT     H147354   1.360   0.620   7.024
11662WAT     H247355   1.287   0.708   7.099
11662WAT    EPW47356   1.298   0.666   7.034
11663WAT      O47357   1.265   0.411   7.777
11663WAT     H147358   1.317   0.371   7.720
11663WAT     H247359   1.296   0.492   7.780
11663WAT    EPW47360   1.277   0.417   7.769
11664WAT      O47361   1.809   0.809   7.608
11664WAT     H147362   1.831   0.893   7.598
11664WAT     H247363   1.880   0.773   7.642
11664WAT    EPW47364   1.823   0.816   7.611
11665WAT      O47365   1.490   0.037   7.691
11665WAT     H147366   1.519   0.047   7.773
11665WAT     H247367   1.494  -0.050   7.679
11665WAT    EPW47368   1.495   0.025   7.701
11666WAT      O47369   2.435   0.252   7.125
11666WAT     H147370   2.391   0.276   7.054
11666WAT     H247371   2.372   0.240   7.184
11666WAT    EPW47372   2.419   0.253   7.123
11667WAT      O47373   2.897   0.616   7.492
11667WAT     H147374   2.906   0.574   7.568
11667WAT     H247375   2.913   0.554   7.433
11667WAT    EPW47376   2.901   0.601   7.494
11668WAT      O47377   2.411   0.676   7.758
11668WAT     H147378   2.379   0.755   7.741
11668WAT     H247379   2.483   0.692   7.805
11668WAT    EPW47380   2.417   0.690   7.763
11669WAT      O47381   1.843   0.979   7.246
11669WAT     H147382   1.855   0.903   7.287
11669WAT     H247383   1.923   1.005   7.227
11669WAT    EPW47384   1.856   0.972   7.249
11670WAT      O47385   2.078   1.039   7.114
11670WAT     H147386   2.145   1.046   7.169
11670WAT     H247387   2.071   1.119   7.080
11670WAT    EPW47388   2.087   1.052   7.117
11671WAT      O47389   1.572   0.338   7.221
11671WAT     H147390   1.619   0.271   7.189
11671WAT     H247391   1.628   0.379   7.273
11671WAT    EPW47392   1.587   0.334   7.224
11672WAT      O47393   2.227   0.230   7.319
11672WAT     H147394   2.236   0.299   7.372
11672WAT     H247395   2.211   0.164   7.375
11672WAT    EPW47396   2.226   0.230   7.335
11673WAT      O47397   2.205   0.491   7.759
11673WAT     H147398   2.194   0.454   7.837
11673WAT     H247399   2.276   0.541   7.769
11673WAT    EPW47400   2.214   0.493   7.772
11674WAT      O47401   1.782   1.104   6.869
11674WAT     H147402   1.798   1.028   6.908
11674WAT     H247403   1.781   1.161   6.935
11674WAT    EPW47404   1.784   1.101   6.884
11675WAT      O47405   3.082   1.122   7.076
11675WAT     H147406   3.159   1.084   7.061
11675WAT     H247407   3.037   1.060   7.119
11675WAT    EPW47408   3.087   1.107   7.080
11676WAT      O47409   1.613   0.135   6.819
11676WAT     H147410   1.598   0.052   6.843
11676WAT     H247411   1.695   0.132   6.788
11676WAT    EPW47412   1.623   0.122   6.818
11677WAT      O47413   2.915   0.506   7.750
11677WAT     H147414   2.929   0.574   7.802
11677WAT     H247415   2.987   0.458   7.759
11677WAT    EPW47416   2.928   0.509   7.759
11678WAT      O47417   3.162   0.889   7.855
11678WAT     H147418   3.164   0.948   7.790
11678WAT     H247419   3.234   0.906   7.901
11678WAT    EPW47420   3.173   0.900   7.852
11679WAT      O47421   2.770   0.787   7.060
11679WAT     H147422   2.805   0.708   7.058
11679WAT     H247423   2.697   0.776   7.105
11679WAT    EPW47424   2.765   0.774   7.066
11680WAT      O47425   2.482   0.578   6.999
11680WAT     H147426   2.548   0.520   6.997
11680WAT     H247427   2.454   0.579   6.916
11680WAT    EPW47428   2.488   0.570   6.986
11681WAT      O47429   2.159   1.185   7.616
11681WAT     H147430   2.129   1.260   7.648
11681WAT     H247431   2.219   1.211   7.557
11681WAT    EPW47432   2.164   1.200   7.612
11682WAT      O47433   2.042   0.438   6.986
11682WAT     H147434   1.970   0.480   6.960
11682WAT     H247435   2.094   0.503   7.013
11682WAT    EPW47436   2.039   0.454   6.986
11683WAT      O47437   2.945   0.418   7.297
11683WAT     H147438   3.014   0.366   7.308
11683WAT     H247439   2.879   0.362   7.285
11683WAT    EPW47440   2.945   0.402   7.297
11684WAT      O47441   2.497   0.557   7.517
11684WAT     H147442   2.481   0.586   7.597
11684WAT     H247443   2.548   0.487   7.530
11684WAT    EPW47444   2.502   0.551   7.531
11685WAT      O47445   2.246   0.451   7.482
11685WAT     H147446   2.220   0.454   7.565
11685WAT     H247447   2.327   0.484   7.485
11685WAT    EPW47448   2.254   0.456   7.494
11686WAT      O47449   2.640   1.191   7.751
11686WAT     H147450   2.579   1.162   7.807
11686WAT     H247451   2.711   1.145   7.772
11686WAT    EPW47452   2.641   1.180   7.762
11687WAT      O47453   2.343   0.831   7.410
11687WAT     H147454   2.327   0.905   7.366
11687WAT     H247455   2.277   0.779   7.389
11687WAT    EPW47456   2.331   0.834   7.401
11688WAT      O47457   1.803   0.857   6.998
11688WAT     H147458   1.852   0.888   7.063
11688WAT     H247459   1.728   0.836   7.036
11688WAT    EPW47460   1.799   0.858   7.013
11689WAT      O47461   2.648   0.419   7.751
11689WAT     H147462   2.732   0.442   7.757
11689WAT     H247463   2.647   0.363   7.683
11689WAT    EPW47464   2.660   0.414   7.742
11690WAT      O47465   2.757   1.024   7.408
11690WAT     H147466   2.726   0.951   7.443
11690WAT     H247467   2.808   0.997   7.343
11690WAT    EPW47468   2.760   1.009   7.404
11691WAT      O47469   1.578   0.773   7.138
11691WAT     H147470   1.582   0.756   7.224
11691WAT     H247471   1.567   0.694   7.103
11691WAT    EPW47472   1.577   0.759   7.146
11692WAT      O47473   1.819   0.591   6.915
11692WAT     H147474   1.740   0.565   6.939
11692WAT     H247475   1.822   0.675   6.940
11692WAT    EPW47476   1.808   0.600   6.922
11693WAT      O47477   2.707   0.267   7.237
11693WAT     H147478   2.726   0.208   7.176
11693WAT     H247479   2.629   0.298   7.213
11693WAT    EPW47480   2.698   0.263   7.225
11694WAT      O47481   1.611   1.121   7.246
11694WAT     H147482   1.568   1.097   7.174
11694WAT     H247483   1.682   1.071   7.246
11694WAT    EPW47484   1.615   1.110   7.235
11695WAT      O47485   1.975   0.320   7.228
11695WAT     H147486   1.993   0.353   7.149
11695WAT     H247487   2.051   0.287   7.254
11695WAT    EPW47488   1.989   0.320   7.220
11696WAT      O47489   2.879   1.175   6.891
11696WAT     H147490   2.948   1.162   6.942
11696WAT     H247491   2.858   1.094   6.864
11696WAT    EPW47492   2.886   1.161   6.895
11697WAT      O47493   2.529   0.784   7.193
11697WAT     H147494   2.486   0.777   7.268
11697WAT     H247495   2.498   0.718   7.145
11697WAT    EPW47496   2.518   0.773   7.197
11698WAT      O47497   1.562   0.931   7.980
11698WAT     H147498   1.587   0.859   7.938
11698WAT     H247499   1.577   0.994   7.921
11698WAT    EPW47500   1.568   0.930   7.965
11699WAT      O47501   2.218   0.633   7.071
11699WAT     H147502   2.298   0.605   7.053
11699WAT     H247503   2.210   0.705   7.023
11699WAT    EPW47504   2.228   0.639   7.061
11700WAT      O47505   1.325   0.548   5.542
11700WAT     H147506   1.319   0.577   5.624
11700WAT     H247507   1.343   0.463   5.552
11700WAT    EPW47508   1.327   0.539   5.556
11701WAT      O47509   2.917   0.931   5.333
11701WAT     H147510   2.981   0.880   5.364
11701WAT     H247511   2.873   0.878   5.279
11701WAT    EPW47512   2.920   0.915   5.330
11702WAT      O47513   1.545   0.517   5.115
11702WAT     H147514   1.513   0.468   5.050
11702WAT     H247515   1.561   0.459   5.178
11702WAT    EPW47516   1.543   0.501   5.115
11703WAT      O47517   2.607   0.283   5.645
11703WAT     H147518   2.632   0.268   5.563
11703WAT     H247519   2.557   0.214   5.664
11703WAT    EPW47520   2.604   0.270   5.636
11704WAT      O47521   1.554   0.698   5.505
11704WAT     H147522   1.603   0.661   5.567
11704WAT     H247523   1.481   0.651   5.506
11704WAT    EPW47524   1.551   0.685   5.515
11705WAT      O47525   1.455   1.001   5.148
11705WAT     H147526   1.472   1.001   5.062
11705WAT     H247527   1.473   0.919   5.172
11705WAT    EPW47528   1.460   0.989   5.139
11706WAT      O47529   1.352   0.773   6.205
11706WAT     H147530   1.373   0.759   6.288
11706WAT     H247531   1.284   0.719   6.192
11706WAT    EPW47532   1.345   0.763   6.215
11707WAT      O47533   1.953   0.632   6.667
11707WAT     H147534   1.920   0.614   6.746
11707WAT     H247535   1.885   0.620   6.613
11707WAT    EPW47536   1.938   0.628   6.671
11708WAT      O47537   1.473   0.328   5.750
11708WAT     H147538   1.459   0.285   5.675
11708WAT     H247539   1.527   0.276   5.794
11708WAT    EPW47540   1.479   0.314   5.745
11709WAT      O47541   1.956   0.911   6.379
11709WAT     H147542   1.975   0.973   6.320
11709WAT     H247543   2.035   0.883   6.405
11709WAT    EPW47544   1.971   0.916   6.374
11710WAT      O47545   2.071   0.734   5.799
11710WAT     H147546   2.092   0.654   5.825
11710WAT     H247547   2.146   0.778   5.800
11710WAT    EPW47548   2.085   0.729   5.803
11711WAT      O47549   2.161   0.682   5.455
11711WAT     H147550   2.183   0.610   5.499
11711WAT     H247551   2.180   0.661   5.372
11711WAT    EPW47552   2.167   0.668   5.449
11712WAT      O47553   1.310   1.047   5.755
11712WAT     H147554   1.244   1.092   5.720
11712WAT     H247555   1.348   1.009   5.686
11712WAT    EPW47556   1.306   1.048   5.740
11713WAT      O47557   1.889   0.716   5.445
11713WAT     H147558   1.864   0.742   5.524
11713WAT     H247559   1.976   0.706   5.453
11713WAT    EPW47560   1.898   0.719   5.458
11714WAT      O47561   2.491   1.044   5.243
11714WAT     H147562   2.560   1.098   5.246
11714WAT     H247563   2.525   0.966   5.264
11714WAT    EPW47564   2.506   1.040   5.246
11715WAT      O47565   2.309   1.100   5.440
11715WAT     H147566   2.330   1.177   5.475
11715WAT     H247567   2.367   1.089   5.376
11715WAT    EPW47568   2.321   1.109   5.436
11716WAT      O47569   1.437   0.948   5.524
11716WAT     H147570   1.487   0.877   5.534
11716WAT     H247571   1.488   1.002   5.478
11716WAT    EPW47572   1.452   0.946   5.518
11717WAT      O47573   2.540   1.102   6.235
11717WAT     H147574   2.610   1.153   6.225
11717WAT     H247575   2.522   1.076   6.153
11717WAT    EPW47576   2.548   1.106   6.221
11718WAT      O47577   1.596   0.788   5.858
11718WAT     H147578   1.660   0.783   5.799
11718WAT     H247579   1.614   0.722   5.913
11718WAT    EPW47580   1.608   0.777   5.857
11719WAT      O47581   1.879   1.066   5.765
11719WAT     H147582   1.958   1.088   5.736
11719WAT     H247583   1.825   1.120   5.722
11719WAT    EPW47584   1.883   1.077   5.755
11720WAT      O47585   2.685   1.243   5.212
11720WAT     H147586   2.735   1.209   5.149
11720WAT     H247587   2.739   1.299   5.252
11720WAT    EPW47588   2.700   1.246   5.209
11721WAT      O47589   1.710   1.171   6.385
11721WAT     H147590   1.763   1.142   6.448
11721WAT     H247591   1.656   1.104   6.371
11721WAT    EPW47592   1.710   1.157   6.392
11722WAT      O47593   2.428   0.856   6.612
11722WAT     H147594   2.425   0.893   6.692
11722WAT     H247595   2.512   0.837   6.602
11722WAT    EPW47596   2.440   0.859   6.623
11723WAT      O47597   2.181   0.882   5.057
11723WAT     H147598   2.155   0.937   5.119
11723WAT     H247599   2.257   0.916   5.029
11723WAT    EPW47600   2.189   0.895   5.062
11724WAT      O47601   1.501   1.015   6.245
11724WAT     H147602   1.452   0.943   6.238
11724WAT     H247603   1.544   1.017   6.169
11724WAT    EPW47604   1.500   1.004   6.233
11725WAT      O47605   2.289   1.166   6.334
11725WAT     H147606   2.368   1.147   6.303
11725WAT     H247607   2.235   1.132   6.274
11725WAT    EPW47608   2.292   1.158   6.320
11726WAT      O47609   2.978   1.177   5.590
11726WAT     H147610   2.939   1.254   5.602
11726WAT     H247611   2.911   1.122   5.577
11726WAT    EPW47612   2.962   1.180   5.590
11727WAT      O47613   2.681   0.782   5.647
11727WAT     H147614   2.748   0.739   5.612
11727WAT     H247615   2.614   0.726   5.640
11727WAT    EPW47616   2.681   0.768   5.641
11728WAT      O47617   1.674   0.881   6.527
11728WAT     H147618   1.752   0.918   6.512
11728WAT     H247619   1.647   0.918   6.601
11728WAT    EPW47620   1.682   0.892   6.536
11729WAT      O47621   1.864   0.405   5.939
11729WAT     H147622   1.884   0.406   6.024
11729WAT     H247623   1.805   0.342   5.931
11729WAT    EPW47624   1.858   0.396   5.950
11730WAT      O47625   1.929   0.453   6.203
11730WAT     H147626   1.912   0.539   6.207
11730WAT     H247627   1.869   0.418   6.256
11730WAT    EPW47628   1.918   0.461   6.211
11731WAT      O47629   2.525   0.565   6.209
11731WAT     H147630   2.474   0.520   6.264
11731WAT     H247631   2.507   0.649   6.228
11731WAT    EPW47632   2.515   0.571   6.220
11732WAT      O47633   1.208   0.795   6.783
11732WAT     H147634   1.243   0.770   6.859
11732WAT     H247635   1.181   0.721   6.747
11732WAT    EPW47636   1.209   0.780   6.789
11733WAT      O47637   2.910   0.505   5.139
11733WAT     H147638   2.908   0.475   5.221
11733WAT     H247639   2.988   0.544   5.134
11733WAT    EPW47640   2.922   0.506   5.150
11734WAT      O47641   1.663   0.527   5.698
11734WAT     H147642   1.715   0.488   5.640
11734WAT     H247643   1.603   0.466   5.716
11734WAT    EPW47644   1.662   0.513   5.692
11735WAT      O47645   1.523   1.205   5.832
11735WAT     H147646   1.448   1.167   5.808
11735WAT     H247647   1.569   1.208   5.758
11735WAT    EPW47648   1.519   1.200   5.817
11736WAT      O47649   3.091   0.967   6.559
11736WAT     H147650   3.014   0.966   6.518
11736WAT     H247651   3.076   0.922   6.632
11736WAT    EPW47652   3.077   0.960   6.564
11737WAT      O47653   2.627   0.120   5.087
11737WAT     H147654   2.654   0.194   5.049
11737WAT     H247655   2.552   0.142   5.124
11737WAT    EPW47656   2.620   0.134   5.087
11738WAT      O47657   1.801   0.453   5.465
11738WAT     H147658   1.827   0.535   5.449
11738WAT     H247659   1.864   0.405   5.429
11738WAT    EPW47660   1.814   0.458   5.457
11739WAT      O47661   1.344   0.694   5.787
11739WAT     H147662   1.294   0.752   5.829
11739WAT     H247663   1.425   0.724   5.800
11739WAT    EPW47664   1.348   0.707   5.795
11740WAT      O47665   1.399   0.263   5.488
11740WAT     H147666   1.375   0.183   5.465
11740WAT     H247667   1.461   0.284   5.430
11740WAT    EPW47668   1.405   0.255   5.476
11741WAT      O47669   2.293   0.906   5.785
11741WAT     H147670   2.247   0.976   5.763
11741WAT     H247671   2.331   0.881   5.711
11741WAT    EPW47672   2.292   0.912   5.771
11742WAT      O47673   1.257   0.781   5.384
11742WAT     H147674   1.310   0.835   5.428
11742WAT     H247675   1.242   0.716   5.441
11742WAT    EPW47676   1.263   0.780   5.399
11743WAT      O47677   1.671   0.589   6.033
11743WAT     H147678   1.720   0.633   6.090
11743WAT     H247679   1.729   0.545   5.985
11743WAT    EPW47680   1.686   0.589   6.034
11744WAT      O47681   1.279   0.666   5.127
11744WAT     H147682   1.350   0.615   5.129
11744WAT     H247683   1.277   0.702   5.207
11744WAT    EPW47684   1.290   0.664   5.139
11745WAT      O47685   1.292   0.458   5.916
11745WAT     H147686   1.335   0.406   5.861
11745WAT     H247687   1.312   0.539   5.889
11745WAT    EPW47688   1.301   0.463   5.904
11746WAT      O47689   2.843   0.976   6.415
11746WAT     H147690   2.802   1.053   6.424
11746WAT     H247691   2.844   0.963   6.329
11746WAT    EPW47692   2.837   0.985   6.403
11747WAT      O47693   1.823   0.808   5.693
11747WAT     H147694   1.835   0.893   5.708
11747WAT     H247695   1.894   0.771   5.730
11747WAT    EPW47696   1.835   0.815   5.701
11748WAT      O47697   1.645   0.226   5.949
11748WAT     H147698   1.596   0.270   6.006
11748WAT     H247699   1.660   0.150   5.989
11748WAT    EPW47700   1.640   0.222   5.964
11749WAT      O47701   2.075   1.079   6.174
11749WAT     H147702   2.052   1.016   6.118
11749WAT     H247703   2.062   1.152   6.128
11749WAT    EPW47704   2.070   1.080   6.159
11750WAT      O47705   1.451   0.362   6.821
11750WAT     H147706   1.463   0.404   6.746
11750WAT     H247707   1.501   0.291   6.813
11750WAT    EPW47708   1.460   0.358   6.809
11751WAT      O47709   2.652   0.523   6.644
11751WAT     H147710   2.680   0.604   6.630
11751WAT     H247711   2.691   0.477   6.581
11751WAT    EPW47712   2.662   0.528   6.633
11752WAT      O47713   2.052   0.896   6.685
11752WAT     H147714   2.091   0.888   6.763
11752WAT     H247715   2.018   0.816   6.672
11752WAT    EPW47716   2.053   0.883   6.695
11753WAT      O47717   2.417   0.252   5.234
11753WAT     H147718   2.375   0.279   5.162
11753WAT     H247719   2.354   0.244   5.293
11753WAT    EPW47720   2.402   0.254   5.232
11754WAT      O47721   2.899   0.642   5.559
11754WAT     H147722   2.918   0.608   5.637
11754WAT     H247723   2.895   0.572   5.507
11754WAT    EPW47724   2.901   0.626   5.563
11755WAT      O47725   2.471   0.977   5.989
11755WAT     H147726   2.414   0.952   5.928
11755WAT     H247727   2.518   1.039   5.949
11755WAT    EPW47728   2.469   0.983   5.974
11756WAT      O47729   2.478   0.618   5.938
11756WAT     H147730   2.401   0.658   5.952
11756WAT     H247731   2.494   0.576   6.013
11756WAT    EPW47732   2.469   0.617   5.951
11757WAT      O47733   1.859   0.968   5.341
11757WAT     H147734   1.872   0.890   5.377
11757WAT     H247735   1.939   0.999   5.327
11757WAT    EPW47736   1.873   0.961   5.344
11758WAT      O47737   2.105   1.059   5.256
11758WAT     H147738   2.167   1.075   5.315
11758WAT     H247739   2.092   1.137   5.218
11758WAT    EPW47740   2.112   1.073   5.259
11759WAT      O47741   2.785   0.390   6.433
11759WAT     H147742   2.772   0.395   6.347
11759WAT     H247743   2.869   0.412   6.443
11759WAT    EPW47744   2.795   0.394   6.422
11760WAT      O47745   2.420   1.007   6.850
11760WAT     H147746   2.456   1.023   6.928
11760WAT     H247747   2.444   1.075   6.801
11760WAT    EPW47748   2.429   1.019   6.854
11761WAT      O47749   1.607   0.331   5.313
11761WAT     H147750   1.653   0.267   5.277
11761WAT     H247751   1.664   0.373   5.363
11761WAT    EPW47752   1.622   0.328   5.315
11762WAT      O47753   2.346   0.422   6.370
11762WAT     H147754   2.297   0.468   6.425
11762WAT     H247755   2.384   0.362   6.421
11762WAT    EPW47756   2.344   0.420   6.385
11763WAT      O47757   2.223   0.242   5.440
11763WAT     H147758   2.234   0.312   5.491
11763WAT     H247759   2.211   0.177   5.498
11763WAT    EPW47760   2.223   0.243   5.456
11764WAT      O47761   2.731   0.745   5.921
11764WAT     H147762   2.724   0.774   5.839
11764WAT     H247763   2.653   0.709   5.937
11764WAT    EPW47764   2.719   0.744   5.911
11765WAT      O47765   2.124   0.462   5.852
11765WAT     H147766   2.041   0.438   5.865
11765WAT     H247767   2.162   0.446   5.929
11765WAT    EPW47768   2.117   0.456   5.866
11766WAT      O47769   1.769   1.120   4.979
11766WAT     H147770   1.787   1.042   5.014
11766WAT     H247771   1.773   1.174   5.047
11766WAT    EPW47772   1.772   1.116   4.994
11767WAT      O47773   1.484   0.397   6.105
11767WAT     H147774   1.540   0.463   6.093
11767WAT     H247775   1.416   0.418   6.055
11767WAT    EPW47776   1.482   0.410   6.096
11768WAT      O47777   3.081   1.091   5.179
11768WAT     H147778   3.145   1.042   5.146
11768WAT     H247779   3.036   1.034   5.228
11768WAT    EPW47780   3.084   1.075   5.181
11769WAT      O47781   2.771   0.452   6.155
11769WAT     H147782   2.759   0.409   6.080
11769WAT     H247783   2.694   0.490   6.169
11769WAT    EPW47784   2.758   0.451   6.146
11770WAT      O47785   1.607   0.130   4.919
11770WAT     H147786   1.593   0.048   4.946
11770WAT     H247787   1.685   0.125   4.879
11770WAT    EPW47788   1.617   0.117   4.917
11771WAT      O47789   1.473   0.516   6.590
11771WAT     H147790   1.455   0.465   6.521
11771WAT     H247791   1.437   0.593   6.569
11771WAT    EPW47792   1.465   0.520   6.577
11772WAT      O47793   2.920   0.548   5.823
11772WAT     H147794   2.883   0.611   5.871
11772WAT     H247795   2.992   0.528   5.867
11772WAT    EPW47796   2.925   0.555   5.837
11773WAT      O47797   3.100   0.894   5.954
11773WAT     H147798   3.126   0.954   5.896
11773WAT     H247799   3.164   0.893   6.013
11773WAT    EPW47800   3.113   0.902   5.954
11774WAT      O47801   2.784   0.757   5.168
11774WAT     H147802   2.815   0.675   5.162
11774WAT     H247803   2.710   0.748   5.213
11774WAT    EPW47804   2.778   0.743   5.174
11775WAT      O47805   3.044   0.350   6.823
11775WAT     H147806   3.024   0.265   6.823
11775WAT     H247807   3.132   0.349   6.828
11775WAT    EPW47808   3.054   0.337   6.824
11776WAT      O47809   3.048   0.494   6.418
11776WAT     H147810   3.123   0.456   6.394
11776WAT     H247811   3.030   0.547   6.351
11776WAT    EPW47812   3.056   0.496   6.405
11777WAT      O47813   2.475   0.582   5.104
11777WAT     H147814   2.534   0.517   5.101
11777WAT     H247815   2.448   0.588   5.021
11777WAT    EPW47816   2.480   0.573   5.091
11778WAT      O47817   1.862   0.725   6.188
11778WAT     H147818   1.877   0.773   6.259
11778WAT     H247819   1.890   0.777   6.123
11778WAT    EPW47820   1.869   0.740   6.189
11779WAT      O47821   1.723   0.608   6.517
11779WAT     H147822   1.649   0.580   6.554
11779WAT     H247823   1.711   0.694   6.509
11779WAT    EPW47824   1.710   0.616   6.521
11780WAT      O47825   2.196   0.443   6.130
11780WAT     H147826   2.245   0.421   6.199
11780WAT     H247827   2.114   0.436   6.161
11780WAT    EPW47828   2.191   0.439   6.145
11781WAT      O47829   2.143   1.124   5.687
11781WAT     H147830   2.143   1.208   5.710
11781WAT     H247831   2.179   1.125   5.607
11781WAT    EPW47832   2.148   1.136   5.678
11782WAT      O47833   1.958   0.901   5.993
11782WAT     H147834   1.918   0.955   5.938
11782WAT     H247835   2.004   0.848   5.941
11782WAT    EPW47836   1.959   0.901   5.978
11783WAT      O47837   2.390   0.524   6.741
11783WAT     H147838   2.467   0.524   6.701
11783WAT     H247839   2.336   0.556   6.681
11783WAT    EPW47840   2.393   0.529   6.726
11784WAT      O47841   2.701   0.804   6.593
11784WAT     H147842   2.733   0.838   6.667
11784WAT     H247843   2.743   0.847   6.530
11784WAT    EPW47844   2.712   0.815   6.595
11785WAT      O47845   2.040   0.447   5.098
11785WAT     H147846   1.969   0.489   5.070
11785WAT     H247847   2.092   0.510   5.128
11785WAT    EPW47848   2.037   0.462   5.098
11786WAT      O47849   2.203   1.119   6.594
11786WAT     H147850   2.220   1.118   6.508
11786WAT     H247851   2.168   1.040   6.608
11786WAT    EPW47852   2.200   1.107   6.583
11787WAT      O47853   2.889   0.409   5.399
11787WAT     H147854   2.950   0.354   5.429
11787WAT     H247855   2.817   0.359   5.393
11787WAT    EPW47856   2.887   0.393   5.402
11788WAT      O47857   2.200   0.585   6.541
11788WAT     H147858   2.123   0.587   6.582
11788WAT     H247859   2.206   0.664   6.505
11788WAT    EPW47860   2.190   0.597   6.542
11789WAT      O47861   1.776   1.231   6.117
11789WAT     H147862   1.757   1.221   6.202
11789WAT     H247863   1.743   1.160   6.080
11789WAT    EPW47864   1.768   1.219   6.124
11790WAT      O47865   2.506   0.548   5.671
11790WAT     H147866   2.501   0.563   5.756
11790WAT     H247867   2.548   0.471   5.666
11790WAT    EPW47868   2.512   0.539   5.683
11791WAT      O47869   2.251   0.465   5.603
11791WAT     H147870   2.210   0.462   5.680
11791WAT     H247871   2.331   0.493   5.623
11791WAT    EPW47872   2.257   0.469   5.617
11792WAT      O47873   2.229   0.836   6.425
11792WAT     H147874   2.285   0.850   6.490
11792WAT     H247875   2.279   0.840   6.354
11792WAT    EPW47876   2.245   0.839   6.424
11793WAT      O47877   1.391   1.189   6.612
11793WAT     H147878   1.334   1.124   6.598
11793WAT     H247879   1.341   1.254   6.643
11793WAT    EPW47880   1.375   1.189   6.614
11794WAT      O47881   2.284   0.316   6.900
11794WAT     H147882   2.317   0.376   6.845
11794WAT     H247883   2.203   0.344   6.915
11794WAT    EPW47884   2.277   0.329   6.894
11795WAT      O47885   2.611   1.212   5.921
11795WAT     H147886   2.554   1.275   5.943
11795WAT     H247887   2.676   1.222   5.978
11795WAT    EPW47888   2.612   1.223   5.932
11796WAT      O47889   2.239   0.706   6.056
11796WAT     H147890   2.221   0.626   6.085
11796WAT     H247891   2.277   0.744   6.125
11796WAT    EPW47892   2.242   0.700   6.071
11797WAT      O47893   2.818   0.915   6.820
11797WAT     H147894   2.897   0.881   6.811
11797WAT     H247895   2.788   0.876   6.893
11797WAT    EPW47896   2.825   0.904   6.830
11798WAT      O47897   2.374   0.840   5.526
11798WAT     H147898   2.354   0.921   5.500
11798WAT     H247899   2.302   0.794   5.506
11798WAT    EPW47900   2.360   0.845   5.519
11799WAT      O47901   1.427   0.349   6.367
11799WAT     H147902   1.439   0.367   6.283
11799WAT     H247903   1.407   0.264   6.367
11799WAT    EPW47904   1.426   0.339   6.355
11800WAT      O47905   1.788   0.866   5.096
11800WAT     H147906   1.832   0.893   5.167
11800WAT     H247907   1.712   0.840   5.128
11800WAT    EPW47908   1.783   0.866   5.111
11801WAT      O47909   1.720   0.374   6.367
11801WAT     H147910   1.727   0.447   6.414
11801WAT     H247911   1.634   0.358   6.368
11801WAT    EPW47912   1.709   0.382   6.374
11802WAT      O47913   2.736   0.355   5.892
11802WAT     H147914   2.796   0.412   5.863
11802WAT     H247915   2.699   0.324   5.819
11802WAT    EPW47916   2.739   0.359   5.877
11803WAT      O47917   2.746   1.027   5.531
11803WAT     H147918   2.718   0.955   5.571
11803WAT     H247919   2.790   0.998   5.462
11803WAT    EPW47920   2.748   1.012   5.527
11804WAT      O47921   1.571   0.764   5.234
11804WAT     H147922   1.577   0.746   5.319
11804WAT     H247923   1.560   0.686   5.196
11804WAT    EPW47924   1.571   0.750   5.241
11805WAT      O47925   1.820   0.598   5.019
11805WAT     H147926   1.739   0.570   5.038
11805WAT     H247927   1.817   0.682   5.042
11805WAT    EPW47928   1.807   0.606   5.025
11806WAT      O47929   2.435   0.833   6.227
11806WAT     H147930   2.481   0.887   6.278
11806WAT     H247931   2.447   0.866   6.147
11806WAT    EPW47932   2.444   0.846   6.223
11807WAT      O47933   2.473   1.195   6.646
11807WAT     H147934   2.401   1.155   6.617
11807WAT     H247935   2.446   1.276   6.663
11807WAT    EPW47936   2.458   1.201   6.644
11808WAT      O47937   2.977   0.640   6.191
11808WAT     H147938   2.917   0.580   6.171
11808WAT     H247939   2.936   0.715   6.178
11808WAT    EPW47940   2.962   0.642   6.186
11809WAT      O47941   1.867   1.101   6.605
11809WAT     H147942   1.846   1.113   6.689
11809WAT     H247943   1.930   1.041   6.609
11809WAT    EPW47944   1.873   1.094   6.618
11810WAT      O47945   2.868   0.887   6.124
11810WAT     H147946   2.938   0.906   6.075
11810WAT     H247947   2.811   0.855   6.067
11810WAT    EPW47948   2.870   0.885   6.108
11811WAT      O47949   1.553   1.008   6.754
11811WAT     H147950   1.623   1.050   6.785
11811WAT     H247951   1.507   1.071   6.714
11811WAT    EPW47952   1.557   1.024   6.752
11812WAT      O47953   1.419   0.771   6.474
11812WAT     H147954   1.362   0.830   6.502
11812WAT     H247955   1.496   0.811   6.480
11812WAT    EPW47956   1.422   0.785   6.479
11813WAT      O47957   2.666   0.240   5.368
11813WAT     H147958   2.694   0.175   5.318
11813WAT     H247959   2.591   0.264   5.331
11813WAT    EPW47960   2.659   0.234   5.355
11814WAT      O47961   1.617   1.102   5.358
11814WAT     H147962   1.570   1.080   5.288
11814WAT     H247963   1.689   1.052   5.351
11814WAT    EPW47964   1.621   1.091   5.347
11815WAT      O47965   1.975   0.297   5.321
11815WAT     H147966   1.995   0.338   5.247
11815WAT     H247967   2.053   0.275   5.354
11815WAT    EPW47968   1.990   0.300   5.315
11816WAT      O47969   2.859   1.144   5.024
11816WAT     H147970   2.933   1.127   5.067
11816WAT     H247971   2.836   1.066   4.991
11816WAT    EPW47972   2.867   1.130   5.025
11817WAT      O47973   2.979   0.575   6.675
11817WAT     H147974   2.992   0.502   6.722
11817WAT     H247975   3.003   0.552   6.595
11817WAT    EPW47976   2.984   0.561   6.670
11818WAT      O47977   2.545   0.776   5.305
11818WAT     H147978   2.500   0.775   5.381
11818WAT     H247979   2.504   0.716   5.257
11818WAT    EPW47980   2.532   0.767   5.309
11819WAT      O47981   2.702   0.410   6.907
11819WAT     H147982   2.774   0.447   6.940
11819WAT     H247983   2.698   0.442   6.826
11819WAT    EPW47984   2.712   0.420   6.900
11820WAT      O47985   1.631   1.021   6.002
11820WAT     H147986   1.626   0.945   5.959
11820WAT     H247987   1.595   1.078   5.947
11820WAT    EPW47988   1.625   1.018   5.988
11821WAT      O47989   2.216   0.638   5.188
11821WAT     H147990   2.296   0.611   5.164
11821WAT     H247991   2.206   0.712   5.143
11821WAT    EPW47992   2.227   0.645   5.178
11822WAT      O47993   1.389   1.252   6.340
11822WAT     H147994   1.397   1.234   6.425
11822WAT     H247995   1.421   1.181   6.301
11822WAT    EPW47996   1.395   1.239   6.346
11823WAT      O47997   1.268   0.662   3.672
11823WAT     H147998   1.282   0.683   3.756
11823WAT     H247999   1.187   0.631   3.672
11823WAT    EPW48000   1.258   0.661   3.685
11824WAT      O48001   2.943   0.960   3.449
11824WAT     H148002   3.006   0.901   3.465
11824WAT     H248003   2.891   0.920   3.393
11824WAT    EPW48004   2.945   0.946   3.443
11825WAT      O48005   1.546   0.534   3.224
11825WAT     H148006   1.513   0.486   3.159
11825WAT     H248007   1.552   0.477   3.290
11825WAT    EPW48008   1.542   0.518   3.224
11826WAT      O48009   2.610   0.260   3.753
11826WAT     H148010   2.632   0.249   3.669
11826WAT     H248011   2.556   0.194   3.769
11826WAT    EPW48012   2.606   0.249   3.743
11827WAT      O48013   1.534   0.709   3.605
11827WAT     H148014   1.581   0.664   3.663
11827WAT     H248015   1.453   0.681   3.618
11827WAT    EPW48016   1.529   0.698   3.615
11828WAT      O48017   1.399   0.944   3.171
11828WAT     H148018   1.455   0.961   3.106
11828WAT     H248019   1.446   0.898   3.227
11828WAT    EPW48020   1.414   0.940   3.169
11829WAT      O48021   1.358   0.792   4.325
11829WAT     H148022   1.371   0.773   4.409
11829WAT     H248023   1.295   0.737   4.301
11829WAT    EPW48024   1.350   0.781   4.334
11830WAT      O48025   1.959   0.640   4.774
11830WAT     H148026   1.925   0.619   4.852
11830WAT     H248027   1.892   0.627   4.719
11830WAT    EPW48028   1.944   0.635   4.777
11831WAT      O48029   1.447   0.347   3.804
11831WAT     H148030   1.412   0.309   3.734
11831WAT     H248031   1.497   0.284   3.839
11831WAT    EPW48032   1.449   0.332   3.799
11832WAT      O48033   1.925   0.871   4.510
11832WAT     H148034   1.906   0.949   4.476
11832WAT     H248035   2.012   0.874   4.520
11832WAT    EPW48036   1.935   0.883   4.506
11833WAT      O48037   2.076   0.759   3.918
11833WAT     H148038   2.099   0.677   3.937
11833WAT     H248039   2.152   0.802   3.914
11833WAT    EPW48040   2.090   0.753   3.920
11834WAT      O48041   2.159   0.677   3.555
11834WAT     H148042   2.188   0.608   3.601
11834WAT     H248043   2.181   0.658   3.473
11834WAT    EPW48044   2.166   0.664   3.550
11835WAT      O48045   1.313   1.057   3.849
11835WAT     H148046   1.245   1.094   3.808
11835WAT     H248047   1.361   1.025   3.783
11835WAT    EPW48048   1.310   1.058   3.833
11836WAT      O48049   1.896   0.752   3.532
11836WAT     H148050   1.867   0.766   3.613
11836WAT     H248051   1.978   0.725   3.544
11836WAT    EPW48052   1.904   0.750   3.546
11837WAT      O48053   2.497   1.055   3.317
11837WAT     H148054   2.568   1.105   3.321
11837WAT     H248055   2.525   0.977   3.343
11837WAT    EPW48056   2.512   1.051   3.321
11838WAT      O48057   2.306   1.084   3.511
11838WAT     H148058   2.313   1.158   3.557
11838WAT     H248059   2.369   1.090   3.452
11838WAT    EPW48060   2.316   1.096   3.509
11839WAT      O48061   1.469   0.979   3.625
11839WAT     H148062   1.503   0.899   3.633
11839WAT     H248063   1.531   1.024   3.584
11839WAT    EPW48064   1.483   0.973   3.620
11840WAT      O48065   2.534   1.107   4.333
11840WAT     H148066   2.598   1.164   4.318
11840WAT     H248067   2.514   1.078   4.253
11840WAT    EPW48068   2.541   1.111   4.319
11841WAT      O48069   1.603   0.799   3.953
11841WAT     H148070   1.664   0.792   3.891
11841WAT     H248071   1.619   0.731   4.005
11841WAT    EPW48072   1.614   0.788   3.951
11842WAT      O48073   1.865   1.076   3.899
11842WAT     H148074   1.945   1.094   3.868
11842WAT     H248075   1.814   1.135   3.860
11842WAT    EPW48076   1.869   1.087   3.888
11843WAT      O48077   2.707   1.233   3.312
11843WAT     H148078   2.770   1.219   3.253
11843WAT     H248079   2.751   1.263   3.382
11843WAT    EPW48080   2.723   1.235   3.314
11844WAT      O48081   1.789   1.116   4.447
11844WAT     H148082   1.798   1.127   4.533
11844WAT     H248083   1.709   1.082   4.439
11844WAT    EPW48084   1.778   1.113   4.458
11845WAT      O48085   2.421   0.865   4.725
11845WAT     H148086   2.422   0.893   4.807
11845WAT     H248087   2.505   0.844   4.710
11845WAT    EPW48088   2.434   0.866   4.735
11846WAT      O48089   2.183   0.880   3.142
11846WAT     H148090   2.151   0.937   3.199
11846WAT     H248091   2.257   0.916   3.115
11846WAT    EPW48092   2.189   0.894   3.147
11847WAT      O48093   1.528   1.022   4.361
11847WAT     H148094   1.480   0.949   4.362
11847WAT     H248095   1.559   1.026   4.280
11847WAT    EPW48096   1.526   1.012   4.349
11848WAT      O48097   2.291   1.139   4.459
11848WAT     H148098   2.370   1.133   4.421
11848WAT     H248099   2.235   1.137   4.392
11848WAT    EPW48100   2.295   1.138   4.443
11849WAT      O48101   2.739   0.732   3.743
11849WAT     H148102   2.803   0.685   3.707
11849WAT     H248103   2.670   0.679   3.740
11849WAT    EPW48104   2.738   0.717   3.737
11850WAT      O48105   1.656   0.875   4.668
11850WAT     H148106   1.733   0.916   4.654
11850WAT     H248107   1.625   0.914   4.740
11850WAT    EPW48108   1.663   0.887   4.677
11851WAT      O48109   1.862   0.413   4.016
11851WAT     H148110   1.877   0.406   4.101
11851WAT     H248111   1.800   0.354   4.001
11851WAT    EPW48112   1.855   0.403   4.026
11852WAT      O48113   1.922   0.450   4.284
11852WAT     H148114   1.906   0.535   4.290
11852WAT     H248115   1.866   0.415   4.341
11852WAT    EPW48116   1.911   0.457   4.294
11853WAT      O48117   2.541   0.537   4.314
11853WAT     H148118   2.481   0.501   4.366
11853WAT     H248119   2.533   0.622   4.331
11853WAT    EPW48120   2.531   0.544   4.324
11854WAT      O48121   1.207   0.809   4.894
11854WAT     H148122   1.239   0.779   4.970
11854WAT     H248123   1.185   0.737   4.851
11854WAT    EPW48124   1.208   0.794   4.899
11855WAT      O48125   2.896   0.564   3.254
11855WAT     H148126   2.902   0.511   3.323
11855WAT     H248127   2.976   0.562   3.220
11855WAT    EPW48128   2.909   0.556   3.259
11856WAT      O48129   1.651   0.538   3.785
11856WAT     H148130   1.704   0.504   3.725
11856WAT     H248131   1.588   0.479   3.792
11856WAT    EPW48132   1.650   0.524   3.777
11857WAT      O48133   1.509   1.223   3.945
11857WAT     H148134   1.438   1.184   3.913
11857WAT     H248135   1.561   1.231   3.875
11857WAT    EPW48136   1.506   1.218   3.930
11858WAT      O48137   3.107   0.992   4.657
11858WAT     H148138   3.028   0.997   4.620
11858WAT     H248139   3.092   0.952   4.733
11858WAT    EPW48140   3.093   0.987   4.663
11859WAT      O48141   2.635   0.139   3.183
11859WAT     H148142   2.662   0.216   3.153
11859WAT     H248143   2.556   0.157   3.216
11859WAT    EPW48144   2.627   0.153   3.184
11860WAT      O48145   1.784   0.488   3.541
11860WAT     H148146   1.814   0.568   3.527
11860WAT     H248147   1.848   0.436   3.514
11860WAT    EPW48148   1.798   0.492   3.535
11861WAT      O48149   1.335   0.725   3.932
11861WAT     H148150   1.295   0.785   3.979
11861WAT     H248151   1.419   0.750   3.934
11861WAT    EPW48152   1.342   0.737   3.939
11862WAT      O48153   1.333   0.256   3.558
11862WAT     H148154   1.335   0.171   3.536
11862WAT     H248155   1.398   0.290   3.512
11862WAT    EPW48156   1.343   0.248   3.548
11863WAT      O48157   2.298   0.930   3.878
11863WAT     H148158   2.246   0.995   3.851
11863WAT     H248159   2.331   0.899   3.803
11863WAT    EPW48160   2.295   0.935   3.863
11864WAT      O48161   1.273   0.846   3.471
11864WAT     H148162   1.331   0.902   3.504
11864WAT     H248163   1.263   0.787   3.534
11864WAT    EPW48164   1.280   0.845   3.485
11865WAT      O48165   1.667   0.591   4.120
11865WAT     H148166   1.717   0.632   4.180
11865WAT     H248167   1.726   0.550   4.070
11865WAT    EPW48168   1.683   0.591   4.122
11866WAT      O48169   1.276   0.651   3.258
11866WAT     H148170   1.356   0.619   3.249
11866WAT     H248171   1.285   0.716   3.315
11866WAT    EPW48172   1.289   0.656   3.265
11867WAT      O48173   1.287   0.463   4.000
11867WAT     H148174   1.328   0.424   3.933
11867WAT     H248175   1.304   0.548   3.987
11867WAT    EPW48176   1.296   0.470   3.988
11868WAT      O48177   2.839   1.016   4.553
11868WAT     H148178   2.798   1.086   4.584
11868WAT     H248179   2.827   1.021   4.467
11868WAT    EPW48180   2.831   1.027   4.545
11869WAT      O48181   1.835   0.823   3.790
11869WAT     H148182   1.837   0.907   3.816
11869WAT     H248183   1.904   0.788   3.830
11869WAT    EPW48184   1.845   0.830   3.800
11870WAT      O48185   1.633   0.240   4.002
11870WAT     H148186   1.585   0.280   4.062
11870WAT     H248187   1.646   0.160   4.035
11870WAT    EPW48188   1.628   0.234   4.016
11871WAT      O48189   2.092   1.114   4.275
11871WAT     H148190   2.055   1.046   4.235
11871WAT     H248191   2.086   1.178   4.216
11871WAT    EPW48192   2.085   1.113   4.260
11872WAT      O48193   1.442   0.355   4.920
11872WAT     H148194   1.455   0.395   4.844
11872WAT     H248195   1.491   0.283   4.914
11872WAT    EPW48196   1.451   0.350   4.908
11873WAT      O48197   2.649   0.526   4.752
11873WAT     H148198   2.670   0.608   4.732
11873WAT     H248199   2.688   0.478   4.691
11873WAT    EPW48200   2.658   0.531   4.740
11874WAT      O48201   2.044   0.907   4.814
11874WAT     H148202   2.079   0.897   4.893
11874WAT     H248203   2.017   0.827   4.793
11874WAT    EPW48204   2.045   0.894   4.823
11875WAT      O48205   2.411   0.255   3.334
11875WAT     H148206   2.369   0.282   3.262
11875WAT     H248207   2.348   0.251   3.394
11875WAT    EPW48208   2.395   0.258   3.332
11876WAT      O48209   2.948   0.563   3.667
11876WAT     H148210   2.941   0.528   3.747
11876WAT     H248211   2.921   0.500   3.614
11876WAT    EPW48212   2.943   0.549   3.671
11877WAT      O48213   2.487   0.971   4.087
11877WAT     H148214   2.422   0.953   4.032
11877WAT     H248215   2.535   1.030   4.043
11877WAT    EPW48216   2.484   0.977   4.072
11878WAT      O48217   2.525   0.620   4.047
11878WAT     H148218   2.450   0.663   4.058
11878WAT     H248219   2.532   0.572   4.119
11878WAT    EPW48220   2.515   0.619   4.059
11879WAT      O48221   1.953   1.030   3.555
11879WAT     H148222   1.944   0.943   3.556
11879WAT     H248223   1.995   1.045   3.480
11879WAT    EPW48224   1.958   1.019   3.544
11880WAT      O48225   2.103   1.068   3.328
11880WAT     H148226   2.171   1.076   3.382
11880WAT     H248227   2.098   1.146   3.290
11880WAT    EPW48228   2.113   1.080   3.331
11881WAT      O48229   2.791   0.397   4.549
11881WAT     H148230   2.781   0.380   4.464
11881WAT     H248231   2.868   0.439   4.553
11881WAT    EPW48232   2.801   0.401   4.537
11882WAT      O48233   2.422   0.997   4.977
11882WAT     H148234   2.450   1.014   5.058
11882WAT     H248235   2.445   1.069   4.933
11882WAT    EPW48236   2.429   1.010   4.983
11883WAT      O48237   1.571   0.347   3.428
11883WAT     H148238   1.616   0.281   3.393
11883WAT     H248239   1.631   0.391   3.473
11883WAT    EPW48240   1.586   0.344   3.430
11884WAT      O48241   2.335   0.426   4.469
11884WAT     H148242   2.291   0.479   4.521
11884WAT     H248243   2.356   0.359   4.521
11884WAT    EPW48244   2.331   0.424   4.484
11885WAT      O48245   2.222   0.256   3.546
11885WAT     H148246   2.239   0.324   3.597
11885WAT     H248247   2.205   0.192   3.602
11885WAT    EPW48248   2.222   0.257   3.561
11886WAT      O48249   2.785   0.735   4.017
11886WAT     H148250   2.778   0.744   3.931
11886WAT     H248251   2.705   0.711   4.042
11886WAT    EPW48252   2.772   0.733   4.008
11887WAT      O48253   2.127   0.483   3.951
11887WAT     H148254   2.044   0.457   3.958
11887WAT     H248255   2.160   0.468   4.030
11887WAT    EPW48256   2.119   0.477   3.964
11888WAT      O48257   1.787   1.097   3.122
11888WAT     H148258   1.811   1.024   3.163
11888WAT     H248259   1.793   1.159   3.184
11888WAT    EPW48260   1.791   1.096   3.137
11889WAT      O48261   1.483   0.394   4.182
11889WAT     H148262   1.537   0.462   4.171
11889WAT     H248263   1.414   0.415   4.133
11889WAT    EPW48264   1.481   0.407   4.173
11890WAT      O48265   3.109   1.126   3.300
11890WAT     H148266   3.177   1.078   3.274
11890WAT     H248267   3.061   1.070   3.346
11890WAT    EPW48268   3.112   1.111   3.303
11891WAT      O48269   2.780   0.413   4.263
11891WAT     H148270   2.766   0.365   4.192
11891WAT     H248271   2.703   0.450   4.279
11891WAT    EPW48272   2.767   0.412   4.255
11892WAT      O48273   1.599   0.136   3.028
11892WAT     H148274   1.585   0.053   3.051
11892WAT     H248275   1.674   0.132   2.983
11892WAT    EPW48276   1.608   0.123   3.024
11893WAT      O48277   1.472   0.506   4.687
11893WAT     H148278   1.456   0.460   4.615
11893WAT     H248279   1.432   0.582   4.673
11893WAT    EPW48280   1.464   0.511   4.674
11894WAT      O48281   2.928   0.497   3.934
11894WAT     H148282   2.895   0.568   3.972
11894WAT     H248283   3.011   0.497   3.959
11894WAT    EPW48284   2.935   0.507   3.943
11895WAT      O48285   3.166   0.957   4.081
11895WAT     H148286   3.239   1.005   4.081
11895WAT     H248287   3.173   0.909   4.154
11895WAT    EPW48288   3.177   0.957   4.092
11896WAT      O48289   2.787   0.817   3.277
11896WAT     H148290   2.821   0.737   3.269
11896WAT     H248291   2.711   0.804   3.317
11896WAT    EPW48292   2.781   0.803   3.281
11897WAT      O48293   3.053   0.362   4.897
11897WAT     H148294   3.022   0.372   4.978
11897WAT     H248295   3.139   0.353   4.910
11897WAT    EPW48296   3.061   0.362   4.911
11898WAT      O48297   3.021   0.553   4.507
11898WAT     H148298   3.090   0.505   4.481
11898WAT     H248299   2.993   0.590   4.433
11898WAT    EPW48300   3.027   0.551   4.492
11899WAT      O48301   2.482   0.590   3.209
11899WAT     H148302   2.545   0.530   3.206
11899WAT     H248303   2.453   0.592   3.127
11899WAT    EPW48304   2.487   0.581   3.196
11900WAT      O48305   1.855   0.720   4.286
11900WAT     H148306   1.867   0.755   4.365
11900WAT     H248307   1.885   0.781   4.231
11900WAT    EPW48308   1.861   0.734   4.289
11901WAT      O48309   1.724   0.606   4.628
11901WAT     H148310   1.650   0.574   4.662
11901WAT     H248311   1.711   0.692   4.627
11901WAT    EPW48312   1.711   0.614   4.633
11902WAT      O48313   2.193   0.461   4.227
11902WAT     H148314   2.239   0.437   4.297
11902WAT     H248315   2.110   0.451   4.253
11902WAT    EPW48316   2.187   0.456   4.241
11903WAT      O48317   2.110   1.117   3.777
11903WAT     H148318   2.115   1.204   3.776
11903WAT     H248319   2.074   1.097   3.700
11903WAT    EPW48320   2.105   1.127   3.766
11904WAT      O48321   1.960   0.917   4.120
11904WAT     H148322   1.916   0.969   4.065
11904WAT     H248323   2.007   0.867   4.066
11904WAT    EPW48324   1.960   0.917   4.104
11905WAT      O48325   2.384   0.536   4.842
11905WAT     H148326   2.462   0.531   4.804
11905WAT     H248327   2.333   0.570   4.781
11905WAT    EPW48328   2.388   0.540   4.828
11906WAT      O48329   2.694   0.805   4.694
11906WAT     H148330   2.724   0.830   4.772
11906WAT     H248331   2.738   0.855   4.638
11906WAT    EPW48332   2.705   0.816   4.698
11907WAT      O48333   2.042   0.454   3.195
11907WAT     H148334   1.970   0.497   3.171
11907WAT     H248335   2.095   0.517   3.224
11907WAT    EPW48336   2.039   0.470   3.196
11908WAT      O48337   2.202   1.125   4.726
11908WAT     H148338   2.217   1.120   4.640
11908WAT     H248339   2.163   1.049   4.744
11908WAT    EPW48340   2.198   1.113   4.716
11909WAT      O48341   2.891   0.378   3.467
11909WAT     H148342   2.947   0.314   3.446
11909WAT     H248343   2.813   0.338   3.467
11909WAT    EPW48344   2.888   0.362   3.464
11910WAT      O48345   2.201   0.604   4.636
11910WAT     H148346   2.125   0.604   4.679
11910WAT     H248347   2.204   0.683   4.599
11910WAT    EPW48348   2.191   0.616   4.637
11911WAT      O48349   1.795   1.231   4.185
11911WAT     H148350   1.801   1.206   4.269
11911WAT     H248351   1.753   1.164   4.147
11911WAT    EPW48352   1.790   1.217   4.192
11912WAT      O48353   2.535   0.533   3.782
11912WAT     H148354   2.532   0.552   3.867
11912WAT     H248355   2.564   0.450   3.780
11912WAT    EPW48356   2.539   0.523   3.794
11913WAT      O48357   2.269   0.475   3.710
11913WAT     H148358   2.228   0.475   3.787
11913WAT     H248359   2.351   0.498   3.731
11913WAT    EPW48360   2.275   0.478   3.725
11914WAT      O48361   2.216   0.872   4.539
11914WAT     H148362   2.277   0.871   4.602
11914WAT     H248363   2.240   0.938   4.488
11914WAT    EPW48364   2.229   0.881   4.541
11915WAT      O48365   1.393   1.207   4.725
11915WAT     H148366   1.337   1.141   4.712
11915WAT     H248367   1.342   1.271   4.755
11915WAT    EPW48368   1.377   1.207   4.728
11916WAT      O48369   2.279   0.327   5.005
11916WAT     H148370   2.312   0.386   4.949
11916WAT     H248371   2.198   0.356   5.019
11916WAT    EPW48372   2.272   0.340   4.999
11917WAT      O48373   2.634   1.193   4.003
11917WAT     H148374   2.577   1.256   4.024
11917WAT     H248375   2.688   1.191   4.071
11917WAT    EPW48376   2.634   1.202   4.016
11918WAT      O48377   2.283   0.715   4.155
11918WAT     H148378   2.250   0.640   4.183
11918WAT     H248379   2.322   0.749   4.226
11918WAT    EPW48380   2.284   0.709   4.169
11919WAT      O48381   2.803   0.892   4.930
11919WAT     H148382   2.888   0.877   4.916
11919WAT     H248383   2.786   0.847   5.003
11919WAT    EPW48384   2.813   0.883   4.939
11920WAT      O48385   2.371   0.841   3.622
11920WAT     H148386   2.349   0.919   3.589
11920WAT     H248387   2.300   0.792   3.605
11920WAT    EPW48388   2.357   0.845   3.615
11921WAT      O48389   1.435   0.352   4.450
11921WAT     H148390   1.444   0.369   4.365
11921WAT     H248391   1.421   0.266   4.452
11921WAT    EPW48392   1.434   0.342   4.437
11922WAT      O48393   1.818   0.855   3.273
11922WAT     H148394   1.860   0.831   3.345
11922WAT     H248395   1.734   0.846   3.293
11922WAT    EPW48396   1.812   0.850   3.286
11923WAT      O48397   1.723   0.381   4.463
11923WAT     H148398   1.731   0.452   4.513
11923WAT     H248399   1.636   0.369   4.458
11923WAT    EPW48400   1.711   0.389   4.470
11924WAT      O48401   2.744   0.305   4.005
11924WAT     H148402   2.807   0.358   3.979
11924WAT     H248403   2.705   0.281   3.930
11924WAT    EPW48404   2.747   0.309   3.990
11925WAT      O48405   2.769   0.998   3.664
11925WAT     H148406   2.752   0.916   3.687
11925WAT     H248407   2.823   0.990   3.596
11925WAT    EPW48408   2.774   0.985   3.657
11926WAT      O48409   1.561   0.785   3.336
11926WAT     H148410   1.554   0.767   3.421
11926WAT     H248411   1.559   0.707   3.298
11926WAT    EPW48412   1.560   0.771   3.343
11927WAT      O48413   1.820   0.612   3.133
11927WAT     H148414   1.739   0.583   3.150
11927WAT     H248415   1.822   0.690   3.172
11927WAT    EPW48416   1.808   0.619   3.141
11928WAT      O48417   2.498   0.814   4.320
11928WAT     H148418   2.513   0.878   4.377
11928WAT     H248419   2.506   0.852   4.242
11928WAT    EPW48420   2.501   0.829   4.317
11929WAT      O48421   2.468   1.201   4.787
11929WAT     H148422   2.397   1.160   4.756
11929WAT     H248423   2.440   1.283   4.801
11929WAT    EPW48424   2.453   1.207   4.785
11930WAT      O48425   2.945   0.639   4.247
11930WAT     H148426   2.902   0.563   4.248
11930WAT     H248427   2.900   0.687   4.190
11930WAT    EPW48428   2.932   0.635   4.239
11931WAT      O48429   1.857   1.095   4.717
11931WAT     H148430   1.830   1.121   4.796
11931WAT     H248431   1.920   1.038   4.735
11931WAT    EPW48432   1.862   1.090   4.732
11932WAT      O48433   2.892   1.004   4.032
11932WAT     H148434   2.976   0.990   4.050
11932WAT     H248435   2.857   0.924   4.034
11932WAT    EPW48436   2.899   0.990   4.035
11933WAT      O48437   1.536   1.019   4.880
11933WAT     H148438   1.607   1.060   4.908
11933WAT     H248439   1.493   1.081   4.836
11933WAT    EPW48440   1.540   1.034   4.877
11934WAT      O48441   1.408   0.770   4.596
11934WAT     H148442   1.353   0.831   4.623
11934WAT     H248443   1.487   0.805   4.610
11934WAT    EPW48444   1.412   0.784   4.602
11935WAT      O48445   2.655   0.230   3.471
11935WAT     H148446   2.679   0.165   3.418
11935WAT     H248447   2.580   0.259   3.437
11935WAT    EPW48448   2.647   0.225   3.458
11936WAT      O48449   1.692   1.111   3.510
11936WAT     H148450   1.702   1.167   3.443
11936WAT     H248451   1.772   1.079   3.522
11936WAT    EPW48452   1.705   1.115   3.502
11937WAT      O48453   1.975   0.325   3.431
11937WAT     H148454   1.996   0.357   3.352
11937WAT     H248455   2.052   0.300   3.464
11937WAT    EPW48456   1.989   0.326   3.424
11938WAT      O48457   2.908   1.196   3.122
11938WAT     H148458   2.978   1.178   3.170
11938WAT     H248459   2.884   1.119   3.089
11938WAT    EPW48460   2.915   1.182   3.124
11939WAT      O48461   3.068   0.610   4.775
11939WAT     H148462   3.057   0.531   4.811
11939WAT     H248463   3.045   0.597   4.691
11939WAT    EPW48464   3.063   0.596   4.768
11940WAT      O48465   2.543   0.793   3.400
11940WAT     H148466   2.497   0.789   3.474
11940WAT     H248467   2.511   0.728   3.352
11940WAT    EPW48468   2.531   0.783   3.404
11941WAT      O48469   2.680   0.400   5.012
11941WAT     H148470   2.756   0.430   5.043
11941WAT     H248471   2.677   0.431   4.930
11941WAT    EPW48472   2.691   0.409   5.005
11942WAT      O48473   1.617   1.029   4.103
11942WAT     H148474   1.618   0.956   4.056
11942WAT     H248475   1.578   1.087   4.051
11942WAT    EPW48476   1.611   1.027   4.088
11943WAT      O48477   2.220   0.644   3.288
11943WAT     H148478   2.300   0.617   3.267
11943WAT     H248479   2.209   0.717   3.240
11943WAT    EPW48480   2.230   0.651   3.278
11944WAT      O48481   1.391   1.249   4.447
11944WAT     H148482   1.394   1.234   4.533
11944WAT     H248483   1.430   1.178   4.413
11944WAT    EPW48484   1.397   1.236   4.455
11945WAT      O48485   1.333   0.568   1.751
11945WAT     H148486   1.323   0.600   1.832
11945WAT     H248487   1.330   0.481   1.763
11945WAT    EPW48488   1.331   0.559   1.765
11946WAT      O48489   2.925   0.955   1.550
11946WAT     H148490   2.987   0.899   1.576
11946WAT     H248491   2.876   0.907   1.496
11946WAT    EPW48492   2.927   0.939   1.546
11947WAT      O48493   1.537   0.515   1.318
11947WAT     H148494   1.505   0.469   1.252
11947WAT     H248495   1.545   0.456   1.382
11947WAT    EPW48496   1.534   0.500   1.318
11948WAT      O48497   2.612   0.283   1.853
11948WAT     H148498   2.639   0.269   1.771
11948WAT     H248499   2.564   0.212   1.871
11948WAT    EPW48500   2.608   0.271   1.844
11949WAT      O48501   1.567   0.705   1.707
11949WAT     H148502   1.618   0.668   1.767
11949WAT     H248503   1.493   0.658   1.711
11949WAT    EPW48504   1.564   0.692   1.716
11950WAT      O48505   1.467   0.995   1.334
11950WAT     H148506   1.487   0.994   1.249
11950WAT     H248507   1.485   0.913   1.359
11950WAT    EPW48508   1.472   0.982   1.325
11951WAT      O48509   1.360   0.783   2.417
11951WAT     H148510   1.379   0.768   2.500
11951WAT     H248511   1.293   0.729   2.401
11951WAT    EPW48512   1.353   0.773   2.427
11952WAT      O48513   1.952   0.643   2.883
11952WAT     H148514   1.919   0.630   2.963
11952WAT     H248515   1.884   0.626   2.830
11952WAT    EPW48516   1.937   0.639   2.887
11953WAT      O48517   1.464   0.336   1.937
11953WAT     H148518   1.441   0.288   1.868
11953WAT     H248519   1.516   0.283   1.982
11953WAT    EPW48520   1.469   0.321   1.933
11954WAT      O48521   1.946   0.910   2.590
11954WAT     H148522   1.956   0.980   2.539
11954WAT     H248523   2.028   0.889   2.612
11954WAT    EPW48524   1.960   0.917   2.586
11955WAT      O48525   2.076   0.740   2.005
11955WAT     H148526   2.098   0.660   2.033
11955WAT     H248527   2.151   0.784   2.006
11955WAT    EPW48528   2.090   0.735   2.009
11956WAT      O48529   2.164   0.691   1.658
11956WAT     H148530   2.187   0.622   1.706
11956WAT     H248531   2.184   0.668   1.577
11956WAT    EPW48532   2.171   0.678   1.653
11957WAT      O48533   1.312   1.048   1.952
11957WAT     H148534   1.246   1.093   1.917
11957WAT     H248535   1.349   1.009   1.883
11957WAT    EPW48536   1.308   1.049   1.937
11958WAT      O48537   1.891   0.706   1.647
11958WAT     H148538   1.866   0.734   1.725
11958WAT     H248539   1.977   0.699   1.654
11958WAT    EPW48540   1.900   0.709   1.659
11959WAT      O48541   2.490   1.059   1.431
11959WAT     H148542   2.563   1.108   1.428
11959WAT     H248543   2.520   0.981   1.455
11959WAT    EPW48544   2.505   1.055   1.434
11960WAT      O48545   2.323   1.123   1.642
11960WAT     H148546   2.343   1.203   1.669
11960WAT     H248547   2.377   1.110   1.575
11960WAT    EPW48548   2.334   1.133   1.636
11961WAT      O48549   1.445   0.952   1.722
11961WAT     H148550   1.496   0.882   1.733
11961WAT     H248551   1.494   1.006   1.674
11961WAT    EPW48552   1.460   0.950   1.717
11962WAT      O48553   2.540   1.101   2.453
11962WAT     H148554   2.611   1.151   2.449
11962WAT     H248555   2.526   1.078   2.370
11962WAT    EPW48556   2.548   1.105   2.440
11963WAT      O48557   1.604   0.789   2.058
11963WAT     H148558   1.668   0.786   1.999
11963WAT     H248559   1.621   0.723   2.112
11963WAT    EPW48560   1.616   0.779   2.057
11964WAT      O48561   1.890   1.068   1.961
11964WAT     H148562   1.969   1.090   1.932
11964WAT     H248563   1.836   1.118   1.914
11964WAT    EPW48564   1.893   1.079   1.950
11965WAT      O48565   2.697   1.245   1.390
11965WAT     H148566   2.746   1.221   1.323
11965WAT     H248567   2.752   1.289   1.442
11965WAT    EPW48568   2.712   1.248   1.388
11966WAT      O48569   1.750   1.160   2.581
11966WAT     H148570   1.779   1.148   2.663
11966WAT     H248571   1.686   1.101   2.573
11966WAT    EPW48572   1.745   1.149   2.592
11967WAT      O48573   2.432   0.861   2.817
11967WAT     H148574   2.424   0.895   2.896
11967WAT     H248575   2.518   0.845   2.809
11967WAT    EPW48576   2.444   0.864   2.827
11968WAT      O48577   2.186   0.876   1.264
11968WAT     H148578   2.165   0.931   1.328
11968WAT     H248579   2.259   0.911   1.230
11968WAT    EPW48580   2.194   0.890   1.268
11969WAT      O48581   1.515   1.022   2.450
11969WAT     H148582   1.467   0.950   2.446
11969WAT     H248583   1.555   1.024   2.373
11969WAT    EPW48584   1.514   1.012   2.438
11970WAT      O48585   2.286   1.175   2.539
11970WAT     H148586   2.365   1.152   2.511
11970WAT     H248587   2.232   1.142   2.479
11970WAT    EPW48588   2.290   1.167   2.526
11971WAT      O48589   2.989   1.172   1.823
11971WAT     H148590   2.953   1.251   1.834
11971WAT     H248591   2.920   1.121   1.809
11971WAT    EPW48592   2.973   1.176   1.823
11972WAT      O48593   2.688   0.776   1.851
11972WAT     H148594   2.757   0.735   1.816
11972WAT     H248595   2.624   0.718   1.846
11972WAT    EPW48596   2.689   0.761   1.845
11973WAT      O48597   1.688   0.881   2.720
11973WAT     H148598   1.766   0.905   2.690
11973WAT     H248599   1.681   0.925   2.795
11973WAT    EPW48600   1.699   0.891   2.727
11974WAT      O48601   1.863   0.403   2.139
11974WAT     H148602   1.880   0.402   2.225
11974WAT     H248603   1.801   0.343   2.129
11974WAT    EPW48604   1.856   0.394   2.150
11975WAT      O48605   1.924   0.454   2.404
11975WAT     H148606   1.910   0.540   2.407
11975WAT     H248607   1.862   0.422   2.457
11975WAT    EPW48608   1.913   0.462   2.413
11976WAT      O48609   2.524   0.566   2.418
11976WAT     H148610   2.472   0.521   2.472
11976WAT     H248611   2.505   0.649   2.435
11976WAT    EPW48612   2.514   0.571   2.428
11977WAT      O48613   1.206   0.847   2.986
11977WAT     H148614   1.262   0.851   3.053
11977WAT     H248615   1.203   0.762   2.967
11977WAT    EPW48616   1.214   0.835   2.993
11978WAT      O48617   2.887   0.548   1.360
11978WAT     H148618   2.895   0.507   1.436
11978WAT     H248619   2.970   0.559   1.334
11978WAT    EPW48620   2.901   0.544   1.367
11979WAT      O48621   1.671   0.523   1.892
11979WAT     H148622   1.717   0.483   1.830
11979WAT     H248623   1.604   0.469   1.907
11979WAT    EPW48624   1.668   0.509   1.885
11980WAT      O48625   1.530   1.200   2.018
11980WAT     H148626   1.456   1.160   1.995
11980WAT     H248627   1.577   1.199   1.945
11980WAT    EPW48628   1.526   1.194   2.004
11981WAT      O48629   3.115   0.978   2.768
11981WAT     H148630   3.038   0.981   2.726
11981WAT     H248631   3.097   0.931   2.839
11981WAT    EPW48632   3.101   0.972   2.772
11982WAT      O48633   2.629   0.123   1.294
11982WAT     H148634   2.657   0.198   1.260
11982WAT     H248635   2.555   0.145   1.334
11982WAT    EPW48636   2.622   0.137   1.295
11983WAT      O48637   1.787   0.445   1.647
11983WAT     H148638   1.817   0.527   1.637
11983WAT     H248639   1.852   0.395   1.618
11983WAT    EPW48640   1.801   0.450   1.642
11984WAT      O48641   1.346   0.706   1.997
11984WAT     H148642   1.298   0.764   2.041
11984WAT     H248643   1.428   0.734   2.009
11984WAT    EPW48644   1.351   0.719   2.005
11985WAT      O48645   1.348   0.271   1.680
11985WAT     H148646   1.335   0.186   1.665
11985WAT     H248647   1.413   0.292   1.626
11985WAT    EPW48648   1.355   0.262   1.670
11986WAT      O48649   2.296   0.916   1.993
11986WAT     H148650   2.251   0.987   1.971
11986WAT     H248651   2.334   0.892   1.918
11986WAT    EPW48652   2.295   0.923   1.979
11987WAT      O48653   1.270   0.783   1.582
11987WAT     H148654   1.323   0.838   1.624
11987WAT     H248655   1.263   0.715   1.638
11987WAT    EPW48656   1.277   0.781   1.597
11988WAT      O48657   1.673   0.590   2.233
11988WAT     H148658   1.722   0.634   2.289
11988WAT     H248659   1.730   0.545   2.185
11988WAT    EPW48660   1.688   0.590   2.234
11989WAT      O48661   1.280   0.659   1.330
11989WAT     H148662   1.352   0.610   1.331
11989WAT     H248663   1.280   0.698   1.408
11989WAT    EPW48664   1.291   0.658   1.341
11990WAT      O48665   1.294   0.465   2.115
11990WAT     H148666   1.336   0.415   2.057
11990WAT     H248667   1.313   0.546   2.090
11990WAT    EPW48668   1.303   0.470   2.103
11991WAT      O48669   2.858   0.988   2.633
11991WAT     H148670   2.815   1.063   2.644
11991WAT     H248671   2.854   0.974   2.547
11991WAT    EPW48672   2.851   0.997   2.622
11992WAT      O48673   1.830   0.808   1.894
11992WAT     H148674   1.843   0.894   1.906
11992WAT     H248675   1.900   0.772   1.931
11992WAT    EPW48676   1.842   0.816   1.901
11993WAT      O48677   1.632   0.234   2.142
11993WAT     H148678   1.586   0.279   2.201
11993WAT     H248679   1.645   0.156   2.181
11993WAT    EPW48680   1.627   0.229   2.157
11994WAT      O48681   2.068   1.093   2.382
11994WAT     H148682   2.046   1.027   2.328
11994WAT     H248683   2.055   1.164   2.333
11994WAT    EPW48684   2.063   1.094   2.367
11995WAT      O48685   1.439   0.367   3.037
11995WAT     H148686   1.449   0.407   2.960
11995WAT     H248687   1.484   0.293   3.028
11995WAT    EPW48688   1.447   0.362   3.024
11996WAT      O48689   2.651   0.538   2.856
11996WAT     H148690   2.684   0.618   2.846
11996WAT     H248691   2.688   0.492   2.792
11996WAT    EPW48692   2.661   0.543   2.845
11997WAT      O48693   2.049   0.906   2.900
11997WAT     H148694   2.087   0.899   2.978
11997WAT     H248695   2.017   0.826   2.885
11997WAT    EPW48696   2.050   0.893   2.909
11998WAT      O48697   2.422   0.250   1.447
11998WAT     H148698   2.379   0.276   1.375
11998WAT     H248699   2.360   0.245   1.507
11998WAT    EPW48700   2.407   0.253   1.445
11999WAT      O48701   2.913   0.646   1.762
11999WAT     H148702   2.928   0.613   1.842
11999WAT     H248703   2.906   0.575   1.712
11999WAT    EPW48704   2.914   0.631   1.766
12000WAT      O48705   2.471   0.978   2.203
12000WAT     H148706   2.415   0.956   2.139
12000WAT     H248707   2.522   1.038   2.166
12000WAT    EPW48708   2.470   0.983   2.188
12001WAT      O48709   2.480   0.618   2.145
12001WAT     H148710   2.404   0.657   2.160
12001WAT     H248711   2.496   0.576   2.220
12001WAT    EPW48712   2.471   0.618   2.158
12002WAT      O48713   1.865   0.957   1.538
12002WAT     H148714   1.876   0.879   1.574
12002WAT     H248715   1.947   0.987   1.530
12002WAT    EPW48716   1.879   0.950   1.542
12003WAT      O48717   2.115   1.053   1.468
12003WAT     H148718   2.177   1.079   1.524
12003WAT     H248719   2.095   1.126   1.424
12003WAT    EPW48720   2.122   1.068   1.470
12004WAT      O48721   2.781   0.400   2.646
12004WAT     H148722   2.769   0.403   2.560
12004WAT     H248723   2.866   0.419   2.656
12004WAT    EPW48724   2.792   0.404   2.635
12005WAT      O48725   2.416   1.006   3.058
12005WAT     H148726   2.447   1.025   3.137
12005WAT     H248727   2.439   1.075   3.009
12005WAT    EPW48728   2.424   1.019   3.062
12006WAT      O48729   1.573   0.326   1.519
12006WAT     H148730   1.612   0.260   1.477
12006WAT     H248731   1.638   0.364   1.563
12006WAT    EPW48732   1.588   0.322   1.519
12007WAT      O48733   2.340   0.428   2.578
12007WAT     H148734   2.291   0.475   2.633
12007WAT     H248735   2.374   0.366   2.629
12007WAT    EPW48736   2.337   0.426   2.594
12008WAT      O48737   2.229   0.247   1.654
12008WAT     H148738   2.238   0.320   1.701
12008WAT     H248739   2.215   0.185   1.713
12008WAT    EPW48740   2.228   0.249   1.669
12009WAT      O48741   2.732   0.748   2.128
12009WAT     H148742   2.726   0.774   2.045
12009WAT     H248743   2.655   0.712   2.144
12009WAT    EPW48744   2.720   0.747   2.118
12010WAT      O48745   2.124   0.466   2.058
12010WAT     H148746   2.041   0.441   2.068
12010WAT     H248747   2.160   0.448   2.135
12010WAT    EPW48748   2.117   0.460   2.071
12011WAT      O48749   1.802   1.109   1.136
12011WAT     H148750   1.828   1.032   1.167
12011WAT     H248751   1.792   1.158   1.207
12011WAT    EPW48752   1.805   1.105   1.151
12012WAT      O48753   1.481   0.403   2.307
12012WAT     H148754   1.538   0.468   2.295
12012WAT     H248755   1.414   0.424   2.256
12012WAT    EPW48756   1.480   0.415   2.298
12013WAT      O48757   3.079   1.116   1.389
12013WAT     H148758   3.154   1.074   1.376
12013WAT     H248759   3.033   1.060   1.438
12013WAT    EPW48760   3.083   1.101   1.394
12014WAT      O48761   2.772   0.456   2.365
12014WAT     H148762   2.762   0.413   2.290
12014WAT     H248763   2.695   0.494   2.379
12014WAT    EPW48764   2.759   0.455   2.356
12015WAT      O48765   1.608   0.144   1.162
12015WAT     H148766   1.592   0.060   1.183
12015WAT     H248767   1.687   0.142   1.125
12015WAT    EPW48768   1.617   0.131   1.160
12016WAT      O48769   1.474   0.515   2.802
12016WAT     H148770   1.454   0.468   2.732
12016WAT     H248771   1.432   0.591   2.789
12016WAT    EPW48772   1.465   0.519   2.790
12017WAT      O48773   2.921   0.554   2.026
12017WAT     H148774   2.885   0.616   2.076
12017WAT     H248775   2.993   0.531   2.070
12017WAT    EPW48776   2.926   0.559   2.040
12018WAT      O48777   3.104   0.881   2.166
12018WAT     H148778   3.133   0.944   2.113
12018WAT     H248779   3.166   0.876   2.227
12018WAT    EPW48780   3.117   0.890   2.167
12019WAT      O48781   2.777   0.798   1.385
12019WAT     H148782   2.808   0.717   1.379
12019WAT     H248783   2.701   0.788   1.426
12019WAT    EPW48784   2.770   0.785   1.390
12020WAT      O48785   3.053   0.370   3.064
12020WAT     H148786   3.032   0.288   3.045
12020WAT     H248787   3.140   0.371   3.060
12020WAT    EPW48788   3.063   0.358   3.061
12021WAT      O48789   3.049   0.492   2.637
12021WAT     H148790   3.122   0.451   2.611
12021WAT     H248791   3.031   0.546   2.571
12021WAT    EPW48792   3.057   0.494   2.623
12022WAT      O48793   2.486   0.578   1.326
12022WAT     H148794   2.546   0.515   1.327
12022WAT     H248795   2.460   0.582   1.243
12022WAT    EPW48796   2.491   0.569   1.314
12023WAT      O48797   1.864   0.728   2.387
12023WAT     H148798   1.878   0.774   2.460
12023WAT     H248799   1.893   0.781   2.324
12023WAT    EPW48800   1.871   0.743   2.389
12024WAT      O48801   1.724   0.607   2.732
12024WAT     H148802   1.649   0.580   2.768
12024WAT     H248803   1.712   0.692   2.720
12024WAT    EPW48804   1.711   0.615   2.736
12025WAT      O48805   2.192   0.444   2.337
12025WAT     H148806   2.240   0.424   2.407
12025WAT     H248807   2.110   0.437   2.366
12025WAT    EPW48808   2.187   0.440   2.351
12026WAT      O48809   2.153   1.135   1.885
12026WAT     H148810   2.145   1.219   1.908
12026WAT     H248811   2.195   1.140   1.808
12026WAT    EPW48812   2.158   1.148   1.877
12027WAT      O48813   1.962   0.909   2.198
12027WAT     H148814   1.923   0.961   2.140
12027WAT     H248815   2.009   0.855   2.148
12027WAT    EPW48816   1.963   0.909   2.182
12028WAT      O48817   2.388   0.541   2.951
12028WAT     H148818   2.465   0.541   2.911
12028WAT     H248819   2.333   0.570   2.890
12028WAT    EPW48820   2.391   0.545   2.936
12029WAT      O48821   2.710   0.822   2.814
12029WAT     H148822   2.741   0.860   2.887
12029WAT     H248823   2.755   0.862   2.751
12029WAT    EPW48824   2.721   0.834   2.816
12030WAT      O48825   2.045   0.442   1.305
12030WAT     H148826   1.972   0.483   1.281
12030WAT     H248827   2.096   0.506   1.335
12030WAT    EPW48828   2.042   0.457   1.306
12031WAT      O48829   2.204   1.124   2.800
12031WAT     H148830   2.219   1.123   2.714
12031WAT     H248831   2.165   1.047   2.814
12031WAT    EPW48832   2.201   1.113   2.789
12032WAT      O48833   2.893   0.415   1.603
12032WAT     H148834   2.959   0.359   1.620
12032WAT     H248835   2.824   0.363   1.597
12032WAT    EPW48836   2.893   0.399   1.605
12033WAT      O48837   2.197   0.594   2.751
12033WAT     H148838   2.120   0.596   2.793
12033WAT     H248839   2.202   0.673   2.714
12033WAT    EPW48840   2.186   0.606   2.752
12034WAT      O48841   1.762   1.249   2.312
12034WAT     H148842   1.760   1.232   2.398
12034WAT     H248843   1.736   1.174   2.276
12034WAT    EPW48844   1.758   1.235   2.320
12035WAT      O48845   2.511   0.549   1.878
12035WAT     H148846   2.505   0.564   1.963
12035WAT     H248847   2.551   0.471   1.873
12035WAT    EPW48848   2.516   0.539   1.890
12036WAT      O48849   2.253   0.476   1.809
12036WAT     H148850   2.212   0.471   1.887
12036WAT     H248851   2.334   0.501   1.830
12036WAT    EPW48852   2.259   0.479   1.824
12037WAT      O48853   2.225   0.846   2.635
12037WAT     H148854   2.283   0.859   2.698
12037WAT     H248855   2.273   0.846   2.562
12037WAT    EPW48856   2.240   0.848   2.633
12038WAT      O48857   1.413   1.204   2.824
12038WAT     H148858   1.358   1.139   2.807
12038WAT     H248859   1.361   1.267   2.855
12038WAT    EPW48860   1.397   1.204   2.826
12039WAT      O48861   2.278   0.330   3.103
12039WAT     H148862   2.313   0.389   3.050
12039WAT     H248863   2.197   0.360   3.117
12039WAT    EPW48864   2.271   0.343   3.097
12040WAT      O48865   2.621   1.212   2.154
12040WAT     H148866   2.563   1.274   2.173
12040WAT     H248867   2.684   1.224   2.213
12040WAT    EPW48868   2.622   1.223   2.166
12041WAT      O48869   2.242   0.706   2.262
12041WAT     H148870   2.221   0.626   2.291
12041WAT     H248871   2.280   0.743   2.331
12041WAT    EPW48872   2.244   0.699   2.277
12042WAT      O48873   2.835   0.943   3.037
12042WAT     H148874   2.911   0.904   3.021
12042WAT     H248875   2.807   0.905   3.110
12042WAT    EPW48876   2.842   0.932   3.045
12043WAT      O48877   2.372   0.858   1.732
12043WAT     H148878   2.355   0.939   1.705
12043WAT     H248879   2.300   0.813   1.710
12043WAT    EPW48880   2.359   0.863   1.725
12044WAT      O48881   1.421   0.360   2.571
12044WAT     H148882   1.432   0.376   2.486
12044WAT     H248883   1.400   0.275   2.573
12044WAT    EPW48884   1.420   0.350   2.559
12045WAT      O48885   1.797   0.862   1.288
12045WAT     H148886   1.840   0.891   1.359
12045WAT     H248887   1.719   0.840   1.319
12045WAT    EPW48888   1.792   0.863   1.303
12046WAT      O48889   1.713   0.383   2.568
12046WAT     H148890   1.722   0.453   2.620
12046WAT     H248891   1.626   0.369   2.568
12046WAT    EPW48892   1.701   0.392   2.576
12047WAT      O48893   2.737   0.362   2.100
12047WAT     H148894   2.796   0.418   2.070
12047WAT     H248895   2.701   0.329   2.028
12047WAT    EPW48896   2.740   0.365   2.085
12048WAT      O48897   2.755   1.029   1.757
12048WAT     H148898   2.726   0.953   1.789
12048WAT     H248899   2.800   1.006   1.685
12048WAT    EPW48900   2.758   1.015   1.751
12049WAT      O48901   1.580   0.763   1.432
12049WAT     H148902   1.588   0.747   1.517
12049WAT     H248903   1.564   0.684   1.397
12049WAT    EPW48904   1.579   0.749   1.439
12050WAT      O48905   1.818   0.588   1.235
12050WAT     H148906   1.736   0.562   1.254
12050WAT     H248907   1.817   0.673   1.254
12050WAT    EPW48908   1.806   0.596   1.241
12051WAT      O48909   2.432   0.833   2.438
12051WAT     H148910   2.477   0.885   2.491
12051WAT     H248911   2.444   0.868   2.359
12051WAT    EPW48912   2.440   0.845   2.434
12052WAT      O48913   2.470   1.200   2.862
12052WAT     H148914   2.397   1.164   2.830
12052WAT     H248915   2.447   1.283   2.877
12052WAT    EPW48916   2.456   1.207   2.859
12053WAT      O48917   2.981   0.641   2.411
12053WAT     H148918   2.922   0.581   2.388
12053WAT     H248919   2.940   0.717   2.396
12053WAT    EPW48920   2.966   0.643   2.405
12054WAT      O48921   1.858   1.108   2.845
12054WAT     H148922   1.840   1.121   2.929
12054WAT     H248923   1.920   1.047   2.846
12054WAT    EPW48924   1.865   1.101   2.857
12055WAT      O48925   2.872   0.886   2.334
12055WAT     H148926   2.942   0.902   2.285
12055WAT     H248927   2.814   0.854   2.277
12055WAT    EPW48928   2.874   0.884   2.318
12056WAT      O48929   1.573   1.009   2.962
12056WAT     H148930   1.636   1.046   3.010
12056WAT     H248931   1.532   1.078   2.926
12056WAT    EPW48932   1.576   1.025   2.964
12057WAT      O48933   1.425   0.780   2.686
12057WAT     H148934   1.370   0.844   2.710
12057WAT     H248935   1.504   0.818   2.692
12057WAT    EPW48936   1.429   0.795   2.691
12058WAT      O48937   2.673   0.242   1.577
12058WAT     H148938   2.701   0.176   1.527
12058WAT     H248939   2.597   0.264   1.541
12058WAT    EPW48940   2.666   0.235   1.564
12059WAT      O48941   1.625   1.095   1.547
12059WAT     H148942   1.577   1.070   1.478
12059WAT     H248943   1.696   1.044   1.542
12059WAT    EPW48944   1.628   1.083   1.536
12060WAT      O48945   1.982   0.292   1.529
12060WAT     H148946   2.002   0.332   1.454
12060WAT     H248947   2.059   0.274   1.565
12060WAT    EPW48948   1.996   0.295   1.523
12061WAT      O48949   2.881   1.160   1.198
12061WAT     H148950   2.948   1.150   1.253
12061WAT     H248951   2.858   1.078   1.178
12061WAT    EPW48952   2.887   1.147   1.203
12062WAT      O48953   2.976   0.577   2.892
12062WAT     H148954   2.995   0.510   2.945
12062WAT     H248955   3.003   0.550   2.814
12062WAT    EPW48956   2.983   0.563   2.888
12063WAT      O48957   2.534   0.795   1.509
12063WAT     H148958   2.492   0.793   1.585
12063WAT     H248959   2.502   0.724   1.467
12063WAT    EPW48960   2.523   0.784   1.514
12064WAT      O48961   2.696   0.418   3.116
12064WAT     H148962   2.766   0.460   3.148
12064WAT     H248963   2.689   0.449   3.034
12064WAT    EPW48964   2.706   0.429   3.108
12065WAT      O48965   1.635   1.025   2.201
12065WAT     H148966   1.632   0.947   2.161
12065WAT     H248967   1.601   1.079   2.142
12065WAT    EPW48968   1.630   1.021   2.186
12066WAT      O48969   2.221   0.634   1.395
12066WAT     H148970   2.302   0.607   1.376
12066WAT     H248971   2.212   0.708   1.350
12066WAT    EPW48972   2.232   0.641   1.386
12067WAT      O48973   1.394   1.254   2.546
12067WAT     H148974   1.403   1.238   2.632
12067WAT     H248975   1.428   1.183   2.508
12067WAT    EPW48976   1.401   1.241   2.553
12068WAT      O48977   1.337   0.797   0.516
12068WAT     H148978   1.350   0.788   0.602
12068WAT     H248979   1.265   0.751   0.501
12068WAT    EPW48980   1.328   0.789   0.526
12069WAT      O48981   1.946   0.627   0.988
12069WAT     H148982   1.913   0.607   1.066
12069WAT     H248983   1.879   0.615   0.933
12069WAT    EPW48984   1.932   0.622   0.991
12070WAT      O48985   1.934   0.926   0.718
12070WAT     H148986   1.956   0.983   0.655
12070WAT     H248987   2.011   0.896   0.746
12070WAT    EPW48988   1.949   0.930   0.713
12071WAT      O48989   2.520   1.075   0.603
12071WAT     H148990   2.576   1.113   0.658
12071WAT     H248991   2.546   1.102   0.525
12071WAT    EPW48992   2.532   1.085   0.600
12072WAT      O48993   1.743   1.149   0.598
12072WAT     H148994   1.756   1.154   0.684
12072WAT     H248995   1.671   1.100   0.591
12072WAT    EPW48996   1.734   1.142   0.610
12073WAT      O48997   2.428   0.862   0.917
12073WAT     H148998   2.425   0.892   0.998
12073WAT     H248999   2.511   0.836   0.907
12073WAT    EPW49000   2.440   0.863   0.927
12074WAT      O49001   1.520   1.011   0.491
12074WAT     H149002   1.471   0.941   0.504
12074WAT     H249003   1.540   1.006   0.406
12074WAT    EPW49004   1.516   1.000   0.480
12075WAT      O49005   2.267   1.155   0.672
12075WAT     H149006   2.344   1.123   0.647
12075WAT     H249007   2.211   1.123   0.613
12075WAT    EPW49008   2.270   1.145   0.660
12076WAT      O49009   1.660   0.874   0.829
12076WAT     H149010   1.738   0.907   0.805
12076WAT     H249011   1.644   0.915   0.904
12076WAT    EPW49012   1.669   0.885   0.836
12077WAT      O49013   1.884   0.495   0.233
12077WAT     H149014   1.897   0.477   0.318
12077WAT     H249015   1.857   0.419   0.200
12077WAT    EPW49016   1.882   0.481   0.241
12078WAT      O49017   1.936   0.474   0.504
12078WAT     H149018   1.922   0.560   0.516
12078WAT     H249019   1.872   0.437   0.550
12078WAT    EPW49020   1.925   0.481   0.512
12079WAT      O49021   2.571   0.539   0.542
12079WAT     H149022   2.510   0.504   0.593
12079WAT     H249023   2.566   0.624   0.558
12079WAT    EPW49024   2.562   0.546   0.552
12080WAT      O49025   1.211   0.803   1.099
12080WAT     H149026   1.241   0.768   1.173
12080WAT     H249027   1.188   0.734   1.051
12080WAT    EPW49028   1.212   0.788   1.103
12081WAT      O49029   3.113   0.975   0.898
12081WAT     H149030   3.037   0.976   0.856
12081WAT     H249031   3.096   0.929   0.970
12081WAT    EPW49032   3.099   0.968   0.902
12082WAT      O49033   1.701   0.701   0.306
12082WAT     H149034   1.750   0.720   0.377
12082WAT     H249035   1.750   0.643   0.263
12082WAT    EPW49036   1.716   0.695   0.310
12083WAT      O49037   2.856   0.968   0.765
12083WAT     H149038   2.804   1.038   0.768
12083WAT     H249039   2.853   0.943   0.682
12083WAT    EPW49040   2.848   0.974   0.753
12084WAT      O49041   2.051   1.084   0.514
12084WAT     H149042   2.043   1.031   0.445
12084WAT     H249043   2.030   1.162   0.482
12084WAT    EPW49044   2.047   1.088   0.499
12085WAT      O49045   1.432   0.359   1.120
12085WAT     H149046   1.446   0.395   1.041
12085WAT     H249047   1.483   0.289   1.120
12085WAT    EPW49048   1.442   0.354   1.108
12086WAT      O49049   2.651   0.505   0.957
12086WAT     H149050   2.678   0.587   0.942
12086WAT     H249051   2.699   0.458   0.901
12086WAT    EPW49052   2.662   0.510   0.946
12087WAT      O49053   2.026   0.897   1.035
12087WAT     H149054   2.069   0.887   1.110
12087WAT     H249055   2.001   0.816   1.014
12087WAT    EPW49056   2.028   0.884   1.043
12088WAT      O49057   2.534   0.859   0.256
12088WAT     H149058   2.450   0.855   0.232
12088WAT     H249059   2.549   0.944   0.263
12088WAT    EPW49060   2.524   0.871   0.254
12089WAT      O49061   2.254   0.812   0.242
12089WAT     H149062   2.256   0.799   0.328
12089WAT     H249063   2.232   0.733   0.210
12089WAT    EPW49064   2.251   0.798   0.250
12090WAT      O49065   2.805   0.356   0.774
12090WAT     H149066   2.791   0.343   0.689
12090WAT     H249067   2.888   0.381   0.778
12090WAT    EPW49068   2.815   0.358   0.762
12091WAT      O49069   2.419   0.997   1.170
12091WAT     H149070   2.447   1.019   1.249
12091WAT     H249071   2.433   1.069   1.123
12091WAT    EPW49072   2.425   1.011   1.174
12092WAT      O49073   2.369   0.433   0.710
12092WAT     H149074   2.315   0.480   0.760
12092WAT     H249075   2.410   0.381   0.767
12092WAT    EPW49076   2.367   0.432   0.726
12093WAT      O49077   2.730   0.671   0.330
12093WAT     H149078   2.677   0.722   0.283
12093WAT     H249079   2.675   0.623   0.378
12093WAT    EPW49080   2.714   0.671   0.330
12094WAT      O49081   2.162   0.553   0.203
12094WAT     H149082   2.076   0.538   0.200
12094WAT     H249083   2.186   0.517   0.278
12094WAT    EPW49084   2.153   0.545   0.214
12095WAT      O49085   1.487   0.577   0.437
12095WAT     H149086   1.554   0.606   0.390
12095WAT     H249087   1.440   0.649   0.454
12095WAT    EPW49088   1.490   0.592   0.433
12096WAT      O49089   2.762   0.346   0.494
12096WAT     H149090   2.718   0.283   0.452
12096WAT     H249091   2.703   0.408   0.507
12096WAT    EPW49092   2.747   0.346   0.490
12097WAT      O49093   1.459   0.505   0.880
12097WAT     H149094   1.446   0.462   0.805
12097WAT     H249095   1.418   0.581   0.867
12097WAT    EPW49096   1.451   0.510   0.867
12098WAT      O49097   2.952   0.492   0.341
12098WAT     H149098   2.904   0.434   0.385
12098WAT     H249099   2.893   0.548   0.310
12098WAT    EPW49100   2.936   0.492   0.343
12099WAT      O49101   3.082   0.952   0.380
12099WAT     H149102   3.125   0.989   0.314
12099WAT     H249103   3.145   0.922   0.433
12099WAT    EPW49104   3.097   0.953   0.378
12100WAT      O49105   3.050   0.350   1.167
12100WAT     H149106   3.023   0.268   1.153
12100WAT     H249107   3.137   0.345   1.158
12100WAT    EPW49108   3.059   0.337   1.163
12101WAT      O49109   3.066   0.460   0.751
12101WAT     H149110   3.142   0.427   0.723
12101WAT     H249111   3.049   0.523   0.693
12101WAT    EPW49112   3.075   0.465   0.738
12102WAT      O49113   1.891   0.748   0.505
12102WAT     H149114   1.895   0.797   0.578
12102WAT     H249115   1.935   0.795   0.446
12102WAT    EPW49116   1.898   0.762   0.507
12103WAT      O49117   1.714   0.602   0.837
12103WAT     H149118   1.638   0.571   0.866
12103WAT     H249119   1.699   0.687   0.828
12103WAT    EPW49120   1.701   0.610   0.840
12104WAT      O49121   2.213   0.483   0.476
12104WAT     H149122   2.258   0.447   0.542
12104WAT     H249123   2.130   0.467   0.497
12104WAT    EPW49124   2.207   0.476   0.489
12105WAT      O49125   2.003   0.908   0.304
12105WAT     H149126   1.957   0.933   0.234
12105WAT     H249127   2.079   0.883   0.270
12105WAT    EPW49128   2.007   0.908   0.289
12106WAT      O49129   2.396   0.533   1.067
12106WAT     H149130   2.471   0.526   1.023
12106WAT     H249131   2.340   0.564   1.007
12106WAT    EPW49132   2.399   0.536   1.052
12107WAT      O49133   2.698   0.785   0.914
12107WAT     H149134   2.727   0.817   0.990
12107WAT     H249135   2.745   0.827   0.855
12107WAT    EPW49136   2.709   0.796   0.917
12108WAT      O49137   2.174   1.113   0.931
12108WAT     H149138   2.193   1.103   0.847
12108WAT     H249139   2.136   1.038   0.953
12108WAT    EPW49140   2.171   1.101   0.922
12109WAT      O49141   2.201   0.589   0.873
12109WAT     H149142   2.123   0.581   0.911
12109WAT     H249143   2.202   0.670   0.842
12109WAT    EPW49144   2.190   0.600   0.874
12110WAT      O49145   1.759   1.185   0.320
12110WAT     H149146   1.761   1.167   0.405
12110WAT     H249147   1.720   1.116   0.284
12110WAT    EPW49148   1.754   1.172   0.327
12111WAT      O49149   2.197   0.843   0.765
12111WAT     H149150   2.273   0.859   0.805
12111WAT     H249151   2.220   0.823   0.684
12111WAT    EPW49152   2.211   0.842   0.759
12112WAT      O49153   1.412   1.204   0.926
12112WAT     H149154   1.353   1.141   0.912
12112WAT     H249155   1.365   1.269   0.958
12112WAT    EPW49156   1.397   1.204   0.928
12113WAT      O49157   2.284   0.321   1.217
12113WAT     H149158   2.320   0.381   1.165
12113WAT     H249159   2.203   0.350   1.231
12113WAT    EPW49160   2.278   0.334   1.211
12114WAT      O49161   2.595   1.120   0.336
12114WAT     H149162   2.555   1.195   0.320
12114WAT     H249163   2.671   1.144   0.371
12114WAT    EPW49164   2.600   1.135   0.339
12115WAT      O49165   2.258   0.756   0.512
12115WAT     H149166   2.247   0.670   0.504
12115WAT     H249167   2.344   0.765   0.520
12115WAT    EPW49168   2.269   0.744   0.512
12116WAT      O49169   2.818   0.900   1.136
12116WAT     H149170   2.898   0.867   1.126
12116WAT     H249171   2.792   0.868   1.213
12116WAT    EPW49172   2.826   0.891   1.146
12117WAT      O49173   1.425   0.387   0.623
12117WAT     H149174   1.441   0.446   0.560
12117WAT     H249175   1.404   0.315   0.578
12117WAT    EPW49176   1.424   0.385   0.607
12118WAT      O49177   1.717   0.393   0.653
12118WAT     H149178   1.722   0.459   0.710
12118WAT     H249179   1.632   0.383   0.639
12118WAT    EPW49180   1.705   0.401   0.659
12119WAT      O49181   2.524   0.810   0.529
12119WAT     H149182   2.531   0.887   0.568
12119WAT     H249183   2.535   0.828   0.445
12119WAT    EPW49184   2.527   0.824   0.523
12120WAT      O49185   2.440   1.201   0.978
12120WAT     H149186   2.365   1.163   0.954
12120WAT     H249187   2.418   1.285   0.988
12120WAT    EPW49188   2.425   1.208   0.976
12121WAT      O49189   3.028   0.646   0.553
12121WAT     H149190   3.008   0.597   0.483
12121WAT     H249191   2.970   0.711   0.550
12121WAT    EPW49192   3.016   0.648   0.542
12122WAT      O49193   1.862   1.151   0.865
12122WAT     H149194   1.849   1.142   0.951
12122WAT     H249195   1.901   1.076   0.843
12122WAT    EPW49196   1.866   1.139   0.875
12123WAT      O49197   2.854   0.858   0.507
12123WAT     H149198   2.915   0.897   0.458
12123WAT     H249199   2.809   0.811   0.449
12123WAT    EPW49200   2.856   0.857   0.491
12124WAT      O49201   1.560   1.007   1.064
12124WAT     H149202   1.634   1.046   1.088
12124WAT     H249203   1.515   1.071   1.025
12124WAT    EPW49204   1.564   1.023   1.062
12125WAT      O49205   1.401   0.775   0.783
12125WAT     H149206   1.350   0.836   0.818
12125WAT     H249207   1.482   0.808   0.791
12125WAT    EPW49208   1.406   0.789   0.789
12126WAT      O49209   2.992   0.563   0.999
12126WAT     H149210   3.002   0.495   1.053
12126WAT     H249211   3.019   0.532   0.922
12126WAT    EPW49212   2.998   0.548   0.995
12127WAT      O49213   2.693   0.396   1.222
12127WAT     H149214   2.763   0.438   1.254
12127WAT     H249215   2.688   0.426   1.140
12127WAT    EPW49216   2.703   0.407   1.215
12128WAT      O49217   1.618   0.957   0.219
12128WAT     H149218   1.642   0.875   0.236
12128WAT     H249219   1.598   0.956   0.134
12128WAT    EPW49220   1.619   0.945   0.209
12129WAT      O49221   1.365   1.212   0.632
12129WAT     H149222   1.409   1.205   0.706
12129WAT     H249223   1.408   1.159   0.577
12129WAT    EPW49224   1.378   1.203   0.635
12130WAT      O49225   0.485   6.849   7.431
12130WAT     H149226   0.472   6.888   7.354
12130WAT     H249227   0.571   6.837   7.434
12130WAT    EPW49228   0.496   6.853   7.420
12131WAT      O49229   0.680   7.632   7.555
12131WAT     H149230   0.697   7.641   7.470
12131WAT     H249231   0.643   7.553   7.561
12131WAT    EPW49232   0.677   7.622   7.543
12132WAT      O49233   0.608   7.167   6.841
12132WAT     H149234   0.581   7.234   6.890
12132WAT     H249235   0.628   7.105   6.899
12132WAT    EPW49236   0.607   7.167   6.857
12133WAT      O49237   1.129   7.169   7.526
12133WAT     H149238   1.063   7.225   7.539
12133WAT     H249239   1.088   7.092   7.518
12133WAT    EPW49240   1.113   7.166   7.527
12134WAT      O49241   0.315   7.339   7.444
12134WAT     H149242   0.344   7.295   7.374
12134WAT     H249243   0.388   7.353   7.490
12134WAT    EPW49244   0.330   7.335   7.440
12135WAT      O49245   0.466   7.363   7.000
12135WAT     H149246   0.485   7.434   7.046
12135WAT     H249247   0.421   7.394   6.932
12135WAT    EPW49248   0.462   7.378   6.997
12136WAT      O49249   0.670   6.981   7.038
12136WAT     H149250   0.727   6.915   7.046
12136WAT     H249251   0.690   7.034   7.104
12136WAT    EPW49252   0.681   6.979   7.049
12137WAT      O49253   0.421   7.204   7.226
12137WAT     H149254   0.406   7.121   7.203
12137WAT     H249255   0.424   7.246   7.150
12137WAT    EPW49256   0.419   7.198   7.211
12138WAT      O49257   0.428   6.929   7.165
12138WAT     H149258   0.381   6.869   7.124
12138WAT     H249259   0.501   6.933   7.118
12138WAT    EPW49260   0.432   6.921   7.152
12139WAT      O49261   0.214   7.146   7.615
12139WAT     H149262   0.233   7.210   7.559
12139WAT     H249263   0.127   7.144   7.614
12139WAT    EPW49264   0.204   7.155   7.606
12140WAT      O49265   0.749   6.781   7.480
12140WAT     H149266   0.739   6.766   7.566
12140WAT     H249267   0.787   6.708   7.451
12140WAT    EPW49268   0.753   6.768   7.488
12141WAT      O49269   0.839   7.660   7.017
12141WAT     H149270   0.813   7.735   6.981
12141WAT     H249271   0.811   7.666   7.099
12141WAT    EPW49272   0.831   7.672   7.024
12142WAT      O49273   1.169   7.062   6.969
12142WAT     H149274   1.197   7.012   6.903
12142WAT     H249275   1.127   7.127   6.930
12142WAT    EPW49276   1.167   7.064   6.954
12143WAT      O49277   1.046   6.950   7.196
12143WAT     H149278   1.117   6.909   7.225
12143WAT     H249279   1.075   6.995   7.127
12143WAT    EPW49280   1.061   6.951   7.190
12144WAT      O49281   0.663   7.187   7.718
12144WAT     H149282   0.688   7.162   7.798
12144WAT     H249283   0.604   7.127   7.695
12144WAT    EPW49284   0.658   7.174   7.726
12145WAT      O49285   0.695   7.149   7.252
12145WAT     H149286   0.744   7.218   7.270
12145WAT     H249287   0.614   7.179   7.259
12145WAT    EPW49288   0.690   7.163   7.256
12146WAT      O49289   0.493   7.603   7.151
12146WAT     H149290   0.468   7.673   7.106
12146WAT     H249291   0.439   7.603   7.220
12146WAT    EPW49292   0.481   7.613   7.155
12147WAT      O49293   0.334   7.609   7.375
12147WAT     H149294   0.350   7.645   7.453
12147WAT     H249295   0.311   7.527   7.395
12147WAT    EPW49296   0.333   7.602   7.389
12148WAT      O49297   0.421   7.704   7.627
12148WAT     H149298   0.416   7.767   7.688
12148WAT     H249299   0.507   7.699   7.610
12148WAT    EPW49300   0.433   7.712   7.634
12149WAT      O49301   1.126   7.685   7.639
12149WAT     H149302   1.150   7.766   7.660
12149WAT     H249303   1.091   7.693   7.560
12149WAT    EPW49304   1.124   7.698   7.631
12150WAT      O49305   0.889   7.309   7.585
12150WAT     H149306   0.825   7.262   7.622
12150WAT     H249307   0.893   7.381   7.635
12150WAT    EPW49308   0.880   7.313   7.598
12151WAT      O49309   1.076   7.533   6.958
12151WAT     H149310   1.124   7.582   6.904
12151WAT     H249311   1.005   7.581   6.971
12151WAT    EPW49312   1.073   7.547   6.952
12152WAT      O49313   0.842   7.378   7.322
12152WAT     H149314   0.855   7.356   7.405
12152WAT     H249315   0.922   7.397   7.293
12152WAT    EPW49316   0.856   7.377   7.330
12153WAT      O49317   0.976   6.943   7.466
12153WAT     H149318   0.896   6.908   7.475
12153WAT     H249319   0.981   6.959   7.381
12153WAT    EPW49320   0.965   6.940   7.455
12154WAT      O49321   0.998   7.705   7.395
12154WAT     H149322   1.032   7.644   7.342
12154WAT     H249323   0.915   7.712   7.368
12154WAT    EPW49324   0.991   7.697   7.383
12155WAT      O49325   1.081   7.494   7.235
12155WAT     H149326   1.085   7.509   7.149
12155WAT     H249327   1.164   7.484   7.258
12155WAT    EPW49328   1.094   7.494   7.226
12156WAT      O49329   0.454   7.014   7.657
12156WAT     H149330   0.376   7.054   7.650
12156WAT     H249331   0.462   6.973   7.580
12156WAT    EPW49332   0.444   7.014   7.644
12157WAT      O49333   0.892   7.548   7.721
12157WAT     H149334   0.966   7.593   7.706
12157WAT     H249335   0.832   7.592   7.676
12157WAT    EPW49336   0.894   7.561   7.712
12158WAT      O49337   0.529   7.405   7.608
12158WAT     H149338   0.571   7.339   7.646
12158WAT     H249339   0.485   7.442   7.673
12158WAT    EPW49340   0.529   7.401   7.623
12159WAT      O49341   0.738   7.629   7.280
12159WAT     H149342   0.766   7.547   7.289
12159WAT     H249343   0.659   7.620   7.244
12159WAT    EPW49344   0.730   7.616   7.276
12160WAT      O49345   0.501   6.827   5.578
12160WAT     H149346   0.507   6.881   5.510
12160WAT     H249347   0.583   6.803   5.593
12160WAT    EPW49348   0.514   6.832   5.570
12161WAT      O49349   0.465   7.436   6.025
12161WAT     H149350   0.430   7.516   6.033
12161WAT     H249351   0.520   7.431   6.093
12161WAT    EPW49352   0.468   7.447   6.037
12162WAT      O49353   0.727   7.634   5.733
12162WAT     H149354   0.727   7.644   5.646
12162WAT     H249355   0.670   7.570   5.746
12162WAT    EPW49356   0.719   7.626   5.722
12163WAT      O49357   0.363   7.487   6.769
12163WAT     H149358   0.282   7.515   6.750
12163WAT     H249359   0.411   7.560   6.764
12163WAT    EPW49360   0.358   7.502   6.765
12164WAT      O49361   0.834   6.752   6.509
12164WAT     H149362   0.817   6.822   6.459
12164WAT     H249363   0.758   6.735   6.547
12164WAT    EPW49364   0.820   6.760   6.507
12165WAT      O49365   0.608   7.167   4.945
12165WAT     H149366   0.587   7.236   4.994
12165WAT     H249367   0.631   7.107   5.004
12165WAT    EPW49368   0.609   7.168   4.961
12166WAT      O49369   1.183   7.119   5.694
12166WAT     H149370   1.139   7.195   5.700
12166WAT     H249371   1.120   7.060   5.681
12166WAT    EPW49372   1.167   7.122   5.693
12167WAT      O49373   0.233   6.863   6.667
12167WAT     H149374   0.253   6.778   6.673
12167WAT     H249375   0.232   6.877   6.581
12167WAT    EPW49376   0.236   6.852   6.655
12168WAT      O49377   0.363   7.343   5.609
12168WAT     H149378   0.397   7.309   5.536
12168WAT     H249379   0.433   7.361   5.658
12168WAT    EPW49380   0.378   7.340   5.606
12169WAT      O49381   0.477   7.366   5.124
12169WAT     H149382   0.495   7.437   5.172
12169WAT     H249383   0.429   7.397   5.058
12169WAT    EPW49384   0.473   7.381   5.122
12170WAT      O49385   1.091   7.022   6.141
12170WAT     H149386   1.152   7.019   6.079
12170WAT     H249387   1.108   6.952   6.190
12170WAT    EPW49388   1.103   7.011   6.139
12171WAT      O49389   0.682   6.998   5.154
12171WAT     H149390   0.734   6.930   5.167
12171WAT     H249391   0.714   7.059   5.207
12171WAT    EPW49392   0.695   6.997   5.164
12172WAT      O49393   0.471   7.236   5.376
12172WAT     H149394   0.457   7.150   5.364
12172WAT     H249395   0.461   7.270   5.296
12172WAT    EPW49396   0.467   7.228   5.362
12173WAT      O49397   0.474   6.959   5.332
12173WAT     H149398   0.421   6.897   5.300
12173WAT     H249399   0.538   6.964   5.273
12173WAT    EPW49400   0.475   6.951   5.319
12174WAT      O49401   0.265   7.131   5.764
12174WAT     H149402   0.278   7.201   5.713
12174WAT     H249403   0.252   7.165   5.843
12174WAT    EPW49404   0.265   7.146   5.768
12175WAT      O49405   0.592   7.179   6.365
12175WAT     H149406   0.557   7.207   6.440
12175WAT     H249407   0.524   7.150   6.320
12175WAT    EPW49408   0.577   7.179   6.370
12176WAT      O49409   0.757   6.764   5.661
12176WAT     H149410   0.754   6.754   5.748
12176WAT     H249411   0.795   6.690   5.634
12176WAT    EPW49412   0.762   6.751   5.670
12177WAT      O49413   0.976   7.192   6.451
12177WAT     H149414   1.059   7.177   6.471
12177WAT     H249415   0.934   7.186   6.527
12177WAT    EPW49416   0.982   7.189   6.465
12178WAT      O49417   0.864   7.677   5.103
12178WAT     H149418   0.831   7.743   5.056
12178WAT     H249419   0.880   7.712   5.181
12178WAT    EPW49420   0.861   7.692   5.107
12179WAT      O49421   1.151   7.088   5.146
12179WAT     H149422   1.193   7.027   5.101
12179WAT     H249423   1.116   7.139   5.083
12179WAT    EPW49424   1.152   7.087   5.130
12180WAT      O49425   1.268   7.459   6.331
12180WAT     H149426   1.331   7.399   6.336
12180WAT     H249427   1.214   7.427   6.271
12180WAT    EPW49428   1.270   7.446   6.323
12181WAT      O49429   1.026   6.945   5.354
12181WAT     H149430   1.101   6.907   5.375
12181WAT     H249431   1.049   7.007   5.297
12181WAT    EPW49432   1.040   6.949   5.349
12182WAT      O49433   0.749   7.182   5.789
12182WAT     H149434   0.782   7.144   5.860
12182WAT     H249435   0.681   7.131   5.768
12182WAT    EPW49436   0.744   7.169   5.796
12183WAT      O49437   0.861   7.346   6.076
12183WAT     H149438   0.799   7.379   6.127
12183WAT     H249439   0.869   7.405   6.012
12183WAT    EPW49440   0.853   7.360   6.074
12184WAT      O49441   0.352   6.897   6.410
12184WAT     H149442   0.371   6.816   6.386
12184WAT     H249443   0.415   6.916   6.468
12184WAT    EPW49444   0.364   6.888   6.415
12185WAT      O49445   0.746   7.189   5.339
12185WAT     H149446   0.801   7.250   5.369
12185WAT     H249447   0.668   7.218   5.365
12185WAT    EPW49448   0.743   7.203   5.347
12186WAT      O49449   0.266   7.239   6.019
12186WAT     H149450   0.325   7.304   6.021
12186WAT     H249451   0.295   7.185   6.081
12186WAT    EPW49452   0.279   7.241   6.029
12187WAT      O49453   0.503   7.593   5.296
12187WAT     H149454   0.499   7.674   5.264
12187WAT     H249455   0.451   7.595   5.366
12187WAT    EPW49456   0.495   7.605   5.301
12188WAT      O49457   0.956   7.834   6.394
12188WAT     H149458   0.972   7.781   6.326
12188WAT     H249459   0.966   7.914   6.361
12188WAT    EPW49460   0.960   7.838   6.379
12189WAT      O49461   0.971   6.896   6.704
12189WAT     H149462   0.932   6.851   6.640
12189WAT     H249463   0.978   6.837   6.769
12189WAT    EPW49464   0.966   6.880   6.704
12190WAT      O49465   0.519   7.741   6.289
12190WAT     H149466   0.567   7.812   6.297
12190WAT     H249467   0.551   7.687   6.350
12190WAT    EPW49468   0.531   7.743   6.300
12191WAT      O49469   0.353   7.609   5.528
12191WAT     H149470   0.351   7.655   5.602
12191WAT     H249471   0.343   7.526   5.555
12191WAT    EPW49472   0.351   7.603   5.543
12192WAT      O49473   0.321   7.738   5.781
12192WAT     H149474   0.249   7.785   5.791
12192WAT     H249475   0.348   7.723   5.863
12192WAT    EPW49476   0.314   7.743   5.795
12193WAT      O49477   0.995   7.657   6.173
12193WAT     H149478   0.987   7.588   6.225
12193WAT     H249479   0.935   7.643   6.110
12193WAT    EPW49480   0.985   7.645   6.171
12194WAT      O49481   1.183   7.642   5.960
12194WAT     H149482   1.145   7.652   6.038
12194WAT     H249483   1.234   7.713   5.952
12194WAT    EPW49484   1.185   7.654   5.970
12195WAT      O49485   0.853   7.153   6.700
12195WAT     H149486   0.778   7.156   6.745
12195WAT     H249487   0.880   7.071   6.709
12195WAT    EPW49488   0.846   7.141   6.708
12196WAT      O49489   0.733   7.478   6.832
12196WAT     H149490   0.767   7.517   6.902
12196WAT     H249491   0.668   7.531   6.808
12196WAT    EPW49492   0.728   7.492   6.839
12197WAT      O49493   0.890   7.531   6.614
12197WAT     H149494   0.912   7.613   6.636
12197WAT     H249495   0.848   7.502   6.685
12197WAT    EPW49496   0.887   7.539   6.628
12198WAT      O49497   0.978   7.319   5.704
12198WAT     H149498   0.909   7.268   5.723
12198WAT     H249499   0.970   7.386   5.760
12198WAT    EPW49500   0.967   7.321   5.715
12199WAT      O49501   1.203   7.669   6.750
12199WAT     H149502   1.203   7.599   6.698
12199WAT     H249503   1.284   7.701   6.742
12199WAT    EPW49504   1.215   7.664   6.741
12200WAT      O49505   0.803   6.991   6.363
12200WAT     H149506   0.867   7.047   6.377
12200WAT     H249507   0.731   7.041   6.361
12200WAT    EPW49508   0.802   7.006   6.365
12201WAT      O49509   0.355   7.688   6.067
12201WAT     H149510   0.408   7.712   6.132
12201WAT     H249511   0.277   7.679   6.106
12201WAT    EPW49512   0.351   7.690   6.082
12202WAT      O49513   0.868   6.789   6.180
12202WAT     H149514   0.847   6.861   6.224
12202WAT     H249515   0.953   6.778   6.198
12202WAT    EPW49516   0.878   6.798   6.189
12203WAT      O49517   1.098   7.528   5.071
12203WAT     H149518   1.143   7.575   5.012
12203WAT     H249519   1.023   7.572   5.079
12203WAT    EPW49520   1.094   7.542   5.063
12204WAT      O49521   0.535   7.335   6.603
12204WAT     H149522   0.467   7.368   6.647
12204WAT     H249523   0.580   7.292   6.665
12204WAT    EPW49524   0.532   7.333   6.619
12205WAT      O49525   0.645   7.416   6.236
12205WAT     H149526   0.659   7.471   6.303
12205WAT     H249527   0.632   7.339   6.275
12205WAT    EPW49528   0.645   7.413   6.252
12206WAT      O49529   0.904   7.395   5.447
12206WAT     H149530   0.930   7.370   5.526
12206WAT     H249531   0.973   7.440   5.416
12206WAT    EPW49532   0.918   7.398   5.454
12207WAT      O49533   0.974   6.943   5.629
12207WAT     H149534   0.897   6.904   5.643
12207WAT     H249535   0.973   6.958   5.543
12207WAT    EPW49536   0.962   6.940   5.618
12208WAT      O49537   0.930   7.780   5.349
12208WAT     H149538   0.998   7.728   5.365
12208WAT     H249539   0.864   7.741   5.392
12208WAT    EPW49540   0.930   7.766   5.358
12209WAT      O49541   1.170   7.446   6.591
12209WAT     H149542   1.082   7.450   6.593
12209WAT     H249543   1.188   7.459   6.506
12209WAT    EPW49544   1.159   7.449   6.579
12210WAT      O49545   0.640   7.567   6.486
12210WAT     H149546   0.604   7.494   6.517
12210WAT     H249547   0.722   7.562   6.514
12210WAT    EPW49548   0.647   7.555   6.495
12211WAT      O49549   0.564   7.684   6.742
12211WAT     H149550   0.584   7.680   6.658
12211WAT     H249551   0.610   7.751   6.772
12211WAT    EPW49552   0.573   7.693   6.734
12212WAT      O49553   1.109   7.561   5.354
12212WAT     H149554   1.121   7.555   5.268
12212WAT     H249555   1.187   7.541   5.387
12212WAT    EPW49556   1.122   7.557   5.346
12213WAT      O49557   0.946   7.455   6.355
12213WAT     H149558   0.955   7.369   6.363
12213WAT     H249559   0.926   7.482   6.436
12213WAT    EPW49560   0.944   7.447   6.369
12214WAT      O49561   0.484   6.982   6.659
12214WAT     H149562   0.508   7.043   6.716
12214WAT     H249563   0.403   6.962   6.683
12214WAT    EPW49564   0.475   6.988   6.671
12215WAT      O49565   0.518   7.030   5.768
12215WAT     H149566   0.438   7.065   5.768
12215WAT     H249567   0.513   6.968   5.707
12215WAT    EPW49568   0.505   7.026   5.759
12216WAT      O49569   0.830   7.077   6.034
12216WAT     H149570   0.906   7.042   6.060
12216WAT     H249571   0.837   7.161   6.058
12216WAT    EPW49572   0.843   7.084   6.042
12217WAT      O49573   0.930   7.533   5.885
12217WAT     H149574   1.004   7.580   5.880
12217WAT     H249575   0.874   7.578   5.835
12217WAT    EPW49576   0.933   7.547   5.877
12218WAT      O49577   1.131   6.777   6.288
12218WAT     H149578   1.106   6.708   6.335
12218WAT     H249579   1.218   6.774   6.293
12218WAT    EPW49580   1.140   6.766   6.296
12219WAT      O49581   0.398   7.072   6.201
12219WAT     H149582   0.369   7.013   6.259
12219WAT     H249583   0.450   7.025   6.149
12219WAT    EPW49584   0.402   7.056   6.202
12220WAT      O49585   0.580   6.951   6.027
12220WAT     H149586   0.656   6.991   6.038
12220WAT     H249587   0.554   6.978   5.948
12220WAT    EPW49588   0.587   6.961   6.017
12221WAT      O49589   0.577   7.403   5.776
12221WAT     H149590   0.635   7.337   5.784
12221WAT     H249591   0.542   7.410   5.855
12221WAT    EPW49592   0.581   7.394   5.789
12222WAT      O49593   0.734   7.615   5.455
12222WAT     H149594   0.778   7.539   5.451
12222WAT     H249595   0.663   7.600   5.406
12222WAT    EPW49596   0.730   7.601   5.447
12223WAT      O49597   0.960   7.790   6.671
12223WAT     H149598   1.043   7.773   6.694
12223WAT     H249599   0.967   7.813   6.587
12223WAT    EPW49600   0.973   7.791   6.662
12224WAT      O49601   1.052   7.276   6.848
12224WAT     H149602   1.036   7.359   6.869
12224WAT     H249603   0.981   7.252   6.803
12224WAT    EPW49604   1.039   7.284   6.845
12225WAT      O49605   1.128   7.303   6.139
12225WAT     H149606   1.045   7.323   6.123
12225WAT     H249607   1.127   7.217   6.150
12225WAT    EPW49608   1.116   7.294   6.138
12226WAT      O49609   0.756   7.873   6.849
12226WAT     H149610   0.823   7.863   6.794
12226WAT     H249611   0.759   7.957   6.871
12226WAT    EPW49612   0.766   7.884   6.844
12227WAT      O49613   0.500   6.827   3.679
12227WAT     H149614   0.507   6.881   3.611
12227WAT     H249615   0.582   6.802   3.694
12227WAT    EPW49616   0.513   6.831   3.671
12228WAT      O49617   0.479   7.439   4.112
12228WAT     H149618   0.439   7.516   4.124
12228WAT     H249619   0.530   7.432   4.183
12228WAT    EPW49620   0.481   7.450   4.124
12229WAT      O49621   0.745   7.636   3.788
12229WAT     H149622   0.740   7.649   3.702
12229WAT     H249623   0.685   7.574   3.803
12229WAT    EPW49624   0.735   7.629   3.778
12230WAT      O49625   0.366   7.481   4.890
12230WAT     H149626   0.285   7.512   4.882
12230WAT     H249627   0.416   7.552   4.884
12230WAT    EPW49628   0.361   7.496   4.888
12231WAT      O49629   0.894   6.776   4.608
12231WAT     H149630   0.863   6.840   4.558
12231WAT     H249631   0.824   6.750   4.654
12231WAT    EPW49632   0.879   6.782   4.607
12232WAT      O49633   0.610   7.168   3.041
12232WAT     H149634   0.594   7.240   3.088
12232WAT     H249635   0.631   7.109   3.102
12232WAT    EPW49636   0.611   7.170   3.057
12233WAT      O49637   1.182   7.120   3.793
12233WAT     H149638   1.138   7.195   3.796
12233WAT     H249639   1.119   7.060   3.783
12233WAT    EPW49640   1.166   7.122   3.792
12234WAT      O49641   0.263   6.797   4.916
12234WAT     H149642   0.264   6.724   4.869
12234WAT     H249643   0.189   6.836   4.892
12234WAT    EPW49644   0.252   6.792   4.906
12235WAT      O49645   0.368   7.344   3.707
12235WAT     H149646   0.400   7.310   3.634
12235WAT     H249647   0.438   7.363   3.754
12235WAT    EPW49648   0.383   7.341   3.703
12236WAT      O49649   0.473   7.370   3.226
12236WAT     H149650   0.487   7.443   3.272
12236WAT     H249651   0.427   7.399   3.158
12236WAT    EPW49652   0.468   7.385   3.223
12237WAT      O49653   1.084   7.040   4.233
12237WAT     H149654   1.148   7.034   4.175
12237WAT     H249655   1.101   6.975   4.289
12237WAT    EPW49656   1.096   7.030   4.233
12238WAT      O49657   0.682   7.002   3.253
12238WAT     H149658   0.734   6.933   3.266
12238WAT     H249659   0.716   7.064   3.304
12238WAT    EPW49660   0.695   7.001   3.262
12239WAT      O49661   0.478   7.238   3.475
12239WAT     H149662   0.463   7.153   3.464
12239WAT     H249663   0.465   7.271   3.395
12239WAT    EPW49664   0.474   7.230   3.461
12240WAT      O49665   0.477   6.961   3.434
12240WAT     H149666   0.423   6.901   3.402
12240WAT     H249667   0.540   6.967   3.374
12240WAT    EPW49668   0.478   6.953   3.420
12241WAT      O49669   0.264   7.134   3.862
12241WAT     H149670   0.279   7.204   3.812
12241WAT     H249671   0.255   7.168   3.942
12241WAT    EPW49672   0.265   7.149   3.867
12242WAT      O49673   0.593   7.182   4.471
12242WAT     H149674   0.556   7.212   4.544
12242WAT     H249675   0.526   7.150   4.426
12242WAT    EPW49676   0.578   7.182   4.475
12243WAT      O49677   0.756   6.764   3.761
12243WAT     H149678   0.753   6.754   3.848
12243WAT     H249679   0.792   6.690   3.733
12243WAT    EPW49680   0.761   6.752   3.770
12244WAT      O49681   0.971   7.203   4.552
12244WAT     H149682   1.055   7.188   4.570
12244WAT     H249683   0.932   7.198   4.629
12244WAT    EPW49684   0.978   7.200   4.566
12245WAT      O49685   0.845   7.638   3.228
12245WAT     H149686   0.823   7.715   3.192
12245WAT     H249687   0.824   7.648   3.312
12245WAT    EPW49688   0.839   7.651   3.235
12246WAT      O49689   1.152   7.087   3.249
12246WAT     H149690   1.196   7.025   3.206
12246WAT     H249691   1.119   7.136   3.185
12246WAT    EPW49692   1.154   7.085   3.233
12247WAT      O49693   1.267   7.462   4.434
12247WAT     H149694   1.330   7.402   4.437
12247WAT     H249695   1.213   7.432   4.372
12247WAT    EPW49696   1.268   7.449   4.425
12248WAT      O49697   1.024   6.942   3.454
12248WAT     H149698   1.100   6.902   3.473
12248WAT     H249699   1.048   7.005   3.398
12248WAT    EPW49700   1.039   6.945   3.449
12249WAT      O49701   0.749   7.183   3.880
12249WAT     H149702   0.780   7.149   3.954
12249WAT     H249703   0.679   7.133   3.862
12249WAT    EPW49704   0.743   7.171   3.888
12250WAT      O49705   0.858   7.359   4.170
12250WAT     H149706   0.796   7.390   4.222
12250WAT     H249707   0.863   7.418   4.105
12250WAT    EPW49708   0.850   7.373   4.168
12251WAT      O49709   0.368   6.905   4.523
12251WAT     H149710   0.373   6.820   4.501
12251WAT     H249711   0.404   6.907   4.602
12251WAT    EPW49712   0.374   6.892   4.532
12252WAT      O49713   0.753   7.201   3.428
12252WAT     H149714   0.807   7.261   3.460
12252WAT     H249715   0.675   7.225   3.458
12252WAT    EPW49716   0.750   7.213   3.438
12253WAT      O49717   0.279   7.243   4.117
12253WAT     H149718   0.341   7.305   4.116
12253WAT     H249719   0.305   7.189   4.181
12253WAT    EPW49720   0.292   7.244   4.127
12254WAT      O49721   0.497   7.600   3.392
12254WAT     H149722   0.481   7.679   3.357
12254WAT     H249723   0.451   7.600   3.466
12254WAT    EPW49724   0.488   7.612   3.397
12255WAT      O49725   0.971   7.840   4.495
12255WAT     H149726   0.983   7.788   4.426
12255WAT     H249727   0.979   7.920   4.462
12255WAT    EPW49728   0.974   7.844   4.480
12256WAT      O49729   0.979   6.916   4.832
12256WAT     H149730   0.952   6.872   4.761
12256WAT     H249731   0.980   6.855   4.895
12256WAT    EPW49732   0.975   6.900   4.831
12257WAT      O49733   0.511   7.732   4.395
12257WAT     H149734   0.550   7.809   4.413
12257WAT     H249735   0.542   7.679   4.457
12257WAT    EPW49736   0.521   7.736   4.407
12258WAT      O49737   0.362   7.611   3.633
12258WAT     H149738   0.357   7.656   3.707
12258WAT     H249739   0.350   7.528   3.658
12258WAT    EPW49740   0.360   7.605   3.647
12259WAT      O49741   0.322   7.738   3.885
12259WAT     H149742   0.247   7.782   3.893
12259WAT     H249743   0.345   7.723   3.967
12259WAT    EPW49744   0.314   7.742   3.898
12260WAT      O49745   0.994   7.666   4.271
12260WAT     H149746   0.985   7.597   4.324
12260WAT     H249747   0.927   7.658   4.215
12260WAT    EPW49748   0.983   7.655   4.271
12261WAT      O49749   1.174   7.649   4.055
12261WAT     H149750   1.136   7.658   4.133
12261WAT     H249751   1.220   7.723   4.046
12261WAT    EPW49752   1.175   7.661   4.065
12262WAT      O49753   0.858   7.168   4.807
12262WAT     H149754   0.783   7.173   4.852
12262WAT     H249755   0.885   7.086   4.822
12262WAT    EPW49756   0.851   7.156   4.816
12263WAT      O49757   0.741   7.478   4.943
12263WAT     H149758   0.777   7.520   5.011
12263WAT     H249759   0.673   7.529   4.922
12263WAT    EPW49760   0.736   7.492   4.950
12264WAT      O49761   0.886   7.535   4.717
12264WAT     H149762   0.909   7.617   4.739
12264WAT     H249763   0.848   7.505   4.790
12264WAT    EPW49764   0.884   7.543   4.731
12265WAT      O49765   0.977   7.321   3.796
12265WAT     H149766   0.909   7.269   3.815
12265WAT     H249767   0.969   7.388   3.851
12265WAT    EPW49768   0.966   7.323   3.807
12266WAT      O49769   1.207   7.666   4.854
12266WAT     H149770   1.204   7.597   4.800
12266WAT     H249771   1.288   7.696   4.844
12266WAT    EPW49772   1.218   7.660   4.844
12267WAT      O49773   0.809   6.998   4.460
12267WAT     H149774   0.869   7.060   4.473
12267WAT     H249775   0.733   7.042   4.462
12267WAT    EPW49776   0.806   7.013   4.462
12268WAT      O49777   0.353   7.681   4.168
12268WAT     H149778   0.405   7.704   4.234
12268WAT     H249779   0.277   7.663   4.206
12268WAT    EPW49780   0.349   7.681   4.183
12269WAT      O49781   0.866   6.789   4.281
12269WAT     H149782   0.844   6.863   4.321
12269WAT     H249783   0.950   6.778   4.301
12269WAT    EPW49784   0.875   6.798   4.290
12270WAT      O49785   1.094   7.521   3.183
12270WAT     H149786   1.133   7.571   3.123
12270WAT     H249787   1.016   7.559   3.193
12270WAT    EPW49788   1.088   7.534   3.176
12271WAT      O49789   0.526   7.326   4.713
12271WAT     H149790   0.460   7.362   4.758
12271WAT     H249791   0.567   7.278   4.773
12271WAT    EPW49792   0.522   7.324   4.728
12272WAT      O49793   0.643   7.417   4.336
12272WAT     H149794   0.656   7.472   4.403
12272WAT     H249795   0.631   7.340   4.374
12272WAT    EPW49796   0.643   7.414   4.351
12273WAT      O49797   0.909   7.408   3.540
12273WAT     H149798   0.930   7.380   3.620
12273WAT     H249799   0.977   7.456   3.516
12273WAT    EPW49800   0.922   7.411   3.549
12274WAT      O49801   0.975   6.941   3.729
12274WAT     H149802   0.897   6.904   3.744
12274WAT     H249803   0.974   6.956   3.643
12274WAT    EPW49804   0.963   6.938   3.718
12275WAT      O49805   0.957   7.833   3.496
12275WAT     H149806   1.020   7.773   3.491
12275WAT     H249807   0.885   7.785   3.510
12275WAT    EPW49808   0.956   7.817   3.498
12276WAT      O49809   1.163   7.447   4.691
12276WAT     H149810   1.076   7.453   4.693
12276WAT     H249811   1.183   7.460   4.608
12276WAT    EPW49812   1.153   7.450   4.679
12277WAT      O49813   0.633   7.558   4.593
12277WAT     H149814   0.597   7.485   4.624
12277WAT     H249815   0.715   7.555   4.622
12277WAT    EPW49816   0.639   7.547   4.602
12278WAT      O49817   0.563   7.677   4.850
12278WAT     H149818   0.582   7.671   4.765
12278WAT     H249819   0.608   7.747   4.877
12278WAT    EPW49820   0.573   7.686   4.842
12279WAT      O49821   1.108   7.586   3.462
12279WAT     H149822   1.119   7.577   3.375
12279WAT     H249823   1.186   7.562   3.494
12279WAT    EPW49824   1.121   7.581   3.454
12280WAT      O49825   0.940   7.466   4.455
12280WAT     H149826   0.949   7.380   4.463
12280WAT     H249827   0.921   7.492   4.536
12280WAT    EPW49828   0.939   7.457   4.468
12281WAT      O49829   0.480   6.920   4.788
12281WAT     H149830   0.503   6.994   4.828
12281WAT     H249831   0.414   6.889   4.836
12281WAT    EPW49832   0.474   6.926   4.801
12282WAT      O49833   0.516   7.032   3.866
12282WAT     H149834   0.436   7.067   3.866
12282WAT     H249835   0.511   6.968   3.806
12282WAT    EPW49836   0.504   7.027   3.857
12283WAT      O49837   0.825   7.090   4.131
12283WAT     H149838   0.902   7.057   4.156
12283WAT     H249839   0.830   7.174   4.152
12283WAT    EPW49840   0.837   7.097   4.138
12284WAT      O49841   0.927   7.539   3.970
12284WAT     H149842   1.001   7.584   3.971
12284WAT     H249843   0.877   7.583   3.913
12284WAT    EPW49844   0.930   7.552   3.962
12285WAT      O49845   1.120   6.823   4.407
12285WAT     H149846   1.088   6.805   4.486
12285WAT     H249847   1.204   6.799   4.413
12285WAT    EPW49848   1.128   6.817   4.419
12286WAT      O49849   0.401   7.073   4.306
12286WAT     H149850   0.377   7.016   4.368
12286WAT     H249851   0.452   7.026   4.253
12286WAT    EPW49852   0.405   7.058   4.307
12287WAT      O49853   0.579   6.955   4.126
12287WAT     H149854   0.655   6.997   4.136
12287WAT     H249855   0.552   6.981   4.047
12287WAT    EPW49856   0.586   6.965   4.116
12288WAT      O49857   0.589   7.412   3.859
12288WAT     H149858   0.644   7.344   3.868
12288WAT     H249859   0.556   7.422   3.939
12288WAT    EPW49860   0.592   7.404   3.872
12289WAT      O49861   0.752   7.633   3.500
12289WAT     H149862   0.789   7.555   3.514
12289WAT     H249863   0.672   7.613   3.473
12289WAT    EPW49864   0.746   7.619   3.498
12290WAT      O49865   0.966   7.793   4.771
12290WAT     H149866   1.047   7.773   4.797
12290WAT     H249867   0.976   7.815   4.687
12290WAT    EPW49868   0.979   7.793   4.763
12291WAT      O49869   1.068   7.267   4.956
12291WAT     H149870   1.059   7.351   4.978
12291WAT     H249871   0.996   7.250   4.910
12291WAT    EPW49872   1.056   7.277   4.953
12292WAT      O49873   1.125   7.318   4.236
12292WAT     H149874   1.042   7.339   4.219
12292WAT     H249875   1.122   7.231   4.245
12292WAT    EPW49876   1.112   7.308   4.235
12293WAT      O49877   0.751   7.878   4.938
12293WAT     H149878   0.820   7.875   4.884
12293WAT     H249879   0.750   7.960   4.966
12293WAT    EPW49880   0.761   7.890   4.935
12294WAT      O49881   0.498   6.819   1.784
12294WAT     H149882   0.499   6.876   1.718
12294WAT     H249883   0.583   6.800   1.796
12294WAT    EPW49884   0.511   6.825   1.776
12295WAT      O49885   0.457   7.434   2.232
12295WAT     H149886   0.423   7.514   2.239
12295WAT     H249887   0.513   7.429   2.299
12295WAT    EPW49888   0.460   7.446   2.243
12296WAT      O49889   0.720   7.640   1.940
12296WAT     H149890   0.721   7.648   1.854
12296WAT     H249891   0.664   7.574   1.954
12296WAT    EPW49892   0.712   7.631   1.930
12297WAT      O49893   0.365   7.483   2.989
12297WAT     H149894   0.284   7.515   2.980
12297WAT     H249895   0.415   7.554   2.984
12297WAT    EPW49896   0.360   7.498   2.987
12298WAT      O49897   0.879   6.768   2.705
12298WAT     H149898   0.851   6.834   2.655
12298WAT     H249899   0.808   6.744   2.749
12298WAT    EPW49900   0.864   6.774   2.704
12299WAT      O49901   0.527   7.126   1.200
12299WAT     H149902   0.508   7.199   1.245
12299WAT     H249903   0.573   7.079   1.257
12299WAT    EPW49904   0.531   7.130   1.215
12300WAT      O49905   1.179   7.118   1.887
12300WAT     H149906   1.134   7.192   1.898
12300WAT     H249907   1.118   7.060   1.864
12300WAT    EPW49908   1.163   7.121   1.885
12301WAT      O49909   0.265   6.806   3.014
12301WAT     H149910   0.273   6.734   2.966
12301WAT     H249911   0.190   6.841   2.987
12301WAT    EPW49912   0.255   6.800   3.003
12302WAT      O49913   0.357   7.345   1.820
12302WAT     H149914   0.391   7.310   1.748
12302WAT     H249915   0.427   7.364   1.868
12302WAT    EPW49916   0.372   7.343   1.816
12303WAT      O49917   0.459   7.368   1.341
12303WAT     H149918   0.481   7.436   1.391
12303WAT     H249919   0.430   7.406   1.268
12303WAT    EPW49920   0.458   7.384   1.337
12304WAT      O49921   1.083   7.039   2.333
12304WAT     H149922   1.146   7.033   2.274
12304WAT     H249923   1.100   6.974   2.389
12304WAT    EPW49924   1.095   7.028   2.333
12305WAT      O49925   0.676   6.985   1.383
12305WAT     H149926   0.733   6.919   1.380
12305WAT     H249927   0.713   7.041   1.438
12305WAT    EPW49928   0.690   6.983   1.391
12306WAT      O49929   0.464   7.232   1.590
12306WAT     H149930   0.445   7.147   1.578
12306WAT     H249931   0.450   7.268   1.512
12306WAT    EPW49932   0.459   7.225   1.577
12307WAT      O49933   0.456   6.956   1.546
12307WAT     H149934   0.408   6.890   1.515
12307WAT     H249935   0.525   6.957   1.492
12307WAT    EPW49936   0.459   6.946   1.533
12308WAT      O49937   0.261   7.128   1.967
12308WAT     H149938   0.274   7.199   1.919
12308WAT     H249939   0.249   7.159   2.048
12308WAT    EPW49940   0.261   7.143   1.972
12309WAT      O49941   0.589   7.180   2.572
12309WAT     H149942   0.552   7.211   2.645
12309WAT     H249943   0.521   7.148   2.527
12309WAT    EPW49944   0.573   7.180   2.576
12310WAT      O49945   0.761   6.770   1.855
12310WAT     H149946   0.759   6.763   1.942
12310WAT     H249947   0.798   6.695   1.829
12310WAT    EPW49948   0.766   6.758   1.864
12311WAT      O49949   0.970   7.200   2.649
12311WAT     H149950   1.054   7.184   2.666
12311WAT     H249951   0.932   7.196   2.727
12311WAT    EPW49952   0.977   7.197   2.663
12312WAT      O49953   0.854   7.691   1.313
12312WAT     H149954   0.827   7.762   1.268
12312WAT     H249955   0.874   7.723   1.392
12312WAT    EPW49956   0.853   7.706   1.318
12313WAT      O49957   1.119   7.093   1.264
12313WAT     H149958   1.162   7.045   1.205
12313WAT     H249959   1.068   7.144   1.216
12313WAT    EPW49960   1.118   7.093   1.249
12314WAT      O49961   1.268   7.465   2.533
12314WAT     H149962   1.330   7.405   2.537
12314WAT     H249963   1.213   7.435   2.473
12314WAT    EPW49964   1.269   7.452   2.525
12315WAT      O49965   1.027   6.960   1.506
12315WAT     H149966   1.103   6.928   1.535
12315WAT     H249967   1.050   7.010   1.438
12315WAT    EPW49968   1.042   6.963   1.500
12316WAT      O49969   0.743   7.183   1.989
12316WAT     H149970   0.773   7.148   2.063
12316WAT     H249971   0.676   7.131   1.968
12316WAT    EPW49972   0.738   7.170   1.997
12317WAT      O49973   0.855   7.354   2.278
12317WAT     H149974   0.793   7.388   2.329
12317WAT     H249975   0.863   7.414   2.214
12317WAT    EPW49976   0.847   7.368   2.276
12318WAT      O49977   0.356   6.902   2.628
12318WAT     H149978   0.368   6.819   2.607
12318WAT     H249979   0.397   6.910   2.705
12318WAT    EPW49980   0.364   6.891   2.636
12319WAT      O49981   0.739   7.172   1.574
12319WAT     H149982   0.793   7.237   1.595
12319WAT     H249983   0.660   7.204   1.592
12319WAT    EPW49984   0.735   7.186   1.580
12320WAT      O49985   0.265   7.231   2.225
12320WAT     H149986   0.321   7.298   2.227
12320WAT     H249987   0.294   7.178   2.288
12320WAT    EPW49988   0.277   7.233   2.235
12321WAT      O49989   0.500   7.593   1.509
12321WAT     H149990   0.494   7.672   1.474
12321WAT     H249991   0.447   7.597   1.579
12321WAT    EPW49992   0.491   7.605   1.514
12322WAT      O49993   0.965   7.836   2.609
12322WAT     H149994   0.981   7.787   2.539
12322WAT     H249995   0.979   7.917   2.581
12322WAT    EPW49996   0.969   7.841   2.595
12323WAT      O49997   0.973   6.911   2.923
12323WAT     H149998   0.944   6.866   2.854
12323WAT     H249999   0.974   6.851   2.987
12323WAT    EPW50000   0.969   6.895   2.922
12324WAT      O50001   0.518   7.740   2.496
12324WAT     H150002   0.562   7.814   2.510
12324WAT     H250003   0.548   7.686   2.558
12324WAT    EPW50004   0.529   7.743   2.507
12325WAT      O50005   0.345   7.611   1.737
12325WAT     H150006   0.343   7.657   1.811
12325WAT     H250007   0.335   7.528   1.765
12325WAT    EPW50008   0.343   7.605   1.752
12326WAT      O50009   0.315   7.742   1.988
12326WAT     H150010   0.241   7.785   2.001
12326WAT     H250011   0.344   7.727   2.069
12326WAT    EPW50012   0.309   7.746   2.002
12327WAT      O50013   0.999   7.669   2.380
12327WAT     H150014   0.989   7.599   2.431
12327WAT     H250015   0.932   7.665   2.325
12327WAT    EPW50016   0.987   7.658   2.379
12328WAT      O50017   1.180   7.646   2.160
12328WAT     H150018   1.143   7.657   2.239
12328WAT     H250019   1.241   7.708   2.157
12328WAT    EPW50020   1.183   7.657   2.172
12329WAT      O50021   0.860   7.167   2.906
12329WAT     H150022   0.785   7.172   2.950
12329WAT     H250023   0.886   7.085   2.918
12329WAT    EPW50024   0.853   7.156   2.914
12330WAT      O50025   0.730   7.465   3.038
12330WAT     H150026   0.766   7.499   3.110
12330WAT     H250027   0.668   7.522   3.017
12330WAT    EPW50028   0.726   7.479   3.046
12331WAT      O50029   0.884   7.527   2.819
12331WAT     H150030   0.906   7.607   2.844
12331WAT     H250031   0.844   7.494   2.889
12331WAT    EPW50032   0.882   7.534   2.833
12332WAT      O50033   0.975   7.316   1.908
12332WAT     H150034   0.906   7.267   1.928
12332WAT     H250035   0.968   7.384   1.963
12332WAT    EPW50036   0.964   7.319   1.919
12333WAT      O50037   1.201   7.657   2.964
12333WAT     H150038   1.200   7.590   2.909
12333WAT     H250039   1.281   7.691   2.953
12333WAT    EPW50040   1.213   7.652   2.954
12334WAT      O50041   0.804   6.995   2.560
12334WAT     H150042   0.865   7.056   2.573
12334WAT     H250043   0.729   7.040   2.562
12334WAT    EPW50044   0.802   7.011   2.562
12335WAT      O50045   0.353   7.689   2.273
12335WAT     H150046   0.408   7.712   2.337
12335WAT     H250047   0.276   7.684   2.313
12335WAT    EPW50048   0.350   7.692   2.288
12336WAT      O50049   0.866   6.791   2.377
12336WAT     H150050   0.843   6.865   2.418
12336WAT     H250051   0.950   6.781   2.398
12336WAT    EPW50052   0.875   6.800   2.386
12337WAT      O50053   1.064   7.512   1.270
12337WAT     H150054   1.115   7.563   1.220
12337WAT     H250055   0.994   7.562   1.285
12337WAT    EPW50056   1.061   7.527   1.265
12338WAT      O50057   0.524   7.329   2.810
12338WAT     H150058   0.458   7.364   2.856
12338WAT     H250059   0.568   7.283   2.870
12338WAT    EPW50060   0.520   7.328   2.826
12339WAT      O50061   0.639   7.417   2.441
12339WAT     H150062   0.651   7.472   2.509
12339WAT     H250063   0.628   7.340   2.479
12339WAT    EPW50064   0.639   7.414   2.457
12340WAT      O50065   0.895   7.390   1.654
12340WAT     H150066   0.923   7.367   1.733
12340WAT     H250067   0.963   7.433   1.620
12340WAT    EPW50068   0.909   7.393   1.661
12341WAT      O50069   0.973   6.951   1.791
12341WAT     H150070   0.896   6.916   1.810
12341WAT     H250071   0.965   6.973   1.707
12341WAT    EPW50072   0.960   6.949   1.781
12342WAT      O50073   0.932   7.779   1.561
12342WAT     H150074   0.999   7.724   1.572
12342WAT     H250075   0.866   7.741   1.604
12342WAT    EPW50076   0.932   7.765   1.569
12343WAT      O50077   1.164   7.444   2.791
12343WAT     H150078   1.077   7.449   2.793
12343WAT     H250079   1.184   7.461   2.708
12343WAT    EPW50080   1.154   7.448   2.779
12344WAT      O50081   0.633   7.562   2.694
12344WAT     H150082   0.595   7.490   2.725
12344WAT     H250083   0.715   7.556   2.722
12344WAT    EPW50084   0.639   7.550   2.703
12345WAT      O50085   0.565   7.677   2.957
12345WAT     H150086   0.584   7.679   2.872
12345WAT     H250087   0.612   7.742   2.990
12345WAT    EPW50088   0.575   7.687   2.949
12346WAT      O50089   1.099   7.550   1.552
12346WAT     H150090   1.104   7.539   1.466
12346WAT     H250091   1.178   7.525   1.581
12346WAT    EPW50092   1.111   7.544   1.544
12347WAT      O50093   0.942   7.465   2.557
12347WAT     H150094   0.950   7.378   2.562
12347WAT     H250095   0.921   7.488   2.638
12347WAT    EPW50096   0.940   7.455   2.569
12348WAT      O50097   0.479   6.934   2.886
12348WAT     H150098   0.506   7.006   2.928
12348WAT     H250099   0.414   6.905   2.937
12348WAT    EPW50100   0.473   6.940   2.900
12349WAT      O50101   0.514   7.026   1.971
12349WAT     H150102   0.434   7.061   1.970
12349WAT     H250103   0.509   6.962   1.912
12349WAT    EPW50104   0.501   7.022   1.962
12350WAT      O50105   0.820   7.085   2.238
12350WAT     H150106   0.898   7.053   2.260
12350WAT     H250107   0.826   7.169   2.260
12350WAT    EPW50108   0.833   7.093   2.244
12351WAT      O50109   0.929   7.533   2.081
12351WAT     H150110   1.001   7.583   2.081
12351WAT     H250111   0.872   7.580   2.034
12351WAT    EPW50112   0.932   7.548   2.074
12352WAT      O50113   1.118   6.820   2.507
12352WAT     H150114   1.086   6.797   2.584
12352WAT     H250115   1.202   6.799   2.512
12352WAT    EPW50116   1.125   6.814   2.519
12353WAT      O50117   0.396   7.067   2.410
12353WAT     H150118   0.372   7.010   2.472
12353WAT     H250119   0.448   7.019   2.358
12353WAT    EPW50120   0.400   7.051   2.412
12354WAT      O50121   0.576   6.949   2.230
12354WAT     H150122   0.651   6.992   2.242
12354WAT     H250123   0.548   6.976   2.152
12354WAT    EPW50124   0.583   6.959   2.220
12355WAT      O50125   0.573   7.406   1.983
12355WAT     H150126   0.630   7.340   1.990
12355WAT     H250127   0.538   7.411   2.062
12355WAT    EPW50128   0.576   7.397   1.996
12356WAT      O50129   0.733   7.615   1.663
12356WAT     H150130   0.775   7.539   1.660
12356WAT     H250131   0.661   7.601   1.616
12356WAT    EPW50132   0.728   7.602   1.656
12357WAT      O50133   0.959   7.782   2.884
12357WAT     H150134   1.041   7.764   2.909
12357WAT     H250135   0.968   7.808   2.802
12357WAT    EPW50136   0.973   7.783   2.876
12358WAT      O50137   1.071   7.263   3.057
12358WAT     H150138   1.061   7.346   3.082
12358WAT     H250139   1.000   7.247   3.010
12358WAT    EPW50140   1.059   7.273   3.054
12359WAT      O50141   1.124   7.316   2.339
12359WAT     H150142   1.041   7.338   2.322
12359WAT     H250143   1.122   7.229   2.347
12359WAT    EPW50144   1.112   7.307   2.337
12360WAT      O50145   0.756   7.859   3.068
12360WAT     H150146   0.823   7.855   3.012
12360WAT     H250147   0.754   7.943   3.093
12360WAT    EPW50148   0.766   7.871   3.064
12361WAT      O50149   0.391   7.464   0.435
12361WAT     H150150   0.364   7.522   0.495
12361WAT     H250151   0.472   7.445   0.461
12361WAT    EPW50152   0.399   7.470   0.448
12362WAT      O50153   0.381   7.498   1.104
12362WAT     H150154   0.297   7.520   1.094
12362WAT     H250155   0.422   7.575   1.101
12362WAT    EPW50156   0.374   7.513   1.102
12363WAT      O50157   0.802   6.761   0.847
12363WAT     H150158   0.794   6.843   0.817
12363WAT     H250159   0.730   6.748   0.894
12363WAT    EPW50160   0.790   6.771   0.850
12364WAT      O50161   0.213   6.784   1.129
12364WAT     H150162   0.224   6.712   1.080
12364WAT     H250163   0.129   6.805   1.116
12364WAT    EPW50164   0.202   6.776   1.120
12365WAT      O50165   1.163   7.034   0.471
12365WAT     H150166   1.231   6.999   0.429
12365WAT     H250167   1.157   6.987   0.544
12365WAT    EPW50168   1.172   7.022   0.476
12366WAT      O50169   0.569   7.182   0.697
12366WAT     H150170   0.543   7.232   0.763
12366WAT     H250171   0.511   7.117   0.696
12366WAT    EPW50172   0.557   7.180   0.707
12367WAT      O50173   0.993   7.215   0.819
12367WAT     H150174   1.077   7.191   0.814
12367WAT     H250175   0.983   7.236   0.903
12367WAT    EPW50176   1.004   7.215   0.831
12368WAT      O50177   1.275   7.461   0.660
12368WAT     H150178   1.337   7.400   0.656
12368WAT     H250179   1.214   7.433   0.604
12368WAT    EPW50180   1.275   7.448   0.652
12369WAT      O50181   0.860   7.324   0.378
12369WAT     H150182   0.797   7.352   0.431
12369WAT     H250183   0.831   7.343   0.299
12369WAT    EPW50184   0.846   7.331   0.374
12370WAT      O50185   0.399   6.959   0.727
12370WAT     H150186   0.404   6.872   0.718
12370WAT     H250187   0.385   6.970   0.812
12370WAT    EPW50188   0.398   6.948   0.738
12371WAT      O50189   0.223   7.235   0.422
12371WAT     H150190   0.273   7.307   0.420
12371WAT     H250191   0.282   7.170   0.423
12371WAT    EPW50192   0.239   7.236   0.422
12372WAT      O50193   1.095   7.802   0.737
12372WAT     H150194   1.075   7.770   0.658
12372WAT     H250195   1.180   7.786   0.744
12372WAT    EPW50196   1.104   7.795   0.726
12373WAT      O50197   1.048   6.812   0.960
12373WAT     H150198   0.967   6.805   0.929
12373WAT     H250199   1.045   6.768   1.035
12373WAT    EPW50200   1.036   6.805   0.966
12374WAT      O50201   0.501   7.778   0.793
12374WAT     H150202   0.544   7.848   0.762
12374WAT     H250203   0.556   7.712   0.777
12374WAT    EPW50204   0.516   7.779   0.786
12375WAT      O50205   0.408   7.740   0.339
12375WAT     H150206   0.408   7.654   0.323
12375WAT     H250207   0.373   7.745   0.419
12375WAT    EPW50208   0.403   7.728   0.348
12376WAT      O50209   1.033   7.664   0.496
12376WAT     H150210   1.014   7.593   0.542
12376WAT     H250211   0.958   7.683   0.456
12376WAT    EPW50212   1.019   7.656   0.497
12377WAT      O50213   1.279   7.685   0.355
12377WAT     H150214   1.205   7.678   0.401
12377WAT     H250215   1.254   7.724   0.281
12377WAT    EPW50216   1.264   7.690   0.351
12378WAT      O50217   0.728   7.199   1.026
12378WAT     H150218   0.670   7.167   1.082
12378WAT     H250219   0.737   7.134   0.967
12378WAT    EPW50220   0.721   7.185   1.025
12379WAT      O50221   0.727   7.522   1.129
12379WAT     H150222   0.760   7.559   1.202
12379WAT     H250223   0.663   7.576   1.106
12379WAT    EPW50224   0.723   7.535   1.137
12380WAT      O50225   0.902   7.558   0.922
12380WAT     H150226   0.927   7.640   0.941
12380WAT     H250227   0.853   7.536   0.990
12380WAT    EPW50228   0.898   7.567   0.935
12381WAT      O50229   1.205   7.668   1.090
12381WAT     H150230   1.207   7.603   1.032
12381WAT     H250231   1.285   7.703   1.085
12381WAT    EPW50232   1.217   7.663   1.081
12382WAT      O50233   0.781   7.035   0.803
12382WAT     H150234   0.852   7.084   0.792
12382WAT     H250235   0.720   7.076   0.756
12382WAT    EPW50236   0.782   7.048   0.794
12383WAT      O50237   0.315   7.684   0.604
12383WAT     H150238   0.366   7.716   0.668
12383WAT     H250239   0.234   7.697   0.635
12383WAT    EPW50240   0.311   7.691   0.618
12384WAT      O50241   0.901   6.794   0.550
12384WAT     H150242   0.882   6.873   0.520
12384WAT     H250243   0.978   6.805   0.589
12384WAT    EPW50244   0.910   6.807   0.551
12385WAT      O50245   0.536   7.362   0.910
12385WAT     H150246   0.482   7.394   0.970
12385WAT     H250247   0.599   7.324   0.957
12385WAT    EPW50248   0.537   7.361   0.926
12386WAT      O50249   0.645   7.397   0.536
12386WAT     H150250   0.663   7.453   0.601
12386WAT     H250251   0.621   7.324   0.577
12386WAT    EPW50252   0.644   7.394   0.551
12387WAT      O50253   1.181   7.453   0.920
12387WAT     H150254   1.094   7.455   0.923
12387WAT     H250255   1.199   7.464   0.835
12387WAT    EPW50256   1.171   7.455   0.908
12388WAT      O50257   0.664   7.559   0.767
12388WAT     H150258   0.620   7.498   0.812
12388WAT     H250259   0.740   7.564   0.809
12388WAT    EPW50260   0.668   7.551   0.780
12389WAT      O50261   0.543   7.726   1.067
12389WAT     H150262   0.525   7.753   0.986
12389WAT     H250263   0.597   7.788   1.097
12389WAT    EPW50264   0.549   7.739   1.059
12390WAT      O50265   0.960   7.460   0.670
12390WAT     H150266   0.968   7.375   0.690
12390WAT     H250267   0.941   7.497   0.747
12390WAT    EPW50268   0.958   7.453   0.685
12391WAT      O50269   0.396   6.962   1.011
12391WAT     H150270   0.428   7.018   1.070
12391WAT     H250271   0.335   6.918   1.055
12391WAT    EPW50272   0.392   6.964   1.026
12392WAT      O50273   0.878   7.048   0.424
12392WAT     H150274   0.965   7.039   0.420
12392WAT     H250275   0.866   7.134   0.412
12392WAT    EPW50276   0.889   7.060   0.422
12393WAT      O50277   1.136   6.859   0.689
12393WAT     H150278   1.117   6.841   0.772
12393WAT     H250279   1.206   6.809   0.673
12393WAT    EPW50280   1.144   6.849   0.699
12394WAT      O50281   0.386   7.000   0.447
12394WAT     H150282   0.331   6.940   0.417
12394WAT     H250283   0.381   6.992   0.534
12394WAT    EPW50284   0.377   6.990   0.455
12395WAT      O50285   0.639   6.901   0.356
12395WAT     H150286   0.703   6.957   0.372
12395WAT     H250287   0.567   6.944   0.382
12395WAT    EPW50288   0.638   6.915   0.363
12396WAT      O50289   0.983   7.814   0.991
12396WAT     H150290   1.053   7.785   1.035
12396WAT     H250291   1.013   7.830   0.911
12396WAT    EPW50292   0.998   7.812   0.986
12397WAT      O50293   0.982   7.280   1.104
12397WAT     H150294   0.989   7.353   1.151
12397WAT     H250295   0.895   7.268   1.099
12397WAT    EPW50296   0.970   7.289   1.110
12398WAT      O50297   1.130   7.312   0.463
12398WAT     H150298   1.047   7.322   0.439
12398WAT     H250299   1.140   7.225   0.468
12398WAT    EPW50300   1.119   7.301   0.461
12399WAT      O50301   0.757   7.898   1.147
12399WAT     H150302   0.827   7.894   1.095
12399WAT     H250303   0.758   7.980   1.176
12399WAT    EPW50304   0.767   7.909   1.144
12400WAT      O50305   0.474   4.998   7.439
12400WAT     H150306   0.467   5.049   7.369
12400WAT     H250307   0.559   4.979   7.443
12400WAT    EPW50308   0.486   5.003   7.429
12401WAT      O50309   1.047   6.483   7.195
12401WAT     H150310   1.110   6.426   7.217
12401WAT     H250311   0.991   6.434   7.149
12401WAT    EPW50312   1.048   6.467   7.191
12402WAT      O50313   0.696   5.825   7.560
12402WAT     H150314   0.707   5.812   7.475
12402WAT     H250315   0.644   5.759   7.584
12402WAT    EPW50316   0.690   5.813   7.551
12403WAT      O50317   0.164   6.294   7.747
12403WAT     H150318   0.189   6.220   7.707
12403WAT     H250319   0.231   6.348   7.735
12403WAT    EPW50320   0.177   6.291   7.739
12404WAT      O50321   0.265   6.216   7.322
12404WAT     H150322   0.298   6.141   7.351
12404WAT     H250323   0.300   6.224   7.242
12404WAT    EPW50324   0.275   6.206   7.314
12405WAT      O50325   0.601   5.282   6.833
12405WAT     H150326   0.569   5.353   6.872
12405WAT     H250327   0.627   5.232   6.900
12405WAT    EPW50328   0.600   5.285   6.849
12406WAT      O50329   0.642   6.605   7.129
12406WAT     H150330   0.714   6.653   7.136
12406WAT     H250331   0.665   6.527   7.160
12406WAT    EPW50332   0.656   6.600   7.135
12407WAT      O50333   0.422   6.617   7.294
12407WAT     H150334   0.436   6.687   7.343
12407WAT     H250335   0.493   6.613   7.243
12407WAT    EPW50336   0.435   6.627   7.294
12408WAT      O50337   1.156   5.279   7.563
12408WAT     H150338   1.109   5.349   7.585
12408WAT     H250339   1.095   5.220   7.542
12408WAT    EPW50340   1.140   5.280   7.563
12409WAT      O50341   0.355   5.548   7.442
12409WAT     H150342   0.387   5.497   7.379
12409WAT     H250343   0.422   5.556   7.498
12409WAT    EPW50344   0.370   5.542   7.441
12410WAT      O50345   0.466   5.501   6.967
12410WAT     H150346   0.480   5.586   6.983
12410WAT     H250347   0.413   5.502   6.898
12410WAT    EPW50348   0.460   5.514   6.959
12411WAT      O50349   0.854   6.780   7.094
12411WAT     H150350   0.902   6.751   7.027
12411WAT     H250351   0.909   6.832   7.138
12411WAT    EPW50352   0.869   6.784   7.091
12412WAT      O50353   0.357   6.483   6.914
12412WAT     H150354   0.332   6.552   6.961
12412WAT     H250355   0.442   6.497   6.900
12412WAT    EPW50356   0.366   6.495   6.919
12413WAT      O50357   0.672   5.134   7.056
12413WAT     H150358   0.726   5.066   7.065
12413WAT     H250359   0.703   5.192   7.114
12413WAT    EPW50360   0.685   5.133   7.066
12414WAT      O50361   0.451   5.399   7.229
12414WAT     H150362   0.429   5.315   7.221
12414WAT     H250363   0.449   5.429   7.148
12414WAT    EPW50364   0.448   5.391   7.216
12415WAT      O50365   0.433   5.122   7.193
12415WAT     H150366   0.379   5.068   7.151
12415WAT     H250367   0.507   5.117   7.147
12415WAT    EPW50368   0.436   5.113   7.180
12416WAT      O50369   1.115   6.703   7.502
12416WAT     H150370   1.074   6.780   7.507
12416WAT     H250371   1.051   6.647   7.483
12416WAT    EPW50372   1.099   6.706   7.500
12417WAT      O50373   0.239   5.339   7.584
12417WAT     H150374   0.260   5.410   7.538
12417WAT     H250375   0.151   5.338   7.581
12417WAT    EPW50376   0.229   5.350   7.577
12418WAT      O50377   0.822   6.288   7.486
12418WAT     H150378   0.892   6.235   7.486
12418WAT     H250379   0.757   6.236   7.509
12418WAT    EPW50380   0.823   6.273   7.489
12419WAT      O50381   0.738   4.933   7.486
12419WAT     H150382   0.728   4.920   7.571
12419WAT     H250383   0.776   4.859   7.459
12419WAT    EPW50384   0.742   4.920   7.494
12420WAT      O50385   1.003   6.081   7.070
12420WAT     H150386   0.999   6.031   7.141
12420WAT     H250387   1.088   6.088   7.054
12420WAT    EPW50388   1.015   6.075   7.079
12421WAT      O50389   0.809   5.745   7.007
12421WAT     H150390   0.801   5.826   6.976
12421WAT     H250391   0.771   5.748   7.085
12421WAT    EPW50392   0.802   5.757   7.014
12422WAT      O50393   1.158   5.208   6.975
12422WAT     H150394   1.198   5.154   6.919
12422WAT     H250395   1.118   5.265   6.923
12422WAT    EPW50396   1.158   5.208   6.959
12423WAT      O50397   1.036   5.102   7.204
12423WAT     H150398   1.109   5.064   7.234
12423WAT     H250399   1.063   5.145   7.133
12423WAT    EPW50400   1.051   5.103   7.198
12424WAT      O50401   0.409   6.432   7.706
12424WAT     H150402   0.404   6.519   7.712
12424WAT     H250403   0.424   6.419   7.621
12424WAT    EPW50404   0.411   6.443   7.694
12425WAT      O50405   0.698   5.373   7.714
12425WAT     H150406   0.709   5.337   7.792
12425WAT     H250407   0.641   5.320   7.675
12425WAT    EPW50408   0.691   5.360   7.720
12426WAT      O50409   0.718   5.321   7.251
12426WAT     H150410   0.768   5.381   7.289
12426WAT     H250411   0.638   5.354   7.256
12426WAT    EPW50412   0.714   5.335   7.257
12427WAT      O50413   0.467   5.789   7.023
12427WAT     H150414   0.481   5.874   7.012
12427WAT     H250415   0.444   5.782   7.107
12427WAT    EPW50416   0.466   5.800   7.034
12428WAT      O50417   1.027   6.094   7.488
12428WAT     H150418   1.033   6.050   7.563
12428WAT     H250419   0.998   6.034   7.432
12428WAT    EPW50420   1.024   6.079   7.491
12429WAT      O50421   0.502   6.186   7.801
12429WAT     H150422   0.477   6.267   7.778
12429WAT     H250423   0.523   6.194   7.885
12429WAT    EPW50424   0.501   6.199   7.810
12430WAT      O50425   0.282   6.701   7.075
12430WAT     H150426   0.312   6.667   7.149
12430WAT     H250427   0.195   6.704   7.088
12430WAT    EPW50428   0.273   6.696   7.088
12431WAT      O50429   0.438   5.771   7.300
12431WAT     H150430   0.417   5.843   7.345
12431WAT     H250431   0.398   5.707   7.343
12431WAT    EPW50432   0.429   5.772   7.313
12432WAT      O50433   0.286   6.036   7.705
12432WAT     H150434   0.235   6.011   7.771
12432WAT     H250435   0.352   6.078   7.744
12432WAT    EPW50436   0.288   6.039   7.721
12433WAT      O50437   1.227   6.653   7.077
12433WAT     H150438   1.292   6.601   7.051
12433WAT     H250439   1.171   6.599   7.116
12433WAT    EPW50440   1.229   6.638   7.079
12434WAT      O50441   1.068   5.967   7.732
12434WAT     H150442   1.064   6.031   7.791
12434WAT     H250443   1.151   5.941   7.736
12434WAT    EPW50444   1.080   5.973   7.741
12435WAT      O50445   1.295   6.421   7.898
12435WAT     H150446   1.294   6.464   7.822
12435WAT     H250447   1.370   6.444   7.935
12435WAT    EPW50448   1.306   6.431   7.892
12436WAT      O50449   0.871   6.323   7.057
12436WAT     H150450   0.907   6.244   7.065
12436WAT     H250451   0.799   6.318   7.106
12436WAT    EPW50452   0.866   6.311   7.066
12437WAT      O50453   0.947   5.469   7.620
12437WAT     H150454   0.875   5.432   7.653
12437WAT     H250455   0.946   5.549   7.654
12437WAT    EPW50456   0.937   5.475   7.630
12438WAT      O50457   0.517   6.052   6.947
12438WAT     H150458   0.604   6.048   6.945
12438WAT     H250459   0.495   6.058   6.862
12438WAT    EPW50460   0.527   6.052   6.934
12439WAT      O50461   0.422   6.719   7.687
12439WAT     H150462   0.426   6.740   7.603
12439WAT     H250463   0.401   6.794   7.726
12439WAT    EPW50464   0.419   6.733   7.681
12440WAT      O50465   1.064   5.639   6.980
12440WAT     H150466   1.114   5.696   6.936
12440WAT     H250467   0.985   5.677   6.980
12440WAT    EPW50468   1.060   5.653   6.973
12441WAT      O50469   0.847   5.536   7.371
12441WAT     H150470   0.875   5.511   7.450
12441WAT     H250471   0.919   5.567   7.332
12441WAT    EPW50472   0.862   5.537   7.377
12442WAT      O50473   0.962   5.099   7.474
12442WAT     H150474   0.883   5.063   7.481
12442WAT     H250475   0.968   5.117   7.388
12442WAT    EPW50476   0.951   5.096   7.462
12443WAT      O50477   0.955   5.915   7.290
12443WAT     H150478   1.002   5.841   7.285
12443WAT     H250479   0.873   5.888   7.286
12443WAT    EPW50480   0.950   5.900   7.289
12444WAT      O50481   0.629   6.097   7.563
12444WAT     H150482   0.598   6.121   7.641
12444WAT     H250483   0.656   6.016   7.576
12444WAT    EPW50484   0.628   6.089   7.577
12445WAT      O50485   0.393   6.002   7.448
12445WAT     H150486   0.347   6.002   7.522
12445WAT     H250487   0.468   6.038   7.471
12445WAT    EPW50488   0.397   6.007   7.462
12446WAT      O50489   0.695   6.722   7.743
12446WAT     H150490   0.608   6.716   7.738
12446WAT     H250491   0.717   6.652   7.790
12446WAT    EPW50492   0.685   6.711   7.749
12447WAT      O50493   1.062   5.663   7.256
12447WAT     H150494   1.068   5.654   7.169
12447WAT     H250495   1.140   5.635   7.284
12447WAT    EPW50496   1.074   5.657   7.247
12448WAT      O50497   0.449   6.383   7.439
12448WAT     H150498   0.438   6.457   7.394
12448WAT     H250499   0.386   6.331   7.409
12448WAT    EPW50500   0.438   6.386   7.428
12449WAT      O50501   0.490   5.223   7.611
12449WAT     H150502   0.409   5.254   7.608
12449WAT     H250503   0.487   5.153   7.559
12449WAT    EPW50504   0.478   5.217   7.603
12450WAT      O50505   0.916   5.732   7.704
12450WAT     H150506   0.966   5.801   7.720
12450WAT     H250507   0.848   5.765   7.661
12450WAT    EPW50508   0.913   5.747   7.700
12451WAT      O50509   0.892   6.550   7.413
12451WAT     H150510   0.866   6.472   7.443
12451WAT     H250511   0.937   6.531   7.341
12451WAT    EPW50512   0.895   6.536   7.407
12452WAT      O50513   0.548   5.599   7.640
12452WAT     H150514   0.601   5.532   7.660
12452WAT     H250515   0.501   5.611   7.712
12452WAT    EPW50516   0.549   5.591   7.653
12453WAT      O50517   0.715   5.764   7.282
12453WAT     H150518   0.741   5.685   7.308
12453WAT     H250519   0.628   5.759   7.282
12453WAT    EPW50520   0.706   5.752   7.286
12454WAT      O50521   1.024   6.702   6.892
12454WAT     H150522   1.094   6.692   6.943
12454WAT     H250523   1.004   6.621   6.868
12454WAT    EPW50524   1.031   6.688   6.896
12455WAT      O50525   0.645   6.341   7.216
12455WAT     H150526   0.630   6.334   7.301
12455WAT     H250527   0.569   6.316   7.180
12455WAT    EPW50528   0.631   6.336   7.223
12456WAT      O50529   0.409   6.266   7.087
12456WAT     H150530   0.437   6.200   7.038
12456WAT     H250531   0.383   6.325   7.029
12456WAT    EPW50532   0.410   6.265   7.072
12457WAT      O50533   0.497   4.991   5.576
12457WAT     H150534   0.500   5.044   5.506
12457WAT     H250535   0.580   4.969   5.589
12457WAT    EPW50536   0.510   4.996   5.568
12458WAT      O50537   0.435   5.635   5.990
12458WAT     H150538   0.404   5.715   6.008
12458WAT     H250539   0.487   5.618   6.058
12458WAT    EPW50540   0.438   5.645   6.003
12459WAT      O50541   1.033   6.488   5.340
12459WAT     H150542   1.097   6.430   5.352
12459WAT     H250543   0.977   6.446   5.288
12459WAT    EPW50544   1.034   6.473   5.334
12460WAT      O50545   0.713   5.826   5.667
12460WAT     H150546   0.720   5.813   5.581
12460WAT     H250547   0.656   5.764   5.692
12460WAT    EPW50548   0.706   5.815   5.658
12461WAT      O50549   0.276   6.336   5.937
12461WAT     H150550   0.259   6.258   5.903
12461WAT     H250551   0.332   6.372   5.880
12461WAT    EPW50552   0.282   6.330   5.923
12462WAT      O50553   0.288   6.222   5.452
12462WAT     H150554   0.321   6.153   5.494
12462WAT     H250555   0.318   6.212   5.370
12462WAT    EPW50556   0.298   6.210   5.446
12463WAT      O50557   0.343   5.529   6.715
12463WAT     H150558   0.261   5.532   6.686
12463WAT     H250559   0.369   5.612   6.713
12463WAT    EPW50560   0.335   5.542   6.710
12464WAT      O50561   0.882   4.932   6.486
12464WAT     H150562   0.858   5.001   6.437
12464WAT     H250563   0.808   4.912   6.529
12464WAT    EPW50564   0.867   4.939   6.485
12465WAT      O50565   0.603   5.283   4.942
12465WAT     H150566   0.570   5.354   4.982
12465WAT     H250567   0.629   5.233   5.009
12465WAT    EPW50568   0.602   5.286   4.958
12466WAT      O50569   0.620   6.619   5.242
12466WAT     H150570   0.695   6.663   5.249
12466WAT     H250571   0.641   6.540   5.272
12466WAT    EPW50572   0.634   6.614   5.247
12467WAT      O50573   0.384   6.678   5.367
12467WAT     H150574   0.408   6.718   5.441
12467WAT     H250575   0.460   6.661   5.327
12467WAT    EPW50576   0.399   6.682   5.372
12468WAT      O50577   1.183   5.270   5.679
12468WAT     H150578   1.138   5.344   5.689
12468WAT     H250579   1.121   5.210   5.666
12468WAT    EPW50580   1.167   5.272   5.678
12469WAT      O50581   0.673   6.598   6.247
12469WAT     H150582   0.738   6.656   6.236
12469WAT     H250583   0.659   6.568   6.166
12469WAT    EPW50584   0.680   6.602   6.233
12470WAT      O50585   0.262   4.960   6.811
12470WAT     H150586   0.267   4.889   6.759
12470WAT     H250587   0.185   4.995   6.790
12470WAT    EPW50588   0.252   4.954   6.800
12471WAT      O50589   0.364   5.560   5.566
12471WAT     H150590   0.393   5.507   5.503
12471WAT     H250591   0.432   5.566   5.621
12471WAT    EPW50592   0.378   5.553   5.565
12472WAT      O50593   0.462   5.493   5.088
12472WAT     H150594   0.473   5.578   5.106
12472WAT     H250595   0.410   5.494   5.018
12472WAT    EPW50596   0.456   5.506   5.080
12473WAT      O50597   0.843   6.784   5.224
12473WAT     H150598   0.893   6.760   5.156
12473WAT     H250599   0.897   6.829   5.275
12473WAT    EPW50600   0.858   6.787   5.221
12474WAT      O50601   1.080   5.224   6.120
12474WAT     H150602   1.141   5.209   6.059
12474WAT     H250603   1.096   5.163   6.180
12474WAT    EPW50604   1.092   5.213   6.120
12475WAT      O50605   0.609   6.400   6.613
12475WAT     H150606   0.612   6.431   6.694
12475WAT     H250607   0.692   6.385   6.593
12475WAT    EPW50608   0.622   6.402   6.622
12476WAT      O50609   0.338   6.423   5.016
12476WAT     H150610   0.290   6.480   5.062
12476WAT     H250611   0.414   6.465   5.005
12476WAT    EPW50612   0.343   6.437   5.021
12477WAT      O50613   0.677   5.140   5.167
12477WAT     H150614   0.732   5.073   5.178
12477WAT     H250615   0.707   5.201   5.221
12477WAT    EPW50616   0.689   5.139   5.176
12478WAT      O50617   0.455   5.402   5.355
12478WAT     H150618   0.437   5.317   5.353
12478WAT     H250619   0.449   5.427   5.272
12478WAT    EPW50620   0.452   5.393   5.342
12479WAT      O50621   0.412   6.642   6.318
12479WAT     H150622   0.497   6.637   6.299
12479WAT     H250623   0.373   6.632   6.240
12479WAT    EPW50624   0.418   6.640   6.303
12480WAT      O50625   0.456   5.121   5.332
12480WAT     H150626   0.403   5.059   5.302
12480WAT     H250627   0.523   5.120   5.277
12480WAT    EPW50628   0.458   5.112   5.320
12481WAT      O50629   1.119   6.707   5.636
12481WAT     H150630   1.077   6.782   5.648
12481WAT     H250631   1.054   6.649   5.624
12481WAT    EPW50632   1.103   6.709   5.636
12482WAT      O50633   0.269   5.343   5.723
12482WAT     H150634   0.279   5.416   5.676
12482WAT     H250635   0.248   5.373   5.803
12482WAT    EPW50636   0.267   5.358   5.728
12483WAT      O50637   0.879   6.282   5.703
12483WAT     H150638   0.940   6.222   5.686
12483WAT     H250639   0.804   6.239   5.693
12483WAT    EPW50640   0.877   6.267   5.699
12484WAT      O50641   0.597   5.327   6.338
12484WAT     H150642   0.594   5.368   6.415
12484WAT     H250643   0.534   5.266   6.345
12484WAT    EPW50644   0.587   5.324   6.351
12485WAT      O50645   0.727   6.033   6.222
12485WAT     H150646   0.646   6.004   6.238
12485WAT     H250647   0.721   6.119   6.230
12485WAT    EPW50648   0.714   6.041   6.226
12486WAT      O50649   0.755   4.924   5.652
12486WAT     H150650   0.753   4.919   5.739
12486WAT     H250651   0.793   4.849   5.628
12486WAT    EPW50652   0.760   4.912   5.661
12487WAT      O50653   0.968   5.386   6.438
12487WAT     H150654   1.049   5.365   6.464
12487WAT     H250655   0.920   5.375   6.510
12487WAT    EPW50656   0.973   5.382   6.453
12488WAT      O50657   1.007   6.096   5.198
12488WAT     H150658   1.005   6.048   5.270
12488WAT     H250659   1.091   6.099   5.177
12488WAT    EPW50660   1.019   6.090   5.205
12489WAT      O50661   1.246   6.503   6.588
12489WAT     H150662   1.172   6.509   6.543
12489WAT     H250663   1.225   6.454   6.657
12489WAT    EPW50664   1.232   6.497   6.591
12490WAT      O50665   0.817   5.749   5.118
12490WAT     H150666   0.813   5.830   5.088
12490WAT     H250667   0.779   5.754   5.196
12490WAT    EPW50668   0.811   5.762   5.125
12491WAT      O50669   1.156   5.217   5.106
12491WAT     H150670   1.200   5.166   5.050
12491WAT     H250671   1.114   5.273   5.054
12491WAT    EPW50672   1.157   5.217   5.090
12492WAT      O50673   1.261   5.643   6.352
12492WAT     H150674   1.297   5.570   6.323
12492WAT     H250675   1.179   5.639   6.322
12492WAT    EPW50676   1.254   5.632   6.344
12493WAT      O50677   1.037   5.101   5.335
12493WAT     H150678   1.111   5.064   5.361
12493WAT     H250679   1.061   5.150   5.266
12493WAT    EPW50680   1.051   5.103   5.328
12494WAT      O50681   0.459   6.478   5.788
12494WAT     H150682   0.423   6.557   5.791
12494WAT     H250683   0.461   6.460   5.703
12494WAT    EPW50684   0.454   6.487   5.776
12495WAT      O50685   0.727   5.370   5.782
12495WAT     H150686   0.757   5.338   5.857
12495WAT     H250687   0.663   5.316   5.760
12495WAT    EPW50688   0.722   5.358   5.790
12496WAT      O50689   1.011   6.549   6.422
12496WAT     H150690   0.947   6.606   6.440
12496WAT     H250691   0.995   6.524   6.340
12496WAT    EPW50692   0.999   6.554   6.413
12497WAT      O50693   0.851   5.551   6.063
12497WAT     H150694   0.778   5.574   6.105
12497WAT     H250695   0.851   5.602   5.992
12497WAT    EPW50696   0.840   5.562   6.059
12498WAT      O50697   0.310   6.597   6.062
12498WAT     H150698   0.279   6.521   6.032
12498WAT     H250699   0.323   6.644   5.990
12498WAT    EPW50700   0.307   6.592   6.047
12499WAT      O50701   0.416   5.111   6.388
12499WAT     H150702   0.415   5.027   6.365
12499WAT     H250703   0.424   5.107   6.475
12499WAT    EPW50704   0.417   5.098   6.398
12500WAT      O50705   0.725   5.332   5.355
12500WAT     H150706   0.776   5.395   5.387
12500WAT     H250707   0.644   5.363   5.365
12500WAT    EPW50708   0.721   5.346   5.361
12501WAT      O50709   0.756   6.101   6.649
12501WAT     H150710   0.797   6.175   6.626
12501WAT     H250711   0.788   6.042   6.593
12501WAT    EPW50712   0.767   6.103   6.637
12502WAT      O50713   0.236   5.435   5.984
12502WAT     H150714   0.297   5.497   5.991
12502WAT     H250715   0.265   5.372   6.036
12502WAT    EPW50716   0.249   5.435   5.992
12503WAT      O50717   0.464   5.775   5.154
12503WAT     H150718   0.488   5.858   5.137
12503WAT     H250719   0.441   5.778   5.238
12503WAT    EPW50720   0.464   5.788   5.164
12504WAT      O50721   1.046   6.065   5.656
12504WAT     H150722   1.048   6.015   5.727
12504WAT     H250723   1.010   6.014   5.596
12504WAT    EPW50724   1.041   6.050   5.658
12505WAT      O50725   0.653   6.479   5.992
12505WAT     H150726   0.592   6.466   5.931
12505WAT     H250727   0.693   6.552   5.964
12505WAT    EPW50728   0.650   6.488   5.979
12506WAT      O50729   0.645   6.115   5.968
12506WAT     H150730   0.570   6.144   6.003
12506WAT     H250731   0.677   6.062   6.030
12506WAT    EPW50732   0.639   6.112   5.982
12507WAT      O50733   0.211   6.631   5.145
12507WAT     H150734   0.255   6.654   5.217
12507WAT     H250735   0.230   6.696   5.089
12507WAT    EPW50736   0.220   6.644   5.147
12508WAT      O50737   0.836   5.927   6.451
12508WAT     H150738   0.803   5.965   6.380
12508WAT     H250739   0.921   5.948   6.448
12508WAT    EPW50740   0.844   5.936   6.440
12509WAT      O50741   0.621   6.539   6.860
12509WAT     H150742   0.637   6.567   6.941
12509WAT     H250743   0.626   6.612   6.812
12509WAT    EPW50744   0.624   6.554   6.865
12510WAT      O50745   0.971   5.064   6.710
12510WAT     H150746   0.944   5.020   6.639
12510WAT     H250747   0.971   5.004   6.773
12510WAT    EPW50748   0.967   5.049   6.709
12511WAT      O50749   0.477   5.938   6.289
12511WAT     H150750   0.438   5.997   6.339
12511WAT     H250751   0.502   5.877   6.346
12511WAT    EPW50752   0.475   5.938   6.305
12512WAT      O50753   0.445   5.793   5.436
12512WAT     H150754   0.426   5.861   5.487
12512WAT     H250755   0.407   5.726   5.478
12512WAT    EPW50756   0.436   5.793   5.450
12513WAT      O50757   0.893   6.253   5.993
12513WAT     H150758   0.912   6.278   5.912
12513WAT     H250759   0.814   6.218   5.986
12513WAT    EPW50760   0.884   6.251   5.980
12514WAT      O50761   0.258   6.065   5.845
12514WAT     H150762   0.174   6.043   5.838
12514WAT     H250763   0.286   6.015   5.911
12514WAT    EPW50764   0.249   6.054   5.854
12515WAT      O50765   1.209   6.654   5.204
12515WAT     H150766   1.275   6.603   5.180
12515WAT     H250767   1.155   6.600   5.247
12515WAT    EPW50768   1.210   6.639   5.207
12516WAT      O50769   0.973   5.894   6.154
12516WAT     H150770   0.976   5.822   6.204
12516WAT     H250771   0.894   5.927   6.169
12516WAT    EPW50772   0.962   5.888   6.164
12517WAT      O50773   1.069   5.904   5.889
12517WAT     H150774   1.041   5.908   5.971
12517WAT     H250775   1.156   5.901   5.897
12517WAT    EPW50776   1.078   5.904   5.902
12518WAT      O50777   0.835   5.309   6.679
12518WAT     H150778   0.760   5.303   6.722
12518WAT     H250779   0.871   5.230   6.690
12518WAT    EPW50780   0.829   5.296   6.687
12519WAT      O50781   1.206   6.419   5.984
12519WAT     H150782   1.244   6.468   5.923
12519WAT     H250783   1.266   6.413   6.046
12519WAT    EPW50784   1.220   6.425   5.984
12520WAT      O50785   0.715   5.639   6.765
12520WAT     H150786   0.740   5.658   6.847
12520WAT     H250787   0.643   5.687   6.754
12520WAT    EPW50788   0.708   5.649   6.776
12521WAT      O50789   0.951   5.694   6.627
12521WAT     H150790   0.964   5.777   6.650
12521WAT     H250791   0.877   5.672   6.667
12521WAT    EPW50792   0.942   5.703   6.636
12522WAT      O50793   0.868   6.337   5.182
12522WAT     H150794   0.905   6.258   5.191
12522WAT     H250795   0.794   6.331   5.227
12522WAT    EPW50796   0.863   6.324   5.190
12523WAT      O50797   0.975   5.465   5.698
12523WAT     H150798   0.906   5.419   5.722
12523WAT     H250799   0.967   5.539   5.743
12523WAT    EPW50800   0.964   5.469   5.708
12524WAT      O50801   1.234   5.793   6.822
12524WAT     H150802   1.245   5.733   6.760
12524WAT     H250803   1.312   5.831   6.829
12524WAT    EPW50804   1.247   5.790   6.814
12525WAT      O50805   1.098   6.034   6.445
12525WAT     H150806   1.170   5.992   6.421
12525WAT     H250807   1.089   6.096   6.384
12525WAT    EPW50808   1.107   6.037   6.432
12526WAT      O50809   0.530   6.027   5.058
12526WAT     H150810   0.617   6.029   5.053
12526WAT     H250811   0.505   6.038   4.975
12526WAT    EPW50812   0.540   6.029   5.045
12527WAT      O50813   0.825   5.166   6.341
12527WAT     H150814   0.882   5.230   6.356
12527WAT     H250815   0.749   5.208   6.334
12527WAT    EPW50816   0.822   5.182   6.342
12528WAT      O50817   0.322   5.886   6.057
12528WAT     H150818   0.374   5.919   6.119
12528WAT     H250819   0.250   5.865   6.100
12528WAT    EPW50820   0.319   5.888   6.073
12529WAT      O50821   0.343   6.734   5.801
12529WAT     H150822   0.389   6.767   5.735
12529WAT     H250823   0.274   6.788   5.808
12529WAT    EPW50824   0.339   6.747   5.793
12530WAT      O50825   0.878   4.957   6.164
12530WAT     H150826   0.857   5.032   6.204
12530WAT     H250827   0.963   4.947   6.181
12530WAT    EPW50828   0.887   4.967   6.172
12531WAT      O50829   0.486   6.040   6.671
12531WAT     H150830   0.567   6.069   6.655
12531WAT     H250831   0.439   6.075   6.606
12531WAT    EPW50832   0.491   6.049   6.659
12532WAT      O50833   0.879   6.349   6.579
12532WAT     H150834   0.906   6.379   6.656
12532WAT     H250835   0.921   6.400   6.521
12532WAT    EPW50836   0.889   6.361   6.582
12533WAT      O50837   1.074   5.646   5.089
12533WAT     H150838   1.120   5.700   5.037
12533WAT     H250839   0.994   5.681   5.090
12533WAT    EPW50840   1.069   5.659   5.081
12534WAT      O50841   0.580   5.490   6.564
12534WAT     H150842   0.503   5.486   6.606
12534WAT     H250843   0.638   5.501   6.629
12534WAT    EPW50844   0.577   5.491   6.580
12535WAT      O50845   0.608   5.574   6.198
12535WAT     H150846   0.612   5.626   6.268
12535WAT     H250847   0.600   5.494   6.233
12535WAT    EPW50848   0.608   5.570   6.214
12536WAT      O50849   0.337   6.601   6.662
12536WAT     H150850   0.332   6.539   6.600
12536WAT     H250851   0.330   6.556   6.736
12536WAT    EPW50852   0.335   6.585   6.663
12537WAT      O50853   0.859   5.549   5.463
12537WAT     H150854   0.889   5.520   5.539
12537WAT     H250855   0.929   5.585   5.425
12537WAT    EPW50856   0.873   5.550   5.469
12538WAT      O50857   0.976   5.094   5.610
12538WAT     H150858   0.899   5.056   5.625
12538WAT     H250859   0.974   5.111   5.525
12538WAT    EPW50860   0.964   5.091   5.600
12539WAT      O50861   0.962   5.930   5.422
12539WAT     H150862   1.009   5.857   5.409
12539WAT     H250863   0.880   5.903   5.410
12539WAT    EPW50864   0.957   5.915   5.418
12540WAT      O50865   0.340   6.129   6.450
12540WAT     H150866   0.253   6.122   6.444
12540WAT     H250867   0.354   6.215   6.445
12540WAT    EPW50868   0.329   6.141   6.448
12541WAT      O50869   0.659   6.098   5.694
12541WAT     H150870   0.649   6.107   5.781
12541WAT     H250871   0.686   6.015   5.685
12541WAT    EPW50872   0.662   6.087   5.706
12542WAT      O50873   0.406   6.020   5.606
12542WAT     H150874   0.358   6.028   5.679
12542WAT     H250875   0.484   6.050   5.629
12542WAT    EPW50876   0.410   6.025   5.620
12543WAT      O50877   0.381   6.406   6.461
12543WAT     H150878   0.458   6.404   6.503
12543WAT     H250879   0.389   6.475   6.408
12543WAT    EPW50880   0.394   6.416   6.459
12544WAT      O50881   1.215   5.602   6.622
12544WAT     H150882   1.129   5.615   6.624
12544WAT     H250883   1.237   5.621   6.539
12544WAT    EPW50884   1.206   5.607   6.610
12545WAT      O50885   0.617   5.736   6.427
12545WAT     H150886   0.608   5.667   6.480
12545WAT     H250887   0.693   5.770   6.450
12545WAT    EPW50888   0.627   5.731   6.439
12546WAT      O50889   0.470   5.772   6.744
12546WAT     H150890   0.473   5.853   6.711
12546WAT     H250891   0.460   5.785   6.830
12546WAT    EPW50892   0.469   5.786   6.752
12547WAT      O50893   0.738   6.739   5.938
12547WAT     H150894   0.674   6.793   5.962
12547WAT     H250895   0.799   6.751   5.999
12547WAT    EPW50896   0.738   6.749   5.950
12548WAT      O50897   0.431   6.199   6.120
12548WAT     H150898   0.378   6.254   6.077
12548WAT     H250899   0.478   6.252   6.171
12548WAT    EPW50900   0.430   6.215   6.121
12549WAT      O50901   0.966   6.441   6.824
12549WAT     H150902   1.045   6.406   6.831
12549WAT     H250903   0.921   6.405   6.890
12549WAT    EPW50904   0.971   6.431   6.835
12550WAT      O50905   1.075   5.684   5.363
12550WAT     H150906   1.084   5.674   5.277
12550WAT     H250907   1.147   5.648   5.396
12550WAT    EPW50908   1.087   5.677   5.355
12551WAT      O50909   0.439   6.441   5.515
12551WAT     H150910   0.404   6.506   5.469
12551WAT     H250911   0.385   6.374   5.501
12551WAT    EPW50912   0.426   6.440   5.506
12552WAT      O50913   0.976   5.664   6.344
12552WAT     H150914   0.963   5.578   6.344
12552WAT     H250915   0.961   5.687   6.427
12552WAT    EPW50916   0.972   5.655   6.356
12553WAT      O50917   0.466   5.092   6.667
12553WAT     H150918   0.503   5.155   6.715
12553WAT     H250919   0.404   5.059   6.719
12553WAT    EPW50920   0.463   5.096   6.681
12554WAT      O50921   0.505   5.207   5.752
12554WAT     H150922   0.429   5.249   5.744
12554WAT     H250923   0.499   5.142   5.695
12554WAT    EPW50924   0.493   5.204   5.743
12555WAT      O50925   0.816   5.279   6.028
12555WAT     H150926   0.893   5.245   6.050
12555WAT     H250927   0.823   5.363   6.051
12555WAT    EPW50928   0.829   5.286   6.035
12556WAT      O50929   0.899   5.698   5.829
12556WAT     H150930   0.959   5.759   5.847
12556WAT     H250931   0.841   5.740   5.778
12556WAT    EPW50932   0.899   5.713   5.824
12557WAT      O50933   0.903   6.537   5.583
12557WAT     H150934   0.895   6.460   5.622
12557WAT     H250935   0.935   6.517   5.504
12557WAT    EPW50936   0.907   6.523   5.577
12558WAT      O50937   1.128   5.005   6.295
12558WAT     H150938   1.097   4.982   6.373
12558WAT     H250939   1.211   4.981   6.298
12558WAT    EPW50940   1.135   4.998   6.307
12559WAT      O50941   0.348   5.227   6.136
12559WAT     H150942   0.348   5.194   6.217
12559WAT     H250943   0.419   5.193   6.099
12559WAT    EPW50944   0.358   5.217   6.143
12560WAT      O50945   0.675   6.311   6.223
12560WAT     H150946   0.683   6.380   6.275
12560WAT     H250947   0.682   6.345   6.143
12560WAT    EPW50948   0.677   6.326   6.219
12561WAT      O50949   0.593   6.729   6.656
12561WAT     H150950   0.520   6.685   6.641
12561WAT     H250951   0.566   6.812   6.663
12561WAT    EPW50952   0.579   6.735   6.655
12562WAT      O50953   1.094   6.155   6.184
12562WAT     H150954   1.076   6.070   6.169
12562WAT     H250955   1.042   6.197   6.128
12562WAT    EPW50956   1.084   6.148   6.173
12563WAT      O50957   0.983   6.473   6.154
12563WAT     H150958   1.055   6.472   6.103
12563WAT     H250959   0.931   6.414   6.116
12563WAT    EPW50960   0.986   6.464   6.141
12564WAT      O50961   0.577   5.128   6.008
12564WAT     H150962   0.647   5.177   6.026
12564WAT     H250963   0.552   5.155   5.929
12564WAT    EPW50964   0.583   5.139   5.999
12565WAT      O50965   0.570   5.601   5.749
12565WAT     H150966   0.623   5.533   5.763
12565WAT     H250967   0.528   5.611   5.825
12565WAT    EPW50968   0.571   5.593   5.762
12566WAT      O50969   0.721   5.778   5.389
12566WAT     H150970   0.746   5.697   5.412
12566WAT     H250971   0.634   5.775   5.395
12566WAT    EPW50972   0.712   5.766   5.393
12567WAT      O50973   1.011   6.713   5.017
12567WAT     H150974   1.080   6.699   5.069
12567WAT     H250975   0.990   6.633   4.989
12567WAT    EPW50976   1.018   6.699   5.021
12568WAT      O50977   1.032   5.948   6.708
12568WAT     H150978   1.102   5.915   6.747
12568WAT     H250979   1.064   5.989   6.638
12568WAT    EPW50980   1.047   5.949   6.704
12569WAT      O50981   0.631   6.355   5.327
12569WAT     H150982   0.595   6.372   5.404
12569WAT     H250983   0.568   6.313   5.283
12569WAT    EPW50984   0.617   6.351   5.332
12570WAT      O50985   1.051   5.406   6.822
12570WAT     H150986   1.039   5.485   6.857
12570WAT     H250987   0.976   5.391   6.779
12570WAT    EPW50988   1.038   5.415   6.821
12571WAT      O50989   1.123   5.504   6.113
12571WAT     H150990   1.040   5.528   6.103
12571WAT     H250991   1.120   5.418   6.121
12571WAT    EPW50992   1.110   5.495   6.113
12572WAT      O50993   0.788   6.003   6.913
12572WAT     H150994   0.861   6.031   6.951
12572WAT     H250995   0.798   6.026   6.829
12572WAT    EPW50996   0.801   6.011   6.906
12573WAT      O50997   0.417   6.232   5.202
12573WAT     H150998   0.448   6.165   5.157
12573WAT     H250999   0.384   6.285   5.141
12573WAT    EPW51000   0.417   6.230   5.186
12574WAT      O51001   0.504   4.988   3.681
12574WAT     H151002   0.508   5.041   3.612
12574WAT     H251003   0.587   4.964   3.694
12574WAT    EPW51004   0.517   4.992   3.673
12575WAT      O51005   0.450   5.634   4.094
12575WAT     H151006   0.417   5.713   4.110
12575WAT     H251007   0.500   5.618   4.163
12575WAT    EPW51008   0.452   5.643   4.106
12576WAT      O51009   1.025   6.491   3.433
12576WAT     H151010   1.090   6.435   3.444
12576WAT     H251011   0.969   6.449   3.381
12576WAT    EPW51012   1.026   6.477   3.427
12577WAT      O51013   0.714   5.824   3.769
12577WAT     H151014   0.721   5.812   3.683
12577WAT     H251015   0.659   5.761   3.794
12577WAT    EPW51016   0.707   5.813   3.760
12578WAT      O51017   0.279   6.335   4.040
12578WAT     H151018   0.263   6.256   4.006
12578WAT     H251019   0.334   6.371   3.983
12578WAT    EPW51020   0.285   6.329   4.026
12579WAT      O51021   0.289   6.224   3.552
12579WAT     H151022   0.321   6.154   3.593
12579WAT     H251023   0.317   6.214   3.470
12579WAT    EPW51024   0.298   6.212   3.546
12580WAT      O51025   0.344   5.516   4.831
12580WAT     H151026   0.261   5.516   4.804
12580WAT     H251027   0.365   5.601   4.832
12580WAT    EPW51028   0.334   5.529   4.828
12581WAT      O51029   0.874   4.933   4.604
12581WAT     H151030   0.854   5.001   4.553
12581WAT     H251031   0.799   4.915   4.644
12581WAT    EPW51032   0.860   4.940   4.602
12582WAT      O51033   0.607   5.280   3.040
12582WAT     H151034   0.573   5.350   3.078
12582WAT     H251035   0.633   5.230   3.106
12582WAT    EPW51036   0.606   5.283   3.055
12583WAT      O51037   0.617   6.621   3.336
12583WAT     H151038   0.692   6.665   3.344
12583WAT     H251039   0.636   6.542   3.367
12583WAT    EPW51040   0.631   6.616   3.341
12584WAT      O51041   0.383   6.681   3.465
12584WAT     H151042   0.408   6.720   3.539
12584WAT     H251043   0.458   6.664   3.424
12584WAT    EPW51044   0.398   6.684   3.470
12585WAT      O51045   1.192   5.266   3.774
12585WAT     H151046   1.147   5.340   3.782
12585WAT     H251047   1.130   5.205   3.765
12585WAT    EPW51048   1.176   5.268   3.774
12586WAT      O51049   0.667   6.603   4.355
12586WAT     H151050   0.733   6.659   4.342
12586WAT     H251051   0.650   6.573   4.275
12586WAT    EPW51052   0.674   6.607   4.341
12587WAT      O51053   0.259   4.960   4.918
12587WAT     H151054   0.266   4.888   4.869
12587WAT     H251055   0.181   4.991   4.897
12587WAT    EPW51056   0.249   4.954   4.908
12588WAT      O51057   0.370   5.556   3.667
12588WAT     H151058   0.398   5.504   3.603
12588WAT     H251059   0.437   5.561   3.721
12588WAT    EPW51060   0.384   5.549   3.665
12589WAT      O51061   0.463   5.490   3.186
12589WAT     H151062   0.474   5.574   3.205
12589WAT     H251063   0.410   5.491   3.116
12589WAT    EPW51064   0.457   5.502   3.178
12590WAT      O51065   0.839   6.785   3.321
12590WAT     H151066   0.889   6.761   3.253
12590WAT     H251067   0.895   6.829   3.372
12590WAT    EPW51068   0.855   6.788   3.318
12591WAT      O51069   1.097   5.233   4.212
12591WAT     H151070   1.162   5.230   4.154
12591WAT     H251071   1.117   5.170   4.268
12591WAT    EPW51072   1.110   5.223   4.211
12592WAT      O51073   0.596   6.447   4.714
12592WAT     H151074   0.585   6.452   4.801
12592WAT     H251075   0.676   6.415   4.705
12592WAT    EPW51076   0.606   6.443   4.725
12593WAT      O51077   0.342   6.423   3.110
12593WAT     H151078   0.295   6.482   3.155
12593WAT     H251079   0.420   6.461   3.101
12593WAT    EPW51080   0.346   6.437   3.115
12594WAT      O51081   0.679   5.137   3.265
12594WAT     H151082   0.735   5.071   3.277
12594WAT     H251083   0.710   5.199   3.318
12594WAT    EPW51084   0.692   5.136   3.274
12595WAT      O51085   0.458   5.399   3.454
12595WAT     H151086   0.440   5.314   3.453
12595WAT     H251087   0.450   5.423   3.370
12595WAT    EPW51088   0.454   5.390   3.441
12596WAT      O51089   0.402   6.644   4.424
12596WAT     H151090   0.487   6.639   4.406
12596WAT     H251091   0.365   6.636   4.345
12596WAT    EPW51092   0.409   6.642   4.410
12597WAT      O51093   0.463   5.118   3.436
12597WAT     H151094   0.410   5.054   3.409
12597WAT     H251095   0.528   5.117   3.379
12597WAT    EPW51096   0.465   5.108   3.424
12598WAT      O51097   1.115   6.703   3.726
12598WAT     H151098   1.075   6.779   3.741
12598WAT     H251099   1.049   6.647   3.714
12598WAT    EPW51100   1.099   6.706   3.727
12599WAT      O51101   0.279   5.337   3.823
12599WAT     H151102   0.287   5.410   3.775
12599WAT     H251103   0.259   5.367   3.903
12599WAT    EPW51104   0.277   5.352   3.828
12600WAT      O51105   0.875   6.283   3.803
12600WAT     H151106   0.936   6.223   3.789
12600WAT     H251107   0.800   6.240   3.794
12600WAT    EPW51108   0.873   6.268   3.799
12601WAT      O51109   0.604   5.328   4.449
12601WAT     H151110   0.599   5.369   4.526
12601WAT     H251111   0.542   5.268   4.454
12601WAT    EPW51112   0.594   5.325   4.461
12602WAT      O51113   0.724   6.035   4.323
12602WAT     H151114   0.643   6.007   4.339
12602WAT     H251115   0.717   6.121   4.331
12602WAT    EPW51116   0.711   6.043   4.327
12603WAT      O51117   0.761   4.920   3.761
12603WAT     H151118   0.762   4.916   3.848
12603WAT     H251119   0.799   4.846   3.736
12603WAT    EPW51120   0.767   4.909   3.770
12604WAT      O51121   0.978   5.388   4.552
12604WAT     H151122   1.058   5.367   4.578
12604WAT     H251123   0.930   5.376   4.624
12604WAT    EPW51124   0.982   5.383   4.566
12605WAT      O51125   0.999   6.096   3.302
12605WAT     H151126   0.997   6.049   3.375
12605WAT     H251127   1.083   6.098   3.281
12605WAT    EPW51128   1.011   6.089   3.309
12606WAT      O51129   1.250   6.495   4.694
12606WAT     H151130   1.175   6.497   4.649
12606WAT     H251131   1.228   6.453   4.767
12606WAT    EPW51132   1.236   6.489   4.698
12607WAT      O51133   0.816   5.744   3.220
12607WAT     H151134   0.812   5.826   3.189
12607WAT     H251135   0.779   5.750   3.299
12607WAT    EPW51136   0.810   5.757   3.227
12608WAT      O51137   1.162   5.218   3.213
12608WAT     H151138   1.204   5.161   3.162
12608WAT     H251139   1.123   5.271   3.155
12608WAT    EPW51140   1.162   5.218   3.197
12609WAT      O51141   1.272   5.615   4.443
12609WAT     H151142   1.330   5.551   4.444
12609WAT     H251143   1.217   5.591   4.379
12609WAT    EPW51144   1.272   5.602   4.434
12610WAT      O51145   1.038   5.099   3.439
12610WAT     H151146   1.113   5.061   3.464
12610WAT     H251147   1.063   5.151   3.373
12610WAT    EPW51148   1.053   5.101   3.433
12611WAT      O51149   0.459   6.479   3.889
12611WAT     H151150   0.422   6.558   3.893
12611WAT     H251151   0.461   6.461   3.804
12611WAT    EPW51152   0.454   6.488   3.877
12612WAT      O51153   0.737   5.366   3.882
12612WAT     H151154   0.767   5.335   3.959
12612WAT     H251155   0.672   5.311   3.863
12612WAT    EPW51156   0.731   5.353   3.891
12613WAT      O51157   1.011   6.520   4.540
12613WAT     H151158   0.968   6.596   4.548
12613WAT     H251159   1.008   6.504   4.454
12613WAT    EPW51160   1.004   6.529   4.528
12614WAT      O51161   0.858   5.550   4.162
12614WAT     H151162   0.787   5.575   4.207
12614WAT     H251163   0.856   5.601   4.091
12614WAT    EPW51164   0.847   5.561   4.159
12615WAT      O51165   0.309   6.596   4.165
12615WAT     H151166   0.279   6.520   4.134
12615WAT     H251167   0.322   6.644   4.093
12615WAT    EPW51168   0.306   6.592   4.150
12616WAT      O51169   0.425   5.109   4.494
12616WAT     H151170   0.424   5.024   4.473
12616WAT     H251171   0.427   5.109   4.582
12616WAT    EPW51172   0.425   5.096   4.504
12617WAT      O51173   0.729   5.334   3.448
12617WAT     H151174   0.778   5.395   3.484
12617WAT     H251175   0.647   5.363   3.459
12617WAT    EPW51176   0.724   5.347   3.455
12618WAT      O51177   0.745   6.104   4.761
12618WAT     H151178   0.782   6.180   4.742
12618WAT     H251179   0.777   6.049   4.702
12618WAT    EPW51180   0.755   6.107   4.749
12619WAT      O51181   0.256   5.429   4.083
12619WAT     H151182   0.315   5.492   4.092
12619WAT     H251183   0.283   5.367   4.137
12619WAT    EPW51184   0.269   5.429   4.092
12620WAT      O51185   0.464   5.773   3.255
12620WAT     H151186   0.487   5.855   3.239
12620WAT     H251187   0.440   5.774   3.339
12620WAT    EPW51188   0.464   5.785   3.265
12621WAT      O51189   1.044   6.067   3.763
12621WAT     H151190   1.047   6.016   3.834
12621WAT     H251191   1.008   6.015   3.702
12621WAT    EPW51192   1.039   6.052   3.764
12622WAT      O51193   0.649   6.484   4.098
12622WAT     H151194   0.589   6.469   4.037
12622WAT     H251195   0.689   6.557   4.071
12622WAT    EPW51196   0.646   6.492   4.085
12623WAT      O51197   0.643   6.120   4.070
12623WAT     H151198   0.569   6.148   4.105
12623WAT     H251199   0.675   6.066   4.130
12623WAT    EPW51200   0.637   6.116   4.084
12624WAT      O51201   0.217   6.633   3.238
12624WAT     H151202   0.257   6.656   3.312
12624WAT     H251203   0.234   6.700   3.184
12624WAT    EPW51204   0.225   6.646   3.241
12625WAT      O51205   0.828   5.939   4.558
12625WAT     H151206   0.795   5.972   4.485
12625WAT     H251207   0.913   5.955   4.552
12625WAT    EPW51208   0.836   5.946   4.546
12626WAT      O51209   0.581   6.556   4.976
12626WAT     H151210   0.599   6.579   5.058
12626WAT     H251211   0.616   6.620   4.928
12626WAT    EPW51212   0.589   6.569   4.981
12627WAT      O51213   0.977   5.063   4.823
12627WAT     H151214   0.948   5.019   4.754
12627WAT     H251215   0.977   5.004   4.887
12627WAT    EPW51216   0.973   5.048   4.822
12628WAT      O51217   0.476   5.936   4.393
12628WAT     H151218   0.438   5.996   4.444
12628WAT     H251219   0.502   5.875   4.449
12628WAT    EPW51220   0.474   5.936   4.409
12629WAT      O51221   0.444   5.791   3.537
12629WAT     H151222   0.424   5.860   3.587
12629WAT     H251223   0.408   5.724   3.580
12629WAT    EPW51224   0.436   5.791   3.551
12630WAT      O51225   0.892   6.256   4.095
12630WAT     H151226   0.910   6.282   4.014
12630WAT     H251227   0.812   6.222   4.089
12630WAT    EPW51228   0.883   6.255   4.082
12631WAT      O51229   0.260   6.063   3.949
12631WAT     H151230   0.175   6.042   3.943
12631WAT     H251231   0.289   6.013   4.013
12631WAT    EPW51232   0.251   6.053   3.957
12632WAT      O51233   1.204   6.656   3.295
12632WAT     H151234   1.265   6.603   3.263
12632WAT     H251235   1.150   6.601   3.337
12632WAT    EPW51236   1.205   6.640   3.297
12633WAT      O51237   0.968   5.892   4.259
12633WAT     H151238   0.970   5.822   4.310
12633WAT     H251239   0.889   5.926   4.273
12633WAT    EPW51240   0.957   5.887   4.268
12634WAT      O51241   1.068   5.902   3.994
12634WAT     H151242   1.038   5.905   4.077
12634WAT     H251243   1.154   5.896   4.004
12634WAT    EPW51244   1.076   5.902   4.008
12635WAT      O51245   0.841   5.310   4.791
12635WAT     H151246   0.765   5.304   4.833
12635WAT     H251247   0.877   5.231   4.803
12635WAT    EPW51248   0.835   5.297   4.799
12636WAT      O51249   1.208   6.419   4.082
12636WAT     H151250   1.245   6.464   4.016
12636WAT     H251251   1.271   6.416   4.142
12636WAT    EPW51252   1.223   6.426   4.081
12637WAT      O51253   0.706   5.640   4.885
12637WAT     H151254   0.734   5.660   4.965
12637WAT     H251255   0.631   5.684   4.878
12637WAT    EPW51256   0.699   5.649   4.896
12638WAT      O51257   0.930   5.701   4.732
12638WAT     H151258   0.945   5.784   4.755
12638WAT     H251259   0.860   5.679   4.779
12638WAT    EPW51260   0.922   5.710   4.743
12639WAT      O51261   0.862   6.336   3.277
12639WAT     H151262   0.898   6.258   3.289
12639WAT     H251263   0.787   6.331   3.323
12639WAT    EPW51264   0.856   6.324   3.286
12640WAT      O51265   0.984   5.461   3.796
12640WAT     H151266   0.915   5.414   3.821
12640WAT     H251267   0.975   5.535   3.840
12640WAT    EPW51268   0.972   5.465   3.806
12641WAT      O51269   1.227   5.791   4.909
12641WAT     H151270   1.229   5.731   4.845
12641WAT     H251271   1.308   5.823   4.908
12641WAT    EPW51272   1.239   5.787   4.899
12642WAT      O51273   1.094   6.031   4.546
12642WAT     H151274   1.161   5.981   4.519
12642WAT     H251275   1.088   6.092   4.484
12642WAT    EPW51276   1.103   6.033   4.533
12643WAT      O51277   0.527   6.025   3.160
12643WAT     H151278   0.614   6.027   3.155
12643WAT     H251279   0.503   6.037   3.077
12643WAT    EPW51280   0.536   6.027   3.147
12644WAT      O51281   0.834   5.169   4.453
12644WAT     H151282   0.890   5.233   4.470
12644WAT     H251283   0.757   5.210   4.445
12644WAT    EPW51284   0.831   5.184   4.454
12645WAT      O51285   0.328   5.882   4.158
12645WAT     H151286   0.377   5.914   4.223
12645WAT     H251287   0.256   5.854   4.198
12645WAT    EPW51288   0.324   5.882   4.173
12646WAT      O51289   0.342   6.735   3.904
12646WAT     H151290   0.387   6.767   3.836
12646WAT     H251291   0.274   6.789   3.911
12646WAT    EPW51292   0.339   6.748   3.895
12647WAT      O51293   0.893   4.959   4.278
12647WAT     H151294   0.871   5.033   4.317
12647WAT     H251295   0.978   4.951   4.296
12647WAT    EPW51296   0.903   4.969   4.286
12648WAT      O51297   0.480   6.030   4.784
12648WAT     H151298   0.561   6.058   4.768
12648WAT     H251299   0.433   6.064   4.719
12648WAT    EPW51300   0.485   6.039   4.772
12649WAT      O51301   0.856   6.356   4.706
12649WAT     H151302   0.888   6.386   4.782
12649WAT     H251303   0.905   6.396   4.646
12649WAT    EPW51304   0.868   6.366   4.709
12650WAT      O51305   1.074   5.642   3.188
12650WAT     H151306   1.119   5.698   3.139
12650WAT     H251307   0.993   5.676   3.189
12650WAT    EPW51308   1.068   5.655   3.181
12651WAT      O51309   0.580   5.492   4.676
12651WAT     H151310   0.503   5.484   4.717
12651WAT     H251311   0.637   5.504   4.741
12651WAT    EPW51312   0.577   5.493   4.692
12652WAT      O51313   0.619   5.575   4.306
12652WAT     H151314   0.621   5.628   4.376
12652WAT     H251315   0.611   5.495   4.341
12652WAT    EPW51316   0.618   5.571   4.322
12653WAT      O51317   0.263   6.555   4.781
12653WAT     H151318   0.284   6.511   4.709
12653WAT     H251319   0.276   6.498   4.846
12653WAT    EPW51320   0.268   6.540   4.780
12654WAT      O51321   0.857   5.548   3.566
12654WAT     H151322   0.890   5.517   3.641
12654WAT     H251323   0.926   5.585   3.528
12654WAT    EPW51324   0.872   5.549   3.572
12655WAT      O51325   0.983   5.089   3.715
12655WAT     H151326   0.906   5.051   3.731
12655WAT     H251327   0.979   5.107   3.630
12655WAT    EPW51328   0.971   5.086   3.705
12656WAT      O51329   0.959   5.932   3.528
12656WAT     H151330   1.006   5.860   3.513
12656WAT     H251331   0.876   5.905   3.516
12656WAT    EPW51332   0.953   5.917   3.524
12657WAT      O51333   0.342   6.126   4.559
12657WAT     H151334   0.256   6.116   4.548
12657WAT     H251335   0.354   6.212   4.552
12657WAT    EPW51336   0.331   6.137   4.556
12658WAT      O51337   0.657   6.096   3.796
12658WAT     H151338   0.647   6.106   3.882
12658WAT     H251339   0.684   6.013   3.788
12658WAT    EPW51340   0.660   6.085   3.808
12659WAT      O51341   0.404   6.019   3.706
12659WAT     H151342   0.357   6.027   3.779
12659WAT     H251343   0.483   6.049   3.729
12659WAT    EPW51344   0.409   6.025   3.720
12660WAT      O51345   0.370   6.406   4.564
12660WAT     H151346   0.445   6.414   4.609
12660WAT     H251347   0.370   6.475   4.511
12660WAT    EPW51348   0.381   6.417   4.563
12661WAT      O51349   1.191   5.604   4.708
12661WAT     H151350   1.105   5.618   4.711
12661WAT     H251351   1.211   5.616   4.624
12661WAT    EPW51352   1.181   5.608   4.696
12662WAT      O51353   0.613   5.737   4.536
12662WAT     H151354   0.606   5.668   4.588
12662WAT     H251355   0.690   5.772   4.558
12662WAT    EPW51356   0.624   5.732   4.547
12663WAT      O51357   0.455   5.765   4.870
12663WAT     H151358   0.459   5.844   4.834
12663WAT     H251359   0.444   5.781   4.955
12663WAT    EPW51360   0.454   5.779   4.877
12664WAT      O51361   0.737   6.741   4.038
12664WAT     H151362   0.673   6.796   4.062
12664WAT     H251363   0.797   6.752   4.100
12664WAT    EPW51364   0.736   6.751   4.051
12665WAT      O51365   0.432   6.202   4.228
12665WAT     H151366   0.379   6.255   4.183
12665WAT     H251367   0.480   6.256   4.276
12665WAT    EPW51368   0.431   6.218   4.228
12666WAT      O51369   0.959   6.451   4.946
12666WAT     H151370   1.040   6.420   4.950
12666WAT     H251371   0.919   6.415   5.014
12666WAT    EPW51372   0.965   6.441   4.956
12667WAT      O51373   1.068   5.687   3.462
12667WAT     H151374   1.078   5.675   3.377
12667WAT     H251375   1.140   5.650   3.497
12667WAT    EPW51376   1.080   5.680   3.455
12668WAT      O51377   0.438   6.444   3.615
12668WAT     H151378   0.402   6.508   3.569
12668WAT     H251379   0.384   6.376   3.602
12668WAT    EPW51380   0.425   6.443   3.606
12669WAT      O51381   0.949   5.668   4.451
12669WAT     H151382   0.956   5.581   4.454
12669WAT     H251383   0.937   5.691   4.534
12669WAT    EPW51384   0.948   5.659   4.463
12670WAT      O51385   0.460   5.100   4.776
12670WAT     H151386   0.497   5.161   4.825
12670WAT     H251387   0.398   5.067   4.828
12670WAT    EPW51388   0.456   5.104   4.791
12671WAT      O51389   0.515   5.202   3.858
12671WAT     H151390   0.439   5.245   3.848
12671WAT     H251391   0.509   5.137   3.800
12671WAT    EPW51392   0.503   5.199   3.848
12672WAT      O51393   0.828   5.277   4.129
12672WAT     H151394   0.907   5.246   4.149
12672WAT     H251395   0.833   5.361   4.152
12672WAT    EPW51396   0.840   5.285   4.136
12673WAT      O51397   0.904   5.694   3.925
12673WAT     H151398   0.962   5.756   3.946
12673WAT     H251399   0.846   5.736   3.876
12673WAT    EPW51400   0.904   5.709   3.921
12674WAT      O51401   0.897   6.536   3.678
12674WAT     H151402   0.889   6.459   3.717
12674WAT     H251403   0.927   6.516   3.598
12674WAT    EPW51404   0.900   6.522   3.672
12675WAT      O51405   1.150   5.021   4.393
12675WAT     H151406   1.126   5.031   4.476
12675WAT     H251407   1.231   4.988   4.398
12675WAT    EPW51408   1.159   5.017   4.406
12676WAT      O51409   0.362   5.222   4.240
12676WAT     H151410   0.361   5.189   4.321
12676WAT     H251411   0.434   5.187   4.204
12676WAT    EPW51412   0.373   5.212   4.247
12677WAT      O51413   0.677   6.315   4.327
12677WAT     H151414   0.685   6.384   4.380
12677WAT     H251415   0.683   6.350   4.247
12677WAT    EPW51416   0.679   6.331   4.323
12678WAT      O51417   0.671   6.717   4.760
12678WAT     H151418   0.631   6.650   4.720
12678WAT     H251419   0.610   6.779   4.760
12678WAT    EPW51420   0.656   6.716   4.754
12679WAT      O51421   1.092   6.152   4.286
12679WAT     H151422   1.072   6.069   4.272
12679WAT     H251423   1.039   6.195   4.231
12679WAT    EPW51424   1.081   6.146   4.276
12680WAT      O51425   0.992   6.470   4.261
12680WAT     H151426   1.062   6.469   4.208
12680WAT     H251427   0.937   6.414   4.223
12680WAT    EPW51428   0.994   6.462   4.248
12681WAT      O51429   0.591   5.123   4.113
12681WAT     H151430   0.661   5.173   4.129
12681WAT     H251431   0.565   5.150   4.034
12681WAT    EPW51432   0.598   5.135   4.103
12682WAT      O51433   0.576   5.595   3.849
12682WAT     H151434   0.630   5.528   3.863
12682WAT     H251435   0.536   5.605   3.926
12682WAT    EPW51436   0.578   5.587   3.862
12683WAT      O51437   0.720   5.776   3.492
12683WAT     H151438   0.744   5.696   3.515
12683WAT     H251439   0.633   5.774   3.497
12683WAT    EPW51440   0.711   5.764   3.496
12684WAT      O51441   1.003   6.712   3.112
12684WAT     H151442   1.074   6.699   3.162
12684WAT     H251443   0.983   6.632   3.084
12684WAT    EPW51444   1.011   6.698   3.115
12685WAT      O51445   1.024   5.954   4.811
12685WAT     H151446   1.095   5.916   4.846
12685WAT     H251447   1.055   5.992   4.739
12685WAT    EPW51448   1.039   5.954   4.806
12686WAT      O51449   0.627   6.358   3.424
12686WAT     H151450   0.590   6.376   3.502
12686WAT     H251451   0.563   6.316   3.382
12686WAT    EPW51452   0.612   6.354   3.430
12687WAT      O51453   1.053   5.407   4.941
12687WAT     H151454   1.042   5.488   4.973
12687WAT     H251455   0.980   5.393   4.896
12687WAT    EPW51456   1.040   5.417   4.939
12688WAT      O51457   1.128   5.513   4.224
12688WAT     H151458   1.044   5.536   4.211
12688WAT     H251459   1.125   5.426   4.226
12688WAT    EPW51460   1.115   5.504   4.222
12689WAT      O51461   0.805   6.008   5.028
12689WAT     H151462   0.874   6.040   5.069
12689WAT     H251463   0.819   6.028   4.944
12689WAT    EPW51464   0.817   6.015   5.022
12690WAT      O51465   0.413   6.233   3.300
12690WAT     H151466   0.444   6.165   3.256
12690WAT     H251467   0.381   6.285   3.238
12690WAT    EPW51468   0.413   6.231   3.284
12691WAT      O51469   0.494   4.986   1.776
12691WAT     H151470   0.496   5.039   1.708
12691WAT     H251471   0.578   4.965   1.788
12691WAT    EPW51472   0.507   4.991   1.768
12692WAT      O51473   0.440   5.633   2.198
12692WAT     H151474   0.408   5.712   2.215
12692WAT     H251475   0.492   5.617   2.266
12692WAT    EPW51476   0.443   5.642   2.211
12693WAT      O51477   1.043   6.485   1.548
12693WAT     H151478   1.107   6.428   1.563
12693WAT     H251479   0.986   6.440   1.500
12693WAT    EPW51480   1.044   6.470   1.543
12694WAT      O51481   0.712   5.828   1.876
12694WAT     H151482   0.720   5.815   1.790
12694WAT     H251483   0.656   5.766   1.902
12694WAT    EPW51484   0.705   5.817   1.867
12695WAT      O51485   0.276   6.336   2.145
12695WAT     H151486   0.260   6.256   2.112
12695WAT     H251487   0.333   6.370   2.088
12695WAT    EPW51488   0.282   6.329   2.131
12696WAT      O51489   0.289   6.218   1.653
12696WAT     H151490   0.321   6.150   1.698
12696WAT     H251491   0.319   6.206   1.572
12696WAT    EPW51492   0.298   6.206   1.648
12697WAT      O51493   0.342   5.517   2.931
12697WAT     H151494   0.258   5.518   2.907
12697WAT     H251495   0.363   5.601   2.933
12697WAT    EPW51496   0.333   5.529   2.928
12698WAT      O51497   0.897   4.946   2.695
12698WAT     H151498   0.870   5.013   2.647
12698WAT     H251499   0.826   4.922   2.740
12698WAT    EPW51500   0.883   4.952   2.695
12699WAT      O51501   0.564   5.278   1.163
12699WAT     H151502   0.536   5.349   1.206
12699WAT     H251503   0.600   5.229   1.226
12699WAT    EPW51504   0.565   5.281   1.179
12700WAT      O51505   0.622   6.617   1.426
12700WAT     H151506   0.700   6.658   1.428
12700WAT     H251507   0.641   6.538   1.456
12700WAT    EPW51508   0.637   6.612   1.431
12701WAT      O51509   0.391   6.672   1.565
12701WAT     H151510   0.417   6.708   1.640
12701WAT     H251511   0.465   6.657   1.522
12701WAT    EPW51512   0.405   6.675   1.570
12702WAT      O51513   1.179   5.265   1.877
12702WAT     H151514   1.135   5.340   1.887
12702WAT     H251515   1.116   5.207   1.858
12702WAT    EPW51516   1.163   5.267   1.876
12703WAT      O51517   0.671   6.604   2.453
12703WAT     H151518   0.736   6.661   2.440
12703WAT     H251519   0.654   6.573   2.374
12703WAT    EPW51520   0.678   6.608   2.440
12704WAT      O51521   0.270   4.954   3.016
12704WAT     H151522   0.270   4.881   2.968
12704WAT     H251523   0.193   4.991   2.997
12704WAT    EPW51524   0.258   4.949   3.006
12705WAT      O51525   0.367   5.562   1.772
12705WAT     H151526   0.396   5.507   1.711
12705WAT     H251527   0.434   5.568   1.828
12705WAT    EPW51528   0.381   5.555   1.771
12706WAT      O51529   0.448   5.498   1.304
12706WAT     H151530   0.466   5.582   1.319
12706WAT     H251531   0.396   5.501   1.234
12706WAT    EPW51532   0.443   5.511   1.296
12707WAT      O51533   0.854   6.772   1.399
12707WAT     H151534   0.901   6.747   1.330
12707WAT     H251535   0.909   6.823   1.444
12707WAT    EPW51536   0.869   6.776   1.395
12708WAT      O51537   1.083   5.233   2.323
12708WAT     H151538   1.147   5.225   2.264
12708WAT     H251539   1.100   5.169   2.380
12708WAT    EPW51540   1.095   5.222   2.323
12709WAT      O51541   0.596   6.432   2.810
12709WAT     H151542   0.589   6.442   2.897
12709WAT     H251543   0.678   6.405   2.799
12709WAT    EPW51544   0.607   6.430   2.821
12710WAT      O51545   0.308   6.409   1.224
12710WAT     H151546   0.264   6.465   1.274
12710WAT     H251547   0.384   6.449   1.209
12710WAT    EPW51548   0.313   6.423   1.229
12711WAT      O51549   0.673   5.134   1.371
12711WAT     H151550   0.730   5.068   1.372
12711WAT     H251551   0.707   5.191   1.428
12711WAT    EPW51552   0.686   5.133   1.380
12712WAT      O51553   0.455   5.397   1.566
12712WAT     H151554   0.433   5.313   1.561
12712WAT     H251555   0.445   5.426   1.485
12712WAT    EPW51556   0.450   5.389   1.554
12713WAT      O51557   0.407   6.645   2.526
12713WAT     H151558   0.492   6.641   2.507
12713WAT     H251559   0.368   6.637   2.448
12713WAT    EPW51560   0.414   6.643   2.512
12714WAT      O51561   0.451   5.117   1.534
12714WAT     H151562   0.399   5.054   1.503
12714WAT     H251563   0.519   5.116   1.480
12714WAT    EPW51564   0.453   5.107   1.522
12715WAT      O51565   1.118   6.716   1.819
12715WAT     H151566   1.074   6.792   1.824
12715WAT     H251567   1.054   6.657   1.812
12715WAT    EPW51568   1.102   6.719   1.819
12716WAT      O51569   0.274   5.342   1.926
12716WAT     H151570   0.283   5.416   1.880
12716WAT     H251571   0.254   5.370   2.006
12716WAT    EPW51572   0.272   5.357   1.931
12717WAT      O51573   0.881   6.283   1.906
12717WAT     H151574   0.941   6.222   1.891
12717WAT     H251575   0.805   6.240   1.896
12717WAT    EPW51576   0.878   6.268   1.902
12718WAT      O51577   0.599   5.329   2.549
12718WAT     H151578   0.595   5.370   2.626
12718WAT     H251579   0.537   5.268   2.556
12718WAT    EPW51580   0.589   5.326   2.562
12719WAT      O51581   0.724   6.036   2.425
12719WAT     H151582   0.643   6.008   2.442
12719WAT     H251583   0.718   6.122   2.434
12719WAT    EPW51584   0.711   6.044   2.429
12720WAT      O51585   0.754   4.923   1.849
12720WAT     H151586   0.755   4.919   1.936
12720WAT     H251587   0.791   4.847   1.825
12720WAT    EPW51588   0.760   4.911   1.858
12721WAT      O51589   0.976   5.390   2.649
12721WAT     H151590   1.057   5.368   2.672
12721WAT     H251591   0.930   5.377   2.722
12721WAT    EPW51592   0.981   5.385   2.663
12722WAT      O51593   1.015   6.085   1.413
12722WAT     H151594   1.014   6.035   1.485
12722WAT     H251595   1.100   6.092   1.394
12722WAT    EPW51596   1.028   6.078   1.421
12723WAT      O51597   1.247   6.492   2.786
12723WAT     H151598   1.175   6.496   2.738
12723WAT     H251599   1.223   6.445   2.855
12723WAT    EPW51600   1.233   6.486   2.789
12724WAT      O51601   0.811   5.751   1.330
12724WAT     H151602   0.814   5.833   1.300
12724WAT     H251603   0.776   5.760   1.410
12724WAT    EPW51604   0.807   5.764   1.338
12725WAT      O51605   1.136   5.221   1.275
12725WAT     H151606   1.181   5.175   1.216
12725WAT     H251607   1.087   5.274   1.226
12725WAT    EPW51608   1.135   5.222   1.259
12726WAT      O51609   1.266   5.625   2.541
12726WAT     H151610   1.326   5.561   2.543
12726WAT     H251611   1.211   5.600   2.479
12726WAT    EPW51612   1.267   5.612   2.532
12727WAT      O51613   1.030   5.102   1.512
12727WAT     H151614   1.105   5.069   1.542
12727WAT     H251615   1.055   5.148   1.441
12727WAT    EPW51616   1.045   5.104   1.506
12728WAT      O51617   0.459   6.473   1.993
12728WAT     H151618   0.422   6.552   1.996
12728WAT     H251619   0.462   6.455   1.907
12728WAT    EPW51620   0.454   6.482   1.981
12729WAT      O51621   0.729   5.369   1.982
12729WAT     H151622   0.758   5.337   2.059
12729WAT     H251623   0.666   5.313   1.960
12729WAT    EPW51624   0.724   5.356   1.990
12730WAT      O51625   1.009   6.521   2.633
12730WAT     H151626   0.961   6.594   2.643
12730WAT     H251627   1.006   6.506   2.547
12730WAT    EPW51628   1.001   6.530   2.622
12731WAT      O51629   0.853   5.551   2.263
12731WAT     H151630   0.783   5.577   2.309
12731WAT     H251631   0.853   5.603   2.193
12731WAT    EPW51632   0.843   5.563   2.260
12732WAT      O51633   0.308   6.596   2.270
12732WAT     H151634   0.279   6.520   2.239
12732WAT     H251635   0.323   6.643   2.197
12732WAT    EPW51636   0.306   6.592   2.255
12733WAT      O51637   0.423   5.107   2.596
12733WAT     H151638   0.419   5.023   2.572
12733WAT     H251639   0.432   5.103   2.682
12733WAT    EPW51640   0.424   5.094   2.605
12734WAT      O51641   0.723   5.320   1.566
12734WAT     H151642   0.774   5.385   1.595
12734WAT     H251643   0.643   5.352   1.576
12734WAT    EPW51644   0.719   5.334   1.571
12735WAT      O51645   0.746   6.102   2.863
12735WAT     H151646   0.783   6.178   2.842
12735WAT     H251647   0.778   6.046   2.804
12735WAT    EPW51648   0.756   6.105   2.851
12736WAT      O51649   0.245   5.429   2.187
12736WAT     H151650   0.304   5.492   2.197
12736WAT     H251651   0.273   5.366   2.241
12736WAT    EPW51652   0.258   5.429   2.197
12737WAT      O51653   0.470   5.782   1.362
12737WAT     H151654   0.501   5.862   1.343
12737WAT     H251655   0.446   5.788   1.445
12737WAT    EPW51656   0.471   5.795   1.371
12738WAT      O51657   1.048   6.065   1.866
12738WAT     H151658   1.051   6.016   1.938
12738WAT     H251659   1.017   6.011   1.805
12738WAT    EPW51660   1.044   6.050   1.868
12739WAT      O51661   0.653   6.485   2.197
12739WAT     H151662   0.592   6.469   2.136
12739WAT     H251663   0.692   6.558   2.168
12739WAT    EPW51664   0.650   6.494   2.184
12740WAT      O51665   0.641   6.121   2.173
12740WAT     H151666   0.567   6.150   2.209
12740WAT     H251667   0.674   6.067   2.233
12740WAT    EPW51668   0.635   6.117   2.187
12741WAT      O51669   0.194   6.620   1.363
12741WAT     H151670   0.247   6.642   1.429
12741WAT     H251671   0.208   6.683   1.304
12741WAT    EPW51672   0.204   6.633   1.364
12742WAT      O51673   0.829   5.938   2.660
12742WAT     H151674   0.796   5.972   2.587
12742WAT     H251675   0.914   5.955   2.654
12742WAT    EPW51676   0.836   5.945   2.648
12743WAT      O51677   0.588   6.546   3.071
12743WAT     H151678   0.604   6.575   3.152
12743WAT     H251679   0.616   6.612   3.020
12743WAT    EPW51680   0.594   6.560   3.075
12744WAT      O51681   0.989   5.067   2.927
12744WAT     H151682   0.963   5.026   2.854
12744WAT     H251683   0.985   5.005   2.988
12744WAT    EPW51684   0.984   5.052   2.925
12745WAT      O51685   0.476   5.937   2.496
12745WAT     H151686   0.436   5.995   2.547
12745WAT     H251687   0.502   5.875   2.552
12745WAT    EPW51688   0.474   5.936   2.512
12746WAT      O51689   0.447   5.796   1.643
12746WAT     H151690   0.428   5.864   1.694
12746WAT     H251691   0.409   5.728   1.684
12746WAT    EPW51692   0.438   5.796   1.657
12747WAT      O51693   0.892   6.254   2.197
12747WAT     H151694   0.911   6.279   2.115
12747WAT     H251695   0.812   6.221   2.190
12747WAT    EPW51696   0.883   6.253   2.184
12748WAT      O51697   0.258   6.064   2.054
12748WAT     H151698   0.174   6.041   2.047
12748WAT     H251699   0.288   6.014   2.120
12748WAT    EPW51700   0.250   6.053   2.063
12749WAT      O51701   1.214   6.649   1.404
12749WAT     H151702   1.284   6.600   1.387
12749WAT     H251703   1.162   6.597   1.450
12749WAT    EPW51704   1.216   6.634   1.408
12750WAT      O51705   0.968   5.892   2.363
12750WAT     H151706   0.968   5.821   2.414
12750WAT     H251707   0.889   5.927   2.376
12750WAT    EPW51708   0.956   5.887   2.372
12751WAT      O51709   1.069   5.903   2.099
12751WAT     H151710   1.040   5.905   2.181
12751WAT     H251711   1.155   5.899   2.108
12751WAT    EPW51712   1.077   5.903   2.112
12752WAT      O51713   0.848   5.310   2.893
12752WAT     H151714   0.771   5.304   2.934
12752WAT     H251715   0.884   5.231   2.905
12752WAT    EPW51716   0.842   5.297   2.901
12753WAT      O51717   1.208   6.411   2.178
12753WAT     H151718   1.243   6.463   2.117
12753WAT     H251719   1.270   6.406   2.238
12753WAT    EPW51720   1.222   6.418   2.178
12754WAT      O51721   0.705   5.638   2.986
12754WAT     H151722   0.733   5.657   3.066
12754WAT     H251723   0.630   5.683   2.979
12754WAT    EPW51724   0.698   5.647   2.997
12755WAT      O51725   0.928   5.701   2.834
12755WAT     H151726   0.943   5.784   2.858
12755WAT     H251727   0.858   5.679   2.881
12755WAT    EPW51728   0.920   5.710   2.845
12756WAT      O51729   0.875   6.325   1.405
12756WAT     H151730   0.908   6.245   1.416
12756WAT     H251731   0.798   6.320   1.445
12756WAT    EPW51732   0.869   6.312   1.412
12757WAT      O51733   0.977   5.464   1.899
12757WAT     H151734   0.907   5.418   1.923
12757WAT     H251735   0.970   5.538   1.943
12757WAT    EPW51736   0.966   5.468   1.909
12758WAT      O51737   1.228   5.790   3.012
12758WAT     H151738   1.230   5.732   2.947
12758WAT     H251739   1.309   5.823   3.013
12758WAT    EPW51740   1.241   5.787   3.003
12759WAT      O51741   1.094   6.033   2.651
12759WAT     H151742   1.162   5.985   2.624
12759WAT     H251743   1.086   6.094   2.589
12759WAT    EPW51744   1.103   6.035   2.638
12760WAT      O51745   0.550   6.029   1.257
12760WAT     H151746   0.636   6.032   1.246
12760WAT     H251747   0.519   6.038   1.176
12760WAT    EPW51748   0.558   6.031   1.243
12761WAT      O51749   0.830   5.173   2.547
12761WAT     H151750   0.887   5.237   2.562
12761WAT     H251751   0.754   5.215   2.542
12761WAT    EPW51752   0.827   5.189   2.548
12762WAT      O51753   0.324   5.883   2.264
12762WAT     H151754   0.375   5.915   2.327
12762WAT     H251755   0.251   5.859   2.306
12762WAT    EPW51756   0.321   5.884   2.279
12763WAT      O51757   0.342   6.729   2.007
12763WAT     H151758   0.388   6.760   1.940
12763WAT     H251759   0.275   6.784   2.014
12763WAT    EPW51760   0.339   6.741   1.998
12764WAT      O51761   0.876   4.962   2.367
12764WAT     H151762   0.856   5.037   2.407
12764WAT     H251763   0.961   4.952   2.385
12764WAT    EPW51764   0.886   4.972   2.376
12765WAT      O51765   0.480   6.029   2.885
12765WAT     H151766   0.561   6.058   2.870
12765WAT     H251767   0.433   6.064   2.821
12765WAT    EPW51768   0.485   6.039   2.873
12766WAT      O51769   0.859   6.351   2.799
12766WAT     H151770   0.887   6.384   2.874
12766WAT     H251771   0.907   6.393   2.739
12766WAT    EPW51772   0.870   6.362   2.801
12767WAT      O51773   1.057   5.633   1.280
12767WAT     H151774   1.101   5.692   1.234
12767WAT     H251775   0.979   5.669   1.291
12767WAT    EPW51776   1.052   5.647   1.275
12768WAT      O51777   0.578   5.491   2.777
12768WAT     H151778   0.501   5.484   2.817
12768WAT     H251779   0.635   5.504   2.842
12768WAT    EPW51780   0.575   5.492   2.793
12769WAT      O51781   0.614   5.576   2.407
12769WAT     H151782   0.618   5.628   2.477
12769WAT     H251783   0.606   5.496   2.442
12769WAT    EPW51784   0.613   5.572   2.423
12770WAT      O51785   0.291   6.568   2.876
12770WAT     H151786   0.301   6.521   2.803
12770WAT     H251787   0.297   6.508   2.939
12770WAT    EPW51788   0.293   6.552   2.874
12771WAT      O51789   0.855   5.544   1.664
12771WAT     H151790   0.887   5.516   1.741
12771WAT     H251791   0.925   5.577   1.624
12771WAT    EPW51792   0.870   5.544   1.670
12772WAT      O51793   0.968   5.099   1.791
12772WAT     H151794   0.892   5.061   1.808
12772WAT     H251795   0.964   5.117   1.706
12772WAT    EPW51796   0.957   5.096   1.781
12773WAT      O51797   0.972   5.918   1.636
12773WAT     H151798   1.018   5.846   1.618
12773WAT     H251799   0.889   5.893   1.625
12773WAT    EPW51800   0.967   5.904   1.632
12774WAT      O51801   0.338   6.123   2.662
12774WAT     H151802   0.251   6.114   2.658
12774WAT     H251803   0.350   6.209   2.651
12774WAT    EPW51804   0.327   6.134   2.660
12775WAT      O51805   0.659   6.101   1.899
12775WAT     H151806   0.647   6.111   1.985
12775WAT     H251807   0.686   6.018   1.892
12775WAT    EPW51808   0.661   6.090   1.911
12776WAT      O51809   0.405   6.021   1.814
12776WAT     H151810   0.359   6.029   1.887
12776WAT     H251811   0.484   6.052   1.836
12776WAT    EPW51812   0.410   6.026   1.828
12777WAT      O51813   0.372   6.402   2.657
12777WAT     H151814   0.447   6.406   2.702
12777WAT     H251815   0.375   6.473   2.605
12777WAT    EPW51816   0.384   6.413   2.656
12778WAT      O51817   1.190   5.610   2.807
12778WAT     H151818   1.104   5.622   2.812
12778WAT     H251819   1.208   5.622   2.723
12778WAT    EPW51820   1.180   5.613   2.795
12779WAT      O51821   0.613   5.737   2.638
12779WAT     H151822   0.605   5.667   2.690
12779WAT     H251823   0.690   5.771   2.660
12779WAT    EPW51824   0.623   5.732   2.649
12780WAT      O51825   0.455   5.764   2.970
12780WAT     H151826   0.459   5.844   2.935
12780WAT     H251827   0.443   5.780   3.055
12780WAT    EPW51828   0.454   5.778   2.978
12781WAT      O51829   0.738   6.744   2.132
12781WAT     H151830   0.674   6.796   2.159
12781WAT     H251831   0.799   6.754   2.194
12781WAT    EPW51832   0.738   6.753   2.145
12782WAT      O51833   0.431   6.203   2.331
12782WAT     H151834   0.378   6.256   2.287
12782WAT     H251835   0.479   6.257   2.380
12782WAT    EPW51836   0.430   6.219   2.332
12783WAT      O51837   0.951   6.450   3.040
12783WAT     H151838   1.030   6.414   3.041
12783WAT     H251839   0.911   6.414   3.108
12783WAT    EPW51840   0.957   6.439   3.050
12784WAT      O51841   1.072   5.671   1.557
12784WAT     H151842   1.079   5.660   1.471
12784WAT     H251843   1.143   5.631   1.588
12784WAT    EPW51844   1.083   5.664   1.549
12785WAT      O51845   0.440   6.436   1.718
12785WAT     H151846   0.406   6.500   1.670
12785WAT     H251847   0.386   6.369   1.704
12785WAT    EPW51848   0.427   6.436   1.709
12786WAT      O51849   0.946   5.668   2.552
12786WAT     H151850   0.953   5.581   2.557
12786WAT     H251851   0.934   5.692   2.635
12786WAT    EPW51852   0.945   5.659   2.565
12787WAT      O51853   0.476   5.086   2.874
12787WAT     H151854   0.510   5.150   2.922
12787WAT     H251855   0.414   5.052   2.925
12787WAT    EPW51856   0.472   5.090   2.889
12788WAT      O51857   0.509   5.204   1.951
12788WAT     H151858   0.433   5.247   1.944
12788WAT     H251859   0.501   5.138   1.895
12788WAT    EPW51860   0.496   5.200   1.942
12789WAT      O51861   0.817   5.280   2.230
12789WAT     H151862   0.895   5.247   2.253
12789WAT     H251863   0.823   5.364   2.252
12789WAT    EPW51864   0.830   5.287   2.237
12790WAT      O51865   0.903   5.698   2.030
12790WAT     H151866   0.961   5.759   2.050
12790WAT     H251867   0.844   5.740   1.981
12790WAT    EPW51868   0.903   5.713   2.025
12791WAT      O51869   0.905   6.538   1.784
12791WAT     H151870   0.896   6.462   1.825
12791WAT     H251871   0.939   6.516   1.707
12791WAT    EPW51872   0.908   6.524   1.779
12792WAT      O51873   1.125   5.014   2.498
12792WAT     H151874   1.088   4.995   2.575
12792WAT     H251875   1.209   4.992   2.511
12792WAT    EPW51876   1.132   5.008   2.512
12793WAT      O51877   0.353   5.222   2.342
12793WAT     H151878   0.356   5.189   2.423
12793WAT     H251879   0.424   5.188   2.304
12793WAT    EPW51880   0.364   5.212   2.349
12794WAT      O51881   0.677   6.316   2.428
12794WAT     H151882   0.687   6.385   2.481
12794WAT     H251883   0.684   6.350   2.348
12794WAT    EPW51884   0.680   6.331   2.424
12795WAT      O51885   0.651   6.716   2.854
12795WAT     H151886   0.606   6.654   2.812
12795WAT     H251887   0.596   6.783   2.858
12795WAT    EPW51888   0.636   6.716   2.848
12796WAT      O51889   1.088   6.153   2.390
12796WAT     H151890   1.069   6.069   2.376
12796WAT     H251891   1.037   6.195   2.334
12796WAT    EPW51892   1.078   6.147   2.380
12797WAT      O51893   0.993   6.471   2.355
12797WAT     H151894   1.063   6.468   2.304
12797WAT     H251895   0.938   6.415   2.318
12797WAT    EPW51896   0.995   6.462   2.342
12798WAT      O51897   0.580   5.126   2.208
12798WAT     H151898   0.650   5.175   2.226
12798WAT     H251899   0.555   5.154   2.129
12798WAT    EPW51900   0.586   5.137   2.199
12799WAT      O51901   0.572   5.600   1.955
12799WAT     H151902   0.625   5.532   1.968
12799WAT     H251903   0.531   5.609   2.032
12799WAT    EPW51904   0.574   5.592   1.969
12800WAT      O51905   0.723   5.779   1.601
12800WAT     H151906   0.747   5.697   1.621
12800WAT     H251907   0.636   5.777   1.606
12800WAT    EPW51908   0.714   5.766   1.605
12801WAT      O51909   1.028   6.685   1.201
12801WAT     H151910   1.092   6.677   1.259
12801WAT     H251911   1.003   6.602   1.187
12801WAT    EPW51912   1.034   6.671   1.208
12802WAT      O51913   1.024   5.953   2.915
12802WAT     H151914   1.095   5.915   2.950
12802WAT     H251915   1.055   5.991   2.843
12802WAT    EPW51916   1.039   5.953   2.909
12803WAT      O51917   0.626   6.356   1.523
12803WAT     H151918   0.590   6.373   1.600
12803WAT     H251919   0.564   6.312   1.481
12803WAT    EPW51920   0.611   6.352   1.528
12804WAT      O51921   1.065   5.404   3.038
12804WAT     H151922   1.053   5.484   3.071
12804WAT     H251923   0.991   5.389   2.994
12804WAT    EPW51924   1.052   5.414   3.036
12805WAT      O51925   1.123   5.514   2.325
12805WAT     H151926   1.040   5.537   2.312
12805WAT     H251927   1.120   5.427   2.331
12805WAT    EPW51928   1.110   5.504   2.324
12806WAT      O51929   0.801   6.003   3.129
12806WAT     H151930   0.869   6.036   3.172
12806WAT     H251931   0.816   6.025   3.046
12806WAT    EPW51932   0.813   6.011   3.123
12807WAT      O51933   0.415   6.223   1.402
12807WAT     H151934   0.453   6.160   1.355
12807WAT     H251935   0.374   6.271   1.342
12807WAT    EPW51936   0.415   6.220   1.386
12808WAT      O51937   0.443   5.620   0.309
12808WAT     H151938   0.413   5.701   0.322
12808WAT     H251939   0.497   5.607   0.376
12808WAT    EPW51940   0.447   5.630   0.321
12809WAT      O51941   0.331   5.519   1.047
12809WAT     H151942   0.248   5.518   1.019
12809WAT     H251943   0.351   5.603   1.048
12809WAT    EPW51944   0.322   5.531   1.043
12810WAT      O51945   0.811   4.908   0.835
12810WAT     H151946   0.804   4.988   0.800
12810WAT     H251947   0.738   4.900   0.881
12810WAT    EPW51948   0.799   4.919   0.837
12811WAT      O51949   0.670   6.618   0.645
12811WAT     H151950   0.725   6.666   0.692
12811WAT     H251951   0.697   6.629   0.563
12811WAT    EPW51952   0.682   6.627   0.640
12812WAT      O51953   0.221   4.965   1.140
12812WAT     H151954   0.222   4.891   1.093
12812WAT     H251955   0.141   4.997   1.126
12812WAT    EPW51956   0.209   4.958   1.131
12813WAT      O51957   1.151   5.219   0.480
12813WAT     H151958   1.213   5.181   0.431
12813WAT     H251959   1.151   5.172   0.554
12813WAT    EPW51960   1.160   5.206   0.484
12814WAT      O51961   0.572   6.401   0.929
12814WAT     H151962   0.568   6.434   1.010
12814WAT     H251963   0.656   6.378   0.922
12814WAT    EPW51964   0.584   6.403   0.940
12815WAT      O51965   0.410   6.681   0.689
12815WAT     H151966   0.494   6.664   0.673
12815WAT     H251967   0.373   6.675   0.611
12815WAT    EPW51968   0.417   6.678   0.675
12816WAT      O51969   0.583   5.327   0.663
12816WAT     H151970   0.568   5.376   0.733
12816WAT     H251971   0.522   5.264   0.668
12816WAT    EPW51972   0.572   5.325   0.675
12817WAT      O51973   0.680   6.077   0.543
12817WAT     H151974   0.607   6.034   0.561
12817WAT     H251975   0.667   6.156   0.578
12817WAT    EPW51976   0.668   6.083   0.551
12818WAT      O51977   0.995   5.373   0.785
12818WAT     H151978   1.079   5.351   0.800
12818WAT     H251979   0.964   5.392   0.864
12818WAT    EPW51980   1.003   5.372   0.799
12819WAT      O51981   1.240   6.512   0.919
12819WAT     H151982   1.163   6.518   0.879
12819WAT     H251983   1.223   6.466   0.991
12819WAT    EPW51984   1.226   6.506   0.924
12820WAT      O51985   1.257   5.622   0.654
12820WAT     H151986   1.316   5.558   0.652
12820WAT     H251987   1.197   5.596   0.597
12820WAT    EPW51988   1.257   5.609   0.645
12821WAT      O51989   0.987   6.534   0.787
12821WAT     H151990   0.937   6.605   0.798
12821WAT     H251991   0.978   6.515   0.702
12821WAT    EPW51992   0.978   6.541   0.776
12822WAT      O51993   0.837   5.489   0.375
12822WAT     H151994   0.775   5.519   0.428
12822WAT     H251995   0.800   5.493   0.296
12822WAT    EPW51996   0.823   5.494   0.371
12823WAT      O51997   0.317   6.630   0.434
12823WAT     H151998   0.285   6.549   0.438
12823WAT     H251999   0.382   6.624   0.375
12823WAT    EPW52000   0.322   6.617   0.426
12824WAT      O52001   0.406   5.108   0.705
12824WAT     H152002   0.410   5.022   0.696
12824WAT     H252003   0.394   5.119   0.791
12824WAT    EPW52004   0.405   5.097   0.717
12825WAT      O52005   0.723   6.085   0.936
12825WAT     H152006   0.766   6.160   0.929
12825WAT     H252007   0.763   6.033   0.878
12825WAT    EPW52008   0.735   6.088   0.926
12826WAT      O52009   0.259   5.424   0.391
12826WAT     H152010   0.314   5.481   0.356
12826WAT     H252011   0.307   5.351   0.399
12826WAT    EPW52012   0.274   5.421   0.387
12827WAT      O52013   0.558   6.427   0.354
12827WAT     H152014   0.591   6.360   0.309
12827WAT     H252015   0.619   6.489   0.345
12827WAT    EPW52016   0.572   6.426   0.346
12828WAT      O52017   0.634   6.168   0.277
12828WAT     H152018   0.551   6.152   0.256
12828WAT     H252019   0.645   6.128   0.353
12828WAT    EPW52020   0.623   6.160   0.285
12829WAT      O52021   0.821   5.923   0.733
12829WAT     H152022   0.787   5.968   0.666
12829WAT     H252023   0.907   5.936   0.724
12829WAT    EPW52024   0.828   5.932   0.721
12830WAT      O52025   0.541   6.546   1.169
12830WAT     H152026   0.574   6.575   1.244
12830WAT     H252027   0.546   6.615   1.116
12830WAT    EPW52028   0.547   6.561   1.172
12831WAT      O52029   1.051   4.967   0.958
12831WAT     H152030   0.972   4.958   0.924
12831WAT     H252031   1.046   4.924   1.034
12831WAT    EPW52032   1.039   4.960   0.964
12832WAT      O52033   0.446   5.951   0.622
12832WAT     H152034   0.404   6.002   0.679
12832WAT     H252035   0.480   5.888   0.671
12832WAT    EPW52036   0.445   5.949   0.637
12833WAT      O52037   0.895   6.208   0.404
12833WAT     H152038   0.850   6.214   0.330
12833WAT     H252039   0.843   6.160   0.455
12833WAT    EPW52040   0.881   6.202   0.401
12834WAT      O52041   0.361   6.127   0.278
12834WAT     H152042   0.325   6.179   0.338
12834WAT     H252043   0.340   6.047   0.305
12834WAT    EPW52044   0.353   6.123   0.291
12835WAT      O52045   0.951   5.802   0.455
12835WAT     H152046   0.949   5.750   0.525
12835WAT     H252047   0.875   5.785   0.415
12835WAT    EPW52048   0.940   5.791   0.460
12836WAT      O52049   1.183   5.902   0.342
12836WAT     H152050   1.112   5.868   0.381
12836WAT     H252051   1.156   5.918   0.261
12836WAT    EPW52052   1.168   5.899   0.336
12837WAT      O52053   0.767   5.346   0.990
12837WAT     H152054   0.706   5.320   1.047
12837WAT     H252055   0.767   5.284   0.929
12837WAT    EPW52056   0.758   5.333   0.989
12838WAT      O52057   1.182   6.507   0.382
12838WAT     H152058   1.222   6.520   0.306
12838WAT     H252059   1.238   6.458   0.427
12838WAT    EPW52060   1.196   6.502   0.378
12839WAT      O52061   0.696   5.651   1.097
12839WAT     H152062   0.720   5.675   1.178
12839WAT     H252063   0.618   5.689   1.087
12839WAT    EPW52064   0.688   5.660   1.108
12840WAT      O52065   0.920   5.693   0.942
12840WAT     H152066   0.933   5.778   0.957
12840WAT     H252067   0.848   5.675   0.988
12840WAT    EPW52068   0.912   5.703   0.951
12841WAT      O52069   1.207   5.801   1.118
12841WAT     H152070   1.217   5.741   1.055
12841WAT     H252071   1.285   5.839   1.123
12841WAT    EPW52072   1.220   5.798   1.110
12842WAT      O52073   1.092   6.003   0.736
12842WAT     H152074   1.163   5.955   0.723
12842WAT     H252075   1.096   6.063   0.673
12842WAT    EPW52076   1.103   6.005   0.725
12843WAT      O52077   0.795   5.178   0.767
12843WAT     H152078   0.866   5.226   0.750
12843WAT     H252079   0.733   5.216   0.719
12843WAT    EPW52080   0.796   5.191   0.757
12844WAT      O52081   0.324   5.868   0.388
12844WAT     H152082   0.361   5.890   0.463
12844WAT     H252083   0.248   5.832   0.411
12844WAT    EPW52084   0.318   5.866   0.402
12845WAT      O52085   0.917   4.953   0.541
12845WAT     H152086   0.889   5.033   0.522
12845WAT     H252087   0.992   4.968   0.584
12845WAT    EPW52088   0.924   4.967   0.545
12846WAT      O52089   0.462   6.029   0.993
12846WAT     H152090   0.542   6.051   0.967
12846WAT     H252091   0.410   6.070   0.936
12846WAT    EPW52092   0.466   6.038   0.980
12847WAT      O52093   0.844   6.338   0.925
12847WAT     H152094   0.877   6.358   1.003
12847WAT     H252095   0.888   6.390   0.871
12847WAT    EPW52096   0.856   6.349   0.929
12848WAT      O52097   0.555   5.501   0.875
12848WAT     H152098   0.486   5.495   0.928
12848WAT     H252099   0.622   5.481   0.926
12848WAT    EPW52100   0.555   5.497   0.890
12849WAT      O52101   0.616   5.566   0.520
12849WAT     H152102   0.615   5.623   0.586
12849WAT     H252103   0.598   5.490   0.558
12849WAT    EPW52104   0.613   5.563   0.535
12850WAT      O52105   0.239   6.544   0.989
12850WAT     H152106   0.265   6.500   0.919
12850WAT     H252107   0.251   6.488   1.055
12850WAT    EPW52108   0.245   6.529   0.988
12851WAT      O52109   0.302   6.135   0.788
12851WAT     H152110   0.215   6.130   0.796
12851WAT     H252111   0.317   6.221   0.777
12851WAT    EPW52112   0.291   6.147   0.787
12852WAT      O52113   0.357   6.415   0.761
12852WAT     H152114   0.431   6.402   0.805
12852WAT     H252115   0.364   6.497   0.732
12852WAT    EPW52116   0.369   6.425   0.763
12853WAT      O52117   1.189   5.608   0.921
12853WAT     H152118   1.102   5.617   0.927
12853WAT     H252119   1.206   5.623   0.837
12853WAT    EPW52120   1.179   5.612   0.910
12854WAT      O52121   0.596   5.744   0.736
12854WAT     H152122   0.589   5.679   0.793
12854WAT     H252123   0.674   5.778   0.753
12854WAT    EPW52124   0.606   5.740   0.747
12855WAT      O52125   0.439   5.767   1.082
12855WAT     H152126   0.442   5.846   1.045
12855WAT     H252127   0.433   5.784   1.167
12855WAT    EPW52128   0.438   5.781   1.089
12856WAT      O52129   0.732   6.640   0.370
12856WAT     H152130   0.704   6.721   0.357
12856WAT     H252131   0.813   6.650   0.402
12856WAT    EPW52132   0.740   6.653   0.373
12857WAT      O52133   0.322   6.344   0.474
12857WAT     H152134   0.339   6.347   0.560
12857WAT     H252135   0.397   6.367   0.437
12857WAT    EPW52136   0.335   6.348   0.481
12858WAT      O52137   0.964   6.420   1.162
12858WAT     H152138   1.047   6.394   1.168
12858WAT     H252139   0.927   6.388   1.235
12858WAT    EPW52140   0.970   6.411   1.174
12859WAT      O52141   0.928   5.625   0.671
12859WAT     H152142   0.949   5.541   0.686
12859WAT     H252143   0.917   5.658   0.751
12859WAT    EPW52144   0.929   5.617   0.685
12860WAT      O52145   0.409   5.116   0.992
12860WAT     H152146   0.450   5.172   1.044
12860WAT     H252147   0.349   5.079   1.044
12860WAT    EPW52148   0.406   5.119   1.007
12861WAT      O52149   0.872   5.220   0.443
12861WAT     H152150   0.959   5.217   0.443
12861WAT     H252151   0.854   5.304   0.427
12861WAT    EPW52152   0.882   5.232   0.440
12862WAT      O52153   1.141   5.033   0.691
12862WAT     H152154   1.122   5.013   0.774
12862WAT     H252155   1.211   4.985   0.674
12862WAT    EPW52156   1.148   5.023   0.700
12863WAT      O52157   0.392   5.172   0.428
12863WAT     H152158   0.337   5.114   0.392
12863WAT     H252159   0.385   5.155   0.514
12863WAT    EPW52160   0.382   5.161   0.436
12864WAT      O52161   0.638   6.339   0.604
12864WAT     H152162   0.663   6.412   0.646
12864WAT     H252163   0.615   6.368   0.525
12864WAT    EPW52164   0.638   6.354   0.599
12865WAT      O52165   0.549   6.735   0.964
12865WAT     H152166   0.499   6.696   0.904
12865WAT     H252167   0.508   6.811   0.979
12865WAT    EPW52168   0.536   6.741   0.957
12866WAT      O52169   1.148   6.136   0.492
12866WAT     H152170   1.165   6.063   0.447
12866WAT     H252171   1.073   6.165   0.457
12866WAT    EPW52172   1.139   6.130   0.480
12867WAT      O52173   0.947   6.464   0.521
12867WAT     H152174   1.017   6.486   0.475
12867WAT     H252175   0.924   6.387   0.487
12867WAT    EPW52176   0.954   6.456   0.509
12868WAT      O52177   0.647   5.070   0.351
12868WAT     H152178   0.710   5.125   0.376
12868WAT     H252179   0.573   5.112   0.374
12868WAT    EPW52180   0.645   5.084   0.358
12869WAT      O52181   1.005   5.953   1.004
12869WAT     H152182   1.075   5.919   1.043
12869WAT     H252183   1.036   5.985   0.929
12869WAT    EPW52184   1.020   5.953   0.999
12870WAT      O52185   1.008   5.404   1.113
12870WAT     H152186   1.009   5.482   1.154
12870WAT     H252187   0.925   5.395   1.090
12870WAT    EPW52188   0.996   5.414   1.116
12871WAT      O52189   1.112   5.496   0.448
12871WAT     H152190   1.027   5.502   0.428
12871WAT     H252191   1.125   5.410   0.459
12871WAT    EPW52192   1.102   5.484   0.446
12872WAT      O52193   0.826   6.004   1.226
12872WAT     H152194   0.891   6.035   1.276
12872WAT     H252195   0.859   6.006   1.146
12872WAT    EPW52196   0.840   6.009   1.222
12873WAT      O52197   0.475   3.150   7.441
12873WAT     H152198   0.468   3.201   7.370
12873WAT     H252199   0.559   3.130   7.444
12873WAT    EPW52200   0.486   3.154   7.431
12874WAT      O52201   1.046   4.643   7.198
12874WAT     H152202   1.107   4.585   7.221
12874WAT     H252203   0.987   4.595   7.154
12874WAT    EPW52204   1.046   4.627   7.195
12875WAT      O52205   0.699   3.982   7.558
12875WAT     H152206   0.711   3.968   7.473
12875WAT     H252207   0.648   3.916   7.583
12875WAT    EPW52208   0.693   3.970   7.549
12876WAT      O52209   0.164   4.454   7.732
12876WAT     H152210   0.189   4.375   7.705
12876WAT     H252211   0.232   4.505   7.712
12876WAT    EPW52212   0.177   4.450   7.725
12877WAT      O52213   0.267   4.370   7.313
12877WAT     H152214   0.298   4.297   7.351
12877WAT     H252215   0.301   4.367   7.233
12877WAT    EPW52216   0.277   4.359   7.307
12878WAT      O52217   0.607   3.435   6.831
12878WAT     H152218   0.573   3.506   6.870
12878WAT     H252219   0.632   3.385   6.898
12878WAT    EPW52220   0.605   3.438   6.847
12879WAT      O52221   0.620   4.766   7.123
12879WAT     H152222   0.696   4.809   7.133
12879WAT     H252223   0.638   4.686   7.153
12879WAT    EPW52224   0.634   4.761   7.129
12880WAT      O52225   0.380   4.814   7.246
12880WAT     H152226   0.399   4.866   7.313
12880WAT     H252227   0.456   4.802   7.206
12880WAT    EPW52228   0.394   4.820   7.250
12881WAT      O52229   1.167   3.409   7.577
12881WAT     H152230   1.126   3.483   7.595
12881WAT     H252231   1.103   3.355   7.553
12881WAT    EPW52232   1.152   3.412   7.576
12882WAT      O52233   0.358   3.702   7.442
12882WAT     H152234   0.390   3.651   7.379
12882WAT     H252235   0.425   3.710   7.498
12882WAT    EPW52236   0.373   3.696   7.441
12883WAT      O52237   0.463   3.647   6.965
12883WAT     H152238   0.477   3.732   6.981
12883WAT     H252239   0.410   3.647   6.895
12883WAT    EPW52240   0.457   3.659   6.957
12884WAT      O52241   0.847   4.925   7.105
12884WAT     H152242   0.893   4.901   7.035
12884WAT     H252243   0.903   4.976   7.149
12884WAT    EPW52244   0.862   4.929   7.101
12885WAT      O52245   0.331   4.582   6.890
12885WAT     H152246   0.282   4.636   6.937
12885WAT     H252247   0.407   4.624   6.882
12885WAT    EPW52248   0.335   4.596   6.895
12886WAT      O52249   0.674   3.287   7.055
12886WAT     H152250   0.728   3.219   7.064
12886WAT     H252251   0.705   3.346   7.112
12886WAT    EPW52252   0.687   3.286   7.065
12887WAT      O52253   0.453   3.552   7.229
12887WAT     H152254   0.432   3.467   7.223
12887WAT     H252255   0.449   3.580   7.147
12887WAT    EPW52256   0.449   3.544   7.216
12888WAT      O52257   0.436   3.274   7.195
12888WAT     H152258   0.382   3.221   7.153
12888WAT     H252259   0.510   3.270   7.148
12888WAT    EPW52260   0.439   3.266   7.182
12889WAT      O52261   1.103   4.860   7.503
12889WAT     H152262   1.062   4.936   7.509
12889WAT     H252263   1.039   4.803   7.484
12889WAT    EPW52264   1.088   4.863   7.501
12890WAT      O52265   0.240   3.493   7.583
12890WAT     H152266   0.262   3.564   7.538
12890WAT     H252267   0.153   3.493   7.579
12890WAT    EPW52268   0.231   3.503   7.576
12891WAT      O52269   0.832   4.442   7.490
12891WAT     H152270   0.900   4.387   7.494
12891WAT     H252271   0.763   4.390   7.502
12891WAT    EPW52272   0.832   4.426   7.492
12892WAT      O52273   0.738   3.083   7.485
12892WAT     H152274   0.729   3.070   7.571
12892WAT     H252275   0.775   3.009   7.457
12892WAT    EPW52276   0.742   3.070   7.493
12893WAT      O52277   1.011   4.246   7.078
12893WAT     H152278   1.007   4.194   7.147
12893WAT     H252279   1.096   4.251   7.060
12893WAT    EPW52280   1.023   4.239   7.085
12894WAT      O52281   0.813   3.897   7.007
12894WAT     H152282   0.810   3.979   6.978
12894WAT     H252283   0.776   3.901   7.086
12894WAT    EPW52284   0.807   3.909   7.014
12895WAT      O52285   1.160   3.364   6.981
12895WAT     H152286   1.200   3.308   6.927
12895WAT     H252287   1.122   3.421   6.927
12895WAT    EPW52288   1.161   3.364   6.965
12896WAT      O52289   1.039   3.249   7.207
12896WAT     H152290   1.112   3.210   7.234
12896WAT     H252291   1.065   3.297   7.138
12896WAT    EPW52292   1.053   3.250   7.201
12897WAT      O52293   0.407   4.589   7.674
12897WAT     H152294   0.404   4.675   7.688
12897WAT     H252295   0.416   4.583   7.587
12897WAT    EPW52296   0.408   4.601   7.663
12898WAT      O52297   0.701   3.526   7.709
12898WAT     H152298   0.713   3.491   7.788
12898WAT     H252299   0.643   3.473   7.671
12898WAT    EPW52300   0.694   3.513   7.715
12899WAT      O52301   0.722   3.480   7.244
12899WAT     H152302   0.772   3.539   7.284
12899WAT     H252303   0.642   3.512   7.250
12899WAT    EPW52304   0.718   3.493   7.250
12900WAT      O52305   0.468   3.929   7.025
12900WAT     H152306   0.490   4.012   7.011
12900WAT     H252307   0.445   3.927   7.109
12900WAT    EPW52308   0.468   3.941   7.035
12901WAT      O52309   1.030   4.242   7.498
12901WAT     H152310   1.037   4.195   7.571
12901WAT     H252311   1.001   4.185   7.440
12901WAT    EPW52312   1.027   4.227   7.501
12902WAT      O52313   0.507   4.354   7.785
12902WAT     H152314   0.481   4.432   7.756
12902WAT     H252315   0.533   4.371   7.867
12902WAT    EPW52316   0.507   4.368   7.793
12903WAT      O52317   0.201   4.784   7.027
12903WAT     H152318   0.249   4.797   7.100
12903WAT     H252319   0.226   4.849   6.974
12903WAT    EPW52320   0.212   4.795   7.030
12904WAT      O52321   0.441   3.926   7.302
12904WAT     H152322   0.418   3.998   7.346
12904WAT     H252323   0.401   3.862   7.346
12904WAT    EPW52324   0.432   3.927   7.315
12905WAT      O52325   0.289   4.197   7.709
12905WAT     H152326   0.246   4.167   7.779
12905WAT     H252327   0.356   4.240   7.743
12905WAT    EPW52328   0.292   4.199   7.725
12906WAT      O52329   1.217   4.817   7.074
12906WAT     H152330   1.283   4.767   7.046
12906WAT     H252331   1.164   4.760   7.114
12906WAT    EPW52332   1.219   4.801   7.076
12907WAT      O52333   1.075   4.108   7.738
12907WAT     H152334   1.071   4.173   7.796
12907WAT     H252335   1.158   4.082   7.741
12907WAT    EPW52336   1.086   4.114   7.747
12908WAT      O52337   1.280   4.569   7.889
12908WAT     H152338   1.276   4.613   7.814
12908WAT     H252339   1.358   4.591   7.922
12908WAT    EPW52340   1.291   4.579   7.883
12909WAT      O52341   0.866   4.483   7.067
12909WAT     H152342   0.903   4.405   7.077
12909WAT     H252343   0.793   4.478   7.114
12909WAT    EPW52344   0.860   4.471   7.075
12910WAT      O52345   0.956   3.613   7.616
12910WAT     H152346   0.882   3.577   7.647
12910WAT     H252347   0.954   3.694   7.649
12910WAT    EPW52348   0.945   3.619   7.626
12911WAT      O52349   0.529   4.184   6.939
12911WAT     H152350   0.616   4.186   6.936
12911WAT     H252351   0.506   4.195   6.855
12911WAT    EPW52352   0.539   4.186   6.926
12912WAT      O52353   0.402   4.872   7.688
12912WAT     H152354   0.411   4.908   7.609
12912WAT     H252355   0.337   4.917   7.724
12912WAT    EPW52356   0.394   4.884   7.681
12913WAT      O52357   1.068   3.791   6.980
12913WAT     H152358   1.115   3.847   6.933
12913WAT     H252359   0.989   3.826   6.981
12913WAT    EPW52360   1.064   3.804   6.973
12914WAT      O52361   0.852   3.691   7.371
12914WAT     H152362   0.881   3.662   7.448
12914WAT     H252363   0.924   3.724   7.333
12914WAT    EPW52364   0.867   3.691   7.376
12915WAT      O52365   0.965   3.246   7.476
12915WAT     H152366   0.885   3.210   7.483
12915WAT     H252367   0.972   3.264   7.391
12915WAT    EPW52368   0.954   3.243   7.465
12916WAT      O52369   0.958   4.073   7.291
12916WAT     H152370   1.005   3.999   7.286
12916WAT     H252371   0.876   4.045   7.286
12916WAT    EPW52372   0.953   4.058   7.290
12917WAT      O52373   0.628   4.254   7.551
12917WAT     H152374   0.601   4.281   7.629
12917WAT     H252375   0.658   4.173   7.566
12917WAT    EPW52376   0.629   4.246   7.565
12918WAT      O52377   0.388   4.157   7.449
12918WAT     H152378   0.344   4.158   7.524
12918WAT     H252379   0.465   4.193   7.469
12918WAT    EPW52380   0.393   4.163   7.463
12919WAT      O52381   0.675   4.898   7.752
12919WAT     H152382   0.588   4.889   7.748
12919WAT     H252383   0.697   4.849   7.820
12919WAT    EPW52384   0.665   4.890   7.761
12920WAT      O52385   1.066   3.821   7.257
12920WAT     H152386   1.074   3.811   7.171
12920WAT     H252387   1.142   3.793   7.289
12920WAT    EPW52388   1.078   3.816   7.249
12921WAT      O52389   0.424   4.578   7.398
12921WAT     H152390   0.397   4.647   7.352
12921WAT     H252391   0.368   4.515   7.376
12921WAT    EPW52392   0.412   4.579   7.388
12922WAT      O52393   0.491   3.376   7.611
12922WAT     H152394   0.410   3.408   7.608
12922WAT     H252395   0.488   3.305   7.560
12922WAT    EPW52396   0.479   3.370   7.603
12923WAT      O52397   0.918   3.877   7.698
12923WAT     H152398   0.970   3.945   7.717
12923WAT     H252399   0.851   3.914   7.656
12923WAT    EPW52400   0.916   3.893   7.694
12924WAT      O52401   0.885   4.705   7.415
12924WAT     H152402   0.864   4.626   7.445
12924WAT     H252403   0.930   4.689   7.342
12924WAT    EPW52404   0.889   4.691   7.409
12925WAT      O52405   0.554   3.755   7.638
12925WAT     H152406   0.606   3.688   7.657
12925WAT     H252407   0.507   3.765   7.710
12925WAT    EPW52408   0.555   3.746   7.651
12926WAT      O52409   0.719   3.919   7.282
12926WAT     H152410   0.744   3.840   7.308
12926WAT     H252411   0.632   3.914   7.282
12926WAT    EPW52412   0.710   3.906   7.286
12927WAT      O52413   1.010   4.861   6.893
12927WAT     H152414   1.082   4.852   6.942
12927WAT     H252415   0.992   4.779   6.869
12927WAT    EPW52416   1.018   4.848   6.897
12928WAT      O52417   0.625   4.502   7.207
12928WAT     H152418   0.592   4.514   7.287
12928WAT     H252419   0.560   4.465   7.163
12928WAT    EPW52420   0.611   4.499   7.213
12929WAT      O52421   0.410   4.391   7.075
12929WAT     H152422   0.443   4.324   7.030
12929WAT     H252423   0.378   4.443   7.012
12929WAT    EPW52424   0.410   4.389   7.059
12930WAT      O52425   0.495   3.143   5.576
12930WAT     H152426   0.499   3.195   5.507
12930WAT     H252427   0.578   3.119   5.589
12930WAT    EPW52428   0.508   3.147   5.568
12931WAT      O52429   0.438   3.792   5.990
12931WAT     H152430   0.407   3.873   6.006
12931WAT     H252431   0.490   3.776   6.058
12931WAT    EPW52432   0.441   3.802   6.002
12932WAT      O52433   1.034   4.645   5.343
12932WAT     H152434   1.099   4.588   5.357
12932WAT     H252435   0.979   4.602   5.291
12932WAT    EPW52436   1.036   4.631   5.337
12933WAT      O52437   0.710   3.980   5.666
12933WAT     H152438   0.718   3.967   5.580
12933WAT     H252439   0.654   3.917   5.691
12933WAT    EPW52440   0.703   3.969   5.657
12934WAT      O52441   0.282   4.501   5.939
12934WAT     H152442   0.265   4.422   5.906
12934WAT     H252443   0.340   4.534   5.883
12934WAT    EPW52444   0.288   4.494   5.926
12935WAT      O52445   0.289   4.379   5.451
12935WAT     H152446   0.322   4.309   5.492
12935WAT     H252447   0.317   4.369   5.368
12935WAT    EPW52448   0.298   4.367   5.444
12936WAT      O52449   0.339   3.675   6.712
12936WAT     H152450   0.257   3.675   6.683
12936WAT     H252451   0.361   3.759   6.711
12936WAT    EPW52452   0.330   3.687   6.708
12937WAT      O52453   0.874   3.086   6.488
12937WAT     H152454   0.852   3.155   6.439
12937WAT     H252455   0.800   3.065   6.529
12937WAT    EPW52456   0.860   3.093   6.487
12938WAT      O52457   0.608   3.434   4.939
12938WAT     H152458   0.573   3.504   4.978
12938WAT     H252459   0.633   3.384   5.006
12938WAT    EPW52460   0.606   3.437   4.955
12939WAT      O52461   0.618   4.779   5.233
12939WAT     H152462   0.694   4.819   5.242
12939WAT     H252463   0.635   4.698   5.261
12939WAT    EPW52464   0.632   4.773   5.239
12940WAT      O52465   0.385   4.834   5.367
12940WAT     H152466   0.410   4.875   5.439
12940WAT     H252467   0.460   4.819   5.324
12940WAT    EPW52468   0.399   4.838   5.371
12941WAT      O52469   1.183   3.417   5.678
12941WAT     H152470   1.139   3.492   5.686
12941WAT     H252471   1.120   3.358   5.667
12941WAT    EPW52472   1.167   3.419   5.677
12942WAT      O52473   0.683   4.770   6.249
12942WAT     H152474   0.749   4.825   6.235
12942WAT     H252475   0.667   4.737   6.170
12942WAT    EPW52476   0.690   4.773   6.236
12943WAT      O52477   0.264   3.116   6.809
12943WAT     H152478   0.271   3.046   6.757
12943WAT     H252479   0.185   3.148   6.788
12943WAT    EPW52480   0.253   3.110   6.798
12944WAT      O52481   0.366   3.712   5.563
12944WAT     H152482   0.396   3.659   5.501
12944WAT     H252483   0.433   3.718   5.619
12944WAT    EPW52484   0.381   3.705   5.562
12945WAT      O52485   0.467   3.646   5.084
12945WAT     H152486   0.478   3.731   5.103
12945WAT     H252487   0.414   3.648   5.014
12945WAT    EPW52488   0.460   3.659   5.077
12946WAT      O52489   0.849   4.931   5.223
12946WAT     H152490   0.896   4.908   5.153
12946WAT     H252491   0.905   4.979   5.270
12946WAT    EPW52492   0.864   4.935   5.220
12947WAT      O52493   1.083   3.387   6.121
12947WAT     H152494   1.147   3.380   6.061
12947WAT     H252495   1.100   3.324   6.178
12947WAT    EPW52496   1.095   3.377   6.120
12948WAT      O52497   0.596   4.604   6.596
12948WAT     H152498   0.585   4.614   6.682
12948WAT     H252499   0.676   4.573   6.589
12948WAT    EPW52500   0.606   4.601   6.608
12949WAT      O52501   0.336   4.582   5.010
12949WAT     H152502   0.289   4.639   5.056
12949WAT     H252503   0.412   4.623   4.999
12949WAT    EPW52504   0.340   4.596   5.015
12950WAT      O52505   0.678   3.290   5.165
12950WAT     H152506   0.732   3.223   5.177
12950WAT     H252507   0.709   3.352   5.218
12950WAT    EPW52508   0.690   3.289   5.175
12951WAT      O52509   0.459   3.554   5.352
12951WAT     H152510   0.440   3.469   5.350
12951WAT     H252511   0.452   3.579   5.268
12951WAT    EPW52512   0.455   3.545   5.339
12952WAT      O52513   0.422   4.837   6.312
12952WAT     H152514   0.507   4.824   6.295
12952WAT     H252515   0.383   4.823   6.235
12952WAT    EPW52516   0.429   4.833   6.298
12953WAT      O52517   0.458   3.273   5.332
12953WAT     H152518   0.404   3.212   5.301
12953WAT     H252519   0.525   3.272   5.276
12953WAT    EPW52520   0.460   3.264   5.319
12954WAT      O52521   1.126   4.859   5.624
12954WAT     H152522   1.085   4.935   5.637
12954WAT     H252523   1.061   4.802   5.616
12954WAT    EPW52524   1.110   4.862   5.625
12955WAT      O52525   0.272   3.497   5.723
12955WAT     H152526   0.281   3.569   5.675
12955WAT     H252527   0.251   3.527   5.802
12955WAT    EPW52528   0.271   3.512   5.727
12956WAT      O52529   0.879   4.438   5.699
12956WAT     H152530   0.941   4.379   5.684
12956WAT     H252531   0.805   4.394   5.689
12956WAT    EPW52532   0.877   4.423   5.696
12957WAT      O52533   0.599   3.484   6.337
12957WAT     H152534   0.596   3.525   6.414
12957WAT     H252535   0.536   3.424   6.343
12957WAT    EPW52536   0.589   3.481   6.349
12958WAT      O52537   0.724   4.196   6.219
12958WAT     H152538   0.642   4.170   6.236
12958WAT     H252539   0.720   4.283   6.228
12958WAT    EPW52540   0.711   4.205   6.223
12959WAT      O52541   0.753   3.072   5.651
12959WAT     H152542   0.753   3.066   5.738
12959WAT     H252543   0.789   2.998   5.624
12959WAT    EPW52544   0.758   3.060   5.660
12960WAT      O52545   0.971   3.542   6.437
12960WAT     H152546   1.053   3.522   6.461
12960WAT     H252547   0.925   3.530   6.510
12960WAT    EPW52548   0.977   3.537   6.451
12961WAT      O52549   0.993   4.250   5.199
12961WAT     H152550   0.993   4.203   5.273
12961WAT     H252551   1.078   4.259   5.181
12961WAT    EPW52552   1.006   4.245   5.207
12962WAT      O52553   1.240   4.651   6.582
12962WAT     H152554   1.166   4.653   6.536
12962WAT     H252555   1.219   4.605   6.653
12962WAT    EPW52556   1.226   4.644   6.585
12963WAT      O52557   0.821   3.900   5.117
12963WAT     H152558   0.814   3.981   5.086
12963WAT     H252559   0.783   3.905   5.196
12963WAT    EPW52560   0.814   3.913   5.124
12964WAT      O52561   1.159   3.373   5.114
12964WAT     H152562   1.200   3.314   5.064
12964WAT     H252563   1.122   3.427   5.056
12964WAT    EPW52564   1.160   3.372   5.098
12965WAT      O52565   1.267   3.777   6.333
12965WAT     H152566   1.325   3.711   6.332
12965WAT     H252567   1.209   3.754   6.272
12965WAT    EPW52568   1.267   3.764   6.324
12966WAT      O52569   1.035   3.251   5.337
12966WAT     H152570   1.109   3.212   5.360
12966WAT     H252571   1.059   3.304   5.272
12966WAT    EPW52572   1.049   3.253   5.331
12967WAT      O52573   0.470   4.632   5.788
12967WAT     H152574   0.434   4.711   5.790
12967WAT     H252575   0.471   4.613   5.703
12967WAT    EPW52576   0.465   4.641   5.776
12968WAT      O52577   0.729   3.522   5.780
12968WAT     H152578   0.759   3.491   5.856
12968WAT     H252579   0.665   3.467   5.759
12968WAT    EPW52580   0.724   3.510   5.788
12969WAT      O52581   1.005   4.680   6.424
12969WAT     H152582   0.962   4.756   6.431
12969WAT     H252583   1.005   4.664   6.338
12969WAT    EPW52584   0.998   4.688   6.412
12970WAT      O52585   0.850   3.706   6.056
12970WAT     H152586   0.780   3.732   6.101
12970WAT     H252587   0.850   3.757   5.986
12970WAT    EPW52588   0.839   3.717   6.053
12971WAT      O52589   0.318   4.764   6.064
12971WAT     H152590   0.288   4.687   6.035
12971WAT     H252591   0.335   4.808   5.990
12971WAT    EPW52592   0.316   4.759   6.049
12972WAT      O52593   0.420   3.266   6.386
12972WAT     H152594   0.420   3.182   6.364
12972WAT     H252595   0.426   3.265   6.473
12972WAT    EPW52596   0.421   3.254   6.396
12973WAT      O52597   0.729   3.487   5.347
12973WAT     H152598   0.780   3.549   5.381
12973WAT     H252599   0.648   3.518   5.359
12973WAT    EPW52600   0.725   3.501   5.354
12974WAT      O52601   0.746   4.259   6.652
12974WAT     H152602   0.783   4.336   6.631
12974WAT     H252603   0.779   4.204   6.594
12974WAT    EPW52604   0.757   4.263   6.641
12975WAT      O52605   0.241   3.589   5.982
12975WAT     H152606   0.301   3.652   5.990
12975WAT     H252607   0.271   3.526   6.034
12975WAT    EPW52608   0.254   3.589   5.991
12976WAT      O52609   0.466   3.929   5.152
12976WAT     H152610   0.486   4.013   5.135
12976WAT     H252611   0.443   3.931   5.236
12976WAT    EPW52612   0.465   3.942   5.162
12977WAT      O52613   1.050   4.224   5.657
12977WAT     H152614   1.049   4.174   5.727
12977WAT     H252615   1.015   4.174   5.595
12977WAT    EPW52616   1.045   4.209   5.658
12978WAT      O52617   0.661   4.651   5.995
12978WAT     H152618   0.602   4.631   5.933
12978WAT     H252619   0.696   4.725   5.966
12978WAT    EPW52620   0.657   4.659   5.981
12979WAT      O52621   0.642   4.278   5.966
12979WAT     H152622   0.569   4.310   6.002
12979WAT     H252623   0.674   4.225   6.027
12979WAT    EPW52624   0.636   4.275   5.980
12980WAT      O52625   0.211   4.790   5.144
12980WAT     H152626   0.255   4.810   5.216
12980WAT     H252627   0.230   4.854   5.089
12980WAT    EPW52628   0.220   4.802   5.146
12981WAT      O52629   0.828   4.092   6.451
12981WAT     H152630   0.795   4.129   6.379
12981WAT     H252631   0.913   4.109   6.447
12981WAT    EPW52632   0.836   4.100   6.440
12982WAT      O52633   0.572   4.717   6.855
12982WAT     H152634   0.595   4.736   6.937
12982WAT     H252635   0.604   4.784   6.809
12982WAT    EPW52636   0.580   4.730   6.860
12983WAT      O52637   0.976   3.214   6.708
12983WAT     H152638   0.946   3.171   6.639
12983WAT     H252639   0.977   3.154   6.771
12983WAT    EPW52640   0.972   3.199   6.707
12984WAT      O52641   0.474   4.103   6.290
12984WAT     H152642   0.436   4.164   6.339
12984WAT     H252643   0.498   4.042   6.347
12984WAT    EPW52644   0.472   4.103   6.306
12985WAT      O52645   0.446   3.946   5.435
12985WAT     H152646   0.427   4.015   5.485
12985WAT     H252647   0.408   3.879   5.476
12985WAT    EPW52648   0.437   3.946   5.448
12986WAT      O52649   0.892   4.412   5.990
12986WAT     H152650   0.911   4.436   5.908
12986WAT     H252651   0.812   4.378   5.983
12986WAT    EPW52652   0.883   4.410   5.977
12987WAT      O52653   0.262   4.228   5.848
12987WAT     H152654   0.177   4.207   5.842
12987WAT     H252655   0.290   4.177   5.913
12987WAT    EPW52656   0.253   4.217   5.857
12988WAT      O52657   1.211   4.807   5.201
12988WAT     H152658   1.281   4.757   5.187
12988WAT     H252659   1.157   4.755   5.246
12988WAT    EPW52660   1.213   4.792   5.206
12989WAT      O52661   0.965   4.047   6.154
12989WAT     H152662   0.966   3.977   6.205
12989WAT     H252663   0.887   4.083   6.168
12989WAT    EPW52664   0.954   4.042   6.163
12990WAT      O52665   1.063   4.060   5.888
12990WAT     H152666   1.036   4.062   5.971
12990WAT     H252667   1.150   4.056   5.895
12990WAT    EPW52668   1.072   4.059   5.901
12991WAT      O52669   0.843   3.462   6.679
12991WAT     H152670   0.767   3.457   6.722
12991WAT     H252671   0.878   3.382   6.690
12991WAT    EPW52672   0.837   3.449   6.687
12992WAT      O52673   1.212   4.569   5.964
12992WAT     H152674   1.253   4.619   5.906
12992WAT     H252675   1.270   4.560   6.028
12992WAT    EPW52676   1.226   4.575   5.965
12993WAT      O52677   0.705   3.796   6.769
12993WAT     H152678   0.731   3.815   6.850
12993WAT     H252679   0.631   3.843   6.760
12993WAT    EPW52680   0.698   3.806   6.780
12994WAT      O52681   0.935   3.854   6.625
12994WAT     H152682   0.950   3.936   6.649
12994WAT     H252683   0.862   3.833   6.669
12994WAT    EPW52684   0.926   3.863   6.635
12995WAT      O52685   0.868   4.496   5.184
12995WAT     H152686   0.900   4.415   5.193
12995WAT     H252687   0.792   4.492   5.227
12995WAT    EPW52688   0.861   4.484   5.192
12996WAT      O52689   0.978   3.615   5.695
12996WAT     H152690   0.908   3.569   5.719
12996WAT     H252691   0.970   3.690   5.739
12996WAT    EPW52692   0.967   3.619   5.705
12997WAT      O52693   1.226   3.943   6.810
12997WAT     H152694   1.233   3.885   6.744
12997WAT     H252695   1.305   3.979   6.813
12997WAT    EPW52696   1.239   3.940   6.800
12998WAT      O52697   1.092   4.188   6.441
12998WAT     H152698   1.160   4.140   6.414
12998WAT     H252699   1.086   4.250   6.380
12998WAT    EPW52700   1.101   4.190   6.428
12999WAT      O52701   0.524   4.183   5.054
12999WAT     H152702   0.611   4.183   5.050
12999WAT     H252703   0.500   4.194   4.971
12999WAT    EPW52704   0.533   4.184   5.041
13000WAT      O52705   0.826   3.322   6.342
13000WAT     H152706   0.884   3.385   6.356
13000WAT     H252707   0.750   3.364   6.333
13000WAT    EPW52708   0.823   3.338   6.343
13001WAT      O52709   0.325   4.045   6.057
13001WAT     H152710   0.376   4.077   6.121
13001WAT     H252711   0.252   4.021   6.098
13001WAT    EPW52712   0.322   4.046   6.072
13002WAT      O52713   0.350   4.885   5.799
13002WAT     H152714   0.395   4.923   5.734
13002WAT     H252715   0.275   4.929   5.800
13002WAT    EPW52716   0.346   4.897   5.790
13003WAT      O52717   0.882   3.112   6.165
13003WAT     H152718   0.860   3.187   6.204
13003WAT     H252719   0.967   3.104   6.183
13003WAT    EPW52720   0.891   3.122   6.173
13004WAT      O52721   0.480   4.190   6.665
13004WAT     H152722   0.562   4.218   6.651
13004WAT     H252723   0.434   4.232   6.604
13004WAT    EPW52724   0.485   4.200   6.654
13005WAT      O52725   0.855   4.511   6.590
13005WAT     H152726   0.888   4.539   6.666
13005WAT     H252727   0.902   4.554   6.530
13005WAT    EPW52728   0.867   4.521   6.592
13006WAT      O52729   1.080   3.801   5.089
13006WAT     H152730   1.125   3.858   5.041
13006WAT     H252731   0.999   3.835   5.090
13006WAT    EPW52732   1.075   3.815   5.082
13007WAT      O52733   0.578   3.647   6.563
13007WAT     H152734   0.501   3.640   6.603
13007WAT     H252735   0.634   3.661   6.629
13007WAT    EPW52736   0.575   3.648   6.579
13008WAT      O52737   0.610   3.733   6.199
13008WAT     H152738   0.614   3.786   6.268
13008WAT     H252739   0.604   3.654   6.234
13008WAT    EPW52740   0.610   3.729   6.214
13009WAT      O52741   0.271   4.728   6.659
13009WAT     H152742   0.289   4.687   6.585
13009WAT     H252743   0.279   4.666   6.720
13009WAT    EPW52744   0.275   4.713   6.657
13010WAT      O52745   0.862   3.703   5.461
13010WAT     H152746   0.892   3.671   5.536
13010WAT     H252747   0.932   3.740   5.425
13010WAT    EPW52748   0.877   3.703   5.467
13011WAT      O52749   0.973   3.244   5.611
13011WAT     H152750   0.896   3.206   5.625
13011WAT     H252751   0.972   3.262   5.526
13011WAT    EPW52752   0.961   3.241   5.601
13012WAT      O52753   0.961   4.087   5.425
13012WAT     H152754   1.009   4.016   5.412
13012WAT     H252755   0.879   4.059   5.415
13012WAT    EPW52756   0.956   4.072   5.422
13013WAT      O52757   0.341   4.304   6.449
13013WAT     H152758   0.255   4.296   6.442
13013WAT     H252759   0.355   4.388   6.434
13013WAT    EPW52760   0.331   4.315   6.445
13014WAT      O52761   0.659   4.253   5.693
13014WAT     H152762   0.648   4.263   5.778
13014WAT     H252763   0.685   4.170   5.685
13014WAT    EPW52764   0.661   4.242   5.704
13015WAT      O52765   0.405   4.175   5.605
13015WAT     H152766   0.359   4.186   5.678
13015WAT     H252767   0.484   4.205   5.626
13015WAT    EPW52768   0.410   4.181   5.619
13016WAT      O52769   0.376   4.587   6.435
13016WAT     H152770   0.449   4.589   6.482
13016WAT     H252771   0.381   4.660   6.387
13016WAT    EPW52772   0.387   4.598   6.435
13017WAT      O52773   1.197   3.762   6.601
13017WAT     H152774   1.111   3.775   6.606
13017WAT     H252775   1.215   3.775   6.516
13017WAT    EPW52776   1.187   3.766   6.589
13018WAT      O52777   0.610   3.896   6.428
13018WAT     H152778   0.603   3.826   6.480
13018WAT     H252779   0.688   3.929   6.448
13018WAT    EPW52780   0.620   3.891   6.438
13019WAT      O52781   0.454   3.923   6.743
13019WAT     H152782   0.458   4.003   6.709
13019WAT     H252783   0.444   3.938   6.828
13019WAT    EPW52784   0.453   3.937   6.751
13020WAT      O52785   0.736   4.912   5.930
13020WAT     H152786   0.674   4.969   5.953
13020WAT     H252787   0.798   4.923   5.990
13020WAT    EPW52788   0.736   4.922   5.942
13021WAT      O52789   0.436   4.368   6.126
13021WAT     H152790   0.383   4.422   6.082
13021WAT     H252791   0.485   4.422   6.173
13021WAT    EPW52792   0.435   4.384   6.126
13022WAT      O52793   0.959   4.597   6.831
13022WAT     H152794   1.040   4.565   6.836
13022WAT     H252795   0.918   4.560   6.900
13022WAT    EPW52796   0.965   4.587   6.842
13023WAT      O52797   1.076   3.843   5.364
13023WAT     H152798   1.087   3.832   5.278
13023WAT     H252799   1.149   3.809   5.398
13023WAT    EPW52800   1.089   3.837   5.356
13024WAT      O52801   0.442   4.597   5.515
13024WAT     H152802   0.406   4.662   5.469
13024WAT     H252803   0.387   4.530   5.501
13024WAT    EPW52804   0.428   4.597   5.506
13025WAT      O52805   0.945   3.822   6.343
13025WAT     H152806   0.950   3.735   6.346
13025WAT     H252807   0.936   3.845   6.427
13025WAT    EPW52808   0.945   3.813   6.356
13026WAT      O52809   0.465   3.252   6.665
13026WAT     H152810   0.504   3.313   6.714
13026WAT     H252811   0.403   3.220   6.718
13026WAT    EPW52812   0.462   3.256   6.680
13027WAT      O52813   0.507   3.359   5.752
13027WAT     H152814   0.432   3.401   5.743
13027WAT     H252815   0.500   3.293   5.694
13027WAT    EPW52816   0.495   3.355   5.742
13028WAT      O52817   0.817   3.433   6.027
13028WAT     H152818   0.895   3.401   6.050
13028WAT     H252819   0.822   3.517   6.049
13028WAT    EPW52820   0.829   3.441   6.034
13029WAT      O52821   0.900   3.851   5.821
13029WAT     H152822   0.957   3.913   5.841
13029WAT     H252823   0.841   3.892   5.772
13029WAT    EPW52824   0.900   3.866   5.817
13030WAT      O52825   0.903   4.695   5.583
13030WAT     H152826   0.894   4.618   5.622
13030WAT     H252827   0.934   4.675   5.504
13030WAT    EPW52828   0.906   4.681   5.577
13031WAT      O52829   1.132   3.167   6.293
13031WAT     H152830   1.100   3.152   6.373
13031WAT     H252831   1.214   3.140   6.299
13031WAT    EPW52832   1.139   3.161   6.306
13032WAT      O52833   0.352   3.380   6.133
13032WAT     H152834   0.352   3.347   6.214
13032WAT     H252835   0.423   3.345   6.097
13032WAT    EPW52836   0.363   3.370   6.140
13033WAT      O52837   0.682   4.479   6.223
13033WAT     H152838   0.694   4.546   6.278
13033WAT     H252839   0.691   4.515   6.144
13033WAT    EPW52840   0.685   4.494   6.220
13034WAT      O52841   0.653   4.883   6.637
13034WAT     H152842   0.614   4.817   6.596
13034WAT     H252843   0.592   4.946   6.636
13034WAT    EPW52844   0.638   4.883   6.631
13035WAT      O52845   1.089   4.307   6.180
13035WAT     H152846   1.069   4.223   6.167
13035WAT     H252847   1.036   4.349   6.124
13035WAT    EPW52848   1.078   4.301   6.170
13036WAT      O52849   0.997   4.629   6.145
13036WAT     H152850   1.066   4.628   6.092
13036WAT     H252851   0.942   4.572   6.108
13036WAT    EPW52852   0.999   4.620   6.132
13037WAT      O52853   0.581   3.278   6.006
13037WAT     H152854   0.650   3.328   6.024
13037WAT     H252855   0.555   3.306   5.928
13037WAT    EPW52856   0.587   3.289   5.997
13038WAT      O52857   0.570   3.753   5.748
13038WAT     H152858   0.624   3.685   5.762
13038WAT     H252859   0.529   3.763   5.824
13038WAT    EPW52860   0.572   3.744   5.761
13039WAT      O52861   0.723   3.931   5.389
13039WAT     H152862   0.747   3.850   5.412
13039WAT     H252863   0.635   3.927   5.394
13039WAT    EPW52864   0.713   3.918   5.393
13040WAT      O52865   1.012   4.864   5.012
13040WAT     H152866   1.082   4.852   5.063
13040WAT     H252867   0.992   4.783   4.985
13040WAT    EPW52868   1.020   4.850   5.016
13041WAT      O52869   1.025   4.106   6.705
13041WAT     H152870   1.095   4.069   6.742
13041WAT     H252871   1.058   4.145   6.634
13041WAT    EPW52872   1.040   4.106   6.700
13042WAT      O52873   0.626   4.515   5.319
13042WAT     H152874   0.590   4.532   5.397
13042WAT     H252875   0.563   4.472   5.276
13042WAT    EPW52876   0.611   4.511   5.324
13043WAT      O52877   1.061   3.559   6.820
13043WAT     H152878   1.048   3.637   6.855
13043WAT     H252879   0.986   3.543   6.777
13043WAT    EPW52880   1.048   3.568   6.819
13044WAT      O52881   1.120   3.669   6.118
13044WAT     H152882   1.036   3.691   6.105
13044WAT     H252883   1.116   3.582   6.125
13044WAT    EPW52884   1.107   3.659   6.117
13045WAT      O52885   0.803   4.157   6.916
13045WAT     H152886   0.874   4.188   6.957
13045WAT     H252887   0.817   4.178   6.832
13045WAT    EPW52888   0.816   4.164   6.910
13046WAT      O52889   0.411   4.389   5.197
13046WAT     H152890   0.442   4.322   5.152
13046WAT     H252891   0.379   4.442   5.136
13046WAT    EPW52892   0.411   4.387   5.181
13047WAT      O52893   0.496   3.141   3.677
13047WAT     H152894   0.501   3.194   3.608
13047WAT     H252895   0.578   3.117   3.690
13047WAT    EPW52896   0.509   3.145   3.669
13048WAT      O52897   0.447   3.793   4.095
13048WAT     H152898   0.416   3.873   4.112
13048WAT     H252899   0.497   3.776   4.165
13048WAT    EPW52900   0.450   3.802   4.108
13049WAT      O52901   1.037   4.644   3.447
13049WAT     H152902   1.101   4.587   3.466
13049WAT     H252903   0.984   4.599   3.395
13049WAT    EPW52904   1.039   4.629   3.442
13050WAT      O52905   0.715   3.977   3.772
13050WAT     H152906   0.722   3.965   3.686
13050WAT     H252907   0.659   3.915   3.797
13050WAT    EPW52908   0.707   3.966   3.763
13051WAT      O52909   0.290   4.500   4.044
13051WAT     H152910   0.273   4.421   4.010
13051WAT     H252911   0.347   4.534   3.988
13051WAT    EPW52912   0.296   4.493   4.030
13052WAT      O52913   0.299   4.378   3.550
13052WAT     H152914   0.331   4.309   3.592
13052WAT     H252915   0.327   4.368   3.469
13052WAT    EPW52916   0.308   4.366   3.545
13053WAT      O52917   0.348   3.674   4.829
13053WAT     H152918   0.265   3.676   4.802
13053WAT     H252919   0.370   3.759   4.831
13053WAT    EPW52920   0.339   3.687   4.825
13054WAT      O52921   0.900   3.095   4.596
13054WAT     H152922   0.874   3.162   4.547
13054WAT     H252923   0.828   3.072   4.640
13054WAT    EPW52924   0.886   3.102   4.595
13055WAT      O52925   0.604   3.435   3.039
13055WAT     H152926   0.571   3.505   3.079
13055WAT     H252927   0.630   3.384   3.106
13055WAT    EPW52928   0.603   3.438   3.055
13056WAT      O52929   0.621   4.779   3.337
13056WAT     H152930   0.698   4.819   3.345
13056WAT     H252931   0.638   4.698   3.365
13056WAT    EPW52932   0.635   4.773   3.343
13057WAT      O52933   0.388   4.834   3.471
13057WAT     H152934   0.413   4.874   3.544
13057WAT     H252935   0.463   4.819   3.429
13057WAT    EPW52936   0.403   4.838   3.475
13058WAT      O52937   1.181   3.416   3.789
13058WAT     H152938   1.137   3.492   3.796
13058WAT     H252939   1.117   3.357   3.778
13058WAT    EPW52940   1.165   3.419   3.789
13059WAT      O52941   0.691   4.772   4.354
13059WAT     H152942   0.759   4.826   4.342
13059WAT     H252943   0.676   4.741   4.274
13059WAT    EPW52944   0.699   4.776   4.341
13060WAT      O52945   0.270   3.108   4.916
13060WAT     H152946   0.270   3.035   4.868
13060WAT     H252947   0.194   3.145   4.896
13060WAT    EPW52948   0.259   3.103   4.906
13061WAT      O52949   0.369   3.713   3.664
13061WAT     H152950   0.400   3.660   3.602
13061WAT     H252951   0.436   3.718   3.721
13061WAT    EPW52952   0.384   3.706   3.663
13062WAT      O52953   0.466   3.648   3.187
13062WAT     H152954   0.478   3.732   3.205
13062WAT     H252955   0.413   3.650   3.117
13062WAT    EPW52956   0.460   3.661   3.179
13063WAT      O52957   0.852   4.930   3.323
13063WAT     H152958   0.900   4.907   3.253
13063WAT     H252959   0.908   4.978   3.371
13063WAT    EPW52960   0.868   4.934   3.320
13064WAT      O52961   1.085   3.378   4.220
13064WAT     H152962   1.151   3.373   4.163
13064WAT     H252963   1.102   3.315   4.278
13064WAT    EPW52964   1.097   3.368   4.220
13065WAT      O52965   0.597   4.596   4.712
13065WAT     H152966   0.589   4.612   4.797
13065WAT     H252967   0.679   4.566   4.704
13065WAT    EPW52968   0.608   4.594   4.723
13066WAT      O52969   0.346   4.582   3.112
13066WAT     H152970   0.298   4.637   3.158
13066WAT     H252971   0.421   4.625   3.099
13066WAT    EPW52972   0.350   4.596   3.117
13067WAT      O52973   0.678   3.290   3.264
13067WAT     H152974   0.733   3.223   3.276
13067WAT     H252975   0.711   3.353   3.315
13067WAT    EPW52976   0.691   3.290   3.273
13068WAT      O52977   0.463   3.555   3.454
13068WAT     H152978   0.445   3.470   3.452
13068WAT     H252979   0.454   3.580   3.371
13068WAT    EPW52980   0.459   3.546   3.441
13069WAT      O52981   0.431   4.833   4.424
13069WAT     H152982   0.515   4.820   4.405
13069WAT     H252983   0.391   4.819   4.347
13069WAT    EPW52984   0.437   4.829   4.410
13070WAT      O52985   0.461   3.274   3.434
13070WAT     H152986   0.406   3.215   3.401
13070WAT     H252987   0.528   3.273   3.377
13070WAT    EPW52988   0.463   3.265   3.421
13071WAT      O52989   1.133   4.855   3.731
13071WAT     H152990   1.091   4.931   3.741
13071WAT     H252991   1.068   4.797   3.724
13071WAT    EPW52992   1.117   4.858   3.732
13072WAT      O52993   0.275   3.496   3.820
13072WAT     H152994   0.284   3.568   3.773
13072WAT     H252995   0.256   3.525   3.900
13072WAT    EPW52996   0.273   3.511   3.825
13073WAT      O52997   0.888   4.434   3.803
13073WAT     H152998   0.950   4.374   3.787
13073WAT     H252999   0.814   4.389   3.793
13073WAT    EPW53000   0.886   4.418   3.799
13074WAT      O53001   0.604   3.483   4.449
13074WAT     H153002   0.600   3.524   4.526
13074WAT     H253003   0.541   3.422   4.455
13074WAT    EPW53004   0.594   3.480   4.462
13075WAT      O53005   0.730   4.199   4.326
13075WAT     H153006   0.648   4.172   4.343
13075WAT     H253007   0.725   4.286   4.334
13075WAT    EPW53008   0.717   4.208   4.330
13076WAT      O53009   0.751   3.070   3.756
13076WAT     H153010   0.751   3.063   3.843
13076WAT     H253011   0.790   2.995   3.730
13076WAT    EPW53012   0.757   3.058   3.765
13077WAT      O53013   0.976   3.544   4.547
13077WAT     H153014   1.058   3.524   4.570
13077WAT     H253015   0.930   3.531   4.621
13077WAT    EPW53016   0.981   3.539   4.562
13078WAT      O53017   0.985   4.246   3.308
13078WAT     H153018   0.988   4.199   3.382
13078WAT     H253019   1.069   4.263   3.290
13078WAT    EPW53020   0.998   4.241   3.316
13079WAT      O53021   1.230   4.655   4.695
13079WAT     H153022   1.156   4.656   4.648
13079WAT     H253023   1.207   4.613   4.768
13079WAT    EPW53024   1.215   4.649   4.699
13080WAT      O53025   0.817   3.889   3.222
13080WAT     H153026   0.815   3.970   3.190
13080WAT     H253027   0.780   3.898   3.301
13080WAT    EPW53028   0.811   3.902   3.229
13081WAT      O53029   1.154   3.367   3.228
13081WAT     H153030   1.193   3.304   3.183
13081WAT     H253031   1.119   3.418   3.166
13081WAT    EPW53032   1.154   3.365   3.212
13082WAT      O53033   1.254   3.808   4.444
13082WAT     H153034   1.292   3.761   4.381
13082WAT     H253035   1.169   3.804   4.423
13082WAT    EPW53036   1.247   3.800   4.431
13083WAT      O53037   1.027   3.246   3.449
13083WAT     H153038   1.102   3.208   3.472
13083WAT     H253039   1.051   3.301   3.386
13083WAT    EPW53040   1.042   3.249   3.443
13084WAT      O53041   0.476   4.635   3.893
13084WAT     H153042   0.439   4.714   3.896
13084WAT     H253043   0.477   4.616   3.808
13084WAT    EPW53044   0.471   4.643   3.881
13085WAT      O53045   0.730   3.521   3.882
13085WAT     H153046   0.760   3.489   3.958
13085WAT     H253047   0.666   3.466   3.861
13085WAT    EPW53048   0.725   3.508   3.890
13086WAT      O53049   0.996   4.680   4.534
13086WAT     H153050   0.958   4.758   4.541
13086WAT     H253051   1.000   4.666   4.447
13086WAT    EPW53052   0.991   4.689   4.522
13087WAT      O53053   0.851   3.703   4.164
13087WAT     H153054   0.780   3.728   4.208
13087WAT     H253055   0.852   3.755   4.094
13087WAT    EPW53056   0.841   3.714   4.160
13088WAT      O53057   0.328   4.761   4.173
13088WAT     H153058   0.297   4.685   4.144
13088WAT     H253059   0.344   4.806   4.100
13088WAT    EPW53060   0.326   4.756   4.158
13089WAT      O53061   0.426   3.261   4.496
13089WAT     H153062   0.420   3.178   4.471
13089WAT     H253063   0.435   3.256   4.582
13089WAT    EPW53064   0.426   3.248   4.505
13090WAT      O53065   0.734   3.492   3.440
13090WAT     H153066   0.785   3.552   3.478
13090WAT     H253067   0.653   3.521   3.454
13090WAT    EPW53068   0.730   3.505   3.448
13091WAT      O53069   0.748   4.254   4.759
13091WAT     H153070   0.784   4.331   4.740
13091WAT     H253071   0.783   4.200   4.700
13091WAT    EPW53072   0.758   4.257   4.747
13092WAT      O53073   0.255   3.586   4.081
13092WAT     H153074   0.313   3.650   4.092
13092WAT     H253075   0.281   3.525   4.137
13092WAT    EPW53076   0.268   3.587   4.091
13093WAT      O53077   0.471   3.932   3.254
13093WAT     H153078   0.495   4.014   3.237
13093WAT     H253079   0.447   3.935   3.338
13093WAT    EPW53080   0.471   3.944   3.264
13094WAT      O53081   1.060   4.220   3.758
13094WAT     H153082   1.058   4.170   3.830
13094WAT     H253083   1.022   4.170   3.698
13094WAT    EPW53084   1.054   4.205   3.760
13095WAT      O53085   0.669   4.650   4.099
13095WAT     H153086   0.609   4.633   4.037
13095WAT     H253087   0.707   4.724   4.071
13095WAT    EPW53088   0.666   4.659   4.086
13096WAT      O53089   0.648   4.281   4.072
13096WAT     H153090   0.575   4.311   4.108
13096WAT     H253091   0.681   4.228   4.133
13096WAT    EPW53092   0.642   4.277   4.086
13097WAT      O53093   0.218   4.788   3.244
13097WAT     H153094   0.261   4.809   3.318
13097WAT     H253095   0.239   4.852   3.189
13097WAT    EPW53096   0.228   4.800   3.247
13098WAT      O53097   0.836   4.090   4.555
13098WAT     H153098   0.803   4.129   4.484
13098WAT     H253099   0.921   4.111   4.552
13098WAT    EPW53100   0.844   4.099   4.544
13099WAT      O53101   0.575   4.718   4.966
13099WAT     H153102   0.596   4.744   5.046
13099WAT     H253103   0.600   4.785   4.916
13099WAT    EPW53104   0.582   4.732   4.970
13100WAT      O53105   0.986   3.223   4.825
13100WAT     H153106   0.962   3.181   4.752
13100WAT     H253107   0.982   3.161   4.886
13100WAT    EPW53108   0.982   3.208   4.823
13101WAT      O53109   0.481   4.101   4.396
13101WAT     H153110   0.443   4.162   4.446
13101WAT     H253111   0.505   4.040   4.453
13101WAT    EPW53112   0.479   4.101   4.412
13102WAT      O53113   0.448   3.948   3.536
13102WAT     H153114   0.430   4.016   3.588
13102WAT     H253115   0.411   3.881   3.578
13102WAT    EPW53116   0.440   3.948   3.550
13103WAT      O53117   0.901   4.414   4.093
13103WAT     H153118   0.919   4.435   4.010
13103WAT     H253119   0.819   4.382   4.089
13103WAT    EPW53120   0.891   4.412   4.080
13104WAT      O53121   0.269   4.227   3.952
13104WAT     H153122   0.184   4.206   3.945
13104WAT     H253123   0.298   4.176   4.016
13104WAT    EPW53124   0.260   4.216   3.960
13105WAT      O53125   1.212   4.802   3.301
13105WAT     H153126   1.283   4.753   3.289
13105WAT     H253127   1.158   4.750   3.346
13105WAT    EPW53128   1.214   4.787   3.306
13106WAT      O53129   0.972   4.054   4.257
13106WAT     H153130   0.972   3.982   4.306
13106WAT     H253131   0.894   4.090   4.273
13106WAT    EPW53132   0.960   4.049   4.267
13107WAT      O53133   1.071   4.060   3.993
13107WAT     H153134   1.041   4.066   4.075
13107WAT     H253135   1.158   4.059   4.002
13107WAT    EPW53136   1.079   4.061   4.006
13108WAT      O53137   0.849   3.467   4.793
13108WAT     H153138   0.772   3.460   4.833
13108WAT     H253139   0.885   3.388   4.804
13108WAT    EPW53140   0.843   3.454   4.801
13109WAT      O53141   1.229   4.579   4.079
13109WAT     H153142   1.270   4.630   4.022
13109WAT     H253143   1.286   4.571   4.145
13109WAT    EPW53144   1.243   4.585   4.081
13110WAT      O53145   0.717   3.797   4.878
13110WAT     H153146   0.744   3.814   4.959
13110WAT     H253147   0.642   3.841   4.872
13110WAT    EPW53148   0.710   3.806   4.889
13111WAT      O53149   0.947   3.855   4.730
13111WAT     H153150   0.959   3.938   4.754
13111WAT     H253151   0.875   3.832   4.774
13111WAT    EPW53152   0.938   3.864   4.740
13112WAT      O53153   0.872   4.496   3.285
13112WAT     H153154   0.901   4.414   3.295
13112WAT     H253155   0.796   4.496   3.328
13112WAT    EPW53156   0.865   4.484   3.293
13113WAT      O53157   0.979   3.616   3.801
13113WAT     H153158   0.908   3.571   3.824
13113WAT     H253159   0.971   3.691   3.846
13113WAT    EPW53160   0.967   3.621   3.811
13114WAT      O53161   1.236   3.956   4.918
13114WAT     H153162   1.244   3.896   4.856
13114WAT     H253163   1.315   3.994   4.920
13114WAT    EPW53164   1.249   3.953   4.909
13115WAT      O53165   1.098   4.195   4.549
13115WAT     H153166   1.170   4.153   4.525
13115WAT     H253167   1.089   4.257   4.488
13115WAT    EPW53168   1.107   4.198   4.537
13116WAT      O53169   0.537   4.182   3.150
13116WAT     H153170   0.624   4.180   3.142
13116WAT     H253171   0.509   4.194   3.069
13116WAT    EPW53172   0.545   4.184   3.137
13117WAT      O53173   0.833   3.324   4.447
13117WAT     H153174   0.890   3.388   4.462
13117WAT     H253175   0.757   3.365   4.442
13117WAT    EPW53176   0.831   3.339   4.449
13118WAT      O53177   0.333   4.044   4.161
13118WAT     H153178   0.382   4.076   4.226
13118WAT     H253179   0.260   4.019   4.202
13118WAT    EPW53180   0.329   4.045   4.177
13119WAT      O53181   0.357   4.888   3.908
13119WAT     H153182   0.401   4.924   3.841
13119WAT     H253183   0.287   4.939   3.917
13119WAT    EPW53184   0.353   4.901   3.900
13120WAT      O53185   0.879   3.110   4.271
13120WAT     H153186   0.860   3.186   4.310
13120WAT     H253187   0.965   3.100   4.287
13120WAT    EPW53188   0.889   3.120   4.279
13121WAT      O53189   0.481   4.186   4.778
13121WAT     H153190   0.563   4.213   4.764
13121WAT     H253191   0.435   4.227   4.716
13121WAT    EPW53192   0.486   4.196   4.767
13122WAT      O53193   0.858   4.507   4.704
13122WAT     H153194   0.891   4.537   4.779
13122WAT     H253195   0.901   4.553   4.643
13122WAT    EPW53196   0.869   4.518   4.706
13123WAT      O53197   1.075   3.788   3.195
13123WAT     H153198   1.116   3.845   3.143
13123WAT     H253199   0.993   3.818   3.198
13123WAT    EPW53200   1.069   3.801   3.188
13124WAT      O53201   0.584   3.649   4.675
13124WAT     H153202   0.508   3.641   4.716
13124WAT     H253203   0.641   3.661   4.739
13124WAT    EPW53204   0.581   3.650   4.690
13125WAT      O53205   0.614   3.731   4.309
13125WAT     H153206   0.617   3.784   4.378
13125WAT     H253207   0.606   3.651   4.344
13125WAT    EPW53208   0.613   3.727   4.324
13126WAT      O53209   0.278   4.724   4.775
13126WAT     H153210   0.294   4.681   4.701
13126WAT     H253211   0.285   4.662   4.836
13126WAT    EPW53212   0.281   4.708   4.773
13127WAT      O53213   0.867   3.702   3.564
13127WAT     H153214   0.896   3.671   3.640
13127WAT     H253215   0.938   3.739   3.528
13127WAT    EPW53216   0.882   3.703   3.570
13128WAT      O53217   0.969   3.245   3.723
13128WAT     H153218   0.892   3.205   3.736
13128WAT     H253219   0.969   3.261   3.637
13128WAT    EPW53220   0.958   3.242   3.712
13129WAT      O53221   0.963   4.081   3.533
13129WAT     H153222   1.012   4.011   3.518
13129WAT     H253223   0.882   4.052   3.522
13129WAT    EPW53224   0.958   4.067   3.529
13130WAT      O53225   0.348   4.299   4.557
13130WAT     H153226   0.262   4.291   4.545
13130WAT     H253227   0.362   4.384   4.544
13130WAT    EPW53228   0.337   4.310   4.553
13131WAT      O53229   0.666   4.251   3.798
13131WAT     H153230   0.655   4.263   3.884
13131WAT     H253231   0.691   4.168   3.792
13131WAT    EPW53232   0.668   4.240   3.810
13132WAT      O53233   0.412   4.176   3.708
13132WAT     H153234   0.365   4.186   3.781
13132WAT     H253235   0.491   4.205   3.730
13132WAT    EPW53236   0.417   4.181   3.722
13133WAT      O53237   0.379   4.582   4.548
13133WAT     H153238   0.452   4.583   4.596
13133WAT     H253239   0.386   4.655   4.500
13133WAT    EPW53240   0.391   4.593   4.548
13134WAT      O53241   1.213   3.766   4.717
13134WAT     H153242   1.126   3.779   4.718
13134WAT     H253243   1.234   3.780   4.634
13134WAT    EPW53244   1.203   3.770   4.705
13135WAT      O53245   0.616   3.896   4.536
13135WAT     H153246   0.609   3.827   4.590
13135WAT     H253247   0.693   3.931   4.558
13135WAT    EPW53248   0.626   3.891   4.547
13136WAT      O53249   0.465   3.921   4.866
13136WAT     H153250   0.465   4.000   4.830
13136WAT     H253251   0.453   3.937   4.951
13136WAT    EPW53252   0.463   3.935   4.873
13137WAT      O53253   0.755   4.910   4.040
13137WAT     H153254   0.693   4.967   4.063
13137WAT     H253255   0.816   4.921   4.100
13137WAT    EPW53256   0.755   4.920   4.052
13138WAT      O53257   0.441   4.367   4.232
13138WAT     H153258   0.389   4.420   4.187
13138WAT     H253259   0.490   4.422   4.279
13138WAT    EPW53260   0.440   4.383   4.233
13139WAT      O53261   0.961   4.601   4.944
13139WAT     H153262   1.044   4.575   4.954
13139WAT     H253263   0.921   4.568   5.014
13139WAT    EPW53264   0.967   4.592   4.956
13140WAT      O53265   1.084   3.841   3.468
13140WAT     H153266   1.091   3.827   3.382
13140WAT     H253267   1.156   3.805   3.501
13140WAT    EPW53268   1.095   3.834   3.460
13141WAT      O53269   0.447   4.598   3.619
13141WAT     H153270   0.411   4.663   3.574
13141WAT     H253271   0.394   4.530   3.604
13141WAT    EPW53272   0.434   4.597   3.610
13142WAT      O53273   0.971   3.820   4.448
13142WAT     H153274   0.961   3.733   4.451
13142WAT     H253275   0.954   3.845   4.530
13142WAT    EPW53276   0.967   3.811   4.461
13143WAT      O53277   0.478   3.238   4.774
13143WAT     H153278   0.512   3.303   4.822
13143WAT     H253279   0.416   3.204   4.825
13143WAT    EPW53280   0.474   3.242   4.789
13144WAT      O53281   0.509   3.357   3.853
13144WAT     H153282   0.434   3.400   3.844
13144WAT     H253283   0.502   3.291   3.796
13144WAT    EPW53284   0.497   3.354   3.843
13145WAT      O53285   0.820   3.430   4.129
13145WAT     H153286   0.897   3.397   4.151
13145WAT     H253287   0.825   3.514   4.153
13145WAT    EPW53288   0.832   3.438   4.136
13146WAT      O53289   0.904   3.851   3.931
13146WAT     H153290   0.963   3.913   3.949
13146WAT     H253291   0.846   3.892   3.881
13146WAT    EPW53292   0.904   3.866   3.927
13147WAT      O53293   0.908   4.692   3.689
13147WAT     H153294   0.900   4.614   3.727
13147WAT     H253295   0.938   4.673   3.610
13147WAT    EPW53296   0.912   4.678   3.683
13148WAT      O53297   1.135   3.158   4.393
13148WAT     H153298   1.104   3.142   4.473
13148WAT     H253299   1.219   3.138   4.400
13148WAT    EPW53300   1.143   3.153   4.406
13149WAT      O53301   0.359   3.382   4.244
13149WAT     H153302   0.359   3.347   4.324
13149WAT     H253303   0.428   3.345   4.206
13149WAT    EPW53304   0.369   3.371   4.250
13150WAT      O53305   0.687   4.481   4.328
13150WAT     H153306   0.700   4.547   4.383
13150WAT     H253307   0.694   4.518   4.249
13150WAT    EPW53308   0.690   4.496   4.324
13151WAT      O53309   0.638   4.887   4.745
13151WAT     H153310   0.597   4.824   4.701
13151WAT     H253311   0.581   4.953   4.747
13151WAT    EPW53312   0.623   4.887   4.739
13152WAT      O53313   1.098   4.314   4.288
13152WAT     H153314   1.079   4.230   4.273
13152WAT     H253315   1.047   4.357   4.233
13152WAT    EPW53316   1.088   4.308   4.278
13153WAT      O53317   1.002   4.630   4.251
13153WAT     H153318   1.075   4.630   4.202
13153WAT     H253319   0.950   4.574   4.210
13153WAT    EPW53320   1.005   4.622   4.238
13154WAT      O53321   0.581   3.278   4.109
13154WAT     H153322   0.652   3.327   4.126
13154WAT     H253323   0.555   3.306   4.030
13154WAT    EPW53324   0.588   3.290   4.100
13155WAT      O53325   0.573   3.751   3.850
13155WAT     H153326   0.625   3.683   3.864
13155WAT     H253327   0.533   3.762   3.927
13155WAT    EPW53328   0.575   3.743   3.864
13156WAT      O53329   0.725   3.929   3.495
13156WAT     H153330   0.749   3.848   3.517
13156WAT     H253331   0.638   3.926   3.499
13156WAT    EPW53332   0.716   3.916   3.499
13157WAT      O53333   1.015   4.862   3.111
13157WAT     H153334   1.084   4.847   3.163
13157WAT     H253335   0.992   4.782   3.084
13157WAT    EPW53336   1.022   4.848   3.115
13158WAT      O53337   1.029   4.109   4.812
13158WAT     H153338   1.100   4.075   4.849
13158WAT     H253339   1.060   4.151   4.742
13158WAT    EPW53340   1.044   4.110   4.807
13159WAT      O53341   0.632   4.516   3.423
13159WAT     H153342   0.596   4.532   3.501
13159WAT     H253343   0.570   4.472   3.381
13159WAT    EPW53344   0.618   4.512   3.428
13160WAT      O53345   1.065   3.561   4.940
13160WAT     H153346   1.055   3.642   4.971
13160WAT     H253347   0.991   3.547   4.895
13160WAT    EPW53348   1.053   3.571   4.938
13161WAT      O53349   1.123   3.661   4.209
13161WAT     H153350   1.039   3.682   4.201
13161WAT     H253351   1.122   3.574   4.219
13161WAT    EPW53352   1.111   3.651   4.209
13162WAT      O53353   0.797   4.158   5.025
13162WAT     H153354   0.865   4.192   5.068
13162WAT     H253355   0.813   4.180   4.942
13162WAT    EPW53356   0.809   4.166   5.019
13163WAT      O53357   0.423   4.387   3.297
13163WAT     H153358   0.455   4.320   3.251
13163WAT     H253359   0.391   4.441   3.236
13163WAT    EPW53360   0.423   4.385   3.281
13164WAT      O53361   0.498   3.140   1.778
13164WAT     H153362   0.500   3.194   1.709
13164WAT     H253363   0.581   3.119   1.790
13164WAT    EPW53364   0.510   3.145   1.769
13165WAT      O53365   0.441   3.790   2.200
13165WAT     H153366   0.412   3.870   2.216
13165WAT     H253367   0.493   3.772   2.267
13165WAT    EPW53368   0.444   3.799   2.212
13166WAT      O53369   1.043   4.638   1.547
13166WAT     H153370   1.108   4.580   1.563
13166WAT     H253371   0.987   4.593   1.499
13166WAT    EPW53372   1.045   4.623   1.543
13167WAT      O53373   0.713   3.981   1.879
13167WAT     H153374   0.722   3.968   1.793
13167WAT     H253375   0.657   3.918   1.904
13167WAT    EPW53376   0.706   3.970   1.870
13168WAT      O53377   0.284   4.499   2.143
13168WAT     H153378   0.267   4.420   2.111
13168WAT     H253379   0.342   4.532   2.087
13168WAT    EPW53380   0.290   4.492   2.130
13169WAT      O53381   0.290   4.376   1.657
13169WAT     H153382   0.322   4.308   1.700
13169WAT     H253383   0.319   4.364   1.576
13169WAT    EPW53384   0.299   4.364   1.651
13170WAT      O53385   0.343   3.676   2.933
13170WAT     H153386   0.258   3.679   2.911
13170WAT     H253387   0.366   3.760   2.934
13170WAT    EPW53388   0.334   3.689   2.930
13171WAT      O53389   0.891   3.093   2.696
13171WAT     H153390   0.864   3.160   2.647
13171WAT     H253391   0.819   3.070   2.740
13171WAT    EPW53392   0.876   3.099   2.696
13172WAT      O53393   0.564   3.431   1.164
13172WAT     H153394   0.537   3.503   1.207
13172WAT     H253395   0.600   3.383   1.227
13172WAT    EPW53396   0.566   3.435   1.180
13173WAT      O53397   0.619   4.774   1.425
13173WAT     H153398   0.696   4.814   1.426
13173WAT     H253399   0.637   4.693   1.453
13173WAT    EPW53400   0.633   4.768   1.429
13174WAT      O53401   0.387   4.828   1.565
13174WAT     H153402   0.413   4.869   1.637
13174WAT     H253403   0.461   4.814   1.521
13174WAT    EPW53404   0.401   4.832   1.569
13175WAT      O53405   1.183   3.421   1.876
13175WAT     H153406   1.139   3.496   1.888
13175WAT     H253407   1.120   3.363   1.858
13175WAT    EPW53408   1.167   3.424   1.875
13176WAT      O53409   0.683   4.773   2.452
13176WAT     H153410   0.748   4.829   2.438
13176WAT     H253411   0.666   4.740   2.373
13176WAT    EPW53412   0.690   4.777   2.438
13177WAT      O53413   0.267   3.108   3.016
13177WAT     H153414   0.268   3.035   2.968
13177WAT     H253415   0.189   3.143   2.997
13177WAT    EPW53416   0.255   3.102   3.007
13178WAT      O53417   0.368   3.716   1.773
13178WAT     H153418   0.396   3.661   1.712
13178WAT     H253419   0.435   3.721   1.829
13178WAT    EPW53420   0.382   3.709   1.772
13179WAT      O53421   0.449   3.654   1.304
13179WAT     H153422   0.467   3.738   1.320
13179WAT     H253423   0.398   3.657   1.233
13179WAT    EPW53424   0.444   3.667   1.296
13180WAT      O53425   0.852   4.924   1.397
13180WAT     H153426   0.900   4.899   1.328
13180WAT     H253427   0.907   4.973   1.444
13180WAT    EPW53428   0.868   4.928   1.394
13181WAT      O53429   1.083   3.381   2.323
13181WAT     H153430   1.146   3.369   2.263
13181WAT     H253431   1.099   3.318   2.381
13181WAT    EPW53432   1.095   3.370   2.322
13182WAT      O53433   0.605   4.616   2.807
13182WAT     H153434   0.594   4.622   2.893
13182WAT     H253435   0.684   4.580   2.798
13182WAT    EPW53436   0.615   4.612   2.819
13183WAT      O53437   0.296   4.577   1.237
13183WAT     H153438   0.255   4.636   1.286
13183WAT     H253439   0.372   4.617   1.217
13183WAT    EPW53440   0.301   4.591   1.241
13184WAT      O53441   0.674   3.288   1.372
13184WAT     H153442   0.732   3.222   1.373
13184WAT     H253443   0.708   3.346   1.428
13184WAT    EPW53444   0.688   3.287   1.380
13185WAT      O53445   0.455   3.551   1.567
13185WAT     H153446   0.434   3.467   1.561
13185WAT     H253447   0.445   3.580   1.485
13185WAT    EPW53448   0.451   3.543   1.554
13186WAT      O53449   0.421   4.834   2.518
13186WAT     H153450   0.505   4.821   2.501
13186WAT     H253451   0.382   4.819   2.441
13186WAT    EPW53452   0.428   4.830   2.504
13187WAT      O53453   0.453   3.271   1.536
13187WAT     H153454   0.402   3.206   1.506
13187WAT     H253455   0.521   3.270   1.481
13187WAT    EPW53456   0.455   3.261   1.523
13188WAT      O53457   1.115   4.865   1.817
13188WAT     H153458   1.072   4.941   1.824
13188WAT     H253459   1.050   4.807   1.809
13188WAT    EPW53460   1.099   4.868   1.816
13189WAT      O53461   0.273   3.498   1.928
13189WAT     H153462   0.283   3.571   1.882
13189WAT     H253463   0.253   3.526   2.008
13189WAT    EPW53464   0.272   3.513   1.933
13190WAT      O53465   0.880   4.437   1.903
13190WAT     H153466   0.942   4.376   1.889
13190WAT     H253467   0.806   4.392   1.894
13190WAT    EPW53468   0.879   4.421   1.900
13191WAT      O53469   0.595   3.483   2.549
13191WAT     H153470   0.592   3.524   2.626
13191WAT     H253471   0.533   3.422   2.555
13191WAT    EPW53472   0.585   3.480   2.561
13192WAT      O53473   0.726   4.198   2.421
13192WAT     H153474   0.645   4.172   2.440
13192WAT     H253475   0.722   4.285   2.430
13192WAT    EPW53476   0.713   4.207   2.425
13193WAT      O53477   0.758   3.078   1.851
13193WAT     H153478   0.757   3.074   1.939
13193WAT     H253479   0.794   3.003   1.827
13193WAT    EPW53480   0.763   3.066   1.861
13194WAT      O53481   0.965   3.543   2.644
13194WAT     H153482   1.046   3.522   2.665
13194WAT     H253483   0.920   3.532   2.718
13194WAT    EPW53484   0.970   3.538   2.658
13195WAT      O53485   1.012   4.235   1.407
13195WAT     H153486   1.012   4.187   1.479
13195WAT     H253487   1.097   4.243   1.387
13195WAT    EPW53488   1.025   4.229   1.415
13196WAT      O53489   1.249   4.668   2.794
13196WAT     H153490   1.175   4.670   2.748
13196WAT     H253491   1.227   4.626   2.867
13196WAT    EPW53492   1.235   4.662   2.798
13197WAT      O53493   0.812   3.907   1.332
13197WAT     H153494   0.812   3.989   1.301
13197WAT     H253495   0.777   3.916   1.412
13197WAT    EPW53496   0.807   3.921   1.339
13198WAT      O53497   1.135   3.376   1.275
13198WAT     H153498   1.181   3.330   1.216
13198WAT     H253499   1.086   3.429   1.226
13198WAT    EPW53500   1.135   3.377   1.259
13199WAT      O53501   1.259   3.789   2.546
13199WAT     H153502   1.313   3.721   2.538
13199WAT     H253503   1.195   3.770   2.491
13199WAT    EPW53504   1.258   3.776   2.537
13200WAT      O53505   1.032   3.256   1.513
13200WAT     H153506   1.107   3.223   1.542
13200WAT     H253507   1.056   3.302   1.443
13200WAT    EPW53508   1.047   3.258   1.507
13201WAT      O53509   0.471   4.631   1.991
13201WAT     H153510   0.434   4.710   1.993
13201WAT     H253511   0.473   4.611   1.906
13201WAT    EPW53512   0.466   4.640   1.979
13202WAT      O53513   0.730   3.521   1.984
13202WAT     H153514   0.759   3.489   2.059
13202WAT     H253515   0.666   3.466   1.961
13202WAT    EPW53516   0.725   3.508   1.992
13203WAT      O53517   1.013   4.686   2.635
13203WAT     H153518   0.973   4.764   2.640
13203WAT     H253519   1.012   4.669   2.549
13203WAT    EPW53520   1.007   4.695   2.623
13204WAT      O53521   0.852   3.700   2.262
13204WAT     H153522   0.783   3.727   2.308
13204WAT     H253523   0.853   3.753   2.193
13204WAT    EPW53524   0.842   3.712   2.259
13205WAT      O53525   0.319   4.761   2.268
13205WAT     H153526   0.289   4.684   2.239
13205WAT     H253527   0.336   4.806   2.195
13205WAT    EPW53528   0.317   4.756   2.253
13206WAT      O53529   0.419   3.261   2.595
13206WAT     H153530   0.416   3.177   2.571
13206WAT     H253531   0.428   3.257   2.682
13206WAT    EPW53532   0.420   3.248   2.604
13207WAT      O53533   0.724   3.476   1.565
13207WAT     H153534   0.775   3.540   1.594
13207WAT     H253535   0.644   3.508   1.575
13207WAT    EPW53536   0.720   3.490   1.571
13208WAT      O53537   0.737   4.266   2.842
13208WAT     H153538   0.779   4.340   2.826
13208WAT     H253539   0.774   4.209   2.787
13208WAT    EPW53540   0.748   4.268   2.831
13209WAT      O53541   0.243   3.587   2.189
13209WAT     H153542   0.303   3.650   2.198
13209WAT     H253543   0.272   3.524   2.242
13209WAT    EPW53544   0.256   3.587   2.198
13210WAT      O53545   0.469   3.941   1.361
13210WAT     H153546   0.496   4.021   1.343
13210WAT     H253547   0.446   3.945   1.445
13210WAT    EPW53548   0.469   3.953   1.371
13211WAT      O53549   1.051   4.220   1.864
13211WAT     H153550   1.054   4.170   1.935
13211WAT     H253551   1.021   4.167   1.802
13211WAT    EPW53552   1.047   4.205   1.865
13212WAT      O53553   0.661   4.653   2.197
13212WAT     H153554   0.603   4.633   2.136
13212WAT     H253555   0.698   4.727   2.168
13212WAT    EPW53556   0.658   4.661   2.184
13213WAT      O53557   0.639   4.283   2.170
13213WAT     H153558   0.566   4.313   2.208
13213WAT     H253559   0.674   4.231   2.231
13213WAT    EPW53560   0.633   4.280   2.185
13214WAT      O53561   0.181   4.795   1.368
13214WAT     H153562   0.236   4.810   1.434
13214WAT     H253563   0.201   4.857   1.310
13214WAT    EPW53564   0.192   4.806   1.369
13215WAT      O53565   0.831   4.092   2.650
13215WAT     H153566   0.799   4.128   2.578
13215WAT     H253567   0.916   4.111   2.647
13215WAT    EPW53568   0.839   4.100   2.639
13216WAT      O53569   0.583   4.725   3.068
13216WAT     H153570   0.600   4.747   3.151
13216WAT     H253571   0.617   4.791   3.022
13216WAT    EPW53572   0.590   4.738   3.074
13217WAT      O53573   0.977   3.219   2.926
13217WAT     H153574   0.952   3.177   2.855
13217WAT     H253575   0.977   3.158   2.988
13217WAT    EPW53576   0.974   3.204   2.925
13218WAT      O53577   0.479   4.102   2.499
13218WAT     H153578   0.443   4.164   2.549
13218WAT     H253579   0.504   4.041   2.556
13218WAT    EPW53580   0.478   4.102   2.515
13219WAT      O53581   0.447   3.950   1.643
13219WAT     H153582   0.428   4.018   1.695
13219WAT     H253583   0.410   3.882   1.684
13219WAT    EPW53584   0.439   3.950   1.657
13220WAT      O53585   0.891   4.415   2.196
13220WAT     H153586   0.914   4.439   2.115
13220WAT     H253587   0.810   4.384   2.187
13220WAT    EPW53588   0.883   4.414   2.183
13221WAT      O53589   0.263   4.225   2.057
13221WAT     H153590   0.179   4.204   2.051
13221WAT     H253591   0.293   4.175   2.122
13221WAT    EPW53592   0.255   4.214   2.066
13222WAT      O53593   1.215   4.801   1.402
13222WAT     H153594   1.285   4.752   1.385
13222WAT     H253595   1.163   4.747   1.448
13222WAT    EPW53596   1.217   4.785   1.406
13223WAT      O53597   0.969   4.050   2.356
13223WAT     H153598   0.969   3.979   2.406
13223WAT     H253599   0.890   4.085   2.369
13223WAT    EPW53600   0.958   4.045   2.365
13224WAT      O53601   1.074   4.057   2.094
13224WAT     H153602   1.045   4.061   2.176
13224WAT     H253603   1.161   4.053   2.104
13224WAT    EPW53604   1.082   4.057   2.108
13225WAT      O53605   0.845   3.465   2.893
13225WAT     H153606   0.768   3.460   2.933
13225WAT     H253607   0.879   3.386   2.903
13225WAT    EPW53608   0.839   3.453   2.900
13226WAT      O53609   1.205   4.564   2.168
13226WAT     H153610   1.240   4.614   2.106
13226WAT     H253611   1.266   4.560   2.230
13226WAT    EPW53612   1.219   4.570   2.168
13227WAT      O53613   0.708   3.790   2.983
13227WAT     H153614   0.736   3.806   3.065
13227WAT     H253615   0.635   3.837   2.977
13227WAT    EPW53616   0.701   3.799   2.994
13228WAT      O53617   0.926   3.854   2.824
13228WAT     H153618   0.937   3.938   2.845
13228WAT     H253619   0.858   3.829   2.873
13228WAT    EPW53620   0.918   3.863   2.834
13229WAT      O53621   0.876   4.478   1.403
13229WAT     H153622   0.908   4.397   1.413
13229WAT     H253623   0.798   4.474   1.442
13229WAT    EPW53624   0.869   4.465   1.410
13230WAT      O53625   0.977   3.617   1.900
13230WAT     H153626   0.907   3.571   1.925
13230WAT     H253627   0.970   3.692   1.945
13230WAT    EPW53628   0.966   3.622   1.910
13231WAT      O53629   1.209   3.946   3.012
13231WAT     H153630   1.215   3.886   2.949
13231WAT     H253631   1.286   3.988   3.008
13231WAT    EPW53632   1.221   3.944   3.002
13232WAT      O53633   1.093   4.192   2.650
13232WAT     H153634   1.163   4.147   2.623
13232WAT     H253635   1.085   4.254   2.589
13232WAT    EPW53636   1.102   4.195   2.637
13233WAT      O53637   0.540   4.189   1.251
13233WAT     H153638   0.627   4.190   1.243
13233WAT     H253639   0.511   4.199   1.170
13233WAT    EPW53640   0.548   4.191   1.238
13234WAT      O53641   0.824   3.321   2.548
13234WAT     H153642   0.880   3.386   2.562
13234WAT     H253643   0.747   3.363   2.542
13234WAT    EPW53644   0.821   3.337   2.549
13235WAT      O53645   0.330   4.043   2.266
13235WAT     H153646   0.380   4.075   2.330
13235WAT     H253647   0.258   4.017   2.309
13235WAT    EPW53648   0.327   4.044   2.282
13236WAT      O53649   0.350   4.883   2.002
13236WAT     H153650   0.393   4.920   1.936
13236WAT     H253651   0.276   4.930   2.006
13236WAT    EPW53652   0.346   4.895   1.993
13237WAT      O53653   0.876   3.112   2.370
13237WAT     H153654   0.855   3.186   2.409
13237WAT     H253655   0.961   3.103   2.388
13237WAT    EPW53656   0.886   3.122   2.378
13238WAT      O53657   0.477   4.186   2.878
13238WAT     H153658   0.558   4.214   2.862
13238WAT     H253659   0.429   4.227   2.817
13238WAT    EPW53660   0.482   4.196   2.866
13239WAT      O53661   0.861   4.514   2.797
13239WAT     H153662   0.893   4.540   2.874
13239WAT     H253663   0.909   4.559   2.739
13239WAT    EPW53664   0.873   4.525   2.800
13240WAT      O53665   1.057   3.788   1.280
13240WAT     H153666   1.102   3.847   1.234
13240WAT     H253667   0.979   3.825   1.291
13240WAT    EPW53668   1.052   3.802   1.275
13241WAT      O53669   0.577   3.648   2.775
13241WAT     H153670   0.500   3.641   2.816
13241WAT     H253671   0.634   3.660   2.840
13241WAT    EPW53672   0.574   3.649   2.791
13242WAT      O53673   0.614   3.730   2.408
13242WAT     H153674   0.617   3.783   2.477
13242WAT     H253675   0.605   3.651   2.443
13242WAT    EPW53676   0.613   3.726   2.423
13243WAT      O53677   0.264   4.714   2.878
13243WAT     H153678   0.289   4.675   2.804
13243WAT     H253679   0.279   4.655   2.940
13243WAT    EPW53680   0.270   4.700   2.876
13244WAT      O53681   0.857   3.698   1.665
13244WAT     H153682   0.889   3.670   1.742
13244WAT     H253683   0.927   3.731   1.625
13244WAT    EPW53684   0.872   3.699   1.671
13245WAT      O53685   0.972   3.254   1.793
13245WAT     H153686   0.896   3.216   1.811
13245WAT     H253687   0.968   3.271   1.708
13245WAT    EPW53688   0.960   3.251   1.783
13246WAT      O53689   0.974   4.073   1.634
13246WAT     H153690   1.020   4.001   1.617
13246WAT     H253691   0.891   4.048   1.625
13246WAT    EPW53692   0.968   4.059   1.630
13247WAT      O53693   0.347   4.303   2.657
13247WAT     H153694   0.262   4.297   2.639
13247WAT     H253695   0.363   4.388   2.648
13247WAT    EPW53696   0.337   4.315   2.653
13248WAT      O53697   0.660   4.254   1.898
13248WAT     H153698   0.647   4.267   1.984
13248WAT     H253699   0.686   4.171   1.893
13248WAT    EPW53700   0.662   4.244   1.910
13249WAT      O53701   0.406   4.175   1.814
13249WAT     H153702   0.360   4.185   1.888
13249WAT     H253703   0.485   4.206   1.835
13249WAT    EPW53704   0.410   4.181   1.828
13250WAT      O53705   0.382   4.587   2.652
13250WAT     H153706   0.456   4.592   2.697
13250WAT     H253707   0.383   4.659   2.603
13250WAT    EPW53708   0.393   4.598   2.651
13251WAT      O53709   1.187   3.758   2.812
13251WAT     H153710   1.101   3.772   2.813
13251WAT     H253711   1.210   3.776   2.729
13251WAT    EPW53712   1.178   3.763   2.800
13252WAT      O53713   0.613   3.894   2.636
13252WAT     H153714   0.605   3.826   2.689
13252WAT     H253715   0.691   3.928   2.657
13252WAT    EPW53716   0.623   3.889   2.647
13253WAT      O53717   0.460   3.922   2.968
13253WAT     H153718   0.462   4.001   2.931
13253WAT     H253719   0.450   3.939   3.053
13253WAT    EPW53720   0.459   3.936   2.975
13254WAT      O53721   0.741   4.913   2.128
13254WAT     H153722   0.678   4.969   2.152
13254WAT     H253723   0.803   4.924   2.189
13254WAT    EPW53724   0.741   4.923   2.141
13255WAT      O53725   0.433   4.367   2.334
13255WAT     H153726   0.382   4.421   2.289
13255WAT     H253727   0.485   4.421   2.380
13255WAT    EPW53728   0.433   4.383   2.334
13256WAT      O53729   0.961   4.600   3.042
13256WAT     H153730   1.045   4.577   3.050
13256WAT     H253731   0.923   4.566   3.113
13256WAT    EPW53732   0.968   4.592   3.054
13257WAT      O53733   1.073   3.825   1.557
13257WAT     H153734   1.080   3.815   1.471
13257WAT     H253735   1.145   3.786   1.588
13257WAT    EPW53736   1.085   3.818   1.549
13258WAT      O53737   0.445   4.594   1.717
13258WAT     H153738   0.410   4.658   1.671
13258WAT     H253739   0.390   4.527   1.705
13258WAT    EPW53740   0.432   4.593   1.709
13259WAT      O53741   0.953   3.821   2.542
13259WAT     H153742   0.951   3.734   2.546
13259WAT     H253743   0.939   3.845   2.624
13259WAT    EPW53744   0.950   3.812   2.554
13260WAT      O53745   0.472   3.240   2.874
13260WAT     H153746   0.506   3.305   2.922
13260WAT     H253747   0.410   3.207   2.925
13260WAT    EPW53748   0.468   3.245   2.888
13261WAT      O53749   0.508   3.357   1.953
13261WAT     H153750   0.432   3.400   1.945
13261WAT     H253751   0.500   3.292   1.897
13261WAT    EPW53752   0.496   3.354   1.944
13262WAT      O53753   0.818   3.428   2.230
13262WAT     H153754   0.895   3.395   2.252
13262WAT     H253755   0.824   3.512   2.253
13262WAT    EPW53756   0.830   3.435   2.237
13263WAT      O53757   0.904   3.851   2.032
13263WAT     H153758   0.964   3.912   2.050
13263WAT     H253759   0.845   3.894   1.984
13263WAT    EPW53760   0.904   3.866   2.028
13264WAT      O53761   0.899   4.691   1.780
13264WAT     H153762   0.892   4.615   1.822
13264WAT     H253763   0.935   4.669   1.704
13264WAT    EPW53764   0.903   4.676   1.775
13265WAT      O53765   1.125   3.163   2.500
13265WAT     H153766   1.092   3.146   2.579
13265WAT     H253767   1.209   3.141   2.508
13265WAT    EPW53768   1.133   3.158   2.513
13266WAT      O53769   0.352   3.377   2.341
13266WAT     H153770   0.353   3.344   2.422
13266WAT     H253771   0.422   3.342   2.304
13266WAT    EPW53772   0.362   3.367   2.348
13267WAT      O53773   0.679   4.481   2.426
13267WAT     H153774   0.691   4.548   2.481
13267WAT     H253775   0.688   4.518   2.348
13267WAT    EPW53776   0.682   4.496   2.423
13268WAT      O53777   0.674   4.888   2.849
13268WAT     H153778   0.637   4.818   2.811
13268WAT     H253779   0.610   4.948   2.847
13268WAT    EPW53780   0.659   4.886   2.843
13269WAT      O53781   1.084   4.313   2.390
13269WAT     H153782   1.069   4.229   2.374
13269WAT     H253783   1.033   4.355   2.333
13269WAT    EPW53784   1.074   4.307   2.379
13270WAT      O53785   0.997   4.632   2.355
13270WAT     H153786   1.066   4.628   2.302
13270WAT     H253787   0.939   4.577   2.319
13270WAT    EPW53788   0.999   4.623   2.342
13271WAT      O53789   0.578   3.278   2.210
13271WAT     H153790   0.649   3.326   2.227
13271WAT     H253791   0.553   3.305   2.131
13271WAT    EPW53792   0.585   3.289   2.200
13272WAT      O53793   0.572   3.753   1.957
13272WAT     H153794   0.625   3.685   1.970
13272WAT     H253795   0.532   3.762   2.034
13272WAT    EPW53796   0.574   3.744   1.970
13273WAT      O53797   0.725   3.933   1.604
13273WAT     H153798   0.748   3.852   1.623
13273WAT     H253799   0.638   3.931   1.608
13273WAT    EPW53800   0.715   3.921   1.607
13274WAT      O53801   1.028   4.840   1.200
13274WAT     H153802   1.093   4.833   1.258
13274WAT     H253803   1.004   4.757   1.185
13274WAT    EPW53804   1.034   4.827   1.206
13275WAT      O53805   1.009   4.109   2.910
13275WAT     H153806   1.077   4.069   2.947
13275WAT     H253807   1.043   4.149   2.841
13275WAT    EPW53808   1.024   4.109   2.905
13276WAT      O53809   0.627   4.512   1.519
13276WAT     H153810   0.592   4.530   1.597
13276WAT     H253811   0.563   4.468   1.478
13276WAT    EPW53812   0.612   4.508   1.525
13277WAT      O53813   1.063   3.548   3.044
13277WAT     H153814   1.053   3.628   3.077
13277WAT     H253815   0.990   3.535   2.998
13277WAT    EPW53816   1.051   3.558   3.042
13278WAT      O53817   1.124   3.663   2.319
13278WAT     H153818   1.040   3.684   2.306
13278WAT     H253819   1.122   3.576   2.326
13278WAT    EPW53820   1.111   3.653   2.318
13279WAT      O53821   0.810   4.144   3.121
13279WAT     H153822   0.868   4.181   3.175
13279WAT     H253823   0.845   4.155   3.042
13279WAT    EPW53824   0.824   4.151   3.117
13280WAT      O53825   0.411   4.382   1.403
13280WAT     H153826   0.446   4.321   1.353
13280WAT     H253827   0.368   4.434   1.346
13280WAT    EPW53828   0.409   4.381   1.387
13281WAT      O53829   0.449   3.773   0.307
13281WAT     H153830   0.421   3.855   0.320
13281WAT     H253831   0.502   3.759   0.375
13281WAT    EPW53832   0.453   3.783   0.319
13282WAT      O53833   0.336   3.676   1.046
13282WAT     H153834   0.253   3.674   1.017
13282WAT     H253835   0.355   3.761   1.047
13282WAT    EPW53836   0.326   3.688   1.042
13283WAT      O53837   0.812   3.062   0.835
13283WAT     H153838   0.805   3.141   0.799
13283WAT     H253839   0.739   3.053   0.881
13283WAT    EPW53840   0.800   3.072   0.836
13284WAT      O53841   0.681   4.768   0.629
13284WAT     H153842   0.737   4.811   0.679
13284WAT     H253843   0.711   4.781   0.548
13284WAT    EPW53844   0.694   4.776   0.624
13285WAT      O53845   0.222   3.118   1.139
13285WAT     H153846   0.223   3.044   1.093
13285WAT     H253847   0.141   3.149   1.126
13285WAT    EPW53848   0.210   3.111   1.130
13286WAT      O53849   1.149   3.373   0.480
13286WAT     H153850   1.210   3.334   0.430
13286WAT     H253851   1.150   3.326   0.554
13286WAT    EPW53852   1.158   3.360   0.484
13287WAT      O53853   0.575   4.544   0.945
13287WAT     H153854   0.571   4.584   1.023
13287WAT     H253855   0.660   4.528   0.935
13287WAT    EPW53856   0.587   4.548   0.955
13288WAT      O53857   0.420   4.828   0.675
13288WAT     H153858   0.504   4.813   0.657
13288WAT     H253859   0.379   4.804   0.602
13288WAT    EPW53860   0.427   4.822   0.661
13289WAT      O53861   0.584   3.480   0.666
13289WAT     H153862   0.569   3.530   0.735
13289WAT     H253863   0.523   3.418   0.671
13289WAT    EPW53864   0.573   3.478   0.677
13290WAT      O53865   0.677   4.252   0.536
13290WAT     H153866   0.606   4.204   0.554
13290WAT     H253867   0.654   4.332   0.560
13290WAT    EPW53868   0.663   4.257   0.542
13291WAT      O53869   0.996   3.527   0.786
13291WAT     H153870   1.079   3.505   0.801
13291WAT     H253871   0.965   3.545   0.866
13291WAT    EPW53872   1.003   3.526   0.800
13292WAT      O53873   1.248   4.667   0.918
13292WAT     H153874   1.170   4.673   0.879
13292WAT     H253875   1.231   4.622   0.991
13292WAT    EPW53876   1.234   4.661   0.923
13293WAT      O53877   1.259   3.776   0.656
13293WAT     H153878   1.318   3.712   0.654
13293WAT     H253879   1.199   3.750   0.597
13293WAT    EPW53880   1.259   3.763   0.647
13294WAT      O53881   0.994   4.683   0.788
13294WAT     H153882   0.946   4.755   0.797
13294WAT     H253883   0.984   4.661   0.704
13294WAT    EPW53884   0.986   4.690   0.777
13295WAT      O53885   0.840   3.658   0.371
13295WAT     H153886   0.776   3.680   0.426
13295WAT     H253887   0.800   3.650   0.294
13295WAT    EPW53888   0.825   3.660   0.368
13296WAT      O53889   0.325   4.709   0.443
13296WAT     H153890   0.293   4.629   0.456
13296WAT     H253891   0.391   4.696   0.387
13296WAT    EPW53892   0.330   4.695   0.437
13297WAT      O53893   0.406   3.263   0.706
13297WAT     H153894   0.409   3.176   0.695
13297WAT     H253895   0.394   3.273   0.792
13297WAT    EPW53896   0.404   3.251   0.717
13298WAT      O53897   0.726   4.238   0.939
13298WAT     H153898   0.768   4.313   0.933
13298WAT     H253899   0.763   4.188   0.877
13298WAT    EPW53900   0.737   4.241   0.929
13299WAT      O53901   0.261   3.581   0.393
13299WAT     H153902   0.317   3.637   0.356
13299WAT     H253903   0.308   3.508   0.400
13299WAT    EPW53904   0.277   3.579   0.388
13300WAT      O53905   0.560   4.618   0.310
13300WAT     H153906   0.591   4.546   0.272
13300WAT     H253907   0.628   4.674   0.308
13300WAT    EPW53908   0.575   4.616   0.304
13301WAT      O53909   0.629   4.346   0.267
13301WAT     H153910   0.547   4.325   0.246
13301WAT     H253911   0.641   4.306   0.344
13301WAT    EPW53912   0.619   4.337   0.276
13302WAT      O53913   0.818   4.087   0.724
13302WAT     H153914   0.786   4.135   0.658
13302WAT     H253915   0.904   4.098   0.719
13302WAT    EPW53916   0.826   4.096   0.714
13303WAT      O53917   0.531   4.708   1.168
13303WAT     H153918   0.567   4.738   1.242
13303WAT     H253919   0.541   4.774   1.112
13303WAT    EPW53920   0.538   4.722   1.171
13304WAT      O53921   1.051   3.122   0.959
13304WAT     H153922   0.972   3.111   0.925
13304WAT     H253923   1.047   3.078   1.035
13304WAT    EPW53924   1.039   3.114   0.965
13305WAT      O53925   0.450   4.114   0.623
13305WAT     H153926   0.409   4.161   0.683
13305WAT     H253927   0.486   4.048   0.669
13305WAT    EPW53928   0.449   4.111   0.639
13306WAT      O53929   0.896   4.361   0.393
13306WAT     H153930   0.852   4.373   0.319
13306WAT     H253931   0.841   4.314   0.442
13306WAT    EPW53932   0.881   4.356   0.389
13307WAT      O53933   0.362   4.278   0.271
13307WAT     H153934   0.337   4.325   0.340
13307WAT     H253935   0.347   4.196   0.296
13307WAT    EPW53936   0.356   4.273   0.285
13308WAT      O53937   0.950   3.937   0.444
13308WAT     H153938   0.947   3.900   0.523
13308WAT     H253939   0.902   3.883   0.395
13308WAT    EPW53940   0.942   3.923   0.448
13309WAT      O53941   1.178   4.055   0.342
13309WAT     H153942   1.107   4.019   0.379
13309WAT     H253943   1.151   4.074   0.261
13309WAT    EPW53944   1.163   4.053   0.335
13310WAT      O53945   0.766   3.500   0.989
13310WAT     H153946   0.705   3.474   1.046
13310WAT     H253947   0.767   3.437   0.929
13310WAT    EPW53948   0.757   3.487   0.989
13311WAT      O53949   1.181   4.669   0.385
13311WAT     H153950   1.222   4.688   0.311
13311WAT     H253951   1.237   4.619   0.428
13311WAT    EPW53952   1.195   4.664   0.381
13312WAT      O53953   0.698   3.806   1.099
13312WAT     H153954   0.721   3.829   1.180
13312WAT     H253955   0.621   3.845   1.088
13312WAT    EPW53956   0.690   3.815   1.110
13313WAT      O53957   0.920   3.850   0.943
13313WAT     H153958   0.935   3.934   0.959
13313WAT     H253959   0.849   3.832   0.990
13313WAT    EPW53960   0.912   3.860   0.952
13314WAT      O53961   1.207   3.955   1.118
13314WAT     H153962   1.217   3.895   1.055
13314WAT     H253963   1.286   3.993   1.122
13314WAT    EPW53964   1.220   3.952   1.109
13315WAT      O53965   1.090   4.158   0.732
13315WAT     H153966   1.162   4.109   0.720
13315WAT     H253967   1.096   4.219   0.670
13315WAT    EPW53968   1.102   4.160   0.721
13316WAT      O53969   0.797   3.331   0.767
13316WAT     H153970   0.867   3.380   0.751
13316WAT     H253971   0.734   3.370   0.720
13316WAT    EPW53972   0.798   3.344   0.757
13317WAT      O53973   0.334   4.021   0.388
13317WAT     H153974   0.370   4.046   0.463
13317WAT     H253975   0.258   3.986   0.412
13317WAT    EPW53976   0.328   4.020   0.402
13318WAT      O53977   0.917   3.111   0.540
13318WAT     H153978   0.887   3.191   0.523
13318WAT     H253979   0.991   3.125   0.584
13318WAT    EPW53980   0.923   3.125   0.544
13319WAT      O53981   0.461   4.187   0.982
13319WAT     H153982   0.543   4.209   0.961
13319WAT     H253983   0.413   4.237   0.929
13319WAT    EPW53984   0.466   4.198   0.971
13320WAT      O53985   0.847   4.491   0.928
13320WAT     H153986   0.881   4.512   1.005
13320WAT     H253987   0.890   4.543   0.872
13320WAT    EPW53988   0.859   4.502   0.931
13321WAT      O53989   0.559   3.659   0.873
13321WAT     H153990   0.490   3.654   0.926
13321WAT     H253991   0.626   3.638   0.924
13321WAT    EPW53992   0.558   3.655   0.888
13322WAT      O53993   0.618   3.717   0.520
13322WAT     H153994   0.616   3.776   0.584
13322WAT     H253995   0.600   3.642   0.560
13322WAT    EPW53996   0.615   3.715   0.535
13323WAT      O53997   0.217   4.721   1.011
13323WAT     H153998   0.248   4.680   0.940
13323WAT     H253999   0.229   4.663   1.075
13323WAT    EPW54000   0.223   4.706   1.010
13324WAT      O54001   0.297   4.313   0.780
13324WAT     H154002   0.214   4.304   0.806
13324WAT     H254003   0.313   4.398   0.791
13324WAT    EPW54004   0.287   4.324   0.785
13325WAT      O54005   0.347   4.585   0.805
13325WAT     H154006   0.423   4.572   0.846
13325WAT     H254007   0.364   4.652   0.751
13325WAT    EPW54008   0.361   4.593   0.803
13326WAT      O54009   1.188   3.761   0.922
13326WAT     H154010   1.102   3.771   0.928
13326WAT     H254011   1.205   3.776   0.838
13326WAT    EPW54012   1.178   3.765   0.911
13327WAT      O54013   0.597   3.902   0.731
13327WAT     H154014   0.592   3.838   0.789
13327WAT     H254015   0.676   3.937   0.744
13327WAT    EPW54016   0.608   3.898   0.741
13328WAT      O54017   0.442   3.926   1.079
13328WAT     H154018   0.444   4.004   1.041
13328WAT     H254019   0.436   3.944   1.164
13328WAT    EPW54020   0.441   3.940   1.086
13329WAT      O54021   0.752   4.813   0.358
13329WAT     H154022   0.715   4.891   0.346
13329WAT     H254023   0.829   4.832   0.394
13329WAT    EPW54024   0.758   4.827   0.361
13330WAT      O54025   0.322   4.426   0.511
13330WAT     H154026   0.294   4.385   0.582
13330WAT     H254027   0.402   4.453   0.534
13330WAT    EPW54028   0.330   4.424   0.525
13331WAT      O54029   0.967   4.575   1.162
13331WAT     H154030   1.050   4.550   1.167
13331WAT     H254031   0.931   4.542   1.235
13331WAT    EPW54032   0.974   4.566   1.174
13332WAT      O54033   0.928   3.779   0.675
13332WAT     H154034   0.950   3.696   0.690
13332WAT     H254035   0.918   3.813   0.754
13332WAT    EPW54036   0.930   3.772   0.689
13333WAT      O54037   0.409   3.269   0.992
13333WAT     H154038   0.450   3.326   1.045
13333WAT     H254039   0.349   3.232   1.044
13333WAT    EPW54040   0.406   3.272   1.008
13334WAT      O54041   0.870   3.382   0.443
13334WAT     H154042   0.957   3.377   0.443
13334WAT     H254043   0.855   3.467   0.428
13334WAT    EPW54044   0.880   3.394   0.441
13335WAT      O54045   1.140   3.188   0.691
13335WAT     H154046   1.121   3.168   0.774
13335WAT     H254047   1.210   3.140   0.674
13335WAT    EPW54048   1.147   3.178   0.701
13336WAT      O54049   0.392   3.328   0.429
13336WAT     H154050   0.337   3.271   0.392
13336WAT     H254051   0.385   3.311   0.514
13336WAT    EPW54052   0.383   3.317   0.436
13337WAT      O54053   0.586   4.511   0.561
13337WAT     H154054   0.623   4.575   0.607
13337WAT     H254055   0.582   4.544   0.481
13337WAT    EPW54056   0.591   4.525   0.556
13338WAT      O54057   0.556   4.885   0.950
13338WAT     H154058   0.509   4.848   0.887
13338WAT     H254059   0.516   4.962   0.964
13338WAT    EPW54060   0.543   4.891   0.943
13339WAT      O54061   1.147   4.291   0.489
13339WAT     H154062   1.164   4.218   0.446
13339WAT     H254063   1.073   4.320   0.453
13339WAT    EPW54064   1.139   4.285   0.477
13340WAT      O54065   0.952   4.605   0.526
13340WAT     H154066   1.018   4.636   0.479
13340WAT     H254067   0.928   4.533   0.484
13340WAT    EPW54068   0.958   4.599   0.513
13341WAT      O54069   0.647   3.228   0.353
13341WAT     H154070   0.710   3.284   0.377
13341WAT     H254071   0.574   3.269   0.375
13341WAT    EPW54072   0.646   3.242   0.359
13342WAT      O54073   1.006   4.108   1.002
13342WAT     H154074   1.077   4.075   1.042
13342WAT     H254075   1.038   4.140   0.927
13342WAT    EPW54076   1.021   4.108   0.997
13343WAT      O54077   1.007   3.559   1.113
13343WAT     H154078   1.008   3.636   1.154
13343WAT     H254079   0.923   3.549   1.090
13343WAT    EPW54080   0.995   3.569   1.116
13344WAT      O54081   1.116   3.650   0.448
13344WAT     H154082   1.031   3.657   0.429
13344WAT     H254083   1.127   3.564   0.459
13344WAT    EPW54084   1.105   3.638   0.447
13345WAT      O54085   0.816   4.160   1.224
13345WAT     H154086   0.883   4.190   1.271
13345WAT     H254087   0.845   4.164   1.142
13345WAT    EPW54088   0.830   4.165   1.219
13346WAT      O54089   0.468   1.298   7.420
13346WAT     H154090   0.458   1.346   7.348
13346WAT     H254091   0.554   1.285   7.424
13346WAT    EPW54092   0.480   1.303   7.410
13347WAT      O54093   1.043   2.795   7.192
13347WAT     H154094   1.106   2.738   7.213
13347WAT     H254095   0.986   2.747   7.148
13347WAT    EPW54096   1.044   2.780   7.189
13348WAT      O54097   0.693   2.132   7.557
13348WAT     H154098   0.705   2.118   7.471
13348WAT     H254099   0.641   2.066   7.581
13348WAT    EPW54100   0.687   2.120   7.548
13349WAT      O54101   0.163   2.607   7.731
13349WAT     H154102   0.189   2.528   7.704
13349WAT     H254103   0.231   2.658   7.712
13349WAT    EPW54104   0.177   2.603   7.724
13350WAT      O54105   0.266   2.523   7.313
13350WAT     H154106   0.297   2.450   7.350
13350WAT     H254107   0.299   2.521   7.232
13350WAT    EPW54108   0.276   2.512   7.306
13351WAT      O54109   0.608   1.590   6.830
13351WAT     H154110   0.575   1.661   6.870
13351WAT     H254111   0.634   1.540   6.897
13351WAT    EPW54112   0.607   1.593   6.846
13352WAT      O54113   0.620   2.921   7.118
13352WAT     H154114   0.696   2.963   7.128
13352WAT     H254115   0.636   2.841   7.149
13352WAT    EPW54116   0.633   2.916   7.124
13353WAT      O54117   0.380   2.968   7.245
13353WAT     H154118   0.400   3.020   7.313
13353WAT     H254119   0.457   2.957   7.205
13353WAT    EPW54120   0.395   2.974   7.249
13354WAT      O54121   1.153   1.591   7.548
13354WAT     H154122   1.107   1.661   7.572
13354WAT     H254123   1.091   1.533   7.527
13354WAT    EPW54124   1.137   1.593   7.548
13355WAT      O54125   0.355   1.852   7.437
13355WAT     H154126   0.387   1.799   7.374
13355WAT     H254127   0.421   1.859   7.493
13355WAT    EPW54128   0.370   1.845   7.436
13356WAT      O54129   0.466   1.802   6.964
13356WAT     H154130   0.478   1.886   6.981
13356WAT     H254131   0.413   1.802   6.894
13356WAT    EPW54132   0.460   1.814   6.956
13357WAT      O54133   0.849   3.078   7.103
13357WAT     H154134   0.895   3.053   7.033
13357WAT     H254135   0.905   3.126   7.149
13357WAT    EPW54136   0.864   3.081   7.099
13358WAT      O54137   0.331   2.735   6.886
13358WAT     H154138   0.284   2.791   6.934
13358WAT     H254139   0.408   2.776   6.878
13358WAT    EPW54140   0.336   2.750   6.892
13359WAT      O54141   0.675   1.437   7.051
13359WAT     H154142   0.729   1.369   7.058
13359WAT     H254143   0.704   1.493   7.112
13359WAT    EPW54144   0.687   1.436   7.061
13360WAT      O54145   0.448   1.697   7.225
13360WAT     H154146   0.426   1.614   7.214
13360WAT     H254147   0.448   1.729   7.144
13360WAT    EPW54148   0.445   1.690   7.211
13361WAT      O54149   0.428   1.421   7.173
13361WAT     H154150   0.374   1.380   7.119
13361WAT     H254151   0.505   1.419   7.131
13361WAT    EPW54152   0.432   1.415   7.159
13362WAT      O54153   1.103   3.004   7.489
13362WAT     H154154   1.064   3.081   7.500
13362WAT     H254155   1.037   2.950   7.470
13362WAT    EPW54156   1.088   3.007   7.488
13363WAT      O54157   0.237   1.646   7.582
13363WAT     H154158   0.259   1.716   7.535
13363WAT     H254159   0.150   1.651   7.586
13363WAT    EPW54160   0.228   1.657   7.576
13364WAT      O54161   0.833   2.591   7.483
13364WAT     H154162   0.901   2.537   7.487
13364WAT     H254163   0.764   2.539   7.497
13364WAT    EPW54164   0.833   2.575   7.486
13365WAT      O54165   0.733   1.244   7.473
13365WAT     H154166   0.722   1.229   7.558
13365WAT     H254167   0.774   1.172   7.445
13365WAT    EPW54168   0.737   1.231   7.481
13366WAT      O54169   0.997   2.396   7.078
13366WAT     H154170   0.995   2.343   7.147
13366WAT     H254171   1.082   2.402   7.059
13366WAT    EPW54172   1.010   2.389   7.085
13367WAT      O54173   0.809   2.049   7.006
13367WAT     H154174   0.805   2.131   6.976
13367WAT     H254175   0.771   2.054   7.084
13367WAT    EPW54176   0.803   2.062   7.013
13368WAT      O54177   1.157   1.517   6.970
13368WAT     H154178   1.196   1.462   6.914
13368WAT     H254179   1.119   1.575   6.917
13368WAT    EPW54180   1.157   1.518   6.954
13369WAT      O54181   1.031   1.410   7.194
13369WAT     H154182   1.104   1.372   7.225
13369WAT     H254183   1.059   1.454   7.124
13369WAT    EPW54184   1.046   1.410   7.189
13370WAT      O54185   0.407   2.742   7.673
13370WAT     H154186   0.404   2.827   7.688
13370WAT     H254187   0.416   2.737   7.586
13370WAT    EPW54188   0.408   2.753   7.662
13371WAT      O54189   0.695   1.674   7.701
13371WAT     H154190   0.705   1.633   7.777
13371WAT     H254191   0.640   1.623   7.657
13371WAT    EPW54192   0.688   1.660   7.706
13372WAT      O54193   0.716   1.620   7.252
13372WAT     H154194   0.765   1.682   7.287
13372WAT     H254195   0.635   1.652   7.256
13372WAT    EPW54196   0.711   1.634   7.258
13373WAT      O54197   0.465   2.084   7.021
13373WAT     H154198   0.485   2.168   7.008
13373WAT     H254199   0.442   2.081   7.105
13373WAT    EPW54200   0.465   2.096   7.032
13374WAT      O54201   1.034   2.395   7.491
13374WAT     H154202   1.039   2.351   7.566
13374WAT     H254203   1.003   2.335   7.435
13374WAT    EPW54204   1.030   2.379   7.494
13375WAT      O54205   0.508   2.506   7.783
13375WAT     H154206   0.481   2.584   7.754
13375WAT     H254207   0.535   2.523   7.864
13375WAT    EPW54208   0.508   2.520   7.790
13376WAT      O54209   0.204   2.938   7.025
13376WAT     H154210   0.251   2.952   7.097
13376WAT     H254211   0.229   3.004   6.972
13376WAT    EPW54212   0.215   2.950   7.028
13377WAT      O54213   0.436   2.078   7.298
13377WAT     H154214   0.413   2.150   7.343
13377WAT     H254215   0.397   2.014   7.342
13377WAT    EPW54216   0.427   2.079   7.311
13378WAT      O54217   0.288   2.350   7.708
13378WAT     H154218   0.245   2.322   7.779
13378WAT     H254219   0.356   2.393   7.742
13378WAT    EPW54220   0.292   2.352   7.723
13379WAT      O54221   1.224   2.961   7.067
13379WAT     H154222   1.288   2.907   7.041
13379WAT     H254223   1.168   2.908   7.107
13379WAT    EPW54224   1.225   2.945   7.069
13380WAT      O54225   1.068   2.269   7.736
13380WAT     H154226   1.065   2.334   7.793
13380WAT     H254227   1.152   2.243   7.740
13380WAT    EPW54228   1.080   2.274   7.745
13381WAT      O54229   1.257   2.720   7.866
13381WAT     H154230   1.260   2.758   7.787
13381WAT     H254231   1.329   2.751   7.905
13381WAT    EPW54232   1.268   2.730   7.860
13382WAT      O54233   0.861   2.636   7.064
13382WAT     H154234   0.896   2.557   7.075
13382WAT     H254235   0.788   2.633   7.112
13382WAT    EPW54236   0.855   2.624   7.073
13383WAT      O54237   0.944   1.777   7.614
13383WAT     H154238   0.872   1.739   7.646
13383WAT     H254239   0.941   1.857   7.650
13383WAT    EPW54240   0.933   1.783   7.624
13384WAT      O54241   0.524   2.339   6.934
13384WAT     H154242   0.611   2.339   6.932
13384WAT     H254243   0.502   2.350   6.850
13384WAT    EPW54244   0.534   2.341   6.921
13385WAT      O54245   0.402   3.024   7.689
13385WAT     H154246   0.412   3.061   7.611
13385WAT     H254247   0.338   3.070   7.726
13385WAT    EPW54248   0.394   3.036   7.683
13386WAT      O54249   1.064   1.943   6.975
13386WAT     H154250   1.113   2.001   6.932
13386WAT     H254251   0.985   1.980   6.977
13386WAT    EPW54252   1.059   1.957   6.969
13387WAT      O54253   0.844   1.840   7.364
13387WAT     H154254   0.871   1.817   7.443
13387WAT     H254255   0.916   1.871   7.326
13387WAT    EPW54256   0.859   1.841   7.370
13388WAT      O54257   0.955   1.413   7.463
13388WAT     H154258   0.876   1.377   7.471
13388WAT     H254259   0.962   1.429   7.377
13388WAT    EPW54260   0.945   1.410   7.451
13389WAT      O54261   0.954   2.220   7.291
13389WAT     H154262   1.000   2.146   7.284
13389WAT     H254263   0.871   2.193   7.287
13389WAT    EPW54264   0.949   2.205   7.290
13390WAT      O54265   0.628   2.405   7.548
13390WAT     H154266   0.601   2.433   7.626
13390WAT     H254267   0.655   2.324   7.564
13390WAT    EPW54268   0.628   2.398   7.562
13391WAT      O54269   0.386   2.309   7.447
13391WAT     H154270   0.343   2.311   7.523
13391WAT     H254271   0.463   2.344   7.467
13391WAT    EPW54272   0.391   2.315   7.461
13392WAT      O54273   0.676   3.047   7.751
13392WAT     H154274   0.589   3.039   7.748
13392WAT     H254275   0.699   3.000   7.821
13392WAT    EPW54276   0.667   3.039   7.761
13393WAT      O54277   1.060   1.968   7.252
13393WAT     H154278   1.067   1.959   7.165
13393WAT     H254279   1.137   1.940   7.282
13393WAT    EPW54280   1.072   1.963   7.243
13394WAT      O54281   0.422   2.732   7.397
13394WAT     H154282   0.396   2.801   7.351
13394WAT     H254283   0.366   2.669   7.375
13394WAT    EPW54284   0.410   2.733   7.387
13395WAT      O54285   0.490   1.530   7.585
13395WAT     H154286   0.408   1.559   7.590
13395WAT     H254287   0.483   1.457   7.536
13395WAT    EPW54288   0.477   1.523   7.578
13396WAT      O54289   0.910   2.038   7.705
13396WAT     H154290   0.962   2.106   7.721
13396WAT     H254291   0.844   2.073   7.661
13396WAT    EPW54292   0.908   2.053   7.701
13397WAT      O54293   0.880   2.855   7.407
13397WAT     H154294   0.861   2.775   7.437
13397WAT     H254295   0.924   2.839   7.334
13397WAT    EPW54296   0.884   2.841   7.401
13398WAT      O54297   0.548   1.904   7.635
13398WAT     H154298   0.600   1.836   7.653
13398WAT     H254299   0.500   1.914   7.707
13398WAT    EPW54300   0.548   1.895   7.648
13399WAT      O54301   0.713   2.071   7.280
13399WAT     H154302   0.738   1.991   7.305
13399WAT     H254303   0.626   2.066   7.280
13399WAT    EPW54304   0.704   2.058   7.284
13400WAT      O54305   1.013   3.011   6.891
13400WAT     H154306   1.085   3.000   6.939
13400WAT     H254307   0.992   2.930   6.867
13400WAT    EPW54308   1.020   2.998   6.895
13401WAT      O54309   0.621   2.658   7.204
13401WAT     H154310   0.588   2.670   7.284
13401WAT     H254311   0.556   2.620   7.161
13401WAT    EPW54312   0.607   2.654   7.210
13402WAT      O54313   0.406   2.545   7.072
13402WAT     H154314   0.439   2.478   7.028
13402WAT     H254315   0.375   2.598   7.010
13402WAT    EPW54316   0.406   2.543   7.057
13403WAT      O54317   0.485   1.303   5.556
13403WAT     H154318   0.482   1.354   5.485
13403WAT     H254319   0.571   1.290   5.568
13403WAT    EPW54320   0.497   1.308   5.547
13404WAT      O54321   0.439   1.948   5.988
13404WAT     H154322   0.409   2.029   6.005
13404WAT     H254323   0.490   1.930   6.056
13404WAT    EPW54324   0.442   1.958   6.000
13405WAT      O54325   1.033   2.795   5.332
13405WAT     H154326   1.098   2.738   5.344
13405WAT     H254327   0.978   2.752   5.280
13405WAT    EPW54328   1.035   2.780   5.327
13406WAT      O54329   0.712   2.134   5.665
13406WAT     H154330   0.721   2.122   5.580
13406WAT     H254331   0.655   2.072   5.690
13406WAT    EPW54332   0.705   2.123   5.656
13407WAT      O54333   0.284   2.655   5.941
13407WAT     H154334   0.266   2.576   5.908
13407WAT     H254335   0.342   2.688   5.884
13407WAT    EPW54336   0.290   2.648   5.927
13408WAT      O54337   0.291   2.532   5.449
13408WAT     H154338   0.323   2.462   5.491
13408WAT     H254339   0.320   2.522   5.367
13408WAT    EPW54340   0.300   2.520   5.443
13409WAT      O54341   0.343   1.829   6.711
13409WAT     H154342   0.262   1.831   6.681
13409WAT     H254343   0.368   1.913   6.710
13409WAT    EPW54344   0.335   1.842   6.706
13410WAT      O54345   0.871   1.227   6.473
13410WAT     H154346   0.847   1.297   6.426
13410WAT     H254347   0.798   1.206   6.517
13410WAT    EPW54348   0.856   1.234   6.472
13411WAT      O54349   0.616   1.601   4.941
13411WAT     H154350   0.582   1.671   4.980
13411WAT     H254351   0.639   1.549   5.007
13411WAT    EPW54352   0.615   1.604   4.956
13412WAT      O54353   0.620   2.926   5.237
13412WAT     H154354   0.696   2.967   5.245
13412WAT     H254355   0.638   2.845   5.265
13412WAT    EPW54356   0.634   2.920   5.242
13413WAT      O54357   0.386   2.984   5.367
13413WAT     H154358   0.410   3.026   5.440
13413WAT     H254359   0.461   2.969   5.326
13413WAT    EPW54360   0.401   2.988   5.372
13414WAT      O54361   1.187   1.593   5.680
13414WAT     H154362   1.140   1.666   5.688
13414WAT     H254363   1.126   1.531   5.665
13414WAT    EPW54364   1.171   1.594   5.679
13415WAT      O54365   0.688   2.923   6.249
13415WAT     H154366   0.754   2.978   6.235
13415WAT     H254367   0.672   2.890   6.170
13415WAT    EPW54368   0.695   2.926   6.235
13416WAT      O54369   0.276   1.267   6.826
13416WAT     H154370   0.286   1.197   6.775
13416WAT     H254371   0.196   1.296   6.807
13416WAT    EPW54372   0.266   1.261   6.816
13417WAT      O54373   0.366   1.870   5.560
13417WAT     H154374   0.395   1.815   5.498
13417WAT     H254375   0.433   1.875   5.616
13417WAT    EPW54376   0.380   1.862   5.559
13418WAT      O54377   0.470   1.808   5.086
13418WAT     H154378   0.479   1.892   5.104
13418WAT     H254379   0.417   1.807   5.016
13418WAT    EPW54380   0.464   1.820   5.078
13419WAT      O54381   0.849   3.081   5.222
13419WAT     H154382   0.895   3.059   5.152
13419WAT     H254383   0.905   3.129   5.269
13419WAT    EPW54384   0.864   3.085   5.219
13420WAT      O54385   1.083   1.530   6.107
13420WAT     H154386   1.148   1.519   6.050
13420WAT     H254387   1.098   1.470   6.168
13420WAT    EPW54388   1.095   1.520   6.108
13421WAT      O54389   0.598   2.745   6.594
13421WAT     H154390   0.590   2.760   6.680
13421WAT     H254391   0.680   2.717   6.585
13421WAT    EPW54392   0.609   2.743   6.606
13422WAT      O54393   0.343   2.735   5.011
13422WAT     H154394   0.294   2.791   5.056
13422WAT     H254395   0.417   2.778   4.998
13422WAT    EPW54396   0.346   2.750   5.015
13423WAT      O54397   0.678   1.447   5.162
13423WAT     H154398   0.731   1.379   5.171
13423WAT     H254399   0.709   1.505   5.220
13423WAT    EPW54400   0.690   1.446   5.172
13424WAT      O54401   0.458   1.710   5.350
13424WAT     H154402   0.437   1.625   5.344
13424WAT     H254403   0.455   1.738   5.268
13424WAT    EPW54404   0.455   1.701   5.337
13425WAT      O54405   0.429   2.991   6.314
13425WAT     H154406   0.513   2.977   6.296
13425WAT     H254407   0.389   2.977   6.238
13425WAT    EPW54408   0.435   2.987   6.300
13426WAT      O54409   0.446   1.431   5.311
13426WAT     H154410   0.387   1.387   5.264
13426WAT     H254411   0.517   1.429   5.260
13426WAT    EPW54412   0.447   1.424   5.296
13427WAT      O54413   1.117   3.007   5.616
13427WAT     H154414   1.078   3.084   5.630
13427WAT     H254415   1.051   2.952   5.605
13427WAT    EPW54416   1.101   3.010   5.616
13428WAT      O54417   0.268   1.657   5.719
13428WAT     H154418   0.278   1.729   5.672
13428WAT     H254419   0.248   1.687   5.799
13428WAT    EPW54420   0.266   1.672   5.724
13429WAT      O54421   0.880   2.590   5.697
13429WAT     H154422   0.941   2.530   5.682
13429WAT     H254423   0.805   2.546   5.688
13429WAT    EPW54424   0.878   2.575   5.694
13430WAT      O54425   0.599   1.637   6.336
13430WAT     H154426   0.598   1.678   6.413
13430WAT     H254427   0.535   1.578   6.343
13430WAT    EPW54428   0.589   1.635   6.348
13431WAT      O54429   0.730   2.348   6.219
13431WAT     H154430   0.649   2.322   6.236
13431WAT     H254431   0.726   2.435   6.228
13431WAT    EPW54432   0.717   2.357   6.223
13432WAT      O54433   0.746   1.262   5.635
13432WAT     H154434   0.745   1.250   5.721
13432WAT     H254435   0.784   1.190   5.604
13432WAT    EPW54436   0.752   1.250   5.643
13433WAT      O54437   0.969   1.689   6.430
13433WAT     H154438   1.050   1.670   6.455
13433WAT     H254439   0.922   1.678   6.502
13433WAT    EPW54440   0.974   1.684   6.444
13434WAT      O54441   0.998   2.400   5.200
13434WAT     H154442   1.000   2.353   5.273
13434WAT     H254443   1.083   2.406   5.178
13434WAT    EPW54444   1.011   2.394   5.207
13435WAT      O54445   1.245   2.815   6.585
13435WAT     H154446   1.173   2.818   6.536
13435WAT     H254447   1.221   2.765   6.652
13435WAT    EPW54448   1.231   2.808   6.588
13436WAT      O54449   0.821   2.052   5.117
13436WAT     H154450   0.817   2.133   5.086
13436WAT     H254451   0.783   2.058   5.196
13436WAT    EPW54452   0.815   2.065   5.124
13437WAT      O54453   1.158   1.525   5.102
13437WAT     H154454   1.197   1.464   5.054
13437WAT     H254455   1.124   1.579   5.044
13437WAT    EPW54456   1.159   1.524   5.087
13438WAT      O54457   1.255   1.954   6.347
13438WAT     H154458   1.291   1.879   6.318
13438WAT     H254459   1.173   1.950   6.318
13438WAT    EPW54460   1.248   1.942   6.338
13439WAT      O54461   1.030   1.409   5.326
13439WAT     H154462   1.105   1.372   5.353
13439WAT     H254463   1.055   1.459   5.258
13439WAT    EPW54464   1.045   1.411   5.320
13440WAT      O54465   0.473   2.784   5.789
13440WAT     H154466   0.436   2.863   5.791
13440WAT     H254467   0.474   2.765   5.704
13440WAT    EPW54468   0.467   2.793   5.777
13441WAT      O54469   0.725   1.675   5.773
13441WAT     H154470   0.754   1.642   5.848
13441WAT     H254471   0.661   1.620   5.749
13441WAT    EPW54472   0.720   1.662   5.780
13442WAT      O54473   1.009   2.838   6.424
13442WAT     H154474   0.964   2.913   6.431
13442WAT     H254475   1.009   2.822   6.339
13442WAT    EPW54476   1.003   2.847   6.413
13443WAT      O54477   0.849   1.855   6.058
13443WAT     H154478   0.778   1.879   6.102
13443WAT     H254479   0.850   1.908   5.990
13443WAT    EPW54480   0.839   1.866   6.055
13444WAT      O54481   0.323   2.917   6.067
13444WAT     H154482   0.292   2.840   6.039
13444WAT     H254483   0.339   2.961   5.993
13444WAT    EPW54484   0.321   2.912   6.052
13445WAT      O54485   0.416   1.425   6.388
13445WAT     H154486   0.415   1.342   6.363
13445WAT     H254487   0.424   1.421   6.475
13445WAT    EPW54488   0.417   1.412   6.397
13446WAT      O54489   0.726   1.633   5.357
13446WAT     H154490   0.778   1.697   5.386
13446WAT     H254491   0.646   1.666   5.366
13446WAT    EPW54492   0.722   1.647   5.363
13447WAT      O54493   0.752   2.408   6.644
13447WAT     H154494   0.789   2.484   6.623
13447WAT     H254495   0.787   2.352   6.588
13447WAT    EPW54496   0.763   2.411   6.633
13448WAT      O54497   0.239   1.750   5.980
13448WAT     H154498   0.300   1.812   5.987
13448WAT     H254499   0.267   1.686   6.033
13448WAT    EPW54500   0.252   1.749   5.989
13449WAT      O54501   0.469   2.089   5.152
13449WAT     H154502   0.492   2.171   5.134
13449WAT     H254503   0.445   2.092   5.236
13449WAT    EPW54504   0.469   2.101   5.162
13450WAT      O54505   1.049   2.374   5.655
13450WAT     H154506   1.053   2.324   5.726
13450WAT     H254507   1.014   2.322   5.595
13450WAT    EPW54508   1.045   2.359   5.657
13451WAT      O54509   0.664   2.802   5.995
13451WAT     H154510   0.605   2.783   5.934
13451WAT     H254511   0.700   2.876   5.966
13451WAT    EPW54512   0.661   2.810   5.982
13452WAT      O54513   0.644   2.430   5.966
13452WAT     H154514   0.572   2.462   6.003
13452WAT     H254515   0.678   2.378   6.028
13452WAT    EPW54516   0.639   2.427   5.981
13453WAT      O54517   0.214   2.941   5.142
13453WAT     H154518   0.258   2.961   5.215
13453WAT     H254519   0.236   3.005   5.087
13453WAT    EPW54520   0.224   2.953   5.145
13454WAT      O54521   0.837   2.237   6.446
13454WAT     H154522   0.805   2.276   6.375
13454WAT     H254523   0.922   2.257   6.443
13454WAT    EPW54524   0.845   2.246   6.435
13455WAT      O54525   0.575   2.865   6.850
13455WAT     H154526   0.598   2.887   6.931
13455WAT     H254527   0.602   2.932   6.802
13455WAT    EPW54528   0.583   2.878   6.855
13456WAT      O54529   0.967   1.362   6.694
13456WAT     H154530   0.938   1.317   6.624
13456WAT     H254531   0.970   1.303   6.757
13456WAT    EPW54532   0.963   1.347   6.693
13457WAT      O54533   0.479   2.255   6.289
13457WAT     H154534   0.441   2.316   6.337
13457WAT     H254535   0.503   2.195   6.347
13457WAT    EPW54536   0.477   2.255   6.304
13458WAT      O54537   0.447   2.103   5.434
13458WAT     H154538   0.428   2.171   5.485
13458WAT     H254539   0.410   2.036   5.474
13458WAT    EPW54540   0.439   2.103   5.447
13459WAT      O54541   0.895   2.565   5.988
13459WAT     H154542   0.913   2.589   5.907
13459WAT     H254543   0.814   2.531   5.982
13459WAT    EPW54544   0.886   2.563   5.975
13460WAT      O54545   0.262   2.383   5.848
13460WAT     H154546   0.177   2.362   5.842
13460WAT     H254547   0.291   2.332   5.913
13460WAT    EPW54548   0.254   2.372   5.857
13461WAT      O54549   1.210   2.958   5.190
13461WAT     H154550   1.273   2.905   5.160
13461WAT     H254551   1.157   2.903   5.234
13461WAT    EPW54552   1.211   2.942   5.192
13462WAT      O54553   0.974   2.203   6.150
13462WAT     H154554   0.975   2.131   6.199
13462WAT     H254555   0.895   2.237   6.164
13462WAT    EPW54556   0.962   2.197   6.159
13463WAT      O54557   1.074   2.210   5.885
13463WAT     H154558   1.047   2.215   5.968
13463WAT     H254559   1.161   2.205   5.892
13463WAT    EPW54560   1.083   2.210   5.899
13464WAT      O54561   0.838   1.613   6.671
13464WAT     H154562   0.764   1.608   6.716
13464WAT     H254563   0.872   1.533   6.679
13464WAT    EPW54564   0.832   1.600   6.679
13465WAT      O54565   1.214   2.717   5.969
13465WAT     H154566   1.249   2.763   5.904
13465WAT     H254567   1.277   2.716   6.030
13465WAT    EPW54568   1.229   2.723   5.969
13466WAT      O54569   0.715   1.947   6.763
13466WAT     H154570   0.739   1.965   6.845
13466WAT     H254571   0.642   1.993   6.753
13466WAT    EPW54572   0.708   1.956   6.774
13467WAT      O54573   0.949   2.000   6.621
13467WAT     H154574   0.962   2.083   6.644
13467WAT     H254575   0.875   1.979   6.663
13467WAT    EPW54576   0.940   2.009   6.630
13468WAT      O54577   0.867   2.643   5.176
13468WAT     H154578   0.903   2.564   5.188
13468WAT     H254579   0.793   2.639   5.222
13468WAT    EPW54580   0.862   2.631   5.185
13469WAT      O54581   0.973   1.779   5.695
13469WAT     H154582   0.904   1.730   5.718
13469WAT     H254583   0.962   1.852   5.741
13469WAT    EPW54584   0.961   1.782   5.705
13470WAT      O54585   1.231   2.100   6.819
13470WAT     H154586   1.243   2.040   6.756
13470WAT     H254587   1.310   2.137   6.826
13470WAT    EPW54588   1.245   2.097   6.810
13471WAT      O54589   1.099   2.342   6.441
13471WAT     H154590   1.172   2.301   6.417
13471WAT     H254591   1.090   2.404   6.380
13471WAT    EPW54592   1.109   2.345   6.429
13472WAT      O54593   0.533   2.339   5.050
13472WAT     H154594   0.620   2.339   5.045
13472WAT     H254595   0.508   2.351   4.968
13472WAT    EPW54596   0.542   2.341   5.037
13473WAT      O54597   0.821   1.469   6.335
13473WAT     H154598   0.881   1.530   6.350
13473WAT     H254599   0.747   1.513   6.329
13473WAT    EPW54600   0.819   1.484   6.336
13474WAT      O54601   0.328   2.200   6.057
13474WAT     H154602   0.379   2.232   6.120
13474WAT     H254603   0.255   2.177   6.099
13474WAT    EPW54604   0.324   2.201   6.072
13475WAT      O54605   0.351   3.036   5.800
13475WAT     H154606   0.394   3.074   5.735
13475WAT     H254607   0.274   3.077   5.801
13475WAT    EPW54608   0.346   3.048   5.791
13476WAT      O54609   0.880   1.272   6.144
13476WAT     H154610   0.854   1.344   6.187
13476WAT     H254611   0.964   1.265   6.165
13476WAT    EPW54612   0.889   1.282   6.154
13477WAT      O54613   0.485   2.341   6.659
13477WAT     H154614   0.566   2.369   6.645
13477WAT     H254615   0.438   2.384   6.599
13477WAT    EPW54616   0.490   2.352   6.648
13478WAT      O54617   0.861   2.661   6.583
13478WAT     H154618   0.890   2.690   6.660
13478WAT     H254619   0.907   2.707   6.525
13478WAT    EPW54620   0.872   2.672   6.586
13479WAT      O54621   1.078   1.948   5.084
13479WAT     H154622   1.121   2.005   5.035
13479WAT     H254623   0.997   1.982   5.088
13479WAT    EPW54624   1.072   1.962   5.077
13480WAT      O54625   0.582   1.800   6.561
13480WAT     H154626   0.505   1.793   6.602
13480WAT     H254627   0.639   1.811   6.626
13480WAT    EPW54628   0.579   1.801   6.577
13481WAT      O54629   0.610   1.885   6.198
13481WAT     H154630   0.613   1.938   6.267
13481WAT     H254631   0.601   1.806   6.233
13481WAT    EPW54632   0.609   1.881   6.213
13482WAT      O54633   0.283   2.886   6.656
13482WAT     H154634   0.297   2.843   6.581
13482WAT     H254635   0.288   2.823   6.717
13482WAT    EPW54636   0.286   2.870   6.654
13483WAT      O54637   0.863   1.855   5.455
13483WAT     H154638   0.891   1.827   5.533
13483WAT     H254639   0.933   1.890   5.418
13483WAT    EPW54640   0.877   1.856   5.461
13484WAT      O54641   0.975   1.423   5.601
13484WAT     H154642   0.896   1.390   5.616
13484WAT     H254643   0.976   1.437   5.515
13484WAT    EPW54644   0.964   1.420   5.591
13485WAT      O54645   0.965   2.234   5.425
13485WAT     H154646   1.013   2.162   5.410
13485WAT     H254647   0.883   2.206   5.413
13485WAT    EPW54648   0.960   2.219   5.421
13486WAT      O54649   0.343   2.455   6.445
13486WAT     H154650   0.256   2.448   6.440
13486WAT     H254651   0.357   2.540   6.430
13486WAT    EPW54652   0.332   2.467   6.442
13487WAT      O54653   0.660   2.407   5.693
13487WAT     H154654   0.649   2.417   5.779
13487WAT     H254655   0.686   2.324   5.685
13487WAT    EPW54656   0.662   2.396   5.704
13488WAT      O54657   0.406   2.329   5.606
13488WAT     H154658   0.359   2.340   5.678
13488WAT     H254659   0.485   2.360   5.628
13488WAT    EPW54660   0.410   2.336   5.620
13489WAT      O54661   0.379   2.738   6.431
13489WAT     H154662   0.452   2.737   6.479
13489WAT     H254663   0.387   2.812   6.385
13489WAT    EPW54664   0.391   2.749   6.431
13490WAT      O54665   1.215   1.911   6.616
13490WAT     H154666   1.128   1.921   6.619
13490WAT     H254667   1.235   1.931   6.534
13490WAT    EPW54668   1.205   1.915   6.604
13491WAT      O54669   0.615   2.048   6.426
13491WAT     H154670   0.608   1.979   6.479
13491WAT     H254671   0.693   2.082   6.448
13491WAT    EPW54672   0.626   2.043   6.437
13492WAT      O54673   0.466   2.074   6.739
13492WAT     H154674   0.468   2.154   6.704
13492WAT     H254675   0.454   2.089   6.824
13492WAT    EPW54676   0.465   2.088   6.747
13493WAT      O54677   0.742   3.063   5.929
13493WAT     H154678   0.680   3.120   5.952
13493WAT     H254679   0.804   3.075   5.989
13493WAT    EPW54680   0.742   3.073   5.942
13494WAT      O54681   0.438   2.520   6.126
13494WAT     H154682   0.385   2.574   6.082
13494WAT     H254683   0.487   2.574   6.174
13494WAT    EPW54684   0.438   2.536   6.126
13495WAT      O54685   0.954   2.749   6.828
13495WAT     H154686   1.034   2.715   6.831
13495WAT     H254687   0.914   2.713   6.896
13495WAT    EPW54688   0.960   2.739   6.838
13496WAT      O54689   1.081   1.991   5.360
13496WAT     H154690   1.091   1.980   5.274
13496WAT     H254691   1.154   1.956   5.393
13496WAT    EPW54692   1.093   1.984   5.352
13497WAT      O54693   0.445   2.748   5.516
13497WAT     H154694   0.410   2.814   5.470
13497WAT     H254695   0.390   2.682   5.501
13497WAT    EPW54696   0.432   2.748   5.507
13498WAT      O54697   0.972   1.968   6.338
13498WAT     H154698   0.960   1.882   6.338
13498WAT     H254699   0.957   1.991   6.421
13498WAT    EPW54700   0.968   1.959   6.350
13499WAT      O54701   0.467   1.404   6.668
13499WAT     H154702   0.507   1.466   6.714
13499WAT     H254703   0.409   1.371   6.724
13499WAT    EPW54704   0.465   1.408   6.683
13500WAT      O54705   0.500   1.513   5.741
13500WAT     H154706   0.425   1.557   5.736
13500WAT     H254707   0.492   1.449   5.682
13500WAT    EPW54708   0.488   1.510   5.732
13501WAT      O54709   0.815   1.583   6.018
13501WAT     H154710   0.894   1.550   6.038
13501WAT     H254711   0.822   1.666   6.043
13501WAT    EPW54712   0.828   1.590   6.025
13502WAT      O54713   0.897   2.009   5.830
13502WAT     H154714   0.958   2.069   5.846
13502WAT     H254715   0.840   2.051   5.779
13502WAT    EPW54716   0.897   2.024   5.825
13503WAT      O54717   0.896   2.843   5.572
13503WAT     H154718   0.890   2.766   5.612
13503WAT     H254719   0.929   2.822   5.494
13503WAT    EPW54720   0.900   2.829   5.566
13504WAT      O54721   1.122   1.312   6.286
13504WAT     H154722   1.088   1.289   6.363
13504WAT     H254723   1.207   1.293   6.295
13504WAT    EPW54724   1.129   1.306   6.299
13505WAT      O54725   0.349   1.543   6.136
13505WAT     H154726   0.349   1.509   6.216
13505WAT     H254727   0.417   1.506   6.097
13505WAT    EPW54728   0.359   1.533   6.142
13506WAT      O54729   0.685   2.630   6.223
13506WAT     H154730   0.697   2.697   6.278
13506WAT     H254731   0.693   2.667   6.145
13506WAT    EPW54732   0.688   2.646   6.220
13507WAT      O54733   0.640   3.036   6.632
13507WAT     H154734   0.597   2.975   6.588
13507WAT     H254735   0.584   3.103   6.635
13507WAT    EPW54736   0.625   3.037   6.626
13508WAT      O54737   1.092   2.465   6.182
13508WAT     H154738   1.074   2.381   6.166
13508WAT     H254739   1.040   2.508   6.127
13508WAT    EPW54740   1.082   2.459   6.172
13509WAT      O54741   0.998   2.782   6.146
13509WAT     H154742   1.069   2.777   6.095
13509WAT     H254743   0.942   2.727   6.108
13509WAT    EPW54744   1.000   2.773   6.133
13510WAT      O54745   0.571   1.438   6.000
13510WAT     H154746   0.642   1.487   6.016
13510WAT     H254747   0.546   1.465   5.921
13510WAT    EPW54748   0.578   1.450   5.990
13511WAT      O54749   0.570   1.908   5.745
13511WAT     H154750   0.621   1.839   5.758
13511WAT     H254751   0.529   1.919   5.821
13511WAT    EPW54752   0.571   1.899   5.758
13512WAT      O54753   0.724   2.084   5.388
13512WAT     H154754   0.749   2.004   5.410
13512WAT     H254755   0.637   2.082   5.393
13512WAT    EPW54756   0.715   2.072   5.392
13513WAT      O54757   1.009   3.017   5.008
13513WAT     H154758   1.079   3.003   5.058
13513WAT     H254759   0.988   2.937   4.980
13513WAT    EPW54760   1.016   3.003   5.011
13514WAT      O54761   1.030   2.254   6.703
13514WAT     H154762   1.100   2.221   6.743
13514WAT     H254763   1.063   2.296   6.634
13514WAT    EPW54764   1.045   2.256   6.698
13515WAT      O54765   0.632   2.662   5.322
13515WAT     H154766   0.597   2.680   5.400
13515WAT     H254767   0.568   2.621   5.280
13515WAT    EPW54768   0.617   2.659   5.327
13516WAT      O54769   1.053   1.713   6.813
13516WAT     H154770   1.039   1.791   6.849
13516WAT     H254771   0.979   1.697   6.770
13516WAT    EPW54772   1.040   1.722   6.812
13517WAT      O54773   1.124   1.811   6.100
13517WAT     H154774   1.040   1.835   6.093
13517WAT     H254775   1.120   1.725   6.109
13517WAT    EPW54776   1.111   1.802   6.100
13518WAT      O54777   0.797   2.306   6.909
13518WAT     H154778   0.865   2.339   6.952
13518WAT     H254779   0.811   2.329   6.826
13518WAT    EPW54780   0.809   2.314   6.903
13519WAT      O54781   0.417   2.541   5.197
13519WAT     H154782   0.449   2.475   5.151
13519WAT     H254783   0.386   2.596   5.136
13519WAT    EPW54784   0.417   2.540   5.181
13520WAT      O54785   0.487   1.299   3.656
13520WAT     H154786   0.483   1.351   3.586
13520WAT     H254787   0.573   1.286   3.667
13520WAT    EPW54788   0.499   1.305   3.647
13521WAT      O54789   0.446   1.950   4.092
13521WAT     H154790   0.415   2.029   4.109
13521WAT     H254791   0.496   1.932   4.161
13521WAT    EPW54792   0.449   1.959   4.105
13522WAT      O54793   1.038   2.795   3.439
13522WAT     H154794   1.101   2.737   3.451
13522WAT     H254795   0.982   2.753   3.386
13522WAT    EPW54796   1.039   2.780   3.433
13523WAT      O54797   0.715   2.135   3.767
13523WAT     H154798   0.723   2.123   3.681
13523WAT     H254799   0.659   2.073   3.791
13523WAT    EPW54800   0.708   2.124   3.757
13524WAT      O54801   0.285   2.652   4.039
13524WAT     H154802   0.267   2.573   4.006
13524WAT     H254803   0.342   2.685   3.983
13524WAT    EPW54804   0.291   2.645   4.026
13525WAT      O54805   0.293   2.532   3.549
13525WAT     H154806   0.326   2.462   3.591
13525WAT     H254807   0.322   2.521   3.468
13525WAT    EPW54808   0.302   2.520   3.544
13526WAT      O54809   0.346   1.831   4.832
13526WAT     H154810   0.263   1.832   4.807
13526WAT     H254811   0.369   1.916   4.832
13526WAT    EPW54812   0.337   1.844   4.828
13527WAT      O54813   0.882   1.240   4.581
13527WAT     H154814   0.858   1.311   4.535
13527WAT     H254815   0.809   1.219   4.623
13527WAT    EPW54816   0.868   1.248   4.580
13528WAT      O54817   0.617   1.601   3.040
13528WAT     H154818   0.583   1.671   3.078
13528WAT     H254819   0.639   1.549   3.107
13528WAT    EPW54820   0.615   1.603   3.055
13529WAT      O54821   0.619   2.924   3.335
13529WAT     H154822   0.695   2.966   3.343
13529WAT     H254823   0.637   2.843   3.364
13529WAT    EPW54824   0.633   2.918   3.341
13530WAT      O54825   0.386   2.984   3.467
13530WAT     H154826   0.410   3.026   3.539
13530WAT     H254827   0.461   2.969   3.425
13530WAT    EPW54828   0.401   2.988   3.471
13531WAT      O54829   1.183   1.584   3.772
13531WAT     H154830   1.138   1.658   3.781
13531WAT     H254831   1.122   1.524   3.757
13531WAT    EPW54832   1.167   1.586   3.771
13532WAT      O54833   0.681   2.924   4.353
13532WAT     H154834   0.748   2.979   4.339
13532WAT     H254835   0.665   2.891   4.273
13532WAT    EPW54836   0.689   2.927   4.339
13533WAT      O54837   0.273   1.291   4.946
13533WAT     H154838   0.283   1.225   4.890
13533WAT     H254839   0.193   1.321   4.929
13533WAT    EPW54840   0.263   1.286   4.935
13534WAT      O54841   0.369   1.871   3.662
13534WAT     H154842   0.398   1.816   3.600
13534WAT     H254843   0.436   1.876   3.718
13534WAT    EPW54844   0.383   1.863   3.661
13535WAT      O54845   0.470   1.806   3.187
13535WAT     H154846   0.481   1.891   3.205
13535WAT     H254847   0.417   1.806   3.118
13535WAT    EPW54848   0.464   1.819   3.179
13536WAT      O54849   0.847   3.080   3.322
13536WAT     H154850   0.896   3.058   3.253
13536WAT     H254851   0.901   3.126   3.373
13536WAT    EPW54852   0.862   3.083   3.320
13537WAT      O54853   1.086   1.544   4.217
13537WAT     H154854   1.148   1.534   4.158
13537WAT     H254855   1.102   1.480   4.275
13537WAT    EPW54856   1.097   1.533   4.217
13538WAT      O54857   0.600   2.769   4.705
13538WAT     H154858   0.591   2.775   4.792
13538WAT     H254859   0.680   2.735   4.696
13538WAT    EPW54860   0.611   2.765   4.717
13539WAT      O54861   0.340   2.732   3.111
13539WAT     H154862   0.292   2.789   3.157
13539WAT     H254863   0.415   2.775   3.098
13539WAT    EPW54864   0.344   2.747   3.116
13540WAT      O54865   0.675   1.449   3.263
13540WAT     H154866   0.727   1.380   3.272
13540WAT     H254867   0.706   1.506   3.322
13540WAT    EPW54868   0.687   1.448   3.273
13541WAT      O54869   0.459   1.709   3.452
13541WAT     H154870   0.437   1.625   3.446
13541WAT     H254871   0.456   1.737   3.369
13541WAT    EPW54872   0.455   1.701   3.439
13542WAT      O54873   0.419   2.988   4.416
13542WAT     H154874   0.504   2.974   4.400
13542WAT     H254875   0.381   2.973   4.339
13542WAT    EPW54876   0.426   2.984   4.402
13543WAT      O54877   0.444   1.430   3.413
13543WAT     H154878   0.384   1.388   3.366
13543WAT     H254879   0.514   1.430   3.362
13543WAT    EPW54880   0.445   1.424   3.399
13544WAT      O54881   1.118   3.011   3.729
13544WAT     H154882   1.076   3.087   3.742
13544WAT     H254883   1.053   2.954   3.718
13544WAT    EPW54884   1.102   3.014   3.729
13545WAT      O54885   0.273   1.657   3.821
13545WAT     H154886   0.283   1.729   3.774
13545WAT     H254887   0.254   1.686   3.901
13545WAT    EPW54888   0.272   1.672   3.826
13546WAT      O54889   0.883   2.590   3.801
13546WAT     H154890   0.944   2.530   3.787
13546WAT     H254891   0.808   2.546   3.792
13546WAT    EPW54892   0.881   2.574   3.798
13547WAT      O54893   0.601   1.642   4.448
13547WAT     H154894   0.598   1.683   4.524
13547WAT     H254895   0.537   1.582   4.454
13547WAT    EPW54896   0.591   1.639   4.460
13548WAT      O54897   0.728   2.351   4.321
13548WAT     H154898   0.647   2.324   4.339
13548WAT     H254899   0.724   2.437   4.329
13548WAT    EPW54900   0.715   2.360   4.325
13549WAT      O54901   0.749   1.252   3.731
13549WAT     H154902   0.749   1.242   3.818
13549WAT     H254903   0.784   1.177   3.702
13549WAT    EPW54904   0.754   1.239   3.740
13550WAT      O54905   0.973   1.699   4.539
13550WAT     H154906   1.055   1.679   4.561
13550WAT     H254907   0.928   1.687   4.612
13550WAT    EPW54908   0.978   1.694   4.553
13551WAT      O54909   1.012   2.404   3.299
13551WAT     H154910   1.011   2.356   3.372
13551WAT     H254911   1.096   2.407   3.277
13551WAT    EPW54912   1.024   2.397   3.306
13552WAT      O54913   1.256   2.815   4.684
13552WAT     H154914   1.184   2.818   4.635
13552WAT     H254915   1.233   2.766   4.752
13552WAT    EPW54916   1.242   2.808   4.687
13553WAT      O54917   0.821   2.054   3.218
13553WAT     H154918   0.819   2.136   3.187
13553WAT     H254919   0.784   2.061   3.296
13553WAT    EPW54920   0.815   2.067   3.225
13554WAT      O54921   1.162   1.522   3.196
13554WAT     H154922   1.201   1.463   3.146
13554WAT     H254923   1.127   1.578   3.139
13554WAT    EPW54924   1.162   1.522   3.180
13555WAT      O54925   1.270   1.941   4.432
13555WAT     H154926   1.326   1.874   4.432
13555WAT     H254927   1.210   1.918   4.373
13555WAT    EPW54928   1.269   1.928   4.423
13556WAT      O54929   1.032   1.405   3.417
13556WAT     H154930   1.106   1.366   3.441
13556WAT     H254931   1.056   1.455   3.350
13556WAT    EPW54932   1.047   1.406   3.411
13557WAT      O54933   0.472   2.784   3.888
13557WAT     H154934   0.435   2.863   3.891
13557WAT     H254935   0.475   2.765   3.803
13557WAT    EPW54936   0.467   2.793   3.876
13558WAT      O54937   0.727   1.675   3.874
13558WAT     H154938   0.756   1.643   3.950
13558WAT     H254939   0.664   1.619   3.851
13558WAT    EPW54940   0.722   1.662   3.882
13559WAT      O54941   1.016   2.838   4.531
13559WAT     H154942   0.977   2.915   4.538
13559WAT     H254943   1.013   2.821   4.445
13559WAT    EPW54944   1.010   2.847   4.519
13560WAT      O54945   0.850   1.859   4.160
13560WAT     H154946   0.781   1.886   4.206
13560WAT     H254947   0.850   1.912   4.091
13560WAT    EPW54948   0.840   1.871   4.156
13561WAT      O54949   0.319   2.914   4.165
13561WAT     H154950   0.290   2.837   4.136
13561WAT     H254951   0.336   2.958   4.092
13561WAT    EPW54952   0.317   2.909   4.150
13562WAT      O54953   0.421   1.424   4.497
13562WAT     H154954   0.416   1.340   4.472
13562WAT     H254955   0.427   1.420   4.583
13562WAT    EPW54956   0.421   1.411   4.506
13563WAT      O54957   0.727   1.632   3.461
13563WAT     H154958   0.778   1.696   3.488
13563WAT     H254959   0.646   1.665   3.469
13563WAT    EPW54960   0.723   1.646   3.466
13564WAT      O54961   0.747   2.419   4.753
13564WAT     H154962   0.784   2.495   4.732
13564WAT     H254963   0.780   2.363   4.694
13564WAT    EPW54964   0.757   2.422   4.741
13565WAT      O54965   0.248   1.748   4.083
13565WAT     H154966   0.309   1.810   4.091
13565WAT     H254967   0.275   1.685   4.137
13565WAT    EPW54968   0.261   1.748   4.092
13566WAT      O54969   0.471   2.088   3.252
13566WAT     H154970   0.496   2.170   3.235
13566WAT     H254971   0.447   2.092   3.336
13566WAT    EPW54972   0.471   2.101   3.262
13567WAT      O54973   1.052   2.374   3.759
13567WAT     H154974   1.055   2.323   3.829
13567WAT     H254975   1.017   2.322   3.698
13567WAT    EPW54976   1.047   2.358   3.760
13568WAT      O54977   0.661   2.802   4.097
13568WAT     H154978   0.603   2.783   4.035
13568WAT     H254979   0.697   2.876   4.070
13568WAT    EPW54980   0.657   2.810   4.084
13569WAT      O54981   0.645   2.432   4.067
13569WAT     H154982   0.571   2.463   4.104
13569WAT     H254983   0.678   2.380   4.129
13569WAT    EPW54984   0.639   2.429   4.082
13570WAT      O54985   0.213   2.940   3.243
13570WAT     H154986   0.257   2.960   3.316
13570WAT     H254987   0.235   3.004   3.188
13570WAT    EPW54988   0.223   2.952   3.246
13571WAT      O54989   0.832   2.250   4.553
13571WAT     H154990   0.800   2.285   4.480
13571WAT     H254991   0.918   2.266   4.548
13571WAT    EPW54992   0.840   2.257   4.542
13572WAT      O54993   0.581   2.877   4.967
13572WAT     H154994   0.599   2.897   5.050
13572WAT     H254995   0.616   2.942   4.922
13572WAT    EPW54996   0.589   2.889   4.973
13573WAT      O54997   0.976   1.369   4.808
13573WAT     H154998   0.949   1.325   4.738
13573WAT     H254999   0.977   1.308   4.871
13573WAT    EPW55000   0.972   1.354   4.807
13574WAT      O55001   0.479   2.258   4.396
13574WAT     H155002   0.442   2.319   4.445
13574WAT     H255003   0.504   2.197   4.453
13574WAT    EPW55004   0.477   2.258   4.411
13575WAT      O55005   0.449   2.104   3.534
13575WAT     H155006   0.430   2.172   3.585
13575WAT     H255007   0.412   2.037   3.575
13575WAT    EPW55008   0.441   2.104   3.548
13576WAT      O55009   0.896   2.565   4.094
13576WAT     H155010   0.917   2.589   4.013
13576WAT     H255011   0.815   2.533   4.086
13576WAT    EPW55012   0.887   2.564   4.081
13577WAT      O55013   0.265   2.379   3.950
13577WAT     H155014   0.180   2.357   3.944
13577WAT     H255015   0.294   2.329   4.015
13577WAT    EPW55016   0.256   2.368   3.958
13578WAT      O55017   1.212   2.959   3.298
13578WAT     H155018   1.279   2.909   3.276
13578WAT     H255019   1.160   2.905   3.342
13578WAT    EPW55020   1.214   2.944   3.301
13579WAT      O55021   0.972   2.205   4.256
13579WAT     H155022   0.971   2.134   4.307
13579WAT     H255023   0.893   2.240   4.269
13579WAT    EPW55024   0.960   2.200   4.265
13580WAT      O55025   1.075   2.212   3.992
13580WAT     H155026   1.046   2.217   4.074
13580WAT     H255027   1.161   2.209   4.001
13580WAT    EPW55028   1.083   2.212   4.005
13581WAT      O55029   0.850   1.621   4.784
13581WAT     H155030   0.775   1.619   4.829
13581WAT     H255031   0.882   1.540   4.793
13581WAT    EPW55032   0.844   1.609   4.792
13582WAT      O55033   1.210   2.721   4.074
13582WAT     H155034   1.248   2.770   4.013
13582WAT     H255035   1.270   2.716   4.137
13582WAT    EPW55036   1.224   2.727   4.075
13583WAT      O55037   0.710   1.949   4.882
13583WAT     H155038   0.739   1.966   4.962
13583WAT     H255039   0.637   1.995   4.875
13583WAT    EPW55040   0.704   1.958   4.893
13584WAT      O55041   0.932   2.012   4.727
13584WAT     H155042   0.945   2.095   4.750
13584WAT     H255043   0.863   1.988   4.774
13584WAT    EPW55044   0.924   2.021   4.737
13585WAT      O55045   0.874   2.644   3.279
13585WAT     H155046   0.910   2.566   3.290
13585WAT     H255047   0.799   2.639   3.323
13585WAT    EPW55048   0.868   2.632   3.287
13586WAT      O55049   0.975   1.776   3.795
13586WAT     H155050   0.905   1.729   3.818
13586WAT     H255051   0.966   1.850   3.840
13586WAT    EPW55052   0.963   1.780   3.805
13587WAT      O55053   1.225   2.104   4.909
13587WAT     H155054   1.231   2.047   4.843
13587WAT     H255055   1.303   2.144   4.908
13587WAT    EPW55056   1.238   2.102   4.899
13588WAT      O55057   1.099   2.343   4.547
13588WAT     H155058   1.169   2.297   4.521
13588WAT     H255059   1.091   2.404   4.486
13588WAT    EPW55060   1.108   2.345   4.534
13589WAT      O55061   0.539   2.339   3.152
13589WAT     H155062   0.626   2.340   3.147
13589WAT     H255063   0.513   2.350   3.070
13589WAT    EPW55064   0.548   2.340   3.139
13590WAT      O55065   0.827   1.479   4.441
13590WAT     H155066   0.885   1.542   4.456
13590WAT     H255067   0.751   1.522   4.437
13590WAT    EPW55068   0.824   1.495   4.442
13591WAT      O55069   0.331   2.200   4.161
13591WAT     H155070   0.381   2.233   4.225
13591WAT     H255071   0.258   2.175   4.203
13591WAT    EPW55072   0.327   2.201   4.177
13592WAT      O55073   0.349   3.035   3.900
13592WAT     H155074   0.393   3.073   3.835
13592WAT     H255075   0.274   3.079   3.902
13592WAT    EPW55076   0.345   3.047   3.891
13593WAT      O55077   0.881   1.283   4.247
13593WAT     H155078   0.856   1.354   4.290
13593WAT     H255079   0.966   1.275   4.269
13593WAT    EPW55080   0.890   1.292   4.257
13594WAT      O55081   0.483   2.344   4.776
13594WAT     H155082   0.564   2.372   4.762
13594WAT     H255083   0.436   2.384   4.714
13594WAT    EPW55084   0.488   2.354   4.765
13595WAT      O55085   0.858   2.671   4.692
13595WAT     H155086   0.888   2.698   4.769
13595WAT     H255087   0.907   2.713   4.634
13595WAT    EPW55088   0.869   2.681   4.695
13596WAT      O55089   1.076   1.946   3.185
13596WAT     H155090   1.120   2.002   3.135
13596WAT     H255091   0.996   1.980   3.188
13596WAT    EPW55092   1.070   1.959   3.178
13597WAT      O55093   0.581   1.805   4.674
13597WAT     H155094   0.504   1.798   4.715
13597WAT     H255095   0.638   1.818   4.739
13597WAT    EPW55096   0.578   1.806   4.690
13598WAT      O55097   0.613   1.889   4.306
13598WAT     H155098   0.617   1.942   4.375
13598WAT     H255099   0.605   1.809   4.341
13598WAT    EPW55100   0.612   1.885   4.321
13599WAT      O55101   0.261   2.869   4.777
13599WAT     H155102   0.285   2.829   4.703
13599WAT     H255103   0.276   2.809   4.838
13599WAT    EPW55104   0.267   2.854   4.775
13600WAT      O55105   0.862   1.855   3.556
13600WAT     H155106   0.891   1.828   3.634
13600WAT     H255107   0.932   1.891   3.519
13600WAT    EPW55108   0.876   1.857   3.562
13601WAT      O55109   0.977   1.412   3.693
13601WAT     H155110   0.897   1.379   3.708
13601WAT     H255111   0.976   1.428   3.607
13601WAT    EPW55112   0.965   1.409   3.682
13602WAT      O55113   0.968   2.238   3.523
13602WAT     H155114   1.015   2.166   3.509
13602WAT     H255115   0.886   2.212   3.512
13602WAT    EPW55116   0.963   2.223   3.520
13603WAT      O55117   0.347   2.458   4.557
13603WAT     H155118   0.261   2.449   4.546
13603WAT     H255119   0.361   2.543   4.545
13603WAT    EPW55120   0.337   2.469   4.553
13604WAT      O55121   0.662   2.408   3.794
13604WAT     H155122   0.651   2.418   3.880
13604WAT     H255123   0.688   2.325   3.787
13604WAT    EPW55124   0.664   2.397   3.806
13605WAT      O55125   0.408   2.330   3.706
13605WAT     H155126   0.362   2.339   3.779
13605WAT     H255127   0.487   2.360   3.728
13605WAT    EPW55128   0.413   2.336   3.720
13606WAT      O55129   0.377   2.741   4.550
13606WAT     H155130   0.452   2.747   4.596
13606WAT     H255131   0.378   2.813   4.501
13606WAT    EPW55132   0.389   2.753   4.549
13607WAT      O55133   1.196   1.923   4.699
13607WAT     H155134   1.110   1.936   4.704
13607WAT     H255135   1.214   1.938   4.615
13607WAT    EPW55136   1.186   1.928   4.688
13608WAT      O55137   0.614   2.052   4.535
13608WAT     H155138   0.607   1.983   4.588
13608WAT     H255139   0.691   2.086   4.556
13608WAT    EPW55140   0.624   2.047   4.546
13609WAT      O55141   0.462   2.079   4.866
13609WAT     H155142   0.464   2.158   4.828
13609WAT     H255143   0.450   2.096   4.950
13609WAT    EPW55144   0.461   2.093   4.873
13610WAT      O55145   0.740   3.062   4.034
13610WAT     H155146   0.679   3.119   4.056
13610WAT     H255147   0.802   3.073   4.095
13610WAT    EPW55148   0.740   3.072   4.046
13611WAT      O55149   0.437   2.519   4.227
13611WAT     H155150   0.385   2.573   4.182
13611WAT     H255151   0.486   2.573   4.275
13611WAT    EPW55152   0.437   2.535   4.227
13612WAT      O55153   0.954   2.755   4.937
13612WAT     H155154   1.035   2.722   4.937
13612WAT     H255155   0.917   2.718   5.007
13612WAT    EPW55156   0.961   2.745   4.947
13613WAT      O55157   1.078   1.992   3.459
13613WAT     H155158   1.088   1.981   3.373
13613WAT     H255159   1.151   1.957   3.493
13613WAT    EPW55160   1.091   1.985   3.452
13614WAT      O55161   0.448   2.748   3.614
13614WAT     H155162   0.412   2.814   3.569
13614WAT     H255163   0.393   2.681   3.600
13614WAT    EPW55164   0.435   2.748   3.606
13615WAT      O55165   0.950   1.979   4.445
13615WAT     H155166   0.953   1.892   4.449
13615WAT     H255167   0.937   2.003   4.528
13615WAT    EPW55168   0.949   1.970   4.458
13616WAT      O55169   0.474   1.413   4.780
13616WAT     H155170   0.514   1.477   4.823
13616WAT     H255171   0.413   1.385   4.836
13616WAT    EPW55172   0.471   1.418   4.795
13617WAT      O55173   0.504   1.511   3.842
13617WAT     H155174   0.430   1.555   3.836
13617WAT     H255175   0.495   1.446   3.783
13617WAT    EPW55176   0.492   1.508   3.832
13618WAT      O55177   0.817   1.587   4.122
13618WAT     H155178   0.895   1.555   4.143
13618WAT     H255179   0.822   1.671   4.145
13618WAT    EPW55180   0.830   1.595   4.128
13619WAT      O55181   0.902   2.009   3.928
13619WAT     H155182   0.962   2.069   3.947
13619WAT     H255183   0.845   2.051   3.878
13619WAT    EPW55184   0.902   2.024   3.923
13620WAT      O55185   0.901   2.843   3.678
13620WAT     H155186   0.894   2.766   3.719
13620WAT     H255187   0.934   2.823   3.601
13620WAT    EPW55188   0.905   2.829   3.673
13621WAT      O55189   1.125   1.316   4.387
13621WAT     H155190   1.088   1.294   4.463
13621WAT     H255191   1.209   1.294   4.397
13621WAT    EPW55192   1.132   1.310   4.400
13622WAT      O55193   0.355   1.543   4.242
13622WAT     H155194   0.357   1.508   4.322
13622WAT     H255195   0.423   1.505   4.202
13622WAT    EPW55196   0.366   1.532   4.248
13623WAT      O55197   0.682   2.632   4.326
13623WAT     H155198   0.693   2.699   4.381
13623WAT     H255199   0.690   2.669   4.247
13623WAT    EPW55200   0.685   2.647   4.322
13624WAT      O55201   0.675   3.039   4.748
13624WAT     H155202   0.637   2.970   4.710
13624WAT     H255203   0.612   3.100   4.747
13624WAT    EPW55204   0.660   3.038   4.743
13625WAT      O55205   1.095   2.465   4.288
13625WAT     H155206   1.075   2.381   4.272
13625WAT     H255207   1.043   2.508   4.233
13625WAT    EPW55208   1.084   2.459   4.278
13626WAT      O55209   0.996   2.783   4.253
13626WAT     H155210   1.066   2.780   4.201
13626WAT     H255211   0.941   2.727   4.216
13626WAT    EPW55212   0.998   2.774   4.240
13627WAT      O55213   0.575   1.439   4.101
13627WAT     H155214   0.645   1.488   4.117
13627WAT     H255215   0.549   1.465   4.022
13627WAT    EPW55216   0.582   1.450   4.092
13628WAT      O55217   0.573   1.909   3.847
13628WAT     H155218   0.624   1.840   3.860
13628WAT     H255219   0.533   1.920   3.924
13628WAT    EPW55220   0.575   1.900   3.860
13629WAT      O55221   0.726   2.087   3.489
13629WAT     H155222   0.750   2.006   3.511
13629WAT     H255223   0.639   2.085   3.494
13629WAT    EPW55224   0.717   2.075   3.493
13630WAT      O55225   1.013   3.017   3.112
13630WAT     H155226   1.083   3.003   3.163
13630WAT     H255227   0.993   2.937   3.084
13630WAT    EPW55228   1.021   3.003   3.115
13631WAT      O55229   1.022   2.265   4.809
13631WAT     H155230   1.091   2.227   4.846
13631WAT     H255231   1.054   2.304   4.738
13631WAT    EPW55232   1.037   2.265   4.804
13632WAT      O55233   0.635   2.661   3.421
13632WAT     H155234   0.600   2.679   3.499
13632WAT     H255235   0.570   2.620   3.379
13632WAT    EPW55236   0.620   2.657   3.426
13633WAT      O55237   1.070   1.714   4.926
13633WAT     H155238   1.057   1.792   4.961
13633WAT     H255239   0.995   1.698   4.883
13633WAT    EPW55240   1.057   1.723   4.925
13634WAT      O55241   1.121   1.826   4.219
13634WAT     H155242   1.038   1.848   4.207
13634WAT     H255243   1.119   1.739   4.225
13634WAT    EPW55244   1.109   1.817   4.218
13635WAT      O55245   0.806   2.309   5.022
13635WAT     H155246   0.871   2.343   5.069
13635WAT     H255247   0.829   2.329   4.940
13635WAT    EPW55248   0.819   2.317   5.017
13636WAT      O55249   0.419   2.540   3.297
13636WAT     H155250   0.451   2.474   3.251
13636WAT     H255251   0.386   2.594   3.236
13636WAT    EPW55252   0.419   2.538   3.281
13637WAT      O55253   0.485   1.301   1.763
13637WAT     H155254   0.479   1.352   1.693
13637WAT     H255255   0.571   1.289   1.773
13637WAT    EPW55256   0.497   1.307   1.754
13638WAT      O55257   0.441   1.948   2.198
13638WAT     H155258   0.410   2.028   2.216
13638WAT     H255259   0.493   1.930   2.266
13638WAT    EPW55260   0.444   1.957   2.211
13639WAT      O55261   1.044   2.793   1.549
13639WAT     H155262   1.108   2.736   1.565
13639WAT     H255263   0.988   2.747   1.501
13639WAT    EPW55264   1.045   2.778   1.544
13640WAT      O55265   0.710   2.138   1.877
13640WAT     H155266   0.719   2.125   1.792
13640WAT     H255267   0.654   2.076   1.902
13640WAT    EPW55268   0.703   2.127   1.868
13641WAT      O55269   0.284   2.654   2.144
13641WAT     H155270   0.265   2.574   2.113
13641WAT     H255271   0.342   2.685   2.088
13641WAT    EPW55272   0.290   2.647   2.131
13642WAT      O55273   0.289   2.531   1.655
13642WAT     H155274   0.321   2.463   1.700
13642WAT     H255275   0.319   2.518   1.574
13642WAT    EPW55276   0.298   2.519   1.650
13643WAT      O55277   0.346   1.830   2.933
13643WAT     H155278   0.262   1.831   2.909
13643WAT     H255279   0.368   1.914   2.934
13643WAT    EPW55280   0.337   1.842   2.930
13644WAT      O55281   0.885   1.239   2.678
13644WAT     H155282   0.861   1.309   2.632
13644WAT     H255283   0.813   1.218   2.722
13644WAT    EPW55284   0.871   1.246   2.677
13645WAT      O55285   0.577   1.602   1.174
13645WAT     H155286   0.548   1.672   1.217
13645WAT     H255287   0.611   1.552   1.236
13645WAT    EPW55288   0.578   1.605   1.189
13646WAT      O55289   0.621   2.927   1.425
13646WAT     H155290   0.698   2.967   1.426
13646WAT     H255291   0.639   2.846   1.453
13646WAT    EPW55292   0.635   2.921   1.429
13647WAT      O55293   0.390   2.982   1.566
13647WAT     H155294   0.417   3.023   1.638
13647WAT     H255295   0.464   2.968   1.522
13647WAT    EPW55296   0.405   2.986   1.570
13648WAT      O55297   1.184   1.584   1.879
13648WAT     H155298   1.140   1.659   1.890
13648WAT     H255299   1.121   1.527   1.858
13648WAT    EPW55300   1.168   1.586   1.877
13649WAT      O55301   0.681   2.924   2.453
13649WAT     H155302   0.747   2.980   2.440
13649WAT     H255303   0.665   2.891   2.374
13649WAT    EPW55304   0.689   2.928   2.440
13650WAT      O55305   0.275   1.287   3.048
13650WAT     H155306   0.286   1.221   2.991
13650WAT     H255307   0.195   1.316   3.030
13650WAT    EPW55308   0.265   1.282   3.037
13651WAT      O55309   0.365   1.875   1.770
13651WAT     H155310   0.393   1.818   1.710
13651WAT     H255311   0.432   1.880   1.826
13651WAT    EPW55312   0.379   1.867   1.770
13652WAT      O55313   0.450   1.818   1.309
13652WAT     H155314   0.466   1.902   1.324
13652WAT     H255315   0.399   1.819   1.238
13652WAT    EPW55316   0.445   1.830   1.301
13653WAT      O55317   0.854   3.078   1.398
13653WAT     H155318   0.902   3.053   1.330
13653WAT     H255319   0.909   3.126   1.445
13653WAT    EPW55320   0.869   3.082   1.395
13654WAT      O55321   1.084   1.540   2.320
13654WAT     H155322   1.147   1.529   2.261
13654WAT     H255323   1.100   1.478   2.379
13654WAT    EPW55324   1.096   1.529   2.320
13655WAT      O55325   0.601   2.764   2.806
13655WAT     H155326   0.590   2.771   2.892
13655WAT     H255327   0.681   2.731   2.797
13655WAT    EPW55328   0.611   2.760   2.817
13656WAT      O55329   0.299   2.730   1.237
13656WAT     H155330   0.258   2.789   1.286
13656WAT     H255331   0.374   2.770   1.217
13656WAT    EPW55332   0.304   2.745   1.241
13657WAT      O55333   0.673   1.443   1.376
13657WAT     H155334   0.730   1.378   1.374
13657WAT     H255335   0.705   1.497   1.437
13657WAT    EPW55336   0.686   1.442   1.385
13658WAT      O55337   0.451   1.706   1.567
13658WAT     H155338   0.427   1.622   1.557
13658WAT     H255339   0.444   1.739   1.486
13658WAT    EPW55340   0.447   1.698   1.553
13659WAT      O55341   0.420   2.987   2.518
13659WAT     H155342   0.504   2.974   2.501
13659WAT     H255343   0.381   2.973   2.441
13659WAT    EPW55344   0.427   2.983   2.504
13660WAT      O55345   0.437   1.427   1.520
13660WAT     H155346   0.383   1.374   1.477
13660WAT     H255347   0.510   1.425   1.471
13660WAT    EPW55348   0.440   1.419   1.506
13661WAT      O55349   1.119   3.020   1.819
13661WAT     H155350   1.077   3.096   1.826
13661WAT     H255351   1.054   2.961   1.811
13661WAT    EPW55352   1.103   3.022   1.819
13662WAT      O55353   0.269   1.658   1.926
13662WAT     H155354   0.279   1.732   1.880
13662WAT     H255355   0.250   1.686   2.006
13662WAT    EPW55356   0.267   1.673   1.931
13663WAT      O55357   0.881   2.592   1.905
13663WAT     H155358   0.942   2.531   1.891
13663WAT     H255359   0.806   2.548   1.895
13663WAT    EPW55360   0.879   2.576   1.901
13664WAT      O55361   0.601   1.640   2.549
13664WAT     H155362   0.598   1.682   2.626
13664WAT     H255363   0.537   1.580   2.556
13664WAT    EPW55364   0.591   1.637   2.562
13665WAT      O55365   0.725   2.350   2.423
13665WAT     H155366   0.644   2.324   2.442
13665WAT     H255367   0.721   2.437   2.432
13665WAT    EPW55368   0.713   2.359   2.427
13666WAT      O55369   0.748   1.260   1.833
13666WAT     H155370   0.749   1.251   1.920
13666WAT     H255371   0.785   1.187   1.804
13666WAT    EPW55372   0.754   1.248   1.842
13667WAT      O55373   0.975   1.696   2.639
13667WAT     H155374   1.057   1.675   2.662
13667WAT     H255375   0.929   1.683   2.712
13667WAT    EPW55376   0.980   1.691   2.653
13668WAT      O55377   1.012   2.389   1.411
13668WAT     H155378   1.012   2.341   1.484
13668WAT     H255379   1.097   2.398   1.392
13668WAT    EPW55380   1.025   2.383   1.419
13669WAT      O55381   1.253   2.812   2.789
13669WAT     H155382   1.178   2.815   2.743
13669WAT     H255383   1.231   2.768   2.861
13669WAT    EPW55384   1.238   2.806   2.793
13670WAT      O55385   0.813   2.062   1.332
13670WAT     H155386   0.814   2.143   1.301
13670WAT     H255387   0.778   2.071   1.411
13670WAT    EPW55388   0.808   2.075   1.339
13671WAT      O55389   1.142   1.532   1.276
13671WAT     H155390   1.186   1.484   1.217
13671WAT     H255391   1.094   1.586   1.227
13671WAT    EPW55392   1.142   1.533   1.260
13672WAT      O55393   1.266   1.935   2.530
13672WAT     H155394   1.323   1.869   2.531
13672WAT     H255395   1.208   1.911   2.470
13672WAT    EPW55396   1.266   1.922   2.522
13673WAT      O55397   1.035   1.413   1.509
13673WAT     H155398   1.109   1.377   1.538
13673WAT     H255399   1.060   1.459   1.439
13673WAT    EPW55400   1.049   1.415   1.503
13674WAT      O55401   0.473   2.781   1.991
13674WAT     H155402   0.436   2.860   1.993
13674WAT     H255403   0.475   2.761   1.906
13674WAT    EPW55404   0.468   2.790   1.979
13675WAT      O55405   0.725   1.676   1.978
13675WAT     H155406   0.755   1.643   2.053
13675WAT     H255407   0.662   1.621   1.954
13675WAT    EPW55408   0.720   1.663   1.985
13676WAT      O55409   1.013   2.837   2.634
13676WAT     H155410   0.972   2.914   2.640
13676WAT     H255411   1.012   2.820   2.548
13676WAT    EPW55412   1.007   2.846   2.622
13677WAT      O55413   0.849   1.856   2.261
13677WAT     H155414   0.781   1.883   2.309
13677WAT     H255415   0.849   1.911   2.193
13677WAT    EPW55416   0.839   1.868   2.258
13678WAT      O55417   0.318   2.916   2.268
13678WAT     H155418   0.289   2.839   2.239
13678WAT     H255419   0.337   2.960   2.194
13678WAT    EPW55420   0.317   2.911   2.253
13679WAT      O55421   0.421   1.422   2.599
13679WAT     H155422   0.417   1.338   2.574
13679WAT     H255423   0.428   1.418   2.685
13679WAT    EPW55424   0.422   1.409   2.608
13680WAT      O55425   0.718   1.624   1.577
13680WAT     H155426   0.770   1.689   1.603
13680WAT     H255427   0.638   1.657   1.584
13680WAT    EPW55428   0.714   1.639   1.582
13681WAT      O55429   0.747   2.418   2.856
13681WAT     H155430   0.785   2.493   2.836
13681WAT     H255431   0.780   2.362   2.797
13681WAT    EPW55432   0.757   2.421   2.844
13682WAT      O55433   0.243   1.746   2.188
13682WAT     H155434   0.304   1.809   2.197
13682WAT     H255435   0.271   1.683   2.242
13682WAT    EPW55436   0.256   1.746   2.197
13683WAT      O55437   0.469   2.102   1.361
13683WAT     H155438   0.498   2.182   1.343
13683WAT     H255439   0.447   2.108   1.446
13683WAT    EPW55440   0.470   2.115   1.371
13684WAT      O55441   1.050   2.375   1.867
13684WAT     H155442   1.054   2.325   1.939
13684WAT     H255443   1.020   2.321   1.806
13684WAT    EPW55444   1.046   2.359   1.869
13685WAT      O55445   0.662   2.804   2.198
13685WAT     H155446   0.605   2.784   2.136
13685WAT     H255447   0.699   2.878   2.169
13685WAT    EPW55448   0.659   2.812   2.185
13686WAT      O55449   0.640   2.435   2.172
13686WAT     H155450   0.567   2.465   2.209
13686WAT     H255451   0.673   2.381   2.232
13686WAT    EPW55452   0.634   2.431   2.186
13687WAT      O55453   0.186   2.948   1.368
13687WAT     H155454   0.241   2.964   1.434
13687WAT     H255455   0.205   3.011   1.310
13687WAT    EPW55456   0.197   2.960   1.369
13688WAT      O55457   0.830   2.248   2.655
13688WAT     H155458   0.797   2.284   2.583
13688WAT     H255459   0.915   2.264   2.650
13688WAT    EPW55460   0.838   2.256   2.644
13689WAT      O55461   0.578   2.873   3.066
13689WAT     H155462   0.597   2.894   3.149
13689WAT     H255463   0.611   2.939   3.020
13689WAT    EPW55464   0.586   2.886   3.072
13690WAT      O55465   0.981   1.366   2.905
13690WAT     H155466   0.955   1.325   2.833
13690WAT     H255467   0.975   1.304   2.967
13690WAT    EPW55468   0.976   1.351   2.903
13691WAT      O55469   0.477   2.257   2.499
13691WAT     H155470   0.440   2.318   2.549
13691WAT     H255471   0.502   2.195   2.556
13691WAT    EPW55472   0.475   2.257   2.515
13692WAT      O55473   0.447   2.109   1.643
13692WAT     H155474   0.428   2.176   1.695
13692WAT     H255475   0.409   2.041   1.683
13692WAT    EPW55476   0.438   2.109   1.656
13693WAT      O55477   0.892   2.566   2.197
13693WAT     H155478   0.914   2.591   2.117
13693WAT     H255479   0.811   2.534   2.188
13693WAT    EPW55480   0.883   2.565   2.184
13694WAT      O55481   0.260   2.380   2.058
13694WAT     H155482   0.176   2.359   2.052
13694WAT     H255483   0.290   2.330   2.123
13694WAT    EPW55484   0.252   2.370   2.067
13695WAT      O55485   1.216   2.954   1.402
13695WAT     H155486   1.286   2.905   1.385
13695WAT     H255487   1.164   2.901   1.448
13695WAT    EPW55488   1.218   2.939   1.406
13696WAT      O55489   0.968   2.202   2.359
13696WAT     H155490   0.968   2.131   2.410
13696WAT     H255491   0.890   2.237   2.372
13696WAT    EPW55492   0.957   2.197   2.369
13697WAT      O55493   1.074   2.210   2.097
13697WAT     H155494   1.045   2.214   2.180
13697WAT     H255495   1.160   2.205   2.106
13697WAT    EPW55496   1.082   2.210   2.111
13698WAT      O55497   0.852   1.617   2.884
13698WAT     H155498   0.777   1.614   2.928
13698WAT     H255499   0.884   1.537   2.893
13698WAT    EPW55500   0.845   1.605   2.892
13699WAT      O55501   1.205   2.715   2.168
13699WAT     H155502   1.241   2.766   2.107
13699WAT     H255503   1.266   2.711   2.230
13699WAT    EPW55504   1.220   2.722   2.168
13700WAT      O55505   0.709   1.948   2.984
13700WAT     H155506   0.738   1.968   3.064
13700WAT     H255507   0.635   1.994   2.977
13700WAT    EPW55508   0.702   1.958   2.995
13701WAT      O55509   0.930   2.008   2.828
13701WAT     H155510   0.944   2.091   2.850
13701WAT     H255511   0.861   1.986   2.875
13701WAT    EPW55512   0.922   2.017   2.838
13702WAT      O55513   0.878   2.632   1.405
13702WAT     H155514   0.909   2.551   1.416
13702WAT     H255515   0.799   2.628   1.443
13702WAT    EPW55516   0.871   2.619   1.412
13703WAT      O55517   0.974   1.777   1.900
13703WAT     H155518   0.904   1.730   1.924
13703WAT     H255519   0.964   1.851   1.945
13703WAT    EPW55520   0.962   1.781   1.910
13704WAT      O55521   1.223   2.098   3.007
13704WAT     H155522   1.229   2.041   2.941
13704WAT     H255523   1.301   2.138   3.007
13704WAT    EPW55524   1.235   2.096   2.997
13705WAT      O55525   1.095   2.342   2.648
13705WAT     H155526   1.163   2.294   2.621
13705WAT     H255527   1.087   2.403   2.587
13705WAT    EPW55528   1.104   2.344   2.635
13706WAT      O55529   0.545   2.347   1.248
13706WAT     H155530   0.632   2.347   1.238
13706WAT     H255531   0.515   2.357   1.166
13706WAT    EPW55532   0.554   2.348   1.234
13707WAT      O55533   0.827   1.478   2.540
13707WAT     H155534   0.886   1.541   2.555
13707WAT     H255535   0.752   1.521   2.537
13707WAT    EPW55536   0.825   1.493   2.542
13708WAT      O55537   0.327   2.198   2.267
13708WAT     H155538   0.377   2.231   2.330
13708WAT     H255539   0.254   2.174   2.309
13708WAT    EPW55540   0.324   2.200   2.282
13709WAT      O55541   0.352   3.033   2.001
13709WAT     H155542   0.396   3.071   1.936
13709WAT     H255543   0.275   3.074   2.000
13709WAT    EPW55544   0.347   3.044   1.991
13710WAT      O55545   0.882   1.281   2.347
13710WAT     H155546   0.857   1.353   2.390
13710WAT     H255547   0.967   1.273   2.368
13710WAT    EPW55548   0.891   1.290   2.357
13711WAT      O55549   0.483   2.343   2.879
13711WAT     H155550   0.565   2.371   2.864
13711WAT     H255551   0.436   2.383   2.818
13711WAT    EPW55552   0.488   2.353   2.868
13712WAT      O55553   0.860   2.669   2.798
13712WAT     H155554   0.893   2.696   2.874
13712WAT     H255555   0.908   2.712   2.739
13712WAT    EPW55556   0.872   2.679   2.801
13713WAT      O55557   1.061   1.945   1.283
13713WAT     H155558   1.104   2.005   1.236
13713WAT     H255559   0.982   1.981   1.293
13713WAT    EPW55560   1.055   1.959   1.277
13714WAT      O55561   0.580   1.804   2.775
13714WAT     H155562   0.504   1.796   2.817
13714WAT     H255563   0.637   1.816   2.840
13714WAT    EPW55564   0.577   1.804   2.791
13715WAT      O55565   0.612   1.887   2.408
13715WAT     H155566   0.616   1.940   2.477
13715WAT     H255567   0.605   1.808   2.444
13715WAT    EPW55568   0.612   1.883   2.424
13716WAT      O55569   0.265   2.869   2.877
13716WAT     H155570   0.288   2.829   2.803
13716WAT     H255571   0.278   2.809   2.938
13716WAT    EPW55572   0.270   2.854   2.875
13717WAT      O55573   0.853   1.851   1.664
13717WAT     H155574   0.884   1.825   1.741
13717WAT     H255575   0.923   1.884   1.623
13717WAT    EPW55576   0.868   1.852   1.669
13718WAT      O55577   0.974   1.422   1.786
13718WAT     H155578   0.894   1.390   1.802
13718WAT     H255579   0.974   1.437   1.700
13718WAT    EPW55580   0.962   1.419   1.776
13719WAT      O55581   0.973   2.227   1.638
13719WAT     H155582   1.019   2.154   1.621
13719WAT     H255583   0.891   2.201   1.628
13719WAT    EPW55584   0.968   2.212   1.634
13720WAT      O55585   0.345   2.455   2.661
13720WAT     H155586   0.259   2.447   2.652
13720WAT     H255587   0.359   2.540   2.647
13720WAT    EPW55588   0.335   2.467   2.657
13721WAT      O55589   0.658   2.411   1.899
13721WAT     H155590   0.646   2.422   1.985
13721WAT     H255591   0.684   2.328   1.892
13721WAT    EPW55592   0.660   2.401   1.911
13722WAT      O55593   0.404   2.332   1.815
13722WAT     H155594   0.358   2.342   1.889
13722WAT     H255595   0.483   2.363   1.837
13722WAT    EPW55596   0.409   2.338   1.829
13723WAT      O55597   0.378   2.739   2.649
13723WAT     H155598   0.452   2.743   2.695
13723WAT     H255599   0.379   2.812   2.601
13723WAT    EPW55600   0.389   2.750   2.649
13724WAT      O55601   1.193   1.918   2.798
13724WAT     H155602   1.107   1.930   2.803
13724WAT     H255603   1.211   1.932   2.714
13724WAT    EPW55604   1.183   1.922   2.786
13725WAT      O55605   0.612   2.051   2.637
13725WAT     H155606   0.605   1.981   2.690
13725WAT     H255607   0.690   2.085   2.658
13725WAT    EPW55608   0.622   2.046   2.648
13726WAT      O55609   0.460   2.078   2.967
13726WAT     H155610   0.463   2.157   2.930
13726WAT     H255611   0.449   2.095   3.052
13726WAT    EPW55612   0.459   2.092   2.974
13727WAT      O55613   0.741   3.065   2.130
13727WAT     H155614   0.678   3.121   2.154
13727WAT     H255615   0.802   3.076   2.191
13727WAT    EPW55616   0.741   3.075   2.143
13728WAT      O55617   0.434   2.521   2.334
13728WAT     H155618   0.382   2.575   2.289
13728WAT     H255619   0.485   2.575   2.380
13728WAT    EPW55620   0.434   2.537   2.334
13729WAT      O55621   0.964   2.754   3.040
13729WAT     H155622   1.047   2.725   3.045
13729WAT     H255623   0.926   2.718   3.110
13729WAT    EPW55624   0.971   2.745   3.051
13730WAT      O55625   1.072   1.978   1.560
13730WAT     H155626   1.081   1.970   1.474
13730WAT     H255627   1.143   1.939   1.592
13730WAT    EPW55628   1.084   1.971   1.552
13731WAT      O55629   0.446   2.747   1.717
13731WAT     H155630   0.411   2.812   1.671
13731WAT     H255631   0.390   2.681   1.704
13731WAT    EPW55632   0.432   2.747   1.708
13732WAT      O55633   0.946   1.976   2.546
13732WAT     H155634   0.952   1.889   2.549
13732WAT     H255635   0.934   1.999   2.629
13732WAT    EPW55636   0.945   1.966   2.558
13733WAT      O55637   0.475   1.410   2.881
13733WAT     H155638   0.515   1.474   2.924
13733WAT     H255639   0.415   1.381   2.938
13733WAT    EPW55640   0.472   1.415   2.896
13734WAT      O55641   0.501   1.514   1.946
13734WAT     H155642   0.426   1.558   1.941
13734WAT     H255643   0.492   1.450   1.888
13734WAT    EPW55644   0.489   1.511   1.937
13735WAT      O55645   0.817   1.585   2.224
13735WAT     H155646   0.895   1.553   2.245
13735WAT     H255647   0.822   1.669   2.247
13735WAT    EPW55648   0.829   1.593   2.230
13736WAT      O55649   0.899   2.009   2.033
13736WAT     H155650   0.960   2.069   2.051
13736WAT     H255651   0.841   2.053   1.984
13736WAT    EPW55652   0.900   2.025   2.028
13737WAT      O55653   0.902   2.846   1.783
13737WAT     H155654   0.894   2.770   1.824
13737WAT     H255655   0.937   2.824   1.706
13737WAT    EPW55656   0.906   2.832   1.778
13738WAT      O55657   1.126   1.314   2.490
13738WAT     H155658   1.090   1.289   2.565
13738WAT     H255659   1.210   1.294   2.500
13738WAT    EPW55660   1.133   1.307   2.502
13739WAT      O55661   0.353   1.540   2.345
13739WAT     H155662   0.355   1.505   2.425
13739WAT     H255663   0.421   1.503   2.305
13739WAT    EPW55664   0.363   1.530   2.351
13740WAT      O55665   0.681   2.633   2.428
13740WAT     H155666   0.692   2.701   2.482
13740WAT     H255667   0.690   2.669   2.349
13740WAT    EPW55668   0.684   2.648   2.424
13741WAT      O55669   0.665   3.038   2.848
13741WAT     H155670   0.627   2.969   2.809
13741WAT     H255671   0.602   3.099   2.846
13741WAT    EPW55672   0.650   3.037   2.842
13742WAT      O55673   1.088   2.463   2.389
13742WAT     H155674   1.070   2.379   2.374
13742WAT     H255675   1.036   2.506   2.333
13742WAT    EPW55676   1.077   2.457   2.379
13743WAT      O55677   0.998   2.782   2.355
13743WAT     H155678   1.066   2.779   2.302
13743WAT     H255679   0.941   2.727   2.319
13743WAT    EPW55680   0.999   2.773   2.342
13744WAT      O55681   0.574   1.439   2.204
13744WAT     H155682   0.644   1.488   2.220
13744WAT     H255683   0.547   1.467   2.126
13744WAT    EPW55684   0.580   1.450   2.195
13745WAT      O55685   0.570   1.910   1.954
13745WAT     H155686   0.622   1.841   1.966
13745WAT     H255687   0.530   1.919   2.031
13745WAT    EPW55688   0.571   1.901   1.967
13746WAT      O55689   0.724   2.088   1.602
13746WAT     H155690   0.747   2.006   1.622
13746WAT     H255691   0.637   2.087   1.607
13746WAT    EPW55692   0.714   2.076   1.606
13747WAT      O55693   1.029   2.994   1.201
13747WAT     H155694   1.094   2.986   1.258
13747WAT     H255695   1.005   2.911   1.186
13747WAT    EPW55696   1.035   2.980   1.207
13748WAT      O55697   1.020   2.261   2.910
13748WAT     H155698   1.090   2.223   2.946
13748WAT     H255699   1.052   2.300   2.839
13748WAT    EPW55700   1.035   2.261   2.905
13749WAT      O55701   0.627   2.665   1.520
13749WAT     H155702   0.592   2.683   1.598
13749WAT     H255703   0.564   2.621   1.478
13749WAT    EPW55704   0.613   2.661   1.525
13750WAT      O55705   1.069   1.713   3.026
13750WAT     H155706   1.056   1.791   3.062
13750WAT     H255707   0.996   1.697   2.982
13750WAT    EPW55708   1.057   1.722   3.025
13751WAT      O55709   1.121   1.822   2.316
13751WAT     H155710   1.037   1.844   2.304
13751WAT     H255711   1.119   1.735   2.323
13751WAT    EPW55712   1.108   1.812   2.315
13752WAT      O55713   0.813   2.313   3.126
13752WAT     H155714   0.880   2.345   3.172
13752WAT     H255715   0.835   2.330   3.043
13752WAT    EPW55716   0.826   2.320   3.121
13753WAT      O55717   0.412   2.535   1.402
13753WAT     H155718   0.449   2.475   1.351
13753WAT     H255719   0.370   2.587   1.346
13753WAT    EPW55720   0.411   2.534   1.386
13754WAT      O55721   0.435   1.913   0.312
13754WAT     H155722   0.409   1.996   0.321
13754WAT     H255723   0.492   1.902   0.378
13754WAT    EPW55724   0.440   1.924   0.323
13755WAT      O55725   0.333   1.835   1.052
13755WAT     H155726   0.250   1.832   1.024
13755WAT     H255727   0.352   1.920   1.052
13755WAT    EPW55728   0.323   1.847   1.048
13756WAT      O55729   0.812   1.223   0.846
13756WAT     H155730   0.803   1.301   0.808
13756WAT     H255731   0.740   1.216   0.895
13756WAT    EPW55732   0.800   1.234   0.848
13757WAT      O55733   0.680   2.922   0.628
13757WAT     H155734   0.737   2.965   0.679
13757WAT     H255735   0.710   2.937   0.548
13757WAT    EPW55736   0.693   2.931   0.624
13758WAT      O55737   0.241   1.261   1.155
13758WAT     H155738   0.251   1.190   1.104
13758WAT     H255739   0.158   1.284   1.141
13758WAT    EPW55740   0.230   1.254   1.145
13759WAT      O55741   1.132   1.524   0.467
13759WAT     H155742   1.191   1.484   0.417
13759WAT     H255743   1.134   1.479   0.541
13759WAT    EPW55744   1.141   1.512   0.471
13760WAT      O55745   0.578   2.703   0.942
13760WAT     H155746   0.573   2.741   1.020
13760WAT     H255747   0.662   2.684   0.932
13760WAT    EPW55748   0.589   2.706   0.952
13761WAT      O55749   0.419   2.982   0.674
13761WAT     H155750   0.504   2.967   0.656
13761WAT     H255751   0.378   2.957   0.601
13761WAT    EPW55752   0.426   2.976   0.660
13762WAT      O55753   0.586   1.645   0.674
13762WAT     H155754   0.573   1.698   0.742
13762WAT     H255755   0.524   1.584   0.683
13762WAT    EPW55756   0.575   1.644   0.685
13763WAT      O55757   0.676   2.405   0.534
13763WAT     H155758   0.604   2.358   0.551
13763WAT     H255759   0.653   2.486   0.558
13763WAT    EPW55760   0.662   2.410   0.540
13764WAT      O55761   0.993   1.689   0.781
13764WAT     H155762   1.076   1.667   0.799
13764WAT     H255763   0.960   1.709   0.860
13764WAT    EPW55764   1.000   1.688   0.795
13765WAT      O55765   1.248   2.821   0.919
13765WAT     H155766   1.170   2.826   0.879
13765WAT     H255767   1.231   2.775   0.991
13765WAT    EPW55768   1.234   2.815   0.923
13766WAT      O55769   1.256   1.930   0.650
13766WAT     H155770   1.315   1.867   0.648
13766WAT     H255771   1.196   1.903   0.593
13766WAT    EPW55772   1.256   1.917   0.641
13767WAT      O55773   0.995   2.836   0.788
13767WAT     H155774   0.946   2.908   0.797
13767WAT     H255775   0.985   2.814   0.704
13767WAT    EPW55776   0.986   2.843   0.777
13768WAT      O55777   0.835   1.816   0.366
13768WAT     H155778   0.771   1.839   0.422
13768WAT     H255779   0.794   1.812   0.289
13768WAT    EPW55780   0.819   1.819   0.363
13769WAT      O55781   0.325   2.861   0.443
13769WAT     H155782   0.293   2.780   0.455
13769WAT     H255783   0.391   2.848   0.387
13769WAT    EPW55784   0.330   2.847   0.436
13770WAT      O55785   0.408   1.439   0.733
13770WAT     H155786   0.420   1.353   0.723
13770WAT     H255787   0.399   1.449   0.819
13770WAT    EPW55788   0.409   1.428   0.744
13771WAT      O55789   0.721   2.394   0.934
13771WAT     H155790   0.766   2.468   0.930
13771WAT     H255791   0.759   2.344   0.873
13771WAT    EPW55792   0.733   2.397   0.924
13772WAT      O55793   0.243   1.720   0.393
13772WAT     H155794   0.302   1.774   0.359
13772WAT     H255795   0.286   1.644   0.400
13772WAT    EPW55796   0.258   1.716   0.389
13773WAT      O55797   0.561   2.773   0.309
13773WAT     H155798   0.592   2.701   0.271
13773WAT     H255799   0.628   2.828   0.307
13773WAT    EPW55800   0.575   2.771   0.303
13774WAT      O55801   0.630   2.500   0.266
13774WAT     H155802   0.548   2.478   0.244
13774WAT     H255803   0.641   2.461   0.343
13774WAT    EPW55804   0.619   2.491   0.274
13775WAT      O55805   0.816   2.242   0.722
13775WAT     H155806   0.785   2.290   0.656
13775WAT     H255807   0.902   2.254   0.717
13775WAT    EPW55808   0.824   2.251   0.712
13776WAT      O55809   0.533   2.862   1.168
13776WAT     H155810   0.569   2.891   1.242
13776WAT     H255811   0.543   2.928   1.113
13776WAT    EPW55812   0.540   2.876   1.171
13777WAT      O55813   1.058   1.274   0.954
13777WAT     H155814   0.977   1.267   0.924
13777WAT     H255815   1.056   1.232   1.030
13777WAT    EPW55816   1.046   1.267   0.961
13778WAT      O55817   0.446   2.269   0.618
13778WAT     H155818   0.405   2.316   0.679
13778WAT     H255819   0.482   2.204   0.665
13778WAT    EPW55820   0.446   2.266   0.634
13779WAT      O55821   0.896   2.514   0.393
13779WAT     H155822   0.853   2.527   0.318
13779WAT     H255823   0.841   2.466   0.441
13779WAT    EPW55824   0.882   2.509   0.389
13780WAT      O55825   0.363   2.427   0.269
13780WAT     H155826   0.338   2.475   0.338
13780WAT     H255827   0.348   2.345   0.293
13780WAT    EPW55828   0.357   2.422   0.283
13781WAT      O55829   0.956   2.098   0.440
13781WAT     H155830   0.951   2.060   0.518
13781WAT     H255831   0.904   2.049   0.390
13781WAT    EPW55832   0.948   2.085   0.444
13782WAT      O55833   1.189   2.210   0.342
13782WAT     H155834   1.118   2.175   0.377
13782WAT     H255835   1.165   2.229   0.260
13782WAT    EPW55836   1.175   2.208   0.335
13783WAT      O55837   0.775   1.666   0.993
13783WAT     H155838   0.715   1.644   1.052
13783WAT     H255839   0.772   1.602   0.935
13783WAT    EPW55840   0.766   1.654   0.993
13784WAT      O55841   1.179   2.823   0.385
13784WAT     H155842   1.223   2.851   0.315
13784WAT     H255843   1.236   2.773   0.428
13784WAT    EPW55844   1.194   2.820   0.381
13785WAT      O55845   0.695   1.966   1.099
13785WAT     H155846   0.720   1.988   1.179
13785WAT     H255847   0.619   2.006   1.090
13785WAT    EPW55848   0.688   1.975   1.109
13786WAT      O55849   0.918   2.006   0.940
13786WAT     H155850   0.933   2.091   0.957
13786WAT     H255851   0.847   1.988   0.988
13786WAT    EPW55852   0.910   2.016   0.950
13787WAT      O55853   1.206   2.112   1.116
13787WAT     H155854   1.215   2.052   1.053
13787WAT     H255855   1.285   2.149   1.120
13787WAT    EPW55856   1.219   2.109   1.107
13788WAT      O55857   1.088   2.314   0.733
13788WAT     H155858   1.159   2.265   0.722
13788WAT     H255859   1.095   2.375   0.670
13788WAT    EPW55860   1.100   2.316   0.722
13789WAT      O55861   0.794   1.494   0.775
13789WAT     H155862   0.865   1.540   0.756
13789WAT     H255863   0.731   1.533   0.729
13789WAT    EPW55864   0.795   1.506   0.765
13790WAT      O55865   0.332   2.170   0.384
13790WAT     H155866   0.368   2.196   0.459
13790WAT     H255867   0.254   2.139   0.408
13790WAT    EPW55868   0.326   2.169   0.399
13791WAT      O55869   0.884   1.281   0.557
13791WAT     H155870   0.860   1.361   0.530
13791WAT     H255871   0.964   1.293   0.589
13791WAT    EPW55872   0.892   1.294   0.557
13792WAT      O55873   0.457   2.346   0.980
13792WAT     H155874   0.538   2.366   0.958
13792WAT     H255875   0.408   2.393   0.926
13792WAT    EPW55876   0.462   2.356   0.969
13793WAT      O55877   0.849   2.644   0.928
13793WAT     H155878   0.883   2.664   1.006
13793WAT     H255879   0.892   2.696   0.873
13793WAT    EPW55880   0.860   2.655   0.931
13794WAT      O55881   0.557   1.823   0.880
13794WAT     H155882   0.487   1.816   0.931
13794WAT     H255883   0.624   1.809   0.934
13794WAT    EPW55884   0.557   1.820   0.895
13795WAT      O55885   0.615   1.875   0.519
13795WAT     H155886   0.614   1.935   0.582
13795WAT     H255887   0.600   1.800   0.562
13795WAT    EPW55888   0.613   1.873   0.535
13796WAT      O55889   0.218   2.874   1.011
13796WAT     H155890   0.249   2.833   0.940
13796WAT     H255891   0.231   2.816   1.075
13796WAT    EPW55892   0.225   2.859   1.010
13797WAT      O55893   0.293   2.468   0.776
13797WAT     H155894   0.210   2.459   0.802
13797WAT     H255895   0.310   2.553   0.788
13797WAT    EPW55896   0.284   2.479   0.782
13798WAT      O55897   0.347   2.738   0.803
13798WAT     H155898   0.424   2.726   0.844
13798WAT     H255899   0.363   2.806   0.750
13798WAT    EPW55900   0.361   2.747   0.801
13799WAT      O55901   1.187   1.921   0.918
13799WAT     H155902   1.100   1.930   0.923
13799WAT     H255903   1.203   1.935   0.833
13799WAT    EPW55904   1.176   1.924   0.906
13800WAT      O55905   0.594   2.060   0.729
13800WAT     H155906   0.589   1.997   0.789
13800WAT     H255907   0.673   2.095   0.743
13800WAT    EPW55908   0.605   2.056   0.740
13801WAT      O55909   0.439   2.085   1.080
13801WAT     H155910   0.440   2.164   1.042
13801WAT     H255911   0.433   2.104   1.165
13801WAT    EPW55912   0.438   2.100   1.087
13802WAT      O55913   0.751   2.969   0.357
13802WAT     H155914   0.714   3.048   0.346
13802WAT     H255915   0.829   2.988   0.393
13802WAT    EPW55916   0.757   2.984   0.361
13803WAT      O55917   0.324   2.577   0.508
13803WAT     H155918   0.295   2.537   0.580
13803WAT     H255919   0.404   2.605   0.531
13803WAT    EPW55920   0.332   2.575   0.522
13804WAT      O55921   0.967   2.729   1.163
13804WAT     H155922   1.050   2.704   1.168
13804WAT     H255923   0.932   2.696   1.236
13804WAT    EPW55924   0.974   2.720   1.175
13805WAT      O55925   0.928   1.941   0.670
13805WAT     H155926   0.949   1.858   0.684
13805WAT     H255927   0.916   1.974   0.750
13805WAT    EPW55928   0.929   1.933   0.684
13806WAT      O55929   0.418   1.433   1.016
13806WAT     H155930   0.459   1.491   1.067
13806WAT     H255931   0.361   1.395   1.070
13806WAT    EPW55932   0.416   1.436   1.031
13807WAT      O55933   0.852   1.535   0.425
13807WAT     H155934   0.939   1.528   0.425
13807WAT     H255935   0.839   1.621   0.415
13807WAT    EPW55936   0.863   1.547   0.423
13808WAT      O55937   1.128   1.343   0.682
13808WAT     H155938   1.115   1.325   0.766
13808WAT     H255939   1.199   1.297   0.661
13808WAT    EPW55940   1.137   1.334   0.691
13809WAT      O55941   0.375   1.468   0.450
13809WAT     H155942   0.341   1.390   0.433
13809WAT     H255943   0.373   1.473   0.537
13809WAT    EPW55944   0.370   1.457   0.460
13810WAT      O55945   0.587   2.665   0.561
13810WAT     H155946   0.623   2.729   0.608
13810WAT     H255947   0.583   2.698   0.480
13810WAT    EPW55948   0.592   2.679   0.556
13811WAT      O55949   0.557   3.039   0.951
13811WAT     H155950   0.510   3.002   0.888
13811WAT     H255951   0.517   3.116   0.964
13811WAT    EPW55952   0.544   3.045   0.943
13812WAT      O55953   1.147   2.446   0.489
13812WAT     H155954   1.166   2.373   0.446
13812WAT     H255955   1.073   2.473   0.452
13812WAT    EPW55956   1.139   2.439   0.477
13813WAT      O55957   0.951   2.758   0.527
13813WAT     H155958   1.017   2.789   0.479
13813WAT     H255959   0.927   2.685   0.485
13813WAT    EPW55960   0.957   2.752   0.513
13814WAT      O55961   0.628   1.362   0.370
13814WAT     H155962   0.692   1.420   0.378
13814WAT     H255963   0.557   1.408   0.391
13814WAT    EPW55964   0.627   1.377   0.375
13815WAT      O55965   1.004   2.265   1.003
13815WAT     H155966   1.075   2.231   1.041
13815WAT     H255967   1.035   2.297   0.928
13815WAT    EPW55968   1.019   2.264   0.997
13816WAT      O55969   1.017   1.718   1.117
13816WAT     H155970   1.017   1.795   1.158
13816WAT     H255971   0.935   1.708   1.091
13816WAT    EPW55972   1.005   1.728   1.119
13817WAT      O55973   1.109   1.803   0.445
13817WAT     H155974   1.024   1.813   0.425
13817WAT     H255975   1.118   1.717   0.454
13817WAT    EPW55976   1.098   1.792   0.444
13818WAT      O55977   0.822   2.314   1.224
13818WAT     H155978   0.887   2.344   1.274
13818WAT     H255979   0.856   2.315   1.143
13818WAT    EPW55980   0.836   2.318   1.219
13819WAT      O55981   1.057   0.954   7.198
13819WAT     H155982   1.117   0.899   7.230
13819WAT     H255983   1.006   0.902   7.150
13819WAT    EPW55984   1.058   0.938   7.196
13820WAT      O55985   0.711   0.280   7.445
13820WAT     H155986   0.765   0.257   7.380
13820WAT     H255987   0.633   0.252   7.418
13820WAT    EPW55988   0.707   0.272   7.431
13821WAT      O55989   0.221   0.760   7.766
13821WAT     H155990   0.230   0.675   7.747
13821WAT     H255991   0.283   0.798   7.718
13821WAT    EPW55992   0.231   0.753   7.756
13822WAT      O55993   0.255   0.656   7.277
13822WAT     H155994   0.279   0.588   7.325
13822WAT     H255995   0.276   0.632   7.196
13822WAT    EPW55996   0.262   0.642   7.272
13823WAT      O55997   0.631   1.057   7.106
13823WAT     H155998   0.705   1.102   7.116
13823WAT     H255999   0.652   0.976   7.130
13823WAT    EPW56000   0.645   1.052   7.111
13824WAT      O56001   0.395   1.093   7.241
13824WAT     H156002   0.410   1.153   7.303
13824WAT     H256003   0.471   1.089   7.198
13824WAT    EPW56004   0.408   1.101   7.244
13825WAT      O56005   0.850   1.227   7.093
13825WAT     H156006   0.896   1.204   7.022
13825WAT     H256007   0.905   1.278   7.137
13825WAT    EPW56008   0.865   1.231   7.089
13826WAT      O56009   0.348   0.854   6.883
13826WAT     H156010   0.304   0.911   6.933
13826WAT     H256011   0.427   0.890   6.876
13826WAT    EPW56012   0.353   0.868   6.889
13827WAT      O56013   1.099   1.176   7.499
13827WAT     H156014   1.056   1.252   7.501
13827WAT     H256015   1.037   1.118   7.480
13827WAT    EPW56016   1.084   1.179   7.496
13828WAT      O56017   0.826   0.756   7.474
13828WAT     H156018   0.893   0.700   7.475
13828WAT     H256019   0.757   0.704   7.467
13828WAT    EPW56020   0.826   0.740   7.473
13829WAT      O56021   1.028   0.539   7.045
13829WAT     H156022   1.042   0.493   7.117
13829WAT     H256023   1.108   0.564   7.020
13829WAT    EPW56024   1.042   0.536   7.052
13830WAT      O56025   0.773   0.107   6.936
13830WAT     H156026   0.804   0.182   6.903
13830WAT     H256027   0.701   0.133   6.978
13830WAT    EPW56028   0.767   0.122   6.937
13831WAT      O56029   0.446   0.865   7.628
13831WAT     H156030   0.436   0.951   7.637
13831WAT     H256031   0.448   0.853   7.542
13831WAT    EPW56032   0.445   0.876   7.617
13832WAT      O56033   0.577   0.243   7.088
13832WAT     H156034   0.522   0.277   7.030
13832WAT     H256035   0.530   0.235   7.160
13832WAT    EPW56036   0.562   0.247   7.090
13833WAT      O56037   1.025   0.559   7.482
13833WAT     H156038   1.011   0.511   7.554
13833WAT     H256039   1.030   0.499   7.419
13833WAT    EPW56040   1.023   0.543   7.483
13834WAT      O56041   0.553   0.637   7.747
13834WAT     H156042   0.527   0.714   7.717
13834WAT     H256043   0.594   0.657   7.822
13834WAT    EPW56044   0.555   0.651   7.754
13835WAT      O56045   0.227   1.062   7.019
13835WAT     H156046   0.270   1.075   7.094
13835WAT     H256047   0.246   1.133   6.972
13835WAT    EPW56048   0.236   1.075   7.024
13836WAT      O56049   0.455   0.222   7.342
13836WAT     H156050   0.420   0.297   7.370
13836WAT     H256051   0.399   0.162   7.370
13836WAT    EPW56052   0.441   0.225   7.350
13837WAT      O56053   0.317   0.494   7.719
13837WAT     H156054   0.305   0.440   7.787
13837WAT     H256055   0.393   0.532   7.737
13837WAT    EPW56056   0.326   0.491   7.732
13838WAT      O56057   1.220   1.126   7.063
13838WAT     H156058   1.295   1.083   7.048
13838WAT     H256059   1.171   1.068   7.104
13838WAT    EPW56060   1.224   1.111   7.066
13839WAT      O56061   0.995   0.435   7.730
13839WAT     H156062   0.978   0.498   7.787
13839WAT     H256063   1.078   0.415   7.746
13839WAT    EPW56064   1.005   0.442   7.740
13840WAT      O56065   1.292   0.915   7.882
13840WAT     H156066   1.293   0.967   7.812
13840WAT     H256067   1.369   0.929   7.920
13840WAT    EPW56068   1.303   0.924   7.877
13841WAT      O56069   0.901   0.785   7.052
13841WAT     H156070   0.933   0.704   7.053
13841WAT     H256071   0.824   0.777   7.092
13841WAT    EPW56072   0.894   0.772   7.058
13842WAT      O56073   0.626   0.578   6.968
13842WAT     H156074   0.687   0.516   6.969
13842WAT     H256075   0.600   0.578   6.885
13842WAT    EPW56076   0.631   0.569   6.956
13843WAT      O56077   0.405   1.143   7.652
13843WAT     H156078   0.411   1.192   7.580
13843WAT     H256079   0.328   1.165   7.685
13843WAT    EPW56080   0.394   1.153   7.646
13844WAT      O56081   1.069   0.382   7.273
13844WAT     H156082   1.142   0.336   7.287
13844WAT     H256083   1.009   0.322   7.255
13844WAT    EPW56084   1.071   0.367   7.272
13845WAT      O56085   0.632   0.549   7.491
13845WAT     H156086   0.623   0.561   7.577
13845WAT     H256087   0.670   0.471   7.485
13845WAT    EPW56088   0.636   0.539   7.503
13846WAT      O56089   0.371   0.464   7.445
13846WAT     H156090   0.339   0.469   7.526
13846WAT     H256091   0.451   0.500   7.452
13846WAT    EPW56092   0.378   0.470   7.458
13847WAT      O56093   0.669   1.192   7.736
13847WAT     H156094   0.584   1.176   7.726
13847WAT     H256095   0.696   1.128   7.789
13847WAT    EPW56096   0.660   1.180   7.742
13848WAT      O56097   0.442   0.840   7.351
13848WAT     H156098   0.417   0.917   7.318
13848WAT     H256099   0.377   0.786   7.330
13848WAT    EPW56100   0.429   0.843   7.343
13849WAT      O56101   0.755   0.287   7.723
13849WAT     H156102   0.834   0.323   7.728
13849WAT     H256103   0.743   0.273   7.638
13849WAT    EPW56104   0.765   0.290   7.711
13850WAT      O56105   0.885   1.019   7.405
13850WAT     H156106   0.860   0.940   7.433
13850WAT     H256107   0.932   1.002   7.334
13850WAT    EPW56108   0.888   1.005   7.399
13851WAT      O56109   0.845   0.226   7.199
13851WAT     H156110   0.862   0.159   7.146
13851WAT     H256111   0.775   0.263   7.164
13851WAT    EPW56112   0.837   0.222   7.186
13852WAT      O56113   1.012   1.163   6.879
13852WAT     H156114   1.084   1.154   6.927
13852WAT     H256115   0.994   1.082   6.853
13852WAT    EPW56116   1.020   1.150   6.882
13853WAT      O56117   0.648   0.786   7.163
13853WAT     H156118   0.591   0.783   7.228
13853WAT     H256119   0.624   0.719   7.112
13853WAT    EPW56120   0.636   0.775   7.165
13854WAT      O56121   0.353   0.606   7.020
13854WAT     H156122   0.439   0.593   7.016
13854WAT     H256123   0.341   0.679   6.974
13854WAT    EPW56124   0.364   0.615   7.012
13855WAT      O56125   1.046   0.952   5.340
13855WAT     H156126   1.104   0.893   5.366
13855WAT     H256127   0.996   0.909   5.283
13855WAT    EPW56128   1.047   0.937   5.335
13856WAT      O56129   0.707   0.319   5.623
13856WAT     H156130   0.758   0.298   5.556
13856WAT     H256131   0.627   0.294   5.597
13856WAT    EPW56132   0.703   0.312   5.609
13857WAT      O56133   0.277   0.825   5.933
13857WAT     H156134   0.249   0.745   5.911
13857WAT     H256135   0.335   0.843   5.870
13857WAT    EPW56136   0.282   0.816   5.920
13858WAT      O56137   0.272   0.675   5.440
13858WAT     H156138   0.290   0.611   5.497
13858WAT     H256139   0.292   0.640   5.363
13858WAT    EPW56140   0.278   0.661   5.437
13859WAT      O56141   0.622   1.070   5.201
13859WAT     H156142   0.697   1.115   5.214
13859WAT     H256143   0.642   0.990   5.229
13859WAT    EPW56144   0.636   1.065   5.207
13860WAT      O56145   0.401   1.114   5.360
13860WAT     H156146   0.424   1.168   5.424
13860WAT     H256147   0.473   1.107   5.312
13860WAT    EPW56148   0.415   1.121   5.362
13861WAT      O56149   0.680   1.093   6.224
13861WAT     H156150   0.746   1.147   6.209
13861WAT     H256151   0.661   1.061   6.145
13861WAT    EPW56152   0.687   1.096   6.210
13862WAT      O56153   0.848   1.234   5.207
13862WAT     H156154   0.897   1.213   5.138
13862WAT     H256155   0.902   1.281   5.257
13862WAT    EPW56156   0.863   1.238   5.205
13863WAT      O56157   0.610   0.884   6.582
13863WAT     H156158   0.605   0.901   6.667
13863WAT     H256159   0.687   0.845   6.573
13863WAT    EPW56160   0.620   0.881   6.593
13864WAT      O56161   0.355   0.842   5.048
13864WAT     H156162   0.305   0.909   5.075
13864WAT     H256163   0.425   0.881   5.014
13864WAT    EPW56164   0.358   0.858   5.047
13865WAT      O56165   0.423   1.155   6.302
13865WAT     H156166   0.507   1.143   6.281
13865WAT     H256167   0.381   1.142   6.227
13865WAT    EPW56168   0.430   1.151   6.288
13866WAT      O56169   1.112   1.181   5.616
13866WAT     H156170   1.073   1.259   5.627
13866WAT     H256171   1.045   1.128   5.600
13866WAT    EPW56172   1.096   1.185   5.615
13867WAT      O56173   0.812   0.793   5.671
13867WAT     H156174   0.877   0.749   5.632
13867WAT     H256175   0.744   0.740   5.663
13867WAT    EPW56176   0.812   0.778   5.664
13868WAT      O56177   0.691   0.526   6.236
13868WAT     H156178   0.623   0.499   6.283
13868WAT     H256179   0.686   0.613   6.241
13868WAT    EPW56180   0.680   0.535   6.243
13869WAT      O56181   1.007   0.558   5.140
13869WAT     H156182   1.016   0.521   5.218
13869WAT     H256183   1.090   0.569   5.114
13869WAT    EPW56184   1.021   0.554   5.148
13870WAT      O56185   1.236   0.964   6.562
13870WAT     H156186   1.161   0.961   6.518
13870WAT     H256187   1.220   0.917   6.634
13870WAT    EPW56188   1.223   0.957   6.566
13871WAT      O56189   0.746   0.115   5.044
13871WAT     H156190   0.778   0.192   5.019
13871WAT     H256191   0.684   0.136   5.102
13871WAT    EPW56192   0.742   0.129   5.049
13872WAT      O56193   0.473   0.916   5.760
13872WAT     H156194   0.437   0.996   5.756
13872WAT     H256195   0.479   0.892   5.676
13872WAT    EPW56196   0.468   0.924   5.747
13873WAT      O56197   0.994   0.965   6.410
13873WAT     H156198   0.951   1.041   6.413
13873WAT     H256199   0.994   0.945   6.325
13873WAT    EPW56200   0.988   0.973   6.398
13874WAT      O56201   0.322   1.085   6.049
13874WAT     H156202   0.292   1.008   6.023
13874WAT     H256203   0.342   1.126   5.975
13874WAT    EPW56204   0.321   1.080   6.035
13875WAT      O56205   0.795   0.500   6.623
13875WAT     H156206   0.831   0.579   6.609
13875WAT     H256207   0.833   0.449   6.562
13875WAT    EPW56208   0.806   0.504   6.612
13876WAT      O56209   0.578   0.251   5.241
13876WAT     H156210   0.527   0.284   5.178
13876WAT     H256211   0.529   0.257   5.313
13876WAT    EPW56212   0.563   0.257   5.242
13877WAT      O56213   1.023   0.649   5.568
13877WAT     H156214   1.038   0.607   5.643
13877WAT     H256215   1.020   0.585   5.509
13877WAT    EPW56216   1.025   0.633   5.571
13878WAT      O56217   0.656   0.967   5.968
13878WAT     H156218   0.604   0.940   5.904
13878WAT     H256219   0.687   1.043   5.938
13878WAT    EPW56220   0.653   0.974   5.954
13879WAT      O56221   0.618   0.589   5.960
13879WAT     H156222   0.554   0.628   6.006
13879WAT     H256223   0.642   0.522   6.012
13879WAT    EPW56224   0.612   0.585   5.974
13880WAT      O56225   0.231   1.078   5.136
13880WAT     H156226   0.273   1.093   5.211
13880WAT     H256227   0.248   1.149   5.088
13880WAT    EPW56228   0.240   1.091   5.140
13881WAT      O56229   0.934   0.346   6.430
13881WAT     H156230   0.918   0.350   6.345
13881WAT     H256231   1.014   0.379   6.439
13881WAT    EPW56232   0.943   0.351   6.419
13882WAT      O56233   0.588   0.998   6.839
13882WAT     H156234   0.608   1.020   6.921
13882WAT     H256235   0.610   1.068   6.792
13882WAT    EPW56236   0.594   1.012   6.844
13883WAT      O56237   0.471   0.430   6.381
13883WAT     H156238   0.429   0.497   6.418
13883WAT     H256239   0.495   0.381   6.450
13883WAT    EPW56240   0.468   0.432   6.397
13884WAT      O56241   0.455   0.269   5.503
13884WAT     H156242   0.416   0.339   5.537
13884WAT     H256243   0.403   0.203   5.527
13884WAT    EPW56244   0.441   0.270   5.512
13885WAT      O56245   0.866   0.719   5.939
13885WAT     H156246   0.853   0.761   5.864
13885WAT     H256247   0.791   0.677   5.953
13885WAT    EPW56248   0.853   0.719   5.930
13886WAT      O56249   0.223   0.547   5.882
13886WAT     H156250   0.138   0.527   5.886
13886WAT     H256251   0.257   0.507   5.952
13886WAT    EPW56252   0.215   0.538   5.893
13887WAT      O56253   1.208   1.121   5.193
13887WAT     H156254   1.281   1.076   5.178
13887WAT     H256255   1.159   1.065   5.240
13887WAT    EPW56256   1.211   1.106   5.198
13888WAT      O56257   0.922   0.413   6.148
13888WAT     H156258   0.900   0.376   6.072
13888WAT     H256259   0.848   0.451   6.175
13888WAT    EPW56260   0.908   0.413   6.141
13889WAT      O56261   1.035   0.526   5.819
13889WAT     H156262   0.999   0.587   5.870
13889WAT     H256263   1.107   0.503   5.862
13889WAT    EPW56264   1.040   0.532   5.833
13890WAT      O56265   1.226   0.880   5.963
13890WAT     H156266   1.254   0.943   5.910
13890WAT     H256267   1.290   0.873   6.022
13890WAT    EPW56268   1.240   0.888   5.964
13891WAT      O56269   0.897   0.810   5.161
13891WAT     H156270   0.926   0.728   5.156
13891WAT     H256271   0.820   0.801   5.201
13891WAT    EPW56272   0.890   0.796   5.166
13892WAT      O56273   1.176   0.338   6.828
13892WAT     H156274   1.156   0.254   6.839
13892WAT     H256275   1.263   0.340   6.832
13892WAT    EPW56276   1.186   0.326   6.830
13893WAT      O56277   1.180   0.479   6.425
13893WAT     H156278   1.255   0.440   6.401
13893WAT     H256279   1.161   0.529   6.356
13893WAT    EPW56280   1.188   0.480   6.411
13894WAT      O56281   0.630   0.590   5.098
13894WAT     H156282   0.688   0.525   5.094
13894WAT     H256283   0.597   0.593   5.017
13894WAT    EPW56284   0.634   0.581   5.085
13895WAT      O56285   0.330   0.452   6.124
13895WAT     H156286   0.358   0.534   6.137
13895WAT     H256287   0.360   0.409   6.194
13895WAT    EPW56288   0.338   0.458   6.137
13896WAT      O56289   0.351   1.167   5.768
13896WAT     H156290   0.391   1.216   5.708
13896WAT     H256291   0.266   1.183   5.754
13896WAT    EPW56292   0.344   1.177   5.757
13897WAT      O56293   0.531   0.524   6.707
13897WAT     H156294   0.610   0.519   6.670
13897WAT     H256295   0.486   0.575   6.652
13897WAT    EPW56296   0.536   0.531   6.694
13898WAT      O56297   0.864   0.777   6.577
13898WAT     H156298   0.891   0.812   6.652
13898WAT     H256299   0.906   0.824   6.517
13898WAT    EPW56300   0.874   0.790   6.579
13899WAT      O56301   0.298   1.038   6.675
13899WAT     H156302   0.310   1.001   6.596
13899WAT     H256303   0.306   0.971   6.730
13899WAT    EPW56304   0.301   1.023   6.671
13900WAT      O56305   1.029   0.435   5.387
13900WAT     H156306   1.101   0.391   5.409
13900WAT     H256307   0.968   0.373   5.385
13900WAT    EPW56308   1.031   0.419   5.390
13901WAT      O56309   0.350   0.641   6.517
13901WAT     H156310   0.266   0.636   6.541
13901WAT     H256311   0.356   0.721   6.482
13901WAT    EPW56312   0.339   0.652   6.515
13902WAT      O56313   0.622   0.582   5.684
13902WAT     H156314   0.620   0.581   5.771
13902WAT     H256315   0.660   0.506   5.664
13902WAT    EPW56316   0.627   0.571   5.694
13903WAT      O56317   0.362   0.496   5.637
13903WAT     H156318   0.318   0.509   5.711
13903WAT     H256319   0.439   0.533   5.653
13903WAT    EPW56320   0.367   0.504   5.650
13904WAT      O56321   0.379   0.912   6.438
13904WAT     H156322   0.458   0.904   6.474
13904WAT     H256323   0.386   0.983   6.388
13904WAT    EPW56324   0.392   0.921   6.436
13905WAT      O56325   0.402   0.354   6.899
13905WAT     H156326   0.443   0.391   6.832
13905WAT     H256327   0.359   0.420   6.936
13905WAT    EPW56328   0.402   0.369   6.895
13906WAT      O56329   0.732   1.229   5.911
13906WAT     H156330   0.670   1.284   5.938
13906WAT     H256331   0.796   1.241   5.968
13906WAT    EPW56332   0.732   1.239   5.923
13907WAT      O56333   0.429   0.708   6.131
13907WAT     H156334   0.382   0.763   6.083
13907WAT     H256335   0.488   0.759   6.170
13907WAT    EPW56336   0.431   0.723   6.130
13908WAT      O56337   0.958   0.901   6.809
13908WAT     H156338   1.038   0.868   6.804
13908WAT     H256339   0.925   0.865   6.881
13908WAT    EPW56340   0.965   0.891   6.819
13909WAT      O56341   0.461   0.868   5.483
13909WAT     H156342   0.430   0.940   5.446
13909WAT     H256343   0.397   0.810   5.472
13909WAT    EPW56344   0.447   0.870   5.476
13910WAT      O56345   0.834   0.346   5.884
13910WAT     H156346   0.897   0.397   5.853
13910WAT     H256347   0.790   0.322   5.813
13910WAT    EPW56348   0.837   0.350   5.869
13911WAT      O56349   0.882   1.035   5.550
13911WAT     H156350   0.855   0.962   5.589
13911WAT     H256351   0.923   1.006   5.479
13911WAT    EPW56352   0.884   1.020   5.545
13912WAT      O56353   0.680   0.808   6.207
13912WAT     H156354   0.693   0.880   6.255
13912WAT     H256355   0.690   0.837   6.125
13912WAT    EPW56356   0.683   0.823   6.202
13913WAT      O56357   0.638   1.185   6.627
13913WAT     H156358   0.590   1.128   6.581
13913WAT     H256359   0.585   1.254   6.635
13913WAT    EPW56360   0.623   1.186   6.621
13914WAT      O56361   1.113   0.617   6.194
13914WAT     H156362   1.058   0.555   6.167
13914WAT     H256363   1.068   0.691   6.182
13914WAT    EPW56364   1.098   0.619   6.188
13915WAT      O56365   1.003   0.868   6.136
13915WAT     H156366   1.071   0.887   6.084
13915WAT     H256367   0.944   0.834   6.083
13915WAT    EPW56368   1.005   0.866   6.121
13916WAT      O56369   0.827   0.241   5.375
13916WAT     H156370   0.847   0.158   5.358
13916WAT     H256371   0.757   0.256   5.326
13916WAT    EPW56372   0.820   0.231   5.365
13917WAT      O56373   1.016   1.170   4.997
13917WAT     H156374   1.083   1.156   5.051
13917WAT     H256375   0.996   1.091   4.968
13917WAT    EPW56376   1.023   1.156   5.001
13918WAT      O56377   1.112   0.564   6.681
13918WAT     H156378   1.124   0.492   6.728
13918WAT     H256379   1.133   0.539   6.600
13918WAT    EPW56380   1.117   0.550   6.676
13919WAT      O56381   0.650   0.807   5.283
13919WAT     H156382   0.597   0.808   5.352
13919WAT     H256383   0.624   0.738   5.238
13919WAT    EPW56384   0.639   0.797   5.287
13920WAT      O56385   0.838   0.391   6.887
13920WAT     H156386   0.907   0.430   6.923
13920WAT     H256387   0.836   0.423   6.806
13920WAT    EPW56388   0.848   0.402   6.880
13921WAT      O56389   0.364   0.599   5.186
13921WAT     H156390   0.450   0.586   5.174
13921WAT     H256391   0.348   0.672   5.142
13921WAT    EPW56392   0.374   0.608   5.178
13922WAT      O56393   1.031   0.956   3.413
13922WAT     H156394   1.103   0.916   3.441
13922WAT     H256395   0.992   0.895   3.363
13922WAT    EPW56396   1.036   0.941   3.410
13923WAT      O56397   0.712   0.307   3.732
13923WAT     H156398   0.768   0.275   3.672
13923WAT     H256399   0.634   0.283   3.702
13923WAT    EPW56400   0.709   0.299   3.719
13924WAT      O56401   0.292   0.818   4.034
13924WAT     H156402   0.262   0.740   4.011
13924WAT     H256403   0.350   0.837   3.971
13924WAT    EPW56404   0.296   0.809   4.021
13925WAT      O56405   0.284   0.672   3.542
13925WAT     H156406   0.299   0.606   3.598
13925WAT     H256407   0.301   0.636   3.464
13925WAT    EPW56408   0.289   0.657   3.539
13926WAT      O56409   0.626   1.060   3.301
13926WAT     H156410   0.698   1.108   3.314
13926WAT     H256411   0.650   0.981   3.329
13926WAT    EPW56412   0.640   1.055   3.307
13927WAT      O56413   0.406   1.108   3.460
13927WAT     H156414   0.429   1.163   3.523
13927WAT     H256415   0.478   1.101   3.412
13927WAT    EPW56416   0.420   1.115   3.462
13928WAT      O56417   0.681   1.103   4.327
13928WAT     H156418   0.746   1.158   4.312
13928WAT     H256419   0.662   1.071   4.248
13928WAT    EPW56420   0.688   1.106   4.313
13929WAT      O56421   0.842   1.235   3.307
13929WAT     H156422   0.887   1.211   3.236
13929WAT     H256423   0.899   1.281   3.354
13929WAT    EPW56424   0.857   1.238   3.303
13930WAT      O56425   0.611   0.892   4.685
13930WAT     H156426   0.605   0.907   4.771
13930WAT     H256427   0.688   0.853   4.676
13930WAT    EPW56428   0.621   0.888   4.696
13931WAT      O56429   0.359   0.837   3.151
13931WAT     H156430   0.309   0.904   3.177
13931WAT     H256431   0.428   0.876   3.113
13931WAT    EPW56432   0.362   0.853   3.149
13932WAT      O56433   0.421   1.152   4.407
13932WAT     H156434   0.505   1.144   4.386
13932WAT     H256435   0.379   1.139   4.331
13932WAT    EPW56436   0.427   1.149   4.393
13933WAT      O56437   1.112   1.170   3.696
13933WAT     H156438   1.074   1.248   3.708
13933WAT     H256439   1.045   1.116   3.683
13933WAT    EPW56440   1.097   1.174   3.696
13934WAT      O56441   0.829   0.772   3.757
13934WAT     H156442   0.886   0.717   3.722
13934WAT     H256443   0.754   0.728   3.754
13934WAT    EPW56444   0.826   0.758   3.752
13935WAT      O56445   0.697   0.541   4.361
13935WAT     H156446   0.623   0.515   4.399
13935WAT     H256447   0.690   0.628   4.359
13935WAT    EPW56448   0.685   0.550   4.366
13936WAT      O56449   1.044   0.503   3.253
13936WAT     H156450   1.050   0.462   3.329
13936WAT     H256451   1.116   0.552   3.251
13936WAT    EPW56452   1.056   0.504   3.264
13937WAT      O56453   1.239   0.981   4.676
13937WAT     H156454   1.165   0.975   4.630
13937WAT     H256455   1.222   0.935   4.749
13937WAT    EPW56456   1.225   0.973   4.680
13938WAT      O56457   0.748   0.096   3.151
13938WAT     H156458   0.782   0.170   3.120
13938WAT     H256459   0.694   0.122   3.214
13938WAT    EPW56460   0.745   0.110   3.156
13939WAT      O56461   0.483   0.916   3.859
13939WAT     H156462   0.444   0.994   3.855
13939WAT     H256463   0.489   0.892   3.776
13939WAT    EPW56464   0.479   0.924   3.846
13940WAT      O56465   1.000   0.971   4.519
13940WAT     H156466   0.956   1.047   4.521
13940WAT     H256467   0.998   0.949   4.434
13940WAT    EPW56468   0.993   0.979   4.506
13941WAT      O56469   0.326   1.081   4.151
13941WAT     H156470   0.300   1.002   4.125
13941WAT     H256471   0.344   1.122   4.076
13941WAT    EPW56472   0.325   1.075   4.136
13942WAT      O56473   0.791   0.510   4.735
13942WAT     H156474   0.824   0.589   4.719
13942WAT     H256475   0.829   0.459   4.676
13942WAT    EPW56476   0.802   0.514   4.724
13943WAT      O56477   0.599   0.233   3.356
13943WAT     H156478   0.550   0.270   3.294
13943WAT     H256479   0.550   0.242   3.428
13943WAT    EPW56480   0.584   0.240   3.358
13944WAT      O56481   1.009   0.575   3.674
13944WAT     H156482   1.009   0.537   3.753
13944WAT     H256483   1.018   0.508   3.619
13944WAT    EPW56484   1.010   0.559   3.678
13945WAT      O56485   0.662   0.971   4.071
13945WAT     H156486   0.610   0.943   4.007
13945WAT     H256487   0.693   1.047   4.041
13945WAT    EPW56488   0.659   0.978   4.057
13946WAT      O56489   0.642   0.584   4.053
13946WAT     H156490   0.583   0.603   4.114
13946WAT     H256491   0.668   0.503   4.074
13946WAT    EPW56492   0.637   0.575   4.065
13947WAT      O56493   0.235   1.073   3.237
13947WAT     H156494   0.277   1.088   3.312
13947WAT     H256495   0.251   1.144   3.190
13947WAT    EPW56496   0.243   1.086   3.241
13948WAT      O56497   0.934   0.357   4.545
13948WAT     H156498   0.914   0.363   4.460
13948WAT     H256499   1.016   0.386   4.549
13948WAT    EPW56500   0.943   0.362   4.533
13949WAT      O56501   0.563   1.018   4.935
13949WAT     H156502   0.584   1.038   5.017
13949WAT     H256503   0.601   1.081   4.888
13949WAT    EPW56504   0.572   1.030   4.940
13950WAT      O56505   0.468   0.438   4.488
13950WAT     H156506   0.426   0.503   4.529
13950WAT     H256507   0.496   0.388   4.554
13950WAT    EPW56508   0.466   0.441   4.504
13951WAT      O56509   0.463   0.258   3.610
13951WAT     H156510   0.423   0.329   3.642
13951WAT     H256511   0.410   0.192   3.632
13951WAT    EPW56512   0.450   0.259   3.618
13952WAT      O56513   0.882   0.725   4.036
13952WAT     H156514   0.870   0.761   3.958
13952WAT     H256515   0.806   0.685   4.052
13952WAT    EPW56516   0.869   0.724   4.027
13953WAT      O56517   0.228   0.542   3.981
13953WAT     H156518   0.143   0.526   3.986
13953WAT     H256519   0.261   0.502   4.051
13953WAT    EPW56520   0.220   0.534   3.992
13954WAT      O56521   1.203   1.118   3.269
13954WAT     H156522   1.265   1.064   3.240
13954WAT     H256523   1.149   1.066   3.313
13954WAT    EPW56524   1.204   1.103   3.271
13955WAT      O56525   0.920   0.423   4.262
13955WAT     H156526   0.891   0.378   4.193
13955WAT     H256527   0.849   0.464   4.290
13955WAT    EPW56528   0.905   0.423   4.256
13956WAT      O56529   1.017   0.498   3.939
13956WAT     H156530   0.992   0.570   3.980
13956WAT     H256531   1.098   0.483   3.969
13956WAT    EPW56532   1.025   0.506   3.949
13957WAT      O56533   1.233   0.928   4.090
13957WAT     H156534   1.259   0.983   4.027
13957WAT     H256535   1.299   0.929   4.147
13957WAT    EPW56536   1.246   0.936   4.089
13958WAT      O56537   0.914   0.758   3.262
13958WAT     H156538   0.941   0.675   3.262
13958WAT     H256539   0.837   0.755   3.302
13958WAT    EPW56540   0.907   0.745   3.268
13959WAT      O56541   1.165   0.367   4.941
13959WAT     H156542   1.132   0.286   4.944
13959WAT     H256543   1.251   0.354   4.939
13959WAT    EPW56544   1.173   0.353   4.941
13960WAT      O56545   1.188   0.476   4.517
13960WAT     H156546   1.260   0.436   4.491
13960WAT     H256547   1.168   0.529   4.451
13960WAT    EPW56548   1.196   0.478   4.504
13961WAT      O56549   0.632   0.591   3.198
13961WAT     H156550   0.687   0.523   3.194
13961WAT     H256551   0.597   0.595   3.119
13961WAT    EPW56552   0.635   0.581   3.186
13962WAT      O56553   0.335   0.446   4.223
13962WAT     H156554   0.367   0.526   4.234
13962WAT     H256555   0.359   0.404   4.296
13962WAT    EPW56556   0.344   0.452   4.235
13963WAT      O56557   0.353   1.162   3.868
13963WAT     H156558   0.392   1.212   3.808
13963WAT     H256559   0.268   1.176   3.854
13963WAT    EPW56560   0.346   1.172   3.857
13964WAT      O56561   0.530   0.539   4.838
13964WAT     H156562   0.606   0.530   4.797
13964WAT     H256563   0.480   0.582   4.780
13964WAT    EPW56564   0.534   0.544   4.823
13965WAT      O56565   0.863   0.785   4.685
13965WAT     H156566   0.891   0.820   4.760
13965WAT     H256567   0.908   0.828   4.625
13965WAT    EPW56568   0.874   0.796   4.687
13966WAT      O56569   0.333   1.083   4.779
13966WAT     H156570   0.326   1.030   4.711
13966WAT     H256571   0.391   1.043   4.830
13966WAT    EPW56572   0.340   1.069   4.777
13967WAT      O56573   1.069   0.370   3.497
13967WAT     H156574   1.143   0.329   3.517
13967WAT     H256575   1.009   0.306   3.498
13967WAT    EPW56576   1.071   0.354   3.500
13968WAT      O56577   0.349   0.643   4.638
13968WAT     H156578   0.266   0.635   4.662
13968WAT     H256579   0.352   0.724   4.604
13968WAT    EPW56580   0.337   0.654   4.637
13969WAT      O56581   0.625   0.575   3.778
13969WAT     H156582   0.627   0.579   3.865
13969WAT     H256583   0.665   0.499   3.761
13969WAT    EPW56584   0.632   0.564   3.789
13970WAT      O56585   0.365   0.487   3.737
13970WAT     H156586   0.322   0.501   3.811
13970WAT     H256587   0.443   0.524   3.752
13970WAT    EPW56588   0.370   0.495   3.750
13971WAT      O56589   0.372   0.915   4.556
13971WAT     H156590   0.453   0.907   4.586
13971WAT     H256591   0.377   0.982   4.500
13971WAT    EPW56592   0.385   0.924   4.552
13972WAT      O56593   0.414   0.361   5.039
13972WAT     H156594   0.450   0.401   4.970
13972WAT     H256595   0.370   0.425   5.079
13972WAT    EPW56596   0.413   0.377   5.035
13973WAT      O56597   0.739   1.232   4.010
13973WAT     H156598   0.676   1.287   4.036
13973WAT     H256599   0.802   1.245   4.068
13973WAT    EPW56600   0.739   1.242   4.023
13974WAT      O56601   0.445   0.696   4.228
13974WAT     H156602   0.399   0.748   4.177
13974WAT     H256603   0.502   0.750   4.267
13974WAT    EPW56604   0.447   0.712   4.226
13975WAT      O56605   0.955   0.913   4.915
13975WAT     H156606   1.036   0.880   4.911
13975WAT     H256607   0.923   0.881   4.989
13975WAT    EPW56608   0.962   0.904   4.925
13976WAT      O56609   0.474   0.864   3.583
13976WAT     H156610   0.441   0.936   3.546
13976WAT     H256611   0.410   0.805   3.573
13976WAT    EPW56612   0.459   0.866   3.576
13977WAT      O56613   0.800   0.344   4.009
13977WAT     H156614   0.871   0.386   3.980
13977WAT     H256615   0.765   0.310   3.936
13977WAT    EPW56616   0.805   0.345   3.994
13978WAT      O56617   0.881   1.022   3.641
13978WAT     H156618   0.860   0.946   3.678
13978WAT     H256619   0.913   0.999   3.563
13978WAT    EPW56620   0.883   1.007   3.635
13979WAT      O56621   0.680   0.819   4.311
13979WAT     H156622   0.692   0.890   4.360
13979WAT     H256623   0.691   0.848   4.229
13979WAT    EPW56624   0.684   0.834   4.306
13980WAT      O56625   0.644   1.195   4.727
13980WAT     H156626   0.597   1.143   4.676
13980WAT     H256627   0.593   1.265   4.739
13980WAT    EPW56628   0.630   1.198   4.721
13981WAT      O56629   1.122   0.623   4.291
13981WAT     H156630   1.064   0.562   4.269
13981WAT     H256631   1.077   0.698   4.283
13981WAT    EPW56632   1.106   0.625   4.286
13982WAT      O56633   1.006   0.874   4.246
13982WAT     H156634   1.073   0.902   4.197
13982WAT     H256635   0.951   0.840   4.187
13982WAT    EPW56636   1.008   0.873   4.230
13983WAT      O56637   0.847   0.195   3.502
13983WAT     H156638   0.861   0.110   3.491
13983WAT     H256639   0.781   0.212   3.447
13983WAT    EPW56640   0.839   0.185   3.492
13984WAT      O56641   0.994   1.161   3.090
13984WAT     H156642   1.067   1.150   3.137
13984WAT     H256643   0.972   1.080   3.066
13984WAT    EPW56644   1.002   1.148   3.093
13985WAT      O56645   1.131   0.582   4.769
13985WAT     H156646   1.134   0.512   4.821
13985WAT     H256647   1.150   0.550   4.690
13985WAT    EPW56648   1.134   0.567   4.765
13986WAT      O56649   0.667   0.800   3.387
13986WAT     H156650   0.613   0.803   3.455
13986WAT     H256651   0.634   0.736   3.338
13986WAT    EPW56652   0.654   0.791   3.390
13987WAT      O56653   0.825   0.396   4.997
13987WAT     H156654   0.893   0.438   5.032
13987WAT     H256655   0.821   0.427   4.915
13987WAT    EPW56656   0.835   0.407   4.990
13988WAT      O56657   0.367   0.591   3.286
13988WAT     H156658   0.453   0.581   3.275
13988WAT     H256659   0.349   0.664   3.242
13988WAT    EPW56660   0.377   0.601   3.278
13989WAT      O56661   1.053   0.947   1.548
13989WAT     H156662   1.113   0.890   1.574
13989WAT     H256663   1.003   0.902   1.494
13989WAT    EPW56664   1.054   0.932   1.544
13990WAT      O56665   0.714   0.316   1.836
13990WAT     H156666   0.767   0.293   1.770
13990WAT     H256667   0.635   0.289   1.809
13990WAT    EPW56668   0.710   0.308   1.822
13991WAT      O56669   0.278   0.825   2.133
13991WAT     H156670   0.251   0.744   2.113
13991WAT     H256671   0.337   0.843   2.071
13991WAT    EPW56672   0.283   0.815   2.121
13992WAT      O56673   0.277   0.673   1.640
13992WAT     H156674   0.294   0.607   1.695
13992WAT     H256675   0.292   0.638   1.562
13992WAT    EPW56676   0.282   0.658   1.637
13993WAT      O56677   0.630   1.075   1.413
13993WAT     H156678   0.706   1.118   1.416
13993WAT     H256679   0.651   0.994   1.439
13993WAT    EPW56680   0.644   1.069   1.417
13994WAT      O56681   0.403   1.113   1.565
13994WAT     H156682   0.425   1.165   1.632
13994WAT     H256683   0.477   1.108   1.519
13994WAT    EPW56684   0.417   1.120   1.568
13995WAT      O56685   0.682   1.101   2.428
13995WAT     H156686   0.748   1.157   2.413
13995WAT     H256687   0.664   1.069   2.349
13995WAT    EPW56688   0.689   1.105   2.414
13996WAT      O56689   0.857   1.236   1.392
13996WAT     H156690   0.906   1.212   1.324
13996WAT     H256691   0.911   1.284   1.440
13996WAT    EPW56692   0.872   1.240   1.389
13997WAT      O56693   0.621   0.894   2.781
13997WAT     H156694   0.615   0.906   2.867
13997WAT     H256695   0.697   0.852   2.772
13997WAT    EPW56696   0.632   0.889   2.792
13998WAT      O56697   0.322   0.849   1.229
13998WAT     H156698   0.281   0.907   1.279
13998WAT     H256699   0.400   0.885   1.214
13998WAT    EPW56700   0.327   0.863   1.234
13999WAT      O56701   0.423   1.150   2.509
13999WAT     H156702   0.507   1.142   2.487
13999WAT     H256703   0.380   1.138   2.434
13999WAT    EPW56704   0.429   1.147   2.495
14000WAT      O56705   1.112   1.183   1.816
14000WAT     H156706   1.073   1.260   1.822
14000WAT     H256707   1.046   1.127   1.801
14000WAT    EPW56708   1.097   1.186   1.815
14001WAT      O56709   0.816   0.786   1.868
14001WAT     H156710   0.878   0.739   1.828
14001WAT     H256711   0.745   0.734   1.863
14001WAT    EPW56712   0.815   0.771   1.861
14002WAT      O56713   0.697   0.535   2.439
14002WAT     H156714   0.629   0.507   2.486
14002WAT     H256715   0.691   0.621   2.444
14002WAT    EPW56716   0.686   0.543   2.447
14003WAT      O56717   1.016   0.541   1.362
14003WAT     H156718   1.032   0.498   1.436
14003WAT     H256719   1.095   0.557   1.330
14003WAT    EPW56720   1.030   0.537   1.368
14004WAT      O56721   1.248   0.989   2.755
14004WAT     H156722   1.175   0.984   2.708
14004WAT     H256723   1.228   0.947   2.829
14004WAT    EPW56724   1.235   0.982   2.759
14005WAT      O56725   0.751   0.124   1.252
14005WAT     H156726   0.780   0.202   1.227
14005WAT     H256727   0.693   0.142   1.314
14005WAT    EPW56728   0.747   0.138   1.257
14006WAT      O56729   0.477   0.916   1.964
14006WAT     H156730   0.440   0.995   1.960
14006WAT     H256731   0.483   0.892   1.881
14006WAT    EPW56732   0.472   0.924   1.951
14007WAT      O56733   1.001   0.971   2.612
14007WAT     H156734   0.958   1.046   2.615
14007WAT     H256735   0.999   0.949   2.528
14007WAT    EPW56736   0.995   0.978   2.600
14008WAT      O56737   0.322   1.082   2.255
14008WAT     H156738   0.291   1.006   2.227
14008WAT     H256739   0.343   1.124   2.181
14008WAT    EPW56740   0.321   1.077   2.240
14009WAT      O56741   0.793   0.507   2.838
14009WAT     H156742   0.824   0.587   2.819
14009WAT     H256743   0.830   0.456   2.778
14009WAT    EPW56744   0.803   0.511   2.826
14010WAT      O56745   0.589   0.245   1.458
14010WAT     H156746   0.536   0.279   1.397
14010WAT     H256747   0.541   0.249   1.531
14010WAT    EPW56748   0.574   0.251   1.460
14011WAT      O56749   1.018   0.628   1.766
14011WAT     H156750   1.032   0.591   1.844
14011WAT     H256751   1.031   0.562   1.710
14011WAT    EPW56752   1.022   0.613   1.769
14012WAT      O56753   0.659   0.973   2.172
14012WAT     H156754   0.607   0.945   2.108
14012WAT     H256755   0.690   1.049   2.141
14012WAT    EPW56756   0.656   0.980   2.158
14013WAT      O56757   0.623   0.593   2.165
14013WAT     H156758   0.558   0.633   2.208
14013WAT     H256759   0.648   0.530   2.220
14013WAT    EPW56760   0.617   0.589   2.180
14014WAT      O56761   0.213   1.066   1.362
14014WAT     H156762   0.264   1.084   1.431
14014WAT     H256763   0.227   1.134   1.309
14014WAT    EPW56764   0.222   1.079   1.365
14015WAT      O56765   0.935   0.363   2.642
14015WAT     H156766   0.923   0.364   2.555
14015WAT     H256767   1.014   0.397   2.653
14015WAT    EPW56768   0.945   0.368   2.631
14016WAT      O56769   0.567   1.014   3.033
14016WAT     H156770   0.589   1.031   3.116
14016WAT     H256771   0.607   1.078   2.989
14016WAT    EPW56772   0.576   1.026   3.039
14017WAT      O56773   0.479   0.437   2.587
14017WAT     H156774   0.438   0.502   2.629
14017WAT     H256775   0.507   0.385   2.652
14017WAT    EPW56776   0.477   0.439   2.603
14018WAT      O56777   0.463   0.260   1.717
14018WAT     H156778   0.423   0.331   1.749
14018WAT     H256779   0.412   0.195   1.744
14018WAT    EPW56780   0.449   0.261   1.726
14019WAT      O56781   0.870   0.724   2.140
14019WAT     H156782   0.857   0.763   2.063
14019WAT     H256783   0.795   0.683   2.155
14019WAT    EPW56784   0.857   0.724   2.131
14020WAT      O56785   0.227   0.544   2.086
14020WAT     H156786   0.142   0.525   2.092
14020WAT     H256787   0.262   0.507   2.156
14020WAT    EPW56788   0.220   0.536   2.097
14021WAT      O56789   1.220   1.110   1.398
14021WAT     H156790   1.292   1.065   1.378
14021WAT     H256791   1.173   1.053   1.444
14021WAT    EPW56792   1.224   1.094   1.402
14022WAT      O56793   0.930   0.420   2.357
14022WAT     H156794   0.907   0.379   2.283
14022WAT     H256795   0.855   0.459   2.382
14022WAT    EPW56796   0.915   0.420   2.350
14023WAT      O56797   1.034   0.525   2.024
14023WAT     H156798   1.000   0.588   2.073
14023WAT     H256799   1.109   0.506   2.066
14023WAT    EPW56800   1.040   0.532   2.038
14024WAT      O56801   1.232   0.893   2.173
14024WAT     H156802   1.258   0.954   2.117
14024WAT     H256803   1.297   0.890   2.231
14024WAT    EPW56804   1.246   0.902   2.173
14025WAT      O56805   0.905   0.792   1.381
14025WAT     H156806   0.933   0.710   1.380
14025WAT     H256807   0.826   0.787   1.417
14025WAT    EPW56808   0.897   0.779   1.386
14026WAT      O56809   1.159   0.355   3.038
14026WAT     H156810   1.132   0.386   3.115
14026WAT     H256811   1.245   0.348   3.048
14026WAT    EPW56812   1.167   0.358   3.051
14027WAT      O56813   1.181   0.499   2.634
14027WAT     H156814   1.252   0.455   2.610
14027WAT     H256815   1.161   0.546   2.563
14027WAT    EPW56816   1.188   0.499   2.620
14028WAT      O56817   0.620   0.595   1.296
14028WAT     H156818   0.680   0.531   1.298
14028WAT     H256819   0.589   0.592   1.215
14028WAT    EPW56820   0.624   0.585   1.285
14029WAT      O56821   0.334   0.456   2.331
14029WAT     H156822   0.362   0.538   2.342
14029WAT     H256823   0.365   0.415   2.401
14029WAT    EPW56824   0.343   0.462   2.343
14030WAT      O56825   0.351   1.165   1.974
14030WAT     H156826   0.391   1.215   1.914
14030WAT     H256827   0.266   1.182   1.961
14030WAT    EPW56828   0.344   1.175   1.963
14031WAT      O56829   0.532   0.532   2.941
14031WAT     H156830   0.609   0.524   2.901
14031WAT     H256831   0.483   0.575   2.883
14031WAT    EPW56832   0.536   0.537   2.927
14032WAT      O56833   0.871   0.778   2.781
14032WAT     H156834   0.895   0.812   2.858
14032WAT     H256835   0.917   0.825   2.723
14032WAT    EPW56836   0.881   0.790   2.784
14033WAT      O56837   0.337   1.080   2.881
14033WAT     H156838   0.331   1.026   2.812
14033WAT     H256839   0.398   1.042   2.931
14033WAT    EPW56840   0.345   1.066   2.878
14034WAT      O56841   1.064   0.403   1.600
14034WAT     H156842   1.135   0.357   1.620
14034WAT     H256843   1.000   0.345   1.601
14034WAT    EPW56844   1.065   0.388   1.603
14035WAT      O56845   0.357   0.640   2.738
14035WAT     H156846   0.273   0.630   2.759
14035WAT     H256847   0.361   0.720   2.705
14035WAT    EPW56848   0.345   0.650   2.736
14036WAT      O56849   0.623   0.578   1.890
14036WAT     H156850   0.622   0.579   1.977
14036WAT     H256851   0.664   0.503   1.871
14036WAT    EPW56852   0.629   0.567   1.900
14037WAT      O56853   0.364   0.492   1.839
14037WAT     H156854   0.320   0.505   1.913
14037WAT     H256855   0.442   0.528   1.855
14037WAT    EPW56856   0.369   0.499   1.852
14038WAT      O56857   0.379   0.912   2.658
14038WAT     H156858   0.461   0.905   2.686
14038WAT     H256859   0.382   0.980   2.602
14038WAT    EPW56860   0.392   0.921   2.654
14039WAT      O56861   0.435   0.348   3.155
14039WAT     H156862   0.467   0.386   3.083
14039WAT     H256863   0.386   0.410   3.190
14039WAT    EPW56864   0.433   0.363   3.149
14040WAT      O56865   0.737   1.234   2.111
14040WAT     H156866   0.675   1.288   2.139
14040WAT     H256867   0.802   1.246   2.169
14040WAT    EPW56868   0.738   1.244   2.124
14041WAT      O56869   0.432   0.713   2.333
14041WAT     H156870   0.384   0.767   2.285
14041WAT     H256871   0.490   0.765   2.371
14041WAT    EPW56872   0.433   0.729   2.332
14042WAT      O56873   0.942   0.897   3.023
14042WAT     H156874   1.027   0.879   3.013
14042WAT     H256875   0.920   0.851   3.095
14042WAT    EPW56876   0.951   0.887   3.032
14043WAT      O56877   0.464   0.866   1.688
14043WAT     H156878   0.433   0.938   1.651
14043WAT     H256879   0.400   0.808   1.676
14043WAT    EPW56880   0.450   0.868   1.680
14044WAT      O56881   0.840   0.343   2.097
14044WAT     H156882   0.902   0.395   2.064
14044WAT     H256883   0.794   0.319   2.027
14044WAT    EPW56884   0.842   0.347   2.082
14045WAT      O56885   0.885   1.031   1.754
14045WAT     H156886   0.857   0.957   1.792
14045WAT     H256887   0.928   1.002   1.683
14045WAT    EPW56888   0.887   1.016   1.749
14046WAT      O56889   0.681   0.817   2.410
14046WAT     H156890   0.694   0.887   2.460
14046WAT     H256891   0.691   0.846   2.329
14046WAT    EPW56892   0.684   0.831   2.406
14047WAT      O56893   0.650   1.195   2.828
14047WAT     H156894   0.604   1.141   2.776
14047WAT     H256895   0.597   1.263   2.839
14047WAT    EPW56896   0.635   1.197   2.822
14048WAT      O56897   1.121   0.625   2.395
14048WAT     H156898   1.066   0.562   2.371
14048WAT     H256899   1.075   0.698   2.382
14048WAT    EPW56900   1.106   0.627   2.390
14049WAT      O56901   1.006   0.874   2.339
14049WAT     H156902   1.073   0.893   2.287
14049WAT     H256903   0.948   0.839   2.284
14049WAT    EPW56904   1.007   0.872   2.323
14050WAT      O56905   0.841   0.230   1.594
14050WAT     H156906   0.854   0.144   1.584
14050WAT     H256907   0.773   0.248   1.543
14050WAT    EPW56908   0.833   0.220   1.585
14051WAT      O56909   1.035   1.152   1.197
14051WAT     H156910   1.099   1.140   1.255
14051WAT     H256911   1.009   1.072   1.178
14051WAT    EPW56912   1.041   1.139   1.203
14052WAT      O56913   1.170   0.591   2.897
14052WAT     H156914   1.160   0.516   2.939
14052WAT     H256915   1.168   0.568   2.813
14052WAT    EPW56916   1.168   0.577   2.890
14053WAT      O56917   0.651   0.807   1.485
14053WAT     H156918   0.598   0.806   1.554
14053WAT     H256919   0.622   0.740   1.436
14053WAT    EPW56920   0.639   0.797   1.488
14054WAT      O56921   0.817   0.393   3.105
14054WAT     H156922   0.893   0.419   3.138
14054WAT     H256923   0.819   0.421   3.023
14054WAT    EPW56924   0.828   0.401   3.098
14055WAT      O56925   0.352   0.604   1.376
14055WAT     H156926   0.438   0.597   1.363
14055WAT     H256927   0.331   0.675   1.329
14055WAT    EPW56928   0.362   0.614   1.367
14056WAT      O56929   0.685   1.072   0.651
14056WAT     H156930   0.737   1.123   0.698
14056WAT     H256931   0.707   1.090   0.569
14056WAT    EPW56932   0.696   1.082   0.646
14057WAT      O56933   0.574   0.829   0.932
14057WAT     H156934   0.576   0.872   1.009
14057WAT     H256935   0.659   0.817   0.915
14057WAT    EPW56936   0.587   0.834   0.941
14058WAT      O56937   0.435   1.162   0.695
14058WAT     H156938   0.516   1.138   0.676
14058WAT     H256939   0.397   1.170   0.616
14058WAT    EPW56940   0.441   1.160   0.681
14059WAT      O56941   0.650   0.524   0.551
14059WAT     H156942   0.585   0.492   0.599
14059WAT     H256943   0.666   0.602   0.587
14059WAT    EPW56944   0.643   0.531   0.563
14060WAT      O56945   1.247   0.983   0.888
14060WAT     H156946   1.169   0.989   0.849
14060WAT     H256947   1.230   0.937   0.960
14060WAT    EPW56948   1.233   0.977   0.893
14061WAT      O56949   0.993   0.997   0.758
14061WAT     H156950   0.947   1.068   0.781
14061WAT     H256951   0.991   0.999   0.671
14061WAT    EPW56952   0.986   1.008   0.748
14062WAT      O56953   0.344   1.183   0.433
14062WAT     H156954   0.306   1.105   0.437
14062WAT     H256955   0.410   1.171   0.378
14062WAT    EPW56956   0.348   1.170   0.425
14063WAT      O56957   0.786   0.520   0.951
14063WAT     H156958   0.818   0.600   0.934
14063WAT     H256959   0.824   0.469   0.891
14063WAT    EPW56960   0.796   0.524   0.939
14064WAT      O56961   0.541   0.884   0.375
14064WAT     H156962   0.569   0.816   0.329
14064WAT     H256963   0.600   0.946   0.359
14064WAT    EPW56964   0.554   0.883   0.366
14065WAT      O56965   0.635   0.634   0.292
14065WAT     H156966   0.563   0.605   0.252
14065WAT     H256967   0.635   0.591   0.368
14065WAT    EPW56968   0.624   0.623   0.298
14066WAT      O56969   0.913   0.365   0.755
14066WAT     H156970   0.890   0.345   0.674
14066WAT     H256971   0.995   0.393   0.747
14066WAT    EPW56972   0.922   0.366   0.742
14067WAT      O56973   0.551   0.994   1.158
14067WAT     H156974   0.583   1.025   1.234
14067WAT     H256975   0.552   1.064   1.106
14067WAT    EPW56976   0.556   1.009   1.162
14068WAT      O56977   0.444   0.426   0.711
14068WAT     H156978   0.401   0.491   0.750
14068WAT     H256979   0.478   0.381   0.778
14068WAT    EPW56980   0.442   0.429   0.727
14069WAT      O56981   0.876   0.736   0.412
14069WAT     H156982   0.824   0.708   0.348
14069WAT     H256983   0.821   0.752   0.478
14069WAT    EPW56984   0.860   0.735   0.412
14070WAT      O56985   0.382   0.542   0.227
14070WAT     H156986   0.308   0.587   0.218
14070WAT     H256987   0.366   0.489   0.294
14070WAT    EPW56988   0.368   0.540   0.235
14071WAT      O56989   0.839   0.332   0.482
14071WAT     H156990   0.786   0.270   0.452
14071WAT     H256991   0.784   0.399   0.498
14071WAT    EPW56992   0.823   0.333   0.480
14072WAT      O56993   1.094   0.376   0.371
14072WAT     H156994   1.015   0.358   0.405
14072WAT     H256995   1.085   0.355   0.286
14072WAT    EPW56996   1.081   0.370   0.363
14073WAT      O56997   1.221   1.000   0.348
14073WAT     H156998   1.261   1.000   0.271
14073WAT     H256999   1.267   0.944   0.396
14073WAT    EPW57000   1.233   0.991   0.344
14074WAT      O57001   1.154   0.369   1.128
14074WAT     H157002   1.122   0.288   1.131
14074WAT     H257003   1.240   0.357   1.131
14074WAT    EPW57004   1.162   0.355   1.129
14075WAT      O57005   1.166   0.479   0.706
14075WAT     H157006   1.241   0.443   0.682
14075WAT     H257007   1.147   0.533   0.640
14075WAT    EPW57008   1.174   0.482   0.693
14076WAT      O57009   0.338   0.379   0.451
14076WAT     H157010   0.366   0.393   0.533
14076WAT     H257011   0.295   0.304   0.457
14076WAT    EPW57012   0.336   0.370   0.464
14077WAT      O57013   0.521   0.522   1.041
14077WAT     H157014   0.600   0.523   1.005
14077WAT     H257015   0.475   0.577   0.992
14077WAT    EPW57016   0.525   0.530   1.029
14078WAT      O57017   0.848   0.797   0.902
14078WAT     H157018   0.878   0.826   0.979
14078WAT     H257019   0.893   0.845   0.844
14078WAT    EPW57020   0.859   0.809   0.904
14079WAT      O57021   0.259   1.022   1.013
14079WAT     H157022   0.280   0.984   0.937
14079WAT     H257023   0.271   0.959   1.072
14079WAT    EPW57024   0.264   1.007   1.010
14080WAT      O57025   0.318   0.631   0.852
14080WAT     H157026   0.238   0.628   0.887
14080WAT     H257027   0.326   0.713   0.825
14080WAT    EPW57028   0.307   0.642   0.853
14081WAT      O57029   0.364   0.905   0.775
14081WAT     H157030   0.439   0.883   0.815
14081WAT     H257031   0.380   0.985   0.745
14081WAT    EPW57032   0.377   0.913   0.777
14082WAT      O57033   0.419   0.352   1.259
14082WAT     H157034   0.452   0.387   1.186
14082WAT     H257035   0.371   0.416   1.293
14082WAT    EPW57036   0.417   0.366   1.253
14083WAT      O57037   0.724   1.096   0.375
14083WAT     H157038   0.706   1.181   0.368
14083WAT     H257039   0.809   1.095   0.394
14083WAT    EPW57040   0.734   1.108   0.377
14084WAT      O57041   0.289   0.916   0.491
14084WAT     H157042   0.300   0.887   0.572
14084WAT     H257043   0.364   0.893   0.451
14084WAT    EPW57044   0.302   0.908   0.497
14085WAT      O57045   0.957   0.898   1.135
14085WAT     H157046   1.037   0.864   1.125
14085WAT     H257047   0.929   0.863   1.210
14085WAT    EPW57048   0.965   0.887   1.145
14086WAT      O57049   0.679   0.797   0.597
14086WAT     H157050   0.695   0.870   0.642
14086WAT     H257051   0.625   0.823   0.535
14086WAT    EPW57052   0.674   0.811   0.595
14087WAT      O57053   0.558   1.200   0.964
14087WAT     H157054   0.509   1.173   0.897
14087WAT     H257055   0.523   1.277   0.986
14087WAT    EPW57056   0.546   1.207   0.958
14088WAT      O57057   1.123   0.629   0.476
14088WAT     H157058   1.124   0.553   0.432
14088WAT     H257059   1.046   0.664   0.457
14088WAT    EPW57060   1.112   0.623   0.467
14089WAT      O57061   0.976   0.988   0.476
14089WAT     H157062   1.050   1.006   0.434
14089WAT     H257063   0.951   0.911   0.443
14089WAT    EPW57064   0.983   0.980   0.465
14090WAT      O57065   1.127   0.587   0.960
14090WAT     H157066   1.127   0.516   1.010
14090WAT     H257067   1.139   0.555   0.880
14090WAT    EPW57068   1.129   0.572   0.955
14091WAT      O57069   0.821   0.402   1.209
14091WAT     H157070   0.892   0.438   1.247
14091WAT     H257071   0.821   0.436   1.129
14091WAT    EPW57072   0.832   0.413   1.203
   8.09217   8.04338   8.05573
